LAMMPS (28 Jun 2014)
# attempt at getting surface energy for fake nickel

#file prefix
variable prefix string block_Warner_brittle
variable dumpfile string ${prefix}.*.dump
variable dumpfile string block_Warner_brittle.*.dump
variable restartfile string ${prefix}.*.equil
variable restartfile string block_Warner_brittle.*.equil

#Mass (g/mol)
variable m equal 1

# lattice constant (in Angstroms) and orientation of axes (given by lattice vectors)
variable rho equal 0.92
variable x1 equal 1
variable x2 equal 0
variable x3 equal 0
variable y1 equal 0
variable y2 equal 1
variable y3 equal 0
# length of lattice in different directions (using orientation of lattice vectors)
variable ax equal sqrt(${x1}*${x1}+${x2}*${x2}+${x3}*${x3})
variable ax equal sqrt(1*${x1}+${x2}*${x2}+${x3}*${x3})
variable ax equal sqrt(1*1+${x2}*${x2}+${x3}*${x3})
variable ax equal sqrt(1*1+0*${x2}+${x3}*${x3})
variable ax equal sqrt(1*1+0*0+${x3}*${x3})
variable ax equal sqrt(1*1+0*0+0*${x3})
variable ax equal sqrt(1*1+0*0+0*0)
variable ay equal sqrt(${y1}*${y1}+${y2}*${y2}+${y3}*${y3})
variable ay equal sqrt(0*${y1}+${y2}*${y2}+${y3}*${y3})
variable ay equal sqrt(0*0+${y2}*${y2}+${y3}*${y3})
variable ay equal sqrt(0*0+1*${y2}+${y3}*${y3})
variable ay equal sqrt(0*0+1*1+${y3}*${y3})
variable ay equal sqrt(0*0+1*1+0*${y3})
variable ay equal sqrt(0*0+1*1+0*0)
variable az equal 1

# size of box in lattice units
variable lxpos equal 1
variable lxneg equal 0
variable lypos equal 20
variable lyneg equal -1*${lypos}
variable lyneg equal -1*20
variable lzpos equal 1
variable lzneg equal 0

# boundary conditions
dimension	2
boundary	p p p
atom_style	atomic

# create geometry
units		lj
lattice         hex ${rho}
lattice         hex 0.92
Lattice spacing in x,y,z = 1.12032 1.94045 1.12032
region		myregion block ${lxneg} ${lxpos} ${lyneg} ${lypos} ${lzneg} ${lzpos} units lattice
region		myregion block 0 ${lxpos} ${lyneg} ${lypos} ${lzneg} ${lzpos} units lattice
region		myregion block 0 1 ${lyneg} ${lypos} ${lzneg} ${lzpos} units lattice
region		myregion block 0 1 -20 ${lypos} ${lzneg} ${lzpos} units lattice
region		myregion block 0 1 -20 20 ${lzneg} ${lzpos} units lattice
region		myregion block 0 1 -20 20 0 ${lzpos} units lattice
region		myregion block 0 1 -20 20 0 1 units lattice
create_box	1 myregion
Created orthogonal box = (0 -38.8089 0) to (1.12032 38.8089 1.12032)
  1 by 1 by 1 MPI processor grid
create_atoms	1 box
Created 80 atoms

# define masses
mass * $m
mass * 1

# nickel potential
pair_style      table linear 1000
pair_coeff      * * da_potential_Warner_old brittle
neighbor	0.3 bin
neigh_modify	delay 5

# Setup output
thermo 1
thermo_style custom step temp pe lx ly lz
thermo_modify norm no

# Compute initial state by relaxing box
fix 3 all box/relax x 0.0
minimize 1.0e-10 1.0e-6 10000 20000
WARNING: Resetting reneighboring criteria during minimization (../min.cpp:168)
Memory usage per processor = 3.368 Mbytes
Step Temp PotEng Lx Ly Lz 
       0            0    -239.9824    1.1203166    77.617811    1.1203166 
       1            0   -239.98329    1.1204286    77.617811    1.1203166 
       2            0   -239.98417    1.1205407    77.617811    1.1203166 
       3            0   -239.98506    1.1206527    77.617811    1.1203166 
       4            0   -239.98595    1.1207647    77.617811    1.1203166 
       5            0   -239.98683    1.1208768    77.617811    1.1203166 
       6            0   -239.98772    1.1209888    77.617811    1.1203166 
       7            0   -239.98842    1.1211008    77.617811    1.1203166 
       8            0   -239.98875    1.1212129    77.617811    1.1203166 
       9            0   -239.98908    1.1213249    77.617811    1.1203166 
      10            0   -239.98941    1.1214369    77.617811    1.1203166 
      11            0   -239.98974    1.1215489    77.617811    1.1203166 
      12            0   -239.99007     1.121661    77.617811    1.1203166 
      13            0    -239.9904     1.121773    77.617811    1.1203166 
      14            0   -239.99073     1.121885    77.617811    1.1203166 
      15            0   -239.99105    1.1219971    77.617811    1.1203166 
      16            0   -239.99138    1.1221091    77.617811    1.1203166 
      17            0   -239.99138    1.1221091    77.617811    1.1203166 
Loop time of 0.00227209 on 1 procs for 17 steps with 80 atoms

Minimization stats:
  Stopping criterion = linesearch alpha is zero
  Energy initial, next-to-last, final = 
        -239.982398587     -239.991384272     -239.991384272
  Force two-norm initial, final = 4.32908 0.122515
  Force max component initial, final = 4.32908 0.122515
  Final line search alpha, max atom move = 7.97098e-07 9.76563e-08
  Iterations, force evaluations = 17 27

Pair  time (%) = 0.00129445 (56.9719)
Neigh time (%) = 0 (0)
Comm  time (%) = 6.2553e-05 (2.7531)
Outpt time (%) = 0.000569234 (25.0533)
Other time (%) = 0.000345852 (15.2218)

Nlocal:    80 ave 80 max 80 min
Histogram: 1 0 0 0 0 0 0 0 0 0
Nghost:    388 ave 388 max 388 min
Histogram: 1 0 0 0 0 0 0 0 0 0
Neighs:    720 ave 720 max 720 min
Histogram: 1 0 0 0 0 0 0 0 0 0

Total # of neighbors = 720
Ave neighs/atom = 9
Neighbor list builds = 0
Dangerous builds = 0
unfix 3

# GSF energy curve will have 500*2 steps
variable nsteps equal 500
variable sstep1 equal 1.0
variable ystep1 equal ${sstep1}/(2*${ay}*${nsteps})
variable ystep1 equal 1/(2*${ay}*${nsteps})
variable ystep1 equal 1/(2*1*${nsteps})
variable ystep1 equal 1/(2*1*500)
variable ystep1neg equal -1.0*${ystep1}
variable ystep1neg equal -1.0*0.001

variable i loop ${nsteps}
variable i loop 500
label loop1
        change_box all y delta ${ystep1neg} ${ystep1} units lattice
        change_box all y delta -0.001 ${ystep1} units lattice
        change_box all y delta -0.001 0.001 units lattice
  orthogonal box = (-0.000896253 -38.8108 0) to (1.12121 38.8108 1.12032)
	run 0
WARNING: No fixes defined, atoms won't move (../verlet.cpp:55)
Memory usage per processor = 2.243 Mbytes
Step Temp PotEng Lx Ly Lz 
      17            0   -239.99138    1.1221091    77.621692    1.1203166 
Loop time of -1.04192e-07 on 1 procs for 0 steps with 80 atoms

Pair  time (%) = 0 (-0)
Neigh time (%) = 0 (-0)
Comm  time (%) = 0 (-0)
Outpt time (%) = 0 (-0)
Other time (%) = -1.04192e-07 (100)

Nlocal:    80 ave 80 max 80 min
Histogram: 1 0 0 0 0 0 0 0 0 0
Nghost:    388 ave 388 max 388 min
Histogram: 1 0 0 0 0 0 0 0 0 0
Neighs:    720 ave 720 max 720 min
Histogram: 1 0 0 0 0 0 0 0 0 0

Total # of neighbors = 720
Ave neighs/atom = 9
Neighbor list builds = 0
Dangerous builds = 0
        next i
jump SELF loop1
        change_box all y delta ${ystep1neg} ${ystep1} units lattice
        change_box all y delta -0.001 ${ystep1} units lattice
        change_box all y delta -0.001 0.001 units lattice
  orthogonal box = (-0.000896253 -38.8128 0) to (1.12121 38.8128 1.12032)
	run 0
WARNING: No fixes defined, atoms won't move (../verlet.cpp:55)
Memory usage per processor = 2.243 Mbytes
Step Temp PotEng Lx Ly Lz 
      17            0   -239.99083    1.1221091    77.625573    1.1203166 
Loop time of -2.29338e-08 on 1 procs for 0 steps with 80 atoms

Pair  time (%) = 0 (-0)
Neigh time (%) = 0 (-0)
Comm  time (%) = 0 (-0)
Outpt time (%) = 0 (-0)
Other time (%) = -2.29338e-08 (100)

Nlocal:    80 ave 80 max 80 min
Histogram: 1 0 0 0 0 0 0 0 0 0
Nghost:    388 ave 388 max 388 min
Histogram: 1 0 0 0 0 0 0 0 0 0
Neighs:    720 ave 720 max 720 min
Histogram: 1 0 0 0 0 0 0 0 0 0

Total # of neighbors = 720
Ave neighs/atom = 9
Neighbor list builds = 0
Dangerous builds = 0
        next i
jump SELF loop1
        change_box all y delta ${ystep1neg} ${ystep1} units lattice
        change_box all y delta -0.001 ${ystep1} units lattice
        change_box all y delta -0.001 0.001 units lattice
  orthogonal box = (-0.000896253 -38.8147 0) to (1.12121 38.8147 1.12032)
	run 0
WARNING: No fixes defined, atoms won't move (../verlet.cpp:55)
Memory usage per processor = 2.243 Mbytes
Step Temp PotEng Lx Ly Lz 
      17            0   -239.98979    1.1221091    77.629453    1.1203166 
Loop time of 1.10676e-06 on 1 procs for 0 steps with 80 atoms

Pair  time (%) = 0 (0)
Neigh time (%) = 0 (0)
Comm  time (%) = 0 (0)
Outpt time (%) = 0 (0)
Other time (%) = 1.10676e-06 (100)

Nlocal:    80 ave 80 max 80 min
Histogram: 1 0 0 0 0 0 0 0 0 0
Nghost:    388 ave 388 max 388 min
Histogram: 1 0 0 0 0 0 0 0 0 0
Neighs:    720 ave 720 max 720 min
Histogram: 1 0 0 0 0 0 0 0 0 0

Total # of neighbors = 720
Ave neighs/atom = 9
Neighbor list builds = 0
Dangerous builds = 0
        next i
jump SELF loop1
        change_box all y delta ${ystep1neg} ${ystep1} units lattice
        change_box all y delta -0.001 ${ystep1} units lattice
        change_box all y delta -0.001 0.001 units lattice
  orthogonal box = (-0.000896253 -38.8167 0) to (1.12121 38.8167 1.12032)
	run 0
WARNING: No fixes defined, atoms won't move (../verlet.cpp:55)
Memory usage per processor = 2.243 Mbytes
Step Temp PotEng Lx Ly Lz 
      17            0   -239.98819    1.1221091    77.633334    1.1203166 
Loop time of 9.53325e-07 on 1 procs for 0 steps with 80 atoms

Pair  time (%) = 0 (0)
Neigh time (%) = 0 (0)
Comm  time (%) = 0 (0)
Outpt time (%) = 0 (0)
Other time (%) = 9.53325e-07 (100)

Nlocal:    80 ave 80 max 80 min
Histogram: 1 0 0 0 0 0 0 0 0 0
Nghost:    388 ave 388 max 388 min
Histogram: 1 0 0 0 0 0 0 0 0 0
Neighs:    720 ave 720 max 720 min
Histogram: 1 0 0 0 0 0 0 0 0 0

Total # of neighbors = 720
Ave neighs/atom = 9
Neighbor list builds = 0
Dangerous builds = 0
        next i
jump SELF loop1
        change_box all y delta ${ystep1neg} ${ystep1} units lattice
        change_box all y delta -0.001 ${ystep1} units lattice
        change_box all y delta -0.001 0.001 units lattice
  orthogonal box = (-0.000896253 -38.8186 0) to (1.12121 38.8186 1.12032)
	run 0
WARNING: No fixes defined, atoms won't move (../verlet.cpp:55)
Memory usage per processor = 2.243 Mbytes
Step Temp PotEng Lx Ly Lz 
      17            0   -239.98611    1.1221091    77.637215    1.1203166 
Loop time of 9.83826e-07 on 1 procs for 0 steps with 80 atoms

Pair  time (%) = 0 (0)
Neigh time (%) = 0 (0)
Comm  time (%) = 0 (0)
Outpt time (%) = 0 (0)
Other time (%) = 9.83826e-07 (100)

Nlocal:    80 ave 80 max 80 min
Histogram: 1 0 0 0 0 0 0 0 0 0
Nghost:    388 ave 388 max 388 min
Histogram: 1 0 0 0 0 0 0 0 0 0
Neighs:    720 ave 720 max 720 min
Histogram: 1 0 0 0 0 0 0 0 0 0

Total # of neighbors = 720
Ave neighs/atom = 9
Neighbor list builds = 0
Dangerous builds = 0
        next i
jump SELF loop1
        change_box all y delta ${ystep1neg} ${ystep1} units lattice
        change_box all y delta -0.001 ${ystep1} units lattice
        change_box all y delta -0.001 0.001 units lattice
  orthogonal box = (-0.000896253 -38.8205 0) to (1.12121 38.8205 1.12032)
	run 0
WARNING: No fixes defined, atoms won't move (../verlet.cpp:55)
Memory usage per processor = 2.243 Mbytes
Step Temp PotEng Lx Ly Lz 
      17            0   -239.98359    1.1221091    77.641096    1.1203166 
Loop time of -1.09663e-07 on 1 procs for 0 steps with 80 atoms

Pair  time (%) = 0 (-0)
Neigh time (%) = 0 (-0)
Comm  time (%) = 0 (-0)
Outpt time (%) = 0 (-0)
Other time (%) = -1.09663e-07 (100)

Nlocal:    80 ave 80 max 80 min
Histogram: 1 0 0 0 0 0 0 0 0 0
Nghost:    388 ave 388 max 388 min
Histogram: 1 0 0 0 0 0 0 0 0 0
Neighs:    720 ave 720 max 720 min
Histogram: 1 0 0 0 0 0 0 0 0 0

Total # of neighbors = 720
Ave neighs/atom = 9
Neighbor list builds = 0
Dangerous builds = 0
        next i
jump SELF loop1
        change_box all y delta ${ystep1neg} ${ystep1} units lattice
        change_box all y delta -0.001 ${ystep1} units lattice
        change_box all y delta -0.001 0.001 units lattice
  orthogonal box = (-0.000896253 -38.8225 0) to (1.12121 38.8225 1.12032)
	run 0
WARNING: No fixes defined, atoms won't move (../verlet.cpp:55)
Memory usage per processor = 2.243 Mbytes
Step Temp PotEng Lx Ly Lz 
      17            0   -239.98055    1.1221091    77.644977    1.1203166 
Loop time of 1.0056e-06 on 1 procs for 0 steps with 80 atoms

Pair  time (%) = 0 (0)
Neigh time (%) = 0 (0)
Comm  time (%) = 0 (0)
Outpt time (%) = 0 (0)
Other time (%) = 1.0056e-06 (100)

Nlocal:    80 ave 80 max 80 min
Histogram: 1 0 0 0 0 0 0 0 0 0
Nghost:    388 ave 388 max 388 min
Histogram: 1 0 0 0 0 0 0 0 0 0
Neighs:    720 ave 720 max 720 min
Histogram: 1 0 0 0 0 0 0 0 0 0

Total # of neighbors = 720
Ave neighs/atom = 9
Neighbor list builds = 0
Dangerous builds = 0
        next i
jump SELF loop1
        change_box all y delta ${ystep1neg} ${ystep1} units lattice
        change_box all y delta -0.001 ${ystep1} units lattice
        change_box all y delta -0.001 0.001 units lattice
  orthogonal box = (-0.000896253 -38.8244 0) to (1.12121 38.8244 1.12032)
	run 0
WARNING: No fixes defined, atoms won't move (../verlet.cpp:55)
Memory usage per processor = 2.243 Mbytes
Step Temp PotEng Lx Ly Lz 
      17            0   -239.97711    1.1221091    77.648858    1.1203166 
Loop time of 1.03121e-06 on 1 procs for 0 steps with 80 atoms

Pair  time (%) = 0 (0)
Neigh time (%) = 0 (0)
Comm  time (%) = 0 (0)
Outpt time (%) = 0 (0)
Other time (%) = 1.03121e-06 (100)

Nlocal:    80 ave 80 max 80 min
Histogram: 1 0 0 0 0 0 0 0 0 0
Nghost:    388 ave 388 max 388 min
Histogram: 1 0 0 0 0 0 0 0 0 0
Neighs:    720 ave 720 max 720 min
Histogram: 1 0 0 0 0 0 0 0 0 0

Total # of neighbors = 720
Ave neighs/atom = 9
Neighbor list builds = 0
Dangerous builds = 0
        next i
jump SELF loop1
        change_box all y delta ${ystep1neg} ${ystep1} units lattice
        change_box all y delta -0.001 ${ystep1} units lattice
        change_box all y delta -0.001 0.001 units lattice
  orthogonal box = (-0.000896253 -38.8264 0) to (1.12121 38.8264 1.12032)
	run 0
WARNING: No fixes defined, atoms won't move (../verlet.cpp:55)
Memory usage per processor = 2.243 Mbytes
Step Temp PotEng Lx Ly Lz 
      17            0   -239.97322    1.1221091    77.652739    1.1203166 
Loop time of 2.53785e-08 on 1 procs for 0 steps with 80 atoms

Pair  time (%) = 0 (0)
Neigh time (%) = 0 (0)
Comm  time (%) = 0 (0)
Outpt time (%) = 0 (0)
Other time (%) = 2.53785e-08 (100)

Nlocal:    80 ave 80 max 80 min
Histogram: 1 0 0 0 0 0 0 0 0 0
Nghost:    388 ave 388 max 388 min
Histogram: 1 0 0 0 0 0 0 0 0 0
Neighs:    720 ave 720 max 720 min
Histogram: 1 0 0 0 0 0 0 0 0 0

Total # of neighbors = 720
Ave neighs/atom = 9
Neighbor list builds = 0
Dangerous builds = 0
        next i
jump SELF loop1
        change_box all y delta ${ystep1neg} ${ystep1} units lattice
        change_box all y delta -0.001 ${ystep1} units lattice
        change_box all y delta -0.001 0.001 units lattice
  orthogonal box = (-0.000896253 -38.8283 0) to (1.12121 38.8283 1.12032)
	run 0
WARNING: No fixes defined, atoms won't move (../verlet.cpp:55)
Memory usage per processor = 2.243 Mbytes
Step Temp PotEng Lx Ly Lz 
      17            0   -239.96891    1.1221091     77.65662    1.1203166 
Loop time of 9.00938e-07 on 1 procs for 0 steps with 80 atoms

Pair  time (%) = 0 (0)
Neigh time (%) = 0 (0)
Comm  time (%) = 0 (0)
Outpt time (%) = 0 (0)
Other time (%) = 9.00938e-07 (100)

Nlocal:    80 ave 80 max 80 min
Histogram: 1 0 0 0 0 0 0 0 0 0
Nghost:    388 ave 388 max 388 min
Histogram: 1 0 0 0 0 0 0 0 0 0
Neighs:    720 ave 720 max 720 min
Histogram: 1 0 0 0 0 0 0 0 0 0

Total # of neighbors = 720
Ave neighs/atom = 9
Neighbor list builds = 0
Dangerous builds = 0
        next i
jump SELF loop1
        change_box all y delta ${ystep1neg} ${ystep1} units lattice
        change_box all y delta -0.001 ${ystep1} units lattice
        change_box all y delta -0.001 0.001 units lattice
  orthogonal box = (-0.000896253 -38.8303 0) to (1.12121 38.8303 1.12032)
	run 0
WARNING: No fixes defined, atoms won't move (../verlet.cpp:55)
Memory usage per processor = 2.243 Mbytes
Step Temp PotEng Lx Ly Lz 
      17            0   -239.96423    1.1221091    77.660501    1.1203166 
Loop time of -1.17812e-07 on 1 procs for 0 steps with 80 atoms

Pair  time (%) = 0 (-0)
Neigh time (%) = 0 (-0)
Comm  time (%) = 0 (-0)
Outpt time (%) = 0 (-0)
Other time (%) = -1.17812e-07 (100)

Nlocal:    80 ave 80 max 80 min
Histogram: 1 0 0 0 0 0 0 0 0 0
Nghost:    388 ave 388 max 388 min
Histogram: 1 0 0 0 0 0 0 0 0 0
Neighs:    720 ave 720 max 720 min
Histogram: 1 0 0 0 0 0 0 0 0 0

Total # of neighbors = 720
Ave neighs/atom = 9
Neighbor list builds = 0
Dangerous builds = 0
        next i
jump SELF loop1
        change_box all y delta ${ystep1neg} ${ystep1} units lattice
        change_box all y delta -0.001 ${ystep1} units lattice
        change_box all y delta -0.001 0.001 units lattice
  orthogonal box = (-0.000896253 -38.8322 0) to (1.12121 38.8322 1.12032)
	run 0
WARNING: No fixes defined, atoms won't move (../verlet.cpp:55)
Memory usage per processor = 2.243 Mbytes
Step Temp PotEng Lx Ly Lz 
      17            0   -239.95912    1.1221091    77.664381    1.1203166 
Loop time of 9.36212e-07 on 1 procs for 0 steps with 80 atoms

Pair  time (%) = 0 (0)
Neigh time (%) = 0 (0)
Comm  time (%) = 0 (0)
Outpt time (%) = 0 (0)
Other time (%) = 9.36212e-07 (100)

Nlocal:    80 ave 80 max 80 min
Histogram: 1 0 0 0 0 0 0 0 0 0
Nghost:    388 ave 388 max 388 min
Histogram: 1 0 0 0 0 0 0 0 0 0
Neighs:    720 ave 720 max 720 min
Histogram: 1 0 0 0 0 0 0 0 0 0

Total # of neighbors = 720
Ave neighs/atom = 9
Neighbor list builds = 0
Dangerous builds = 0
        next i
jump SELF loop1
        change_box all y delta ${ystep1neg} ${ystep1} units lattice
        change_box all y delta -0.001 ${ystep1} units lattice
        change_box all y delta -0.001 0.001 units lattice
  orthogonal box = (-0.000896253 -38.8341 0) to (1.12121 38.8341 1.12032)
	run 0
WARNING: No fixes defined, atoms won't move (../verlet.cpp:55)
Memory usage per processor = 2.243 Mbytes
Step Temp PotEng Lx Ly Lz 
      17            0   -239.95366    1.1221091    77.668262    1.1203166 
Loop time of 9.36096e-07 on 1 procs for 0 steps with 80 atoms

Pair  time (%) = 0 (0)
Neigh time (%) = 0 (0)
Comm  time (%) = 0 (0)
Outpt time (%) = 0 (0)
Other time (%) = 9.36096e-07 (100)

Nlocal:    80 ave 80 max 80 min
Histogram: 1 0 0 0 0 0 0 0 0 0
Nghost:    388 ave 388 max 388 min
Histogram: 1 0 0 0 0 0 0 0 0 0
Neighs:    720 ave 720 max 720 min
Histogram: 1 0 0 0 0 0 0 0 0 0

Total # of neighbors = 720
Ave neighs/atom = 9
Neighbor list builds = 0
Dangerous builds = 0
        next i
jump SELF loop1
        change_box all y delta ${ystep1neg} ${ystep1} units lattice
        change_box all y delta -0.001 ${ystep1} units lattice
        change_box all y delta -0.001 0.001 units lattice
  orthogonal box = (-0.000896253 -38.8361 0) to (1.12121 38.8361 1.12032)
	run 0
WARNING: No fixes defined, atoms won't move (../verlet.cpp:55)
Memory usage per processor = 2.243 Mbytes
Step Temp PotEng Lx Ly Lz 
      17            0   -239.94784    1.1221091    77.672143    1.1203166 
Loop time of 9.33651e-08 on 1 procs for 0 steps with 80 atoms

Pair  time (%) = 0 (0)
Neigh time (%) = 0 (0)
Comm  time (%) = 0 (0)
Outpt time (%) = 0 (0)
Other time (%) = 9.33651e-08 (100)

Nlocal:    80 ave 80 max 80 min
Histogram: 1 0 0 0 0 0 0 0 0 0
Nghost:    388 ave 388 max 388 min
Histogram: 1 0 0 0 0 0 0 0 0 0
Neighs:    720 ave 720 max 720 min
Histogram: 1 0 0 0 0 0 0 0 0 0

Total # of neighbors = 720
Ave neighs/atom = 9
Neighbor list builds = 0
Dangerous builds = 0
        next i
jump SELF loop1
        change_box all y delta ${ystep1neg} ${ystep1} units lattice
        change_box all y delta -0.001 ${ystep1} units lattice
        change_box all y delta -0.001 0.001 units lattice
  orthogonal box = (-0.000896253 -38.838 0) to (1.12121 38.838 1.12032)
	run 0
WARNING: No fixes defined, atoms won't move (../verlet.cpp:55)
Memory usage per processor = 2.243 Mbytes
Step Temp PotEng Lx Ly Lz 
      17            0   -239.94167    1.1221091    77.676024    1.1203166 
Loop time of -4.64497e-08 on 1 procs for 0 steps with 80 atoms

Pair  time (%) = 0 (-0)
Neigh time (%) = 0 (-0)
Comm  time (%) = 0 (-0)
Outpt time (%) = 0 (-0)
Other time (%) = -4.64497e-08 (100)

Nlocal:    80 ave 80 max 80 min
Histogram: 1 0 0 0 0 0 0 0 0 0
Nghost:    388 ave 388 max 388 min
Histogram: 1 0 0 0 0 0 0 0 0 0
Neighs:    720 ave 720 max 720 min
Histogram: 1 0 0 0 0 0 0 0 0 0

Total # of neighbors = 720
Ave neighs/atom = 9
Neighbor list builds = 0
Dangerous builds = 0
        next i
jump SELF loop1
        change_box all y delta ${ystep1neg} ${ystep1} units lattice
        change_box all y delta -0.001 ${ystep1} units lattice
        change_box all y delta -0.001 0.001 units lattice
  orthogonal box = (-0.000896253 -38.84 0) to (1.12121 38.84 1.12032)
	run 0
WARNING: No fixes defined, atoms won't move (../verlet.cpp:55)
Memory usage per processor = 2.243 Mbytes
Step Temp PotEng Lx Ly Lz 
      17            0   -239.93518    1.1221091    77.679905    1.1203166 
Loop time of 7.12462e-08 on 1 procs for 0 steps with 80 atoms

Pair  time (%) = 0 (0)
Neigh time (%) = 0 (0)
Comm  time (%) = 0 (0)
Outpt time (%) = 0 (0)
Other time (%) = 7.12462e-08 (100)

Nlocal:    80 ave 80 max 80 min
Histogram: 1 0 0 0 0 0 0 0 0 0
Nghost:    388 ave 388 max 388 min
Histogram: 1 0 0 0 0 0 0 0 0 0
Neighs:    720 ave 720 max 720 min
Histogram: 1 0 0 0 0 0 0 0 0 0

Total # of neighbors = 720
Ave neighs/atom = 9
Neighbor list builds = 0
Dangerous builds = 0
        next i
jump SELF loop1
        change_box all y delta ${ystep1neg} ${ystep1} units lattice
        change_box all y delta -0.001 ${ystep1} units lattice
        change_box all y delta -0.001 0.001 units lattice
  orthogonal box = (-0.000896253 -38.8419 0) to (1.12121 38.8419 1.12032)
	run 0
WARNING: No fixes defined, atoms won't move (../verlet.cpp:55)
Memory usage per processor = 2.243 Mbytes
Step Temp PotEng Lx Ly Lz 
      17            0   -239.92834    1.1221091    77.683786    1.1203166 
Loop time of -8.41683e-08 on 1 procs for 0 steps with 80 atoms

Pair  time (%) = 0 (-0)
Neigh time (%) = 0 (-0)
Comm  time (%) = 0 (-0)
Outpt time (%) = 0 (-0)
Other time (%) = -8.41683e-08 (100)

Nlocal:    80 ave 80 max 80 min
Histogram: 1 0 0 0 0 0 0 0 0 0
Nghost:    388 ave 388 max 388 min
Histogram: 1 0 0 0 0 0 0 0 0 0
Neighs:    720 ave 720 max 720 min
Histogram: 1 0 0 0 0 0 0 0 0 0

Total # of neighbors = 720
Ave neighs/atom = 9
Neighbor list builds = 0
Dangerous builds = 0
        next i
jump SELF loop1
        change_box all y delta ${ystep1neg} ${ystep1} units lattice
        change_box all y delta -0.001 ${ystep1} units lattice
        change_box all y delta -0.001 0.001 units lattice
  orthogonal box = (-0.000896253 -38.8438 0) to (1.12121 38.8438 1.12032)
	run 0
WARNING: No fixes defined, atoms won't move (../verlet.cpp:55)
Memory usage per processor = 2.243 Mbytes
Step Temp PotEng Lx Ly Lz 
      17            0   -239.92122    1.1221091    77.687667    1.1203166 
Loop time of 1.01561e-06 on 1 procs for 0 steps with 80 atoms

Pair  time (%) = 0 (0)
Neigh time (%) = 0 (0)
Comm  time (%) = 0 (0)
Outpt time (%) = 0 (0)
Other time (%) = 1.01561e-06 (100)

Nlocal:    80 ave 80 max 80 min
Histogram: 1 0 0 0 0 0 0 0 0 0
Nghost:    388 ave 388 max 388 min
Histogram: 1 0 0 0 0 0 0 0 0 0
Neighs:    720 ave 720 max 720 min
Histogram: 1 0 0 0 0 0 0 0 0 0

Total # of neighbors = 720
Ave neighs/atom = 9
Neighbor list builds = 0
Dangerous builds = 0
        next i
jump SELF loop1
        change_box all y delta ${ystep1neg} ${ystep1} units lattice
        change_box all y delta -0.001 ${ystep1} units lattice
        change_box all y delta -0.001 0.001 units lattice
  orthogonal box = (-0.000896253 -38.8458 0) to (1.12121 38.8458 1.12032)
	run 0
WARNING: No fixes defined, atoms won't move (../verlet.cpp:55)
Memory usage per processor = 2.243 Mbytes
Step Temp PotEng Lx Ly Lz 
      17            0   -239.91379    1.1221091    77.691548    1.1203166 
Loop time of 3.07127e-06 on 1 procs for 0 steps with 80 atoms

Pair  time (%) = 0 (0)
Neigh time (%) = 0 (0)
Comm  time (%) = 0 (0)
Outpt time (%) = 0 (0)
Other time (%) = 3.07127e-06 (100)

Nlocal:    80 ave 80 max 80 min
Histogram: 1 0 0 0 0 0 0 0 0 0
Nghost:    388 ave 388 max 388 min
Histogram: 1 0 0 0 0 0 0 0 0 0
Neighs:    720 ave 720 max 720 min
Histogram: 1 0 0 0 0 0 0 0 0 0

Total # of neighbors = 720
Ave neighs/atom = 9
Neighbor list builds = 0
Dangerous builds = 0
        next i
jump SELF loop1
        change_box all y delta ${ystep1neg} ${ystep1} units lattice
        change_box all y delta -0.001 ${ystep1} units lattice
        change_box all y delta -0.001 0.001 units lattice
  orthogonal box = (-0.000896253 -38.8477 0) to (1.12121 38.8477 1.12032)
	run 0
WARNING: No fixes defined, atoms won't move (../verlet.cpp:55)
Memory usage per processor = 2.243 Mbytes
Step Temp PotEng Lx Ly Lz 
      17            0   -239.90608    1.1221091    77.695429    1.1203166 
Loop time of 8.81497e-07 on 1 procs for 0 steps with 80 atoms

Pair  time (%) = 0 (0)
Neigh time (%) = 0 (0)
Comm  time (%) = 0 (0)
Outpt time (%) = 0 (0)
Other time (%) = 8.81497e-07 (100)

Nlocal:    80 ave 80 max 80 min
Histogram: 1 0 0 0 0 0 0 0 0 0
Nghost:    388 ave 388 max 388 min
Histogram: 1 0 0 0 0 0 0 0 0 0
Neighs:    720 ave 720 max 720 min
Histogram: 1 0 0 0 0 0 0 0 0 0

Total # of neighbors = 720
Ave neighs/atom = 9
Neighbor list builds = 0
Dangerous builds = 0
        next i
jump SELF loop1
        change_box all y delta ${ystep1neg} ${ystep1} units lattice
        change_box all y delta -0.001 ${ystep1} units lattice
        change_box all y delta -0.001 0.001 units lattice
  orthogonal box = (-0.000896253 -38.8497 0) to (1.12121 38.8497 1.12032)
	run 0
WARNING: No fixes defined, atoms won't move (../verlet.cpp:55)
Memory usage per processor = 2.243 Mbytes
Step Temp PotEng Lx Ly Lz 
      17            0   -239.89809    1.1221091    77.699309    1.1203166 
Loop time of 1.19093e-07 on 1 procs for 0 steps with 80 atoms

Pair  time (%) = 0 (0)
Neigh time (%) = 0 (0)
Comm  time (%) = 0 (0)
Outpt time (%) = 0 (0)
Other time (%) = 1.19093e-07 (100)

Nlocal:    80 ave 80 max 80 min
Histogram: 1 0 0 0 0 0 0 0 0 0
Nghost:    388 ave 388 max 388 min
Histogram: 1 0 0 0 0 0 0 0 0 0
Neighs:    720 ave 720 max 720 min
Histogram: 1 0 0 0 0 0 0 0 0 0

Total # of neighbors = 720
Ave neighs/atom = 9
Neighbor list builds = 0
Dangerous builds = 0
        next i
jump SELF loop1
        change_box all y delta ${ystep1neg} ${ystep1} units lattice
        change_box all y delta -0.001 ${ystep1} units lattice
        change_box all y delta -0.001 0.001 units lattice
  orthogonal box = (-0.000896253 -38.8516 0) to (1.12121 38.8516 1.12032)
	run 0
WARNING: No fixes defined, atoms won't move (../verlet.cpp:55)
Memory usage per processor = 2.243 Mbytes
Step Temp PotEng Lx Ly Lz 
      17            0   -239.88984    1.1221091     77.70319    1.1203166 
Loop time of -2.56114e-08 on 1 procs for 0 steps with 80 atoms

Pair  time (%) = 0 (-0)
Neigh time (%) = 0 (-0)
Comm  time (%) = 0 (-0)
Outpt time (%) = 0 (-0)
Other time (%) = -2.56114e-08 (100)

Nlocal:    80 ave 80 max 80 min
Histogram: 1 0 0 0 0 0 0 0 0 0
Nghost:    388 ave 388 max 388 min
Histogram: 1 0 0 0 0 0 0 0 0 0
Neighs:    720 ave 720 max 720 min
Histogram: 1 0 0 0 0 0 0 0 0 0

Total # of neighbors = 720
Ave neighs/atom = 9
Neighbor list builds = 0
Dangerous builds = 0
        next i
jump SELF loop1
        change_box all y delta ${ystep1neg} ${ystep1} units lattice
        change_box all y delta -0.001 ${ystep1} units lattice
        change_box all y delta -0.001 0.001 units lattice
  orthogonal box = (-0.000896253 -38.8535 0) to (1.12121 38.8535 1.12032)
	run 0
WARNING: No fixes defined, atoms won't move (../verlet.cpp:55)
Memory usage per processor = 2.243 Mbytes
Step Temp PotEng Lx Ly Lz 
      17            0   -239.88134    1.1221091    77.707071    1.1203166 
Loop time of -2.65427e-08 on 1 procs for 0 steps with 80 atoms

Pair  time (%) = 0 (-0)
Neigh time (%) = 0 (-0)
Comm  time (%) = 0 (-0)
Outpt time (%) = 0 (-0)
Other time (%) = -2.65427e-08 (100)

Nlocal:    80 ave 80 max 80 min
Histogram: 1 0 0 0 0 0 0 0 0 0
Nghost:    388 ave 388 max 388 min
Histogram: 1 0 0 0 0 0 0 0 0 0
Neighs:    720 ave 720 max 720 min
Histogram: 1 0 0 0 0 0 0 0 0 0

Total # of neighbors = 720
Ave neighs/atom = 9
Neighbor list builds = 0
Dangerous builds = 0
        next i
jump SELF loop1
        change_box all y delta ${ystep1neg} ${ystep1} units lattice
        change_box all y delta -0.001 ${ystep1} units lattice
        change_box all y delta -0.001 0.001 units lattice
  orthogonal box = (-0.000896253 -38.8555 0) to (1.12121 38.8555 1.12032)
	run 0
WARNING: No fixes defined, atoms won't move (../verlet.cpp:55)
Memory usage per processor = 2.243 Mbytes
Step Temp PotEng Lx Ly Lz 
      17            0    -239.8726    1.1221091    77.710952    1.1203166 
Loop time of -4.77303e-08 on 1 procs for 0 steps with 80 atoms

Pair  time (%) = 0 (-0)
Neigh time (%) = 0 (-0)
Comm  time (%) = 0 (-0)
Outpt time (%) = 0 (-0)
Other time (%) = -4.77303e-08 (100)

Nlocal:    80 ave 80 max 80 min
Histogram: 1 0 0 0 0 0 0 0 0 0
Nghost:    388 ave 388 max 388 min
Histogram: 1 0 0 0 0 0 0 0 0 0
Neighs:    720 ave 720 max 720 min
Histogram: 1 0 0 0 0 0 0 0 0 0

Total # of neighbors = 720
Ave neighs/atom = 9
Neighbor list builds = 0
Dangerous builds = 0
        next i
jump SELF loop1
        change_box all y delta ${ystep1neg} ${ystep1} units lattice
        change_box all y delta -0.001 ${ystep1} units lattice
        change_box all y delta -0.001 0.001 units lattice
  orthogonal box = (-0.000896253 -38.8574 0) to (1.12121 38.8574 1.12032)
	run 0
WARNING: No fixes defined, atoms won't move (../verlet.cpp:55)
Memory usage per processor = 2.243 Mbytes
Step Temp PotEng Lx Ly Lz 
      17            0   -239.86363    1.1221091    77.714833    1.1203166 
Loop time of -5.50644e-08 on 1 procs for 0 steps with 80 atoms

Pair  time (%) = 0 (-0)
Neigh time (%) = 0 (-0)
Comm  time (%) = 0 (-0)
Outpt time (%) = 0 (-0)
Other time (%) = -5.50644e-08 (100)

Nlocal:    80 ave 80 max 80 min
Histogram: 1 0 0 0 0 0 0 0 0 0
Nghost:    388 ave 388 max 388 min
Histogram: 1 0 0 0 0 0 0 0 0 0
Neighs:    720 ave 720 max 720 min
Histogram: 1 0 0 0 0 0 0 0 0 0

Total # of neighbors = 720
Ave neighs/atom = 9
Neighbor list builds = 0
Dangerous builds = 0
        next i
jump SELF loop1
        change_box all y delta ${ystep1neg} ${ystep1} units lattice
        change_box all y delta -0.001 ${ystep1} units lattice
        change_box all y delta -0.001 0.001 units lattice
  orthogonal box = (-0.000896253 -38.8594 0) to (1.12121 38.8594 1.12032)
	run 0
WARNING: No fixes defined, atoms won't move (../verlet.cpp:55)
Memory usage per processor = 2.243 Mbytes
Step Temp PotEng Lx Ly Lz 
      17            0   -239.85443    1.1221091    77.718714    1.1203166 
Loop time of 8.23056e-08 on 1 procs for 0 steps with 80 atoms

Pair  time (%) = 0 (0)
Neigh time (%) = 0 (0)
Comm  time (%) = 0 (0)
Outpt time (%) = 0 (0)
Other time (%) = 8.23056e-08 (100)

Nlocal:    80 ave 80 max 80 min
Histogram: 1 0 0 0 0 0 0 0 0 0
Nghost:    388 ave 388 max 388 min
Histogram: 1 0 0 0 0 0 0 0 0 0
Neighs:    720 ave 720 max 720 min
Histogram: 1 0 0 0 0 0 0 0 0 0

Total # of neighbors = 720
Ave neighs/atom = 9
Neighbor list builds = 0
Dangerous builds = 0
        next i
jump SELF loop1
        change_box all y delta ${ystep1neg} ${ystep1} units lattice
        change_box all y delta -0.001 ${ystep1} units lattice
        change_box all y delta -0.001 0.001 units lattice
  orthogonal box = (-0.000896253 -38.8613 0) to (1.12121 38.8613 1.12032)
	run 0
WARNING: No fixes defined, atoms won't move (../verlet.cpp:55)
Memory usage per processor = 2.243 Mbytes
Step Temp PotEng Lx Ly Lz 
      17            0   -239.84503    1.1221091    77.722595    1.1203166 
Loop time of 5.28526e-08 on 1 procs for 0 steps with 80 atoms

Pair  time (%) = 0 (0)
Neigh time (%) = 0 (0)
Comm  time (%) = 0 (0)
Outpt time (%) = 0 (0)
Other time (%) = 5.28526e-08 (100)

Nlocal:    80 ave 80 max 80 min
Histogram: 1 0 0 0 0 0 0 0 0 0
Nghost:    388 ave 388 max 388 min
Histogram: 1 0 0 0 0 0 0 0 0 0
Neighs:    720 ave 720 max 720 min
Histogram: 1 0 0 0 0 0 0 0 0 0

Total # of neighbors = 720
Ave neighs/atom = 9
Neighbor list builds = 0
Dangerous builds = 0
        next i
jump SELF loop1
        change_box all y delta ${ystep1neg} ${ystep1} units lattice
        change_box all y delta -0.001 ${ystep1} units lattice
        change_box all y delta -0.001 0.001 units lattice
  orthogonal box = (-0.000896253 -38.8632 0) to (1.12121 38.8632 1.12032)
	run 0
WARNING: No fixes defined, atoms won't move (../verlet.cpp:55)
Memory usage per processor = 2.243 Mbytes
Step Temp PotEng Lx Ly Lz 
      17            0   -239.83542    1.1221091    77.726476    1.1203166 
Loop time of 4.94765e-08 on 1 procs for 0 steps with 80 atoms

Pair  time (%) = 0 (0)
Neigh time (%) = 0 (0)
Comm  time (%) = 0 (0)
Outpt time (%) = 0 (0)
Other time (%) = 4.94765e-08 (100)

Nlocal:    80 ave 80 max 80 min
Histogram: 1 0 0 0 0 0 0 0 0 0
Nghost:    388 ave 388 max 388 min
Histogram: 1 0 0 0 0 0 0 0 0 0
Neighs:    720 ave 720 max 720 min
Histogram: 1 0 0 0 0 0 0 0 0 0

Total # of neighbors = 720
Ave neighs/atom = 9
Neighbor list builds = 0
Dangerous builds = 0
        next i
jump SELF loop1
        change_box all y delta ${ystep1neg} ${ystep1} units lattice
        change_box all y delta -0.001 ${ystep1} units lattice
        change_box all y delta -0.001 0.001 units lattice
  orthogonal box = (-0.000896253 -38.8652 0) to (1.12121 38.8652 1.12032)
	run 0
WARNING: No fixes defined, atoms won't move (../verlet.cpp:55)
Memory usage per processor = 2.243 Mbytes
Step Temp PotEng Lx Ly Lz 
      17            0   -239.82563    1.1221091    77.730357    1.1203166 
Loop time of 9.3563e-07 on 1 procs for 0 steps with 80 atoms

Pair  time (%) = 0 (0)
Neigh time (%) = 0 (0)
Comm  time (%) = 0 (0)
Outpt time (%) = 0 (0)
Other time (%) = 9.3563e-07 (100)

Nlocal:    80 ave 80 max 80 min
Histogram: 1 0 0 0 0 0 0 0 0 0
Nghost:    388 ave 388 max 388 min
Histogram: 1 0 0 0 0 0 0 0 0 0
Neighs:    720 ave 720 max 720 min
Histogram: 1 0 0 0 0 0 0 0 0 0

Total # of neighbors = 720
Ave neighs/atom = 9
Neighbor list builds = 0
Dangerous builds = 0
        next i
jump SELF loop1
        change_box all y delta ${ystep1neg} ${ystep1} units lattice
        change_box all y delta -0.001 ${ystep1} units lattice
        change_box all y delta -0.001 0.001 units lattice
  orthogonal box = (-0.000896253 -38.8671 0) to (1.12121 38.8671 1.12032)
	run 0
WARNING: No fixes defined, atoms won't move (../verlet.cpp:55)
Memory usage per processor = 2.243 Mbytes
Step Temp PotEng Lx Ly Lz 
      17            0   -239.81564    1.1221091    77.734237    1.1203166 
Loop time of -1.04774e-09 on 1 procs for 0 steps with 80 atoms

Pair  time (%) = 0 (-0)
Neigh time (%) = 0 (-0)
Comm  time (%) = 0 (-0)
Outpt time (%) = 0 (-0)
Other time (%) = -1.04774e-09 (100)

Nlocal:    80 ave 80 max 80 min
Histogram: 1 0 0 0 0 0 0 0 0 0
Nghost:    388 ave 388 max 388 min
Histogram: 1 0 0 0 0 0 0 0 0 0
Neighs:    720 ave 720 max 720 min
Histogram: 1 0 0 0 0 0 0 0 0 0

Total # of neighbors = 720
Ave neighs/atom = 9
Neighbor list builds = 0
Dangerous builds = 0
        next i
jump SELF loop1
        change_box all y delta ${ystep1neg} ${ystep1} units lattice
        change_box all y delta -0.001 ${ystep1} units lattice
        change_box all y delta -0.001 0.001 units lattice
  orthogonal box = (-0.000896253 -38.8691 0) to (1.12121 38.8691 1.12032)
	run 0
WARNING: No fixes defined, atoms won't move (../verlet.cpp:55)
Memory usage per processor = 2.243 Mbytes
Step Temp PotEng Lx Ly Lz 
      17            0   -239.80549    1.1221091    77.738118    1.1203166 
Loop time of 6.17001e-09 on 1 procs for 0 steps with 80 atoms

Pair  time (%) = 0 (0)
Neigh time (%) = 0 (0)
Comm  time (%) = 0 (0)
Outpt time (%) = 0 (0)
Other time (%) = 6.17001e-09 (100)

Nlocal:    80 ave 80 max 80 min
Histogram: 1 0 0 0 0 0 0 0 0 0
Nghost:    388 ave 388 max 388 min
Histogram: 1 0 0 0 0 0 0 0 0 0
Neighs:    720 ave 720 max 720 min
Histogram: 1 0 0 0 0 0 0 0 0 0

Total # of neighbors = 720
Ave neighs/atom = 9
Neighbor list builds = 0
Dangerous builds = 0
        next i
jump SELF loop1
        change_box all y delta ${ystep1neg} ${ystep1} units lattice
        change_box all y delta -0.001 ${ystep1} units lattice
        change_box all y delta -0.001 0.001 units lattice
  orthogonal box = (-0.000896253 -38.871 0) to (1.12121 38.871 1.12032)
	run 0
WARNING: No fixes defined, atoms won't move (../verlet.cpp:55)
Memory usage per processor = 2.243 Mbytes
Step Temp PotEng Lx Ly Lz 
      17            0   -239.79517    1.1221091    77.741999    1.1203166 
Loop time of -7.26432e-08 on 1 procs for 0 steps with 80 atoms

Pair  time (%) = 0 (-0)
Neigh time (%) = 0 (-0)
Comm  time (%) = 0 (-0)
Outpt time (%) = 0 (-0)
Other time (%) = -7.26432e-08 (100)

Nlocal:    80 ave 80 max 80 min
Histogram: 1 0 0 0 0 0 0 0 0 0
Nghost:    388 ave 388 max 388 min
Histogram: 1 0 0 0 0 0 0 0 0 0
Neighs:    720 ave 720 max 720 min
Histogram: 1 0 0 0 0 0 0 0 0 0

Total # of neighbors = 720
Ave neighs/atom = 9
Neighbor list builds = 0
Dangerous builds = 0
        next i
jump SELF loop1
        change_box all y delta ${ystep1neg} ${ystep1} units lattice
        change_box all y delta -0.001 ${ystep1} units lattice
        change_box all y delta -0.001 0.001 units lattice
  orthogonal box = (-0.000896253 -38.8729 0) to (1.12121 38.8729 1.12032)
	run 0
WARNING: No fixes defined, atoms won't move (../verlet.cpp:55)
Memory usage per processor = 2.243 Mbytes
Step Temp PotEng Lx Ly Lz 
      17            0   -239.78469    1.1221091     77.74588    1.1203166 
Loop time of -1.07451e-07 on 1 procs for 0 steps with 80 atoms

Pair  time (%) = 0 (-0)
Neigh time (%) = 0 (-0)
Comm  time (%) = 0 (-0)
Outpt time (%) = 0 (-0)
Other time (%) = -1.07451e-07 (100)

Nlocal:    80 ave 80 max 80 min
Histogram: 1 0 0 0 0 0 0 0 0 0
Nghost:    388 ave 388 max 388 min
Histogram: 1 0 0 0 0 0 0 0 0 0
Neighs:    720 ave 720 max 720 min
Histogram: 1 0 0 0 0 0 0 0 0 0

Total # of neighbors = 720
Ave neighs/atom = 9
Neighbor list builds = 0
Dangerous builds = 0
        next i
jump SELF loop1
        change_box all y delta ${ystep1neg} ${ystep1} units lattice
        change_box all y delta -0.001 ${ystep1} units lattice
        change_box all y delta -0.001 0.001 units lattice
  orthogonal box = (-0.000896253 -38.8749 0) to (1.12121 38.8749 1.12032)
	run 0
WARNING: No fixes defined, atoms won't move (../verlet.cpp:55)
Memory usage per processor = 2.243 Mbytes
Step Temp PotEng Lx Ly Lz 
      17            0   -239.77396    1.1221091    77.749761    1.1203166 
Loop time of -7.68341e-09 on 1 procs for 0 steps with 80 atoms

Pair  time (%) = 0 (-0)
Neigh time (%) = 0 (-0)
Comm  time (%) = 0 (-0)
Outpt time (%) = 0 (-0)
Other time (%) = -7.68341e-09 (100)

Nlocal:    80 ave 80 max 80 min
Histogram: 1 0 0 0 0 0 0 0 0 0
Nghost:    388 ave 388 max 388 min
Histogram: 1 0 0 0 0 0 0 0 0 0
Neighs:    720 ave 720 max 720 min
Histogram: 1 0 0 0 0 0 0 0 0 0

Total # of neighbors = 720
Ave neighs/atom = 9
Neighbor list builds = 0
Dangerous builds = 0
        next i
jump SELF loop1
        change_box all y delta ${ystep1neg} ${ystep1} units lattice
        change_box all y delta -0.001 ${ystep1} units lattice
        change_box all y delta -0.001 0.001 units lattice
  orthogonal box = (-0.000896253 -38.8768 0) to (1.12121 38.8768 1.12032)
	run 0
WARNING: No fixes defined, atoms won't move (../verlet.cpp:55)
Memory usage per processor = 2.243 Mbytes
Step Temp PotEng Lx Ly Lz 
      17            0   -239.76273    1.1221091    77.753642    1.1203166 
Loop time of -2.21189e-08 on 1 procs for 0 steps with 80 atoms

Pair  time (%) = 0 (-0)
Neigh time (%) = 0 (-0)
Comm  time (%) = 0 (-0)
Outpt time (%) = 0 (-0)
Other time (%) = -2.21189e-08 (100)

Nlocal:    80 ave 80 max 80 min
Histogram: 1 0 0 0 0 0 0 0 0 0
Nghost:    388 ave 388 max 388 min
Histogram: 1 0 0 0 0 0 0 0 0 0
Neighs:    720 ave 720 max 720 min
Histogram: 1 0 0 0 0 0 0 0 0 0

Total # of neighbors = 720
Ave neighs/atom = 9
Neighbor list builds = 0
Dangerous builds = 0
        next i
jump SELF loop1
        change_box all y delta ${ystep1neg} ${ystep1} units lattice
        change_box all y delta -0.001 ${ystep1} units lattice
        change_box all y delta -0.001 0.001 units lattice
  orthogonal box = (-0.000896253 -38.8788 0) to (1.12121 38.8788 1.12032)
	run 0
WARNING: No fixes defined, atoms won't move (../verlet.cpp:55)
Memory usage per processor = 2.243 Mbytes
Step Temp PotEng Lx Ly Lz 
      17            0   -239.75092    1.1221091    77.757523    1.1203166 
Loop time of 9.11532e-08 on 1 procs for 0 steps with 80 atoms

Pair  time (%) = 0 (0)
Neigh time (%) = 0 (0)
Comm  time (%) = 0 (0)
Outpt time (%) = 0 (0)
Other time (%) = 9.11532e-08 (100)

Nlocal:    80 ave 80 max 80 min
Histogram: 1 0 0 0 0 0 0 0 0 0
Nghost:    388 ave 388 max 388 min
Histogram: 1 0 0 0 0 0 0 0 0 0
Neighs:    720 ave 720 max 720 min
Histogram: 1 0 0 0 0 0 0 0 0 0

Total # of neighbors = 720
Ave neighs/atom = 9
Neighbor list builds = 0
Dangerous builds = 0
        next i
jump SELF loop1
        change_box all y delta ${ystep1neg} ${ystep1} units lattice
        change_box all y delta -0.001 ${ystep1} units lattice
        change_box all y delta -0.001 0.001 units lattice
  orthogonal box = (-0.000896253 -38.8807 0) to (1.12121 38.8807 1.12032)
	run 0
WARNING: No fixes defined, atoms won't move (../verlet.cpp:55)
Memory usage per processor = 2.243 Mbytes
Step Temp PotEng Lx Ly Lz 
      17            0   -239.73856    1.1221091    77.761404    1.1203166 
Loop time of 9.85223e-07 on 1 procs for 0 steps with 80 atoms

Pair  time (%) = 0 (0)
Neigh time (%) = 0 (0)
Comm  time (%) = 0 (0)
Outpt time (%) = 0 (0)
Other time (%) = 9.85223e-07 (100)

Nlocal:    80 ave 80 max 80 min
Histogram: 1 0 0 0 0 0 0 0 0 0
Nghost:    388 ave 388 max 388 min
Histogram: 1 0 0 0 0 0 0 0 0 0
Neighs:    720 ave 720 max 720 min
Histogram: 1 0 0 0 0 0 0 0 0 0

Total # of neighbors = 720
Ave neighs/atom = 9
Neighbor list builds = 0
Dangerous builds = 0
        next i
jump SELF loop1
        change_box all y delta ${ystep1neg} ${ystep1} units lattice
        change_box all y delta -0.001 ${ystep1} units lattice
        change_box all y delta -0.001 0.001 units lattice
  orthogonal box = (-0.000896253 -38.8826 0) to (1.12121 38.8826 1.12032)
	run 0
WARNING: No fixes defined, atoms won't move (../verlet.cpp:55)
Memory usage per processor = 2.243 Mbytes
Step Temp PotEng Lx Ly Lz 
      17            0   -239.72566    1.1221091    77.765285    1.1203166 
Loop time of -4.66825e-08 on 1 procs for 0 steps with 80 atoms

Pair  time (%) = 0 (-0)
Neigh time (%) = 0 (-0)
Comm  time (%) = 0 (-0)
Outpt time (%) = 0 (-0)
Other time (%) = -4.66825e-08 (100)

Nlocal:    80 ave 80 max 80 min
Histogram: 1 0 0 0 0 0 0 0 0 0
Nghost:    388 ave 388 max 388 min
Histogram: 1 0 0 0 0 0 0 0 0 0
Neighs:    720 ave 720 max 720 min
Histogram: 1 0 0 0 0 0 0 0 0 0

Total # of neighbors = 720
Ave neighs/atom = 9
Neighbor list builds = 0
Dangerous builds = 0
        next i
jump SELF loop1
        change_box all y delta ${ystep1neg} ${ystep1} units lattice
        change_box all y delta -0.001 ${ystep1} units lattice
        change_box all y delta -0.001 0.001 units lattice
  orthogonal box = (-0.000896253 -38.8846 0) to (1.12121 38.8846 1.12032)
	run 0
WARNING: No fixes defined, atoms won't move (../verlet.cpp:55)
Memory usage per processor = 2.243 Mbytes
Step Temp PotEng Lx Ly Lz 
      17            0   -239.71223    1.1221091    77.769165    1.1203166 
Loop time of 6.65896e-08 on 1 procs for 0 steps with 80 atoms

Pair  time (%) = 0 (0)
Neigh time (%) = 0 (0)
Comm  time (%) = 0 (0)
Outpt time (%) = 0 (0)
Other time (%) = 6.65896e-08 (100)

Nlocal:    80 ave 80 max 80 min
Histogram: 1 0 0 0 0 0 0 0 0 0
Nghost:    388 ave 388 max 388 min
Histogram: 1 0 0 0 0 0 0 0 0 0
Neighs:    720 ave 720 max 720 min
Histogram: 1 0 0 0 0 0 0 0 0 0

Total # of neighbors = 720
Ave neighs/atom = 9
Neighbor list builds = 0
Dangerous builds = 0
        next i
jump SELF loop1
        change_box all y delta ${ystep1neg} ${ystep1} units lattice
        change_box all y delta -0.001 ${ystep1} units lattice
        change_box all y delta -0.001 0.001 units lattice
  orthogonal box = (-0.000896253 -38.8865 0) to (1.12121 38.8865 1.12032)
	run 0
WARNING: No fixes defined, atoms won't move (../verlet.cpp:55)
Memory usage per processor = 2.243 Mbytes
Step Temp PotEng Lx Ly Lz 
      17            0   -239.69831    1.1221091    77.773046    1.1203166 
Loop time of -4.84288e-08 on 1 procs for 0 steps with 80 atoms

Pair  time (%) = 0 (-0)
Neigh time (%) = 0 (-0)
Comm  time (%) = 0 (-0)
Outpt time (%) = 0 (-0)
Other time (%) = -4.84288e-08 (100)

Nlocal:    80 ave 80 max 80 min
Histogram: 1 0 0 0 0 0 0 0 0 0
Nghost:    388 ave 388 max 388 min
Histogram: 1 0 0 0 0 0 0 0 0 0
Neighs:    720 ave 720 max 720 min
Histogram: 1 0 0 0 0 0 0 0 0 0

Total # of neighbors = 720
Ave neighs/atom = 9
Neighbor list builds = 0
Dangerous builds = 0
        next i
jump SELF loop1
        change_box all y delta ${ystep1neg} ${ystep1} units lattice
        change_box all y delta -0.001 ${ystep1} units lattice
        change_box all y delta -0.001 0.001 units lattice
  orthogonal box = (-0.000896253 -38.8885 0) to (1.12121 38.8885 1.12032)
	run 0
WARNING: No fixes defined, atoms won't move (../verlet.cpp:55)
Memory usage per processor = 2.243 Mbytes
Step Temp PotEng Lx Ly Lz 
      17            0   -239.68385    1.1221091    77.776927    1.1203166 
Loop time of 1.10758e-06 on 1 procs for 0 steps with 80 atoms

Pair  time (%) = 0 (0)
Neigh time (%) = 0 (0)
Comm  time (%) = 0 (0)
Outpt time (%) = 0 (0)
Other time (%) = 1.10758e-06 (100)

Nlocal:    80 ave 80 max 80 min
Histogram: 1 0 0 0 0 0 0 0 0 0
Nghost:    388 ave 388 max 388 min
Histogram: 1 0 0 0 0 0 0 0 0 0
Neighs:    720 ave 720 max 720 min
Histogram: 1 0 0 0 0 0 0 0 0 0

Total # of neighbors = 720
Ave neighs/atom = 9
Neighbor list builds = 0
Dangerous builds = 0
        next i
jump SELF loop1
        change_box all y delta ${ystep1neg} ${ystep1} units lattice
        change_box all y delta -0.001 ${ystep1} units lattice
        change_box all y delta -0.001 0.001 units lattice
  orthogonal box = (-0.000896253 -38.8904 0) to (1.12121 38.8904 1.12032)
	run 0
WARNING: No fixes defined, atoms won't move (../verlet.cpp:55)
Memory usage per processor = 2.243 Mbytes
Step Temp PotEng Lx Ly Lz 
      17            0   -239.66893    1.1221091    77.780808    1.1203166 
Loop time of -6.28643e-09 on 1 procs for 0 steps with 80 atoms

Pair  time (%) = 0 (-0)
Neigh time (%) = 0 (-0)
Comm  time (%) = 0 (-0)
Outpt time (%) = 0 (-0)
Other time (%) = -6.28643e-09 (100)

Nlocal:    80 ave 80 max 80 min
Histogram: 1 0 0 0 0 0 0 0 0 0
Nghost:    388 ave 388 max 388 min
Histogram: 1 0 0 0 0 0 0 0 0 0
Neighs:    720 ave 720 max 720 min
Histogram: 1 0 0 0 0 0 0 0 0 0

Total # of neighbors = 720
Ave neighs/atom = 9
Neighbor list builds = 0
Dangerous builds = 0
        next i
jump SELF loop1
        change_box all y delta ${ystep1neg} ${ystep1} units lattice
        change_box all y delta -0.001 ${ystep1} units lattice
        change_box all y delta -0.001 0.001 units lattice
  orthogonal box = (-0.000896253 -38.8923 0) to (1.12121 38.8923 1.12032)
	run 0
WARNING: No fixes defined, atoms won't move (../verlet.cpp:55)
Memory usage per processor = 2.243 Mbytes
Step Temp PotEng Lx Ly Lz 
      17            0    -239.6535    1.1221091    77.784689    1.1203166 
Loop time of -8.62638e-08 on 1 procs for 0 steps with 80 atoms

Pair  time (%) = 0 (-0)
Neigh time (%) = 0 (-0)
Comm  time (%) = 0 (-0)
Outpt time (%) = 0 (-0)
Other time (%) = -8.62638e-08 (100)

Nlocal:    80 ave 80 max 80 min
Histogram: 1 0 0 0 0 0 0 0 0 0
Nghost:    388 ave 388 max 388 min
Histogram: 1 0 0 0 0 0 0 0 0 0
Neighs:    720 ave 720 max 720 min
Histogram: 1 0 0 0 0 0 0 0 0 0

Total # of neighbors = 720
Ave neighs/atom = 9
Neighbor list builds = 0
Dangerous builds = 0
        next i
jump SELF loop1
        change_box all y delta ${ystep1neg} ${ystep1} units lattice
        change_box all y delta -0.001 ${ystep1} units lattice
        change_box all y delta -0.001 0.001 units lattice
  orthogonal box = (-0.000896253 -38.8943 0) to (1.12121 38.8943 1.12032)
	run 0
WARNING: No fixes defined, atoms won't move (../verlet.cpp:55)
Memory usage per processor = 2.243 Mbytes
Step Temp PotEng Lx Ly Lz 
      17            0   -239.63763    1.1221091     77.78857    1.1203166 
Loop time of 6.93381e-06 on 1 procs for 0 steps with 80 atoms

Pair  time (%) = 0 (0)
Neigh time (%) = 0 (0)
Comm  time (%) = 0 (0)
Outpt time (%) = 0 (0)
Other time (%) = 6.93381e-06 (100)

Nlocal:    80 ave 80 max 80 min
Histogram: 1 0 0 0 0 0 0 0 0 0
Nghost:    388 ave 388 max 388 min
Histogram: 1 0 0 0 0 0 0 0 0 0
Neighs:    720 ave 720 max 720 min
Histogram: 1 0 0 0 0 0 0 0 0 0

Total # of neighbors = 720
Ave neighs/atom = 9
Neighbor list builds = 0
Dangerous builds = 0
        next i
jump SELF loop1
        change_box all y delta ${ystep1neg} ${ystep1} units lattice
        change_box all y delta -0.001 ${ystep1} units lattice
        change_box all y delta -0.001 0.001 units lattice
  orthogonal box = (-0.000896253 -38.8962 0) to (1.12121 38.8962 1.12032)
	run 0
WARNING: No fixes defined, atoms won't move (../verlet.cpp:55)
Memory usage per processor = 2.243 Mbytes
Step Temp PotEng Lx Ly Lz 
      17            0   -239.62129    1.1221091    77.792451    1.1203166 
Loop time of -1.15717e-07 on 1 procs for 0 steps with 80 atoms

Pair  time (%) = 0 (-0)
Neigh time (%) = 0 (-0)
Comm  time (%) = 0 (-0)
Outpt time (%) = 0 (-0)
Other time (%) = -1.15717e-07 (100)

Nlocal:    80 ave 80 max 80 min
Histogram: 1 0 0 0 0 0 0 0 0 0
Nghost:    388 ave 388 max 388 min
Histogram: 1 0 0 0 0 0 0 0 0 0
Neighs:    720 ave 720 max 720 min
Histogram: 1 0 0 0 0 0 0 0 0 0

Total # of neighbors = 720
Ave neighs/atom = 9
Neighbor list builds = 0
Dangerous builds = 0
        next i
jump SELF loop1
        change_box all y delta ${ystep1neg} ${ystep1} units lattice
        change_box all y delta -0.001 ${ystep1} units lattice
        change_box all y delta -0.001 0.001 units lattice
  orthogonal box = (-0.000896253 -38.8982 0) to (1.12121 38.8982 1.12032)
	run 0
WARNING: No fixes defined, atoms won't move (../verlet.cpp:55)
Memory usage per processor = 2.243 Mbytes
Step Temp PotEng Lx Ly Lz 
      17            0   -239.60451    1.1221091    77.796332    1.1203166 
Loop time of -8.95234e-08 on 1 procs for 0 steps with 80 atoms

Pair  time (%) = 0 (-0)
Neigh time (%) = 0 (-0)
Comm  time (%) = 0 (-0)
Outpt time (%) = 0 (-0)
Other time (%) = -8.95234e-08 (100)

Nlocal:    80 ave 80 max 80 min
Histogram: 1 0 0 0 0 0 0 0 0 0
Nghost:    388 ave 388 max 388 min
Histogram: 1 0 0 0 0 0 0 0 0 0
Neighs:    720 ave 720 max 720 min
Histogram: 1 0 0 0 0 0 0 0 0 0

Total # of neighbors = 720
Ave neighs/atom = 9
Neighbor list builds = 0
Dangerous builds = 0
        next i
jump SELF loop1
        change_box all y delta ${ystep1neg} ${ystep1} units lattice
        change_box all y delta -0.001 ${ystep1} units lattice
        change_box all y delta -0.001 0.001 units lattice
  orthogonal box = (-0.000896253 -38.9001 0) to (1.12121 38.9001 1.12032)
	run 0
WARNING: No fixes defined, atoms won't move (../verlet.cpp:55)
Memory usage per processor = 2.243 Mbytes
Step Temp PotEng Lx Ly Lz 
      17            0   -239.58731    1.1221091    77.800213    1.1203166 
Loop time of -1.32713e-08 on 1 procs for 0 steps with 80 atoms

Pair  time (%) = 0 (-0)
Neigh time (%) = 0 (-0)
Comm  time (%) = 0 (-0)
Outpt time (%) = 0 (-0)
Other time (%) = -1.32713e-08 (100)

Nlocal:    80 ave 80 max 80 min
Histogram: 1 0 0 0 0 0 0 0 0 0
Nghost:    388 ave 388 max 388 min
Histogram: 1 0 0 0 0 0 0 0 0 0
Neighs:    720 ave 720 max 720 min
Histogram: 1 0 0 0 0 0 0 0 0 0

Total # of neighbors = 720
Ave neighs/atom = 9
Neighbor list builds = 0
Dangerous builds = 0
        next i
jump SELF loop1
        change_box all y delta ${ystep1neg} ${ystep1} units lattice
        change_box all y delta -0.001 ${ystep1} units lattice
        change_box all y delta -0.001 0.001 units lattice
  orthogonal box = (-0.000896253 -38.902 0) to (1.12121 38.902 1.12032)
	run 0
WARNING: No fixes defined, atoms won't move (../verlet.cpp:55)
Memory usage per processor = 2.243 Mbytes
Step Temp PotEng Lx Ly Lz 
      17            0   -239.56968    1.1221091    77.804094    1.1203166 
Loop time of 5.37839e-08 on 1 procs for 0 steps with 80 atoms

Pair  time (%) = 0 (0)
Neigh time (%) = 0 (0)
Comm  time (%) = 0 (0)
Outpt time (%) = 0 (0)
Other time (%) = 5.37839e-08 (100)

Nlocal:    80 ave 80 max 80 min
Histogram: 1 0 0 0 0 0 0 0 0 0
Nghost:    388 ave 388 max 388 min
Histogram: 1 0 0 0 0 0 0 0 0 0
Neighs:    720 ave 720 max 720 min
Histogram: 1 0 0 0 0 0 0 0 0 0

Total # of neighbors = 720
Ave neighs/atom = 9
Neighbor list builds = 0
Dangerous builds = 0
        next i
jump SELF loop1
        change_box all y delta ${ystep1neg} ${ystep1} units lattice
        change_box all y delta -0.001 ${ystep1} units lattice
        change_box all y delta -0.001 0.001 units lattice
  orthogonal box = (-0.000896253 -38.904 0) to (1.12121 38.904 1.12032)
	run 0
WARNING: No fixes defined, atoms won't move (../verlet.cpp:55)
Memory usage per processor = 2.243 Mbytes
Step Temp PotEng Lx Ly Lz 
      17            0   -239.55166    1.1221091    77.807974    1.1203166 
Loop time of -3.9814e-08 on 1 procs for 0 steps with 80 atoms

Pair  time (%) = 0 (-0)
Neigh time (%) = 0 (-0)
Comm  time (%) = 0 (-0)
Outpt time (%) = 0 (-0)
Other time (%) = -3.9814e-08 (100)

Nlocal:    80 ave 80 max 80 min
Histogram: 1 0 0 0 0 0 0 0 0 0
Nghost:    388 ave 388 max 388 min
Histogram: 1 0 0 0 0 0 0 0 0 0
Neighs:    720 ave 720 max 720 min
Histogram: 1 0 0 0 0 0 0 0 0 0

Total # of neighbors = 720
Ave neighs/atom = 9
Neighbor list builds = 0
Dangerous builds = 0
        next i
jump SELF loop1
        change_box all y delta ${ystep1neg} ${ystep1} units lattice
        change_box all y delta -0.001 ${ystep1} units lattice
        change_box all y delta -0.001 0.001 units lattice
  orthogonal box = (-0.000896253 -38.9059 0) to (1.12121 38.9059 1.12032)
	run 0
WARNING: No fixes defined, atoms won't move (../verlet.cpp:55)
Memory usage per processor = 2.243 Mbytes
Step Temp PotEng Lx Ly Lz 
      17            0   -239.53324    1.1221091    77.811855    1.1203166 
Loop time of -2.58442e-08 on 1 procs for 0 steps with 80 atoms

Pair  time (%) = 0 (-0)
Neigh time (%) = 0 (-0)
Comm  time (%) = 0 (-0)
Outpt time (%) = 0 (-0)
Other time (%) = -2.58442e-08 (100)

Nlocal:    80 ave 80 max 80 min
Histogram: 1 0 0 0 0 0 0 0 0 0
Nghost:    388 ave 388 max 388 min
Histogram: 1 0 0 0 0 0 0 0 0 0
Neighs:    720 ave 720 max 720 min
Histogram: 1 0 0 0 0 0 0 0 0 0

Total # of neighbors = 720
Ave neighs/atom = 9
Neighbor list builds = 0
Dangerous builds = 0
        next i
jump SELF loop1
        change_box all y delta ${ystep1neg} ${ystep1} units lattice
        change_box all y delta -0.001 ${ystep1} units lattice
        change_box all y delta -0.001 0.001 units lattice
  orthogonal box = (-0.000896253 -38.9079 0) to (1.12121 38.9079 1.12032)
	run 0
WARNING: No fixes defined, atoms won't move (../verlet.cpp:55)
Memory usage per processor = 2.243 Mbytes
Step Temp PotEng Lx Ly Lz 
      17            0   -239.51444    1.1221091    77.815736    1.1203166 
Loop time of 1.12224e-07 on 1 procs for 0 steps with 80 atoms

Pair  time (%) = 0 (0)
Neigh time (%) = 0 (0)
Comm  time (%) = 0 (0)
Outpt time (%) = 0 (0)
Other time (%) = 1.12224e-07 (100)

Nlocal:    80 ave 80 max 80 min
Histogram: 1 0 0 0 0 0 0 0 0 0
Nghost:    388 ave 388 max 388 min
Histogram: 1 0 0 0 0 0 0 0 0 0
Neighs:    720 ave 720 max 720 min
Histogram: 1 0 0 0 0 0 0 0 0 0

Total # of neighbors = 720
Ave neighs/atom = 9
Neighbor list builds = 0
Dangerous builds = 0
        next i
jump SELF loop1
        change_box all y delta ${ystep1neg} ${ystep1} units lattice
        change_box all y delta -0.001 ${ystep1} units lattice
        change_box all y delta -0.001 0.001 units lattice
  orthogonal box = (-0.000896253 -38.9098 0) to (1.12121 38.9098 1.12032)
	run 0
WARNING: No fixes defined, atoms won't move (../verlet.cpp:55)
Memory usage per processor = 2.243 Mbytes
Step Temp PotEng Lx Ly Lz 
      17            0   -239.49529    1.1221091    77.819617    1.1203166 
Loop time of 9.40869e-07 on 1 procs for 0 steps with 80 atoms

Pair  time (%) = 0 (0)
Neigh time (%) = 0 (0)
Comm  time (%) = 0 (0)
Outpt time (%) = 0 (0)
Other time (%) = 9.40869e-07 (100)

Nlocal:    80 ave 80 max 80 min
Histogram: 1 0 0 0 0 0 0 0 0 0
Nghost:    388 ave 388 max 388 min
Histogram: 1 0 0 0 0 0 0 0 0 0
Neighs:    720 ave 720 max 720 min
Histogram: 1 0 0 0 0 0 0 0 0 0

Total # of neighbors = 720
Ave neighs/atom = 9
Neighbor list builds = 0
Dangerous builds = 0
        next i
jump SELF loop1
        change_box all y delta ${ystep1neg} ${ystep1} units lattice
        change_box all y delta -0.001 ${ystep1} units lattice
        change_box all y delta -0.001 0.001 units lattice
  orthogonal box = (-0.000896253 -38.9117 0) to (1.12121 38.9117 1.12032)
	run 0
WARNING: No fixes defined, atoms won't move (../verlet.cpp:55)
Memory usage per processor = 2.243 Mbytes
Step Temp PotEng Lx Ly Lz 
      17            0   -239.47576    1.1221091    77.823498    1.1203166 
Loop time of 1.09372e-06 on 1 procs for 0 steps with 80 atoms

Pair  time (%) = 0 (0)
Neigh time (%) = 0 (0)
Comm  time (%) = 0 (0)
Outpt time (%) = 0 (0)
Other time (%) = 1.09372e-06 (100)

Nlocal:    80 ave 80 max 80 min
Histogram: 1 0 0 0 0 0 0 0 0 0
Nghost:    388 ave 388 max 388 min
Histogram: 1 0 0 0 0 0 0 0 0 0
Neighs:    720 ave 720 max 720 min
Histogram: 1 0 0 0 0 0 0 0 0 0

Total # of neighbors = 720
Ave neighs/atom = 9
Neighbor list builds = 0
Dangerous builds = 0
        next i
jump SELF loop1
        change_box all y delta ${ystep1neg} ${ystep1} units lattice
        change_box all y delta -0.001 ${ystep1} units lattice
        change_box all y delta -0.001 0.001 units lattice
  orthogonal box = (-0.000896253 -38.9137 0) to (1.12121 38.9137 1.12032)
	run 0
WARNING: No fixes defined, atoms won't move (../verlet.cpp:55)
Memory usage per processor = 2.243 Mbytes
Step Temp PotEng Lx Ly Lz 
      17            0   -239.45591    1.1221091    77.827379    1.1203166 
Loop time of 7.92788e-08 on 1 procs for 0 steps with 80 atoms

Pair  time (%) = 0 (0)
Neigh time (%) = 0 (0)
Comm  time (%) = 0 (0)
Outpt time (%) = 0 (0)
Other time (%) = 7.92788e-08 (100)

Nlocal:    80 ave 80 max 80 min
Histogram: 1 0 0 0 0 0 0 0 0 0
Nghost:    388 ave 388 max 388 min
Histogram: 1 0 0 0 0 0 0 0 0 0
Neighs:    720 ave 720 max 720 min
Histogram: 1 0 0 0 0 0 0 0 0 0

Total # of neighbors = 720
Ave neighs/atom = 9
Neighbor list builds = 0
Dangerous builds = 0
        next i
jump SELF loop1
        change_box all y delta ${ystep1neg} ${ystep1} units lattice
        change_box all y delta -0.001 ${ystep1} units lattice
        change_box all y delta -0.001 0.001 units lattice
  orthogonal box = (-0.000896253 -38.9156 0) to (1.12121 38.9156 1.12032)
	run 0
WARNING: No fixes defined, atoms won't move (../verlet.cpp:55)
Memory usage per processor = 2.243 Mbytes
Step Temp PotEng Lx Ly Lz 
      17            0   -239.43573    1.1221091     77.83126    1.1203166 
Loop time of -6.1933e-08 on 1 procs for 0 steps with 80 atoms

Pair  time (%) = 0 (-0)
Neigh time (%) = 0 (-0)
Comm  time (%) = 0 (-0)
Outpt time (%) = 0 (-0)
Other time (%) = -6.1933e-08 (100)

Nlocal:    80 ave 80 max 80 min
Histogram: 1 0 0 0 0 0 0 0 0 0
Nghost:    388 ave 388 max 388 min
Histogram: 1 0 0 0 0 0 0 0 0 0
Neighs:    720 ave 720 max 720 min
Histogram: 1 0 0 0 0 0 0 0 0 0

Total # of neighbors = 720
Ave neighs/atom = 9
Neighbor list builds = 0
Dangerous builds = 0
        next i
jump SELF loop1
        change_box all y delta ${ystep1neg} ${ystep1} units lattice
        change_box all y delta -0.001 ${ystep1} units lattice
        change_box all y delta -0.001 0.001 units lattice
  orthogonal box = (-0.000896253 -38.9176 0) to (1.12121 38.9176 1.12032)
	run 0
WARNING: No fixes defined, atoms won't move (../verlet.cpp:55)
Memory usage per processor = 2.243 Mbytes
Step Temp PotEng Lx Ly Lz 
      17            0   -239.41522    1.1221091    77.835141    1.1203166 
Loop time of 9.09204e-08 on 1 procs for 0 steps with 80 atoms

Pair  time (%) = 0 (0)
Neigh time (%) = 0 (0)
Comm  time (%) = 0 (0)
Outpt time (%) = 0 (0)
Other time (%) = 9.09204e-08 (100)

Nlocal:    80 ave 80 max 80 min
Histogram: 1 0 0 0 0 0 0 0 0 0
Nghost:    388 ave 388 max 388 min
Histogram: 1 0 0 0 0 0 0 0 0 0
Neighs:    720 ave 720 max 720 min
Histogram: 1 0 0 0 0 0 0 0 0 0

Total # of neighbors = 720
Ave neighs/atom = 9
Neighbor list builds = 0
Dangerous builds = 0
        next i
jump SELF loop1
        change_box all y delta ${ystep1neg} ${ystep1} units lattice
        change_box all y delta -0.001 ${ystep1} units lattice
        change_box all y delta -0.001 0.001 units lattice
  orthogonal box = (-0.000896253 -38.9195 0) to (1.12121 38.9195 1.12032)
	run 0
WARNING: No fixes defined, atoms won't move (../verlet.cpp:55)
Memory usage per processor = 2.243 Mbytes
Step Temp PotEng Lx Ly Lz 
      17            0   -239.39443    1.1221091    77.839022    1.1203166 
Loop time of -9.40636e-08 on 1 procs for 0 steps with 80 atoms

Pair  time (%) = 0 (-0)
Neigh time (%) = 0 (-0)
Comm  time (%) = 0 (-0)
Outpt time (%) = 0 (-0)
Other time (%) = -9.40636e-08 (100)

Nlocal:    80 ave 80 max 80 min
Histogram: 1 0 0 0 0 0 0 0 0 0
Nghost:    388 ave 388 max 388 min
Histogram: 1 0 0 0 0 0 0 0 0 0
Neighs:    720 ave 720 max 720 min
Histogram: 1 0 0 0 0 0 0 0 0 0

Total # of neighbors = 720
Ave neighs/atom = 9
Neighbor list builds = 0
Dangerous builds = 0
        next i
jump SELF loop1
        change_box all y delta ${ystep1neg} ${ystep1} units lattice
        change_box all y delta -0.001 ${ystep1} units lattice
        change_box all y delta -0.001 0.001 units lattice
  orthogonal box = (-0.000896253 -38.9215 0) to (1.12121 38.9215 1.12032)
	run 0
WARNING: No fixes defined, atoms won't move (../verlet.cpp:55)
Memory usage per processor = 2.243 Mbytes
Step Temp PotEng Lx Ly Lz 
      17            0   -239.37334    1.1221091    77.842902    1.1203166 
Loop time of 9.83709e-08 on 1 procs for 0 steps with 80 atoms

Pair  time (%) = 0 (0)
Neigh time (%) = 0 (0)
Comm  time (%) = 0 (0)
Outpt time (%) = 0 (0)
Other time (%) = 9.83709e-08 (100)

Nlocal:    80 ave 80 max 80 min
Histogram: 1 0 0 0 0 0 0 0 0 0
Nghost:    388 ave 388 max 388 min
Histogram: 1 0 0 0 0 0 0 0 0 0
Neighs:    720 ave 720 max 720 min
Histogram: 1 0 0 0 0 0 0 0 0 0

Total # of neighbors = 720
Ave neighs/atom = 9
Neighbor list builds = 0
Dangerous builds = 0
        next i
jump SELF loop1
        change_box all y delta ${ystep1neg} ${ystep1} units lattice
        change_box all y delta -0.001 ${ystep1} units lattice
        change_box all y delta -0.001 0.001 units lattice
  orthogonal box = (-0.000896253 -38.9234 0) to (1.12121 38.9234 1.12032)
	run 0
WARNING: No fixes defined, atoms won't move (../verlet.cpp:55)
Memory usage per processor = 2.243 Mbytes
Step Temp PotEng Lx Ly Lz 
      17            0   -239.35198    1.1221091    77.846783    1.1203166 
Loop time of 1.0092e-06 on 1 procs for 0 steps with 80 atoms

Pair  time (%) = 0 (0)
Neigh time (%) = 0 (0)
Comm  time (%) = 0 (0)
Outpt time (%) = 0 (0)
Other time (%) = 1.0092e-06 (100)

Nlocal:    80 ave 80 max 80 min
Histogram: 1 0 0 0 0 0 0 0 0 0
Nghost:    388 ave 388 max 388 min
Histogram: 1 0 0 0 0 0 0 0 0 0
Neighs:    720 ave 720 max 720 min
Histogram: 1 0 0 0 0 0 0 0 0 0

Total # of neighbors = 720
Ave neighs/atom = 9
Neighbor list builds = 0
Dangerous builds = 0
        next i
jump SELF loop1
        change_box all y delta ${ystep1neg} ${ystep1} units lattice
        change_box all y delta -0.001 ${ystep1} units lattice
        change_box all y delta -0.001 0.001 units lattice
  orthogonal box = (-0.000896253 -38.9253 0) to (1.12121 38.9253 1.12032)
	run 0
WARNING: No fixes defined, atoms won't move (../verlet.cpp:55)
Memory usage per processor = 2.243 Mbytes
Step Temp PotEng Lx Ly Lz 
      17            0   -239.33036    1.1221091    77.850664    1.1203166 
Loop time of 9.76841e-07 on 1 procs for 0 steps with 80 atoms

Pair  time (%) = 0 (0)
Neigh time (%) = 0 (0)
Comm  time (%) = 0 (0)
Outpt time (%) = 0 (0)
Other time (%) = 9.76841e-07 (100)

Nlocal:    80 ave 80 max 80 min
Histogram: 1 0 0 0 0 0 0 0 0 0
Nghost:    388 ave 388 max 388 min
Histogram: 1 0 0 0 0 0 0 0 0 0
Neighs:    720 ave 720 max 720 min
Histogram: 1 0 0 0 0 0 0 0 0 0

Total # of neighbors = 720
Ave neighs/atom = 9
Neighbor list builds = 0
Dangerous builds = 0
        next i
jump SELF loop1
        change_box all y delta ${ystep1neg} ${ystep1} units lattice
        change_box all y delta -0.001 ${ystep1} units lattice
        change_box all y delta -0.001 0.001 units lattice
  orthogonal box = (-0.000896253 -38.9273 0) to (1.12121 38.9273 1.12032)
	run 0
WARNING: No fixes defined, atoms won't move (../verlet.cpp:55)
Memory usage per processor = 2.243 Mbytes
Step Temp PotEng Lx Ly Lz 
      17            0   -239.30849    1.1221091    77.854545    1.1203166 
Loop time of 7.2876e-08 on 1 procs for 0 steps with 80 atoms

Pair  time (%) = 0 (0)
Neigh time (%) = 0 (0)
Comm  time (%) = 0 (0)
Outpt time (%) = 0 (0)
Other time (%) = 7.2876e-08 (100)

Nlocal:    80 ave 80 max 80 min
Histogram: 1 0 0 0 0 0 0 0 0 0
Nghost:    388 ave 388 max 388 min
Histogram: 1 0 0 0 0 0 0 0 0 0
Neighs:    720 ave 720 max 720 min
Histogram: 1 0 0 0 0 0 0 0 0 0

Total # of neighbors = 720
Ave neighs/atom = 9
Neighbor list builds = 0
Dangerous builds = 0
        next i
jump SELF loop1
        change_box all y delta ${ystep1neg} ${ystep1} units lattice
        change_box all y delta -0.001 ${ystep1} units lattice
        change_box all y delta -0.001 0.001 units lattice
  orthogonal box = (-0.000896253 -38.9292 0) to (1.12121 38.9292 1.12032)
	run 0
WARNING: No fixes defined, atoms won't move (../verlet.cpp:55)
Memory usage per processor = 2.243 Mbytes
Step Temp PotEng Lx Ly Lz 
      17            0   -239.28638    1.1221091    77.858426    1.1203166 
Loop time of -2.58442e-08 on 1 procs for 0 steps with 80 atoms

Pair  time (%) = 0 (-0)
Neigh time (%) = 0 (-0)
Comm  time (%) = 0 (-0)
Outpt time (%) = 0 (-0)
Other time (%) = -2.58442e-08 (100)

Nlocal:    80 ave 80 max 80 min
Histogram: 1 0 0 0 0 0 0 0 0 0
Nghost:    388 ave 388 max 388 min
Histogram: 1 0 0 0 0 0 0 0 0 0
Neighs:    720 ave 720 max 720 min
Histogram: 1 0 0 0 0 0 0 0 0 0

Total # of neighbors = 720
Ave neighs/atom = 9
Neighbor list builds = 0
Dangerous builds = 0
        next i
jump SELF loop1
        change_box all y delta ${ystep1neg} ${ystep1} units lattice
        change_box all y delta -0.001 ${ystep1} units lattice
        change_box all y delta -0.001 0.001 units lattice
  orthogonal box = (-0.000896253 -38.9312 0) to (1.12121 38.9312 1.12032)
	run 0
WARNING: No fixes defined, atoms won't move (../verlet.cpp:55)
Memory usage per processor = 2.243 Mbytes
Step Temp PotEng Lx Ly Lz 
      17            0   -239.26405    1.1221091    77.862307    1.1203166 
Loop time of 1.08627e-06 on 1 procs for 0 steps with 80 atoms

Pair  time (%) = 0 (0)
Neigh time (%) = 0 (0)
Comm  time (%) = 0 (0)
Outpt time (%) = 0 (0)
Other time (%) = 1.08627e-06 (100)

Nlocal:    80 ave 80 max 80 min
Histogram: 1 0 0 0 0 0 0 0 0 0
Nghost:    388 ave 388 max 388 min
Histogram: 1 0 0 0 0 0 0 0 0 0
Neighs:    720 ave 720 max 720 min
Histogram: 1 0 0 0 0 0 0 0 0 0

Total # of neighbors = 720
Ave neighs/atom = 9
Neighbor list builds = 0
Dangerous builds = 0
        next i
jump SELF loop1
        change_box all y delta ${ystep1neg} ${ystep1} units lattice
        change_box all y delta -0.001 ${ystep1} units lattice
        change_box all y delta -0.001 0.001 units lattice
  orthogonal box = (-0.000896253 -38.9331 0) to (1.12121 38.9331 1.12032)
	run 0
WARNING: No fixes defined, atoms won't move (../verlet.cpp:55)
Memory usage per processor = 2.243 Mbytes
Step Temp PotEng Lx Ly Lz 
      17            0   -239.24152    1.1221091    77.866188    1.1203166 
Loop time of -9.87202e-08 on 1 procs for 0 steps with 80 atoms

Pair  time (%) = 0 (-0)
Neigh time (%) = 0 (-0)
Comm  time (%) = 0 (-0)
Outpt time (%) = 0 (-0)
Other time (%) = -9.87202e-08 (100)

Nlocal:    80 ave 80 max 80 min
Histogram: 1 0 0 0 0 0 0 0 0 0
Nghost:    388 ave 388 max 388 min
Histogram: 1 0 0 0 0 0 0 0 0 0
Neighs:    720 ave 720 max 720 min
Histogram: 1 0 0 0 0 0 0 0 0 0

Total # of neighbors = 720
Ave neighs/atom = 9
Neighbor list builds = 0
Dangerous builds = 0
        next i
jump SELF loop1
        change_box all y delta ${ystep1neg} ${ystep1} units lattice
        change_box all y delta -0.001 ${ystep1} units lattice
        change_box all y delta -0.001 0.001 units lattice
  orthogonal box = (-0.000896253 -38.935 0) to (1.12121 38.935 1.12032)
	run 0
WARNING: No fixes defined, atoms won't move (../verlet.cpp:55)
Memory usage per processor = 2.243 Mbytes
Step Temp PotEng Lx Ly Lz 
      17            0   -239.21878    1.1221091    77.870069    1.1203166 
Loop time of -9.39472e-08 on 1 procs for 0 steps with 80 atoms

Pair  time (%) = 0 (-0)
Neigh time (%) = 0 (-0)
Comm  time (%) = 0 (-0)
Outpt time (%) = 0 (-0)
Other time (%) = -9.39472e-08 (100)

Nlocal:    80 ave 80 max 80 min
Histogram: 1 0 0 0 0 0 0 0 0 0
Nghost:    388 ave 388 max 388 min
Histogram: 1 0 0 0 0 0 0 0 0 0
Neighs:    720 ave 720 max 720 min
Histogram: 1 0 0 0 0 0 0 0 0 0

Total # of neighbors = 720
Ave neighs/atom = 9
Neighbor list builds = 0
Dangerous builds = 0
        next i
jump SELF loop1
        change_box all y delta ${ystep1neg} ${ystep1} units lattice
        change_box all y delta -0.001 ${ystep1} units lattice
        change_box all y delta -0.001 0.001 units lattice
  orthogonal box = (-0.000896253 -38.937 0) to (1.12121 38.937 1.12032)
	run 0
WARNING: No fixes defined, atoms won't move (../verlet.cpp:55)
Memory usage per processor = 2.243 Mbytes
Step Temp PotEng Lx Ly Lz 
      17            0   -239.19587    1.1221091     77.87395    1.1203166 
Loop time of 7.81147e-08 on 1 procs for 0 steps with 80 atoms

Pair  time (%) = 0 (0)
Neigh time (%) = 0 (0)
Comm  time (%) = 0 (0)
Outpt time (%) = 0 (0)
Other time (%) = 7.81147e-08 (100)

Nlocal:    80 ave 80 max 80 min
Histogram: 1 0 0 0 0 0 0 0 0 0
Nghost:    388 ave 388 max 388 min
Histogram: 1 0 0 0 0 0 0 0 0 0
Neighs:    720 ave 720 max 720 min
Histogram: 1 0 0 0 0 0 0 0 0 0

Total # of neighbors = 720
Ave neighs/atom = 9
Neighbor list builds = 0
Dangerous builds = 0
        next i
jump SELF loop1
        change_box all y delta ${ystep1neg} ${ystep1} units lattice
        change_box all y delta -0.001 ${ystep1} units lattice
        change_box all y delta -0.001 0.001 units lattice
  orthogonal box = (-0.000896253 -38.9389 0) to (1.12121 38.9389 1.12032)
	run 0
WARNING: No fixes defined, atoms won't move (../verlet.cpp:55)
Memory usage per processor = 2.243 Mbytes
Step Temp PotEng Lx Ly Lz 
      17            0   -239.17279    1.1221091     77.87783    1.1203166 
Loop time of -1.01281e-07 on 1 procs for 0 steps with 80 atoms

Pair  time (%) = 0 (-0)
Neigh time (%) = 0 (-0)
Comm  time (%) = 0 (-0)
Outpt time (%) = 0 (-0)
Other time (%) = -1.01281e-07 (100)

Nlocal:    80 ave 80 max 80 min
Histogram: 1 0 0 0 0 0 0 0 0 0
Nghost:    388 ave 388 max 388 min
Histogram: 1 0 0 0 0 0 0 0 0 0
Neighs:    720 ave 720 max 720 min
Histogram: 1 0 0 0 0 0 0 0 0 0

Total # of neighbors = 720
Ave neighs/atom = 9
Neighbor list builds = 0
Dangerous builds = 0
        next i
jump SELF loop1
        change_box all y delta ${ystep1neg} ${ystep1} units lattice
        change_box all y delta -0.001 ${ystep1} units lattice
        change_box all y delta -0.001 0.001 units lattice
  orthogonal box = (-0.000896253 -38.9409 0) to (1.12121 38.9409 1.12032)
	run 0
WARNING: No fixes defined, atoms won't move (../verlet.cpp:55)
Memory usage per processor = 2.243 Mbytes
Step Temp PotEng Lx Ly Lz 
      17            0   -239.14956    1.1221091    77.881711    1.1203166 
Loop time of 2.79397e-09 on 1 procs for 0 steps with 80 atoms

Pair  time (%) = 0 (0)
Neigh time (%) = 0 (0)
Comm  time (%) = 0 (0)
Outpt time (%) = 0 (0)
Other time (%) = 2.79397e-09 (100)

Nlocal:    80 ave 80 max 80 min
Histogram: 1 0 0 0 0 0 0 0 0 0
Nghost:    388 ave 388 max 388 min
Histogram: 1 0 0 0 0 0 0 0 0 0
Neighs:    720 ave 720 max 720 min
Histogram: 1 0 0 0 0 0 0 0 0 0

Total # of neighbors = 720
Ave neighs/atom = 9
Neighbor list builds = 0
Dangerous builds = 0
        next i
jump SELF loop1
        change_box all y delta ${ystep1neg} ${ystep1} units lattice
        change_box all y delta -0.001 ${ystep1} units lattice
        change_box all y delta -0.001 0.001 units lattice
  orthogonal box = (-0.000896253 -38.9428 0) to (1.12121 38.9428 1.12032)
	run 0
WARNING: No fixes defined, atoms won't move (../verlet.cpp:55)
Memory usage per processor = 2.243 Mbytes
Step Temp PotEng Lx Ly Lz 
      17            0   -239.12618    1.1221091    77.885592    1.1203166 
Loop time of -7.84639e-08 on 1 procs for 0 steps with 80 atoms

Pair  time (%) = 0 (-0)
Neigh time (%) = 0 (-0)
Comm  time (%) = 0 (-0)
Outpt time (%) = 0 (-0)
Other time (%) = -7.84639e-08 (100)

Nlocal:    80 ave 80 max 80 min
Histogram: 1 0 0 0 0 0 0 0 0 0
Nghost:    388 ave 388 max 388 min
Histogram: 1 0 0 0 0 0 0 0 0 0
Neighs:    720 ave 720 max 720 min
Histogram: 1 0 0 0 0 0 0 0 0 0

Total # of neighbors = 720
Ave neighs/atom = 9
Neighbor list builds = 0
Dangerous builds = 0
        next i
jump SELF loop1
        change_box all y delta ${ystep1neg} ${ystep1} units lattice
        change_box all y delta -0.001 ${ystep1} units lattice
        change_box all y delta -0.001 0.001 units lattice
  orthogonal box = (-0.000896253 -38.9447 0) to (1.12121 38.9447 1.12032)
	run 0
WARNING: No fixes defined, atoms won't move (../verlet.cpp:55)
Memory usage per processor = 2.243 Mbytes
Step Temp PotEng Lx Ly Lz 
      17            0   -239.10268    1.1221091    77.889473    1.1203166 
Loop time of 6.8685e-09 on 1 procs for 0 steps with 80 atoms

Pair  time (%) = 0 (0)
Neigh time (%) = 0 (0)
Comm  time (%) = 0 (0)
Outpt time (%) = 0 (0)
Other time (%) = 6.8685e-09 (100)

Nlocal:    80 ave 80 max 80 min
Histogram: 1 0 0 0 0 0 0 0 0 0
Nghost:    388 ave 388 max 388 min
Histogram: 1 0 0 0 0 0 0 0 0 0
Neighs:    720 ave 720 max 720 min
Histogram: 1 0 0 0 0 0 0 0 0 0

Total # of neighbors = 720
Ave neighs/atom = 9
Neighbor list builds = 0
Dangerous builds = 0
        next i
jump SELF loop1
        change_box all y delta ${ystep1neg} ${ystep1} units lattice
        change_box all y delta -0.001 ${ystep1} units lattice
        change_box all y delta -0.001 0.001 units lattice
  orthogonal box = (-0.000896253 -38.9467 0) to (1.12121 38.9467 1.12032)
	run 0
WARNING: No fixes defined, atoms won't move (../verlet.cpp:55)
Memory usage per processor = 2.243 Mbytes
Step Temp PotEng Lx Ly Lz 
      17            0   -239.07907    1.1221091    77.893354    1.1203166 
Loop time of 1.10583e-06 on 1 procs for 0 steps with 80 atoms

Pair  time (%) = 0 (0)
Neigh time (%) = 0 (0)
Comm  time (%) = 0 (0)
Outpt time (%) = 0 (0)
Other time (%) = 1.10583e-06 (100)

Nlocal:    80 ave 80 max 80 min
Histogram: 1 0 0 0 0 0 0 0 0 0
Nghost:    388 ave 388 max 388 min
Histogram: 1 0 0 0 0 0 0 0 0 0
Neighs:    720 ave 720 max 720 min
Histogram: 1 0 0 0 0 0 0 0 0 0

Total # of neighbors = 720
Ave neighs/atom = 9
Neighbor list builds = 0
Dangerous builds = 0
        next i
jump SELF loop1
        change_box all y delta ${ystep1neg} ${ystep1} units lattice
        change_box all y delta -0.001 ${ystep1} units lattice
        change_box all y delta -0.001 0.001 units lattice
  orthogonal box = (-0.000896253 -38.9486 0) to (1.12121 38.9486 1.12032)
	run 0
WARNING: No fixes defined, atoms won't move (../verlet.cpp:55)
Memory usage per processor = 2.243 Mbytes
Step Temp PotEng Lx Ly Lz 
      17            0   -239.05536    1.1221091    77.897235    1.1203166 
Loop time of 5.30854e-08 on 1 procs for 0 steps with 80 atoms

Pair  time (%) = 0 (0)
Neigh time (%) = 0 (0)
Comm  time (%) = 0 (0)
Outpt time (%) = 0 (0)
Other time (%) = 5.30854e-08 (100)

Nlocal:    80 ave 80 max 80 min
Histogram: 1 0 0 0 0 0 0 0 0 0
Nghost:    388 ave 388 max 388 min
Histogram: 1 0 0 0 0 0 0 0 0 0
Neighs:    720 ave 720 max 720 min
Histogram: 1 0 0 0 0 0 0 0 0 0

Total # of neighbors = 720
Ave neighs/atom = 9
Neighbor list builds = 0
Dangerous builds = 0
        next i
jump SELF loop1
        change_box all y delta ${ystep1neg} ${ystep1} units lattice
        change_box all y delta -0.001 ${ystep1} units lattice
        change_box all y delta -0.001 0.001 units lattice
  orthogonal box = (-0.000896253 -38.9506 0) to (1.12121 38.9506 1.12032)
	run 0
WARNING: No fixes defined, atoms won't move (../verlet.cpp:55)
Memory usage per processor = 2.243 Mbytes
Step Temp PotEng Lx Ly Lz 
      17            0   -239.03156    1.1221091    77.901116    1.1203166 
Loop time of 1.06695e-06 on 1 procs for 0 steps with 80 atoms

Pair  time (%) = 0 (0)
Neigh time (%) = 0 (0)
Comm  time (%) = 0 (0)
Outpt time (%) = 0 (0)
Other time (%) = 1.06695e-06 (100)

Nlocal:    80 ave 80 max 80 min
Histogram: 1 0 0 0 0 0 0 0 0 0
Nghost:    388 ave 388 max 388 min
Histogram: 1 0 0 0 0 0 0 0 0 0
Neighs:    720 ave 720 max 720 min
Histogram: 1 0 0 0 0 0 0 0 0 0

Total # of neighbors = 720
Ave neighs/atom = 9
Neighbor list builds = 0
Dangerous builds = 0
        next i
jump SELF loop1
        change_box all y delta ${ystep1neg} ${ystep1} units lattice
        change_box all y delta -0.001 ${ystep1} units lattice
        change_box all y delta -0.001 0.001 units lattice
  orthogonal box = (-0.000896253 -38.9525 0) to (1.12121 38.9525 1.12032)
	run 0
WARNING: No fixes defined, atoms won't move (../verlet.cpp:55)
Memory usage per processor = 2.243 Mbytes
Step Temp PotEng Lx Ly Lz 
      17            0   -239.00769    1.1221091    77.904997    1.1203166 
Loop time of 1.06753e-07 on 1 procs for 0 steps with 80 atoms

Pair  time (%) = 0 (0)
Neigh time (%) = 0 (0)
Comm  time (%) = 0 (0)
Outpt time (%) = 0 (0)
Other time (%) = 1.06753e-07 (100)

Nlocal:    80 ave 80 max 80 min
Histogram: 1 0 0 0 0 0 0 0 0 0
Nghost:    388 ave 388 max 388 min
Histogram: 1 0 0 0 0 0 0 0 0 0
Neighs:    720 ave 720 max 720 min
Histogram: 1 0 0 0 0 0 0 0 0 0

Total # of neighbors = 720
Ave neighs/atom = 9
Neighbor list builds = 0
Dangerous builds = 0
        next i
jump SELF loop1
        change_box all y delta ${ystep1neg} ${ystep1} units lattice
        change_box all y delta -0.001 ${ystep1} units lattice
        change_box all y delta -0.001 0.001 units lattice
  orthogonal box = (-0.000896253 -38.9544 0) to (1.12121 38.9544 1.12032)
	run 0
WARNING: No fixes defined, atoms won't move (../verlet.cpp:55)
Memory usage per processor = 2.243 Mbytes
Step Temp PotEng Lx Ly Lz 
      17            0   -238.98376    1.1221091    77.908878    1.1203166 
Loop time of 6.76373e-08 on 1 procs for 0 steps with 80 atoms

Pair  time (%) = 0 (0)
Neigh time (%) = 0 (0)
Comm  time (%) = 0 (0)
Outpt time (%) = 0 (0)
Other time (%) = 6.76373e-08 (100)

Nlocal:    80 ave 80 max 80 min
Histogram: 1 0 0 0 0 0 0 0 0 0
Nghost:    388 ave 388 max 388 min
Histogram: 1 0 0 0 0 0 0 0 0 0
Neighs:    720 ave 720 max 720 min
Histogram: 1 0 0 0 0 0 0 0 0 0

Total # of neighbors = 720
Ave neighs/atom = 9
Neighbor list builds = 0
Dangerous builds = 0
        next i
jump SELF loop1
        change_box all y delta ${ystep1neg} ${ystep1} units lattice
        change_box all y delta -0.001 ${ystep1} units lattice
        change_box all y delta -0.001 0.001 units lattice
[...]

Total # of neighbors = 710
Ave neighs/atom = 8.875
Neighbor list builds = 0
Dangerous builds = 0
        next i
jump SELF loop1
        change_box all y delta ${ystep1neg} ${ystep1} units lattice
        change_box all y delta -0.001 ${ystep1} units lattice
        change_box all y delta -0.001 0.001 units lattice
  orthogonal box = (-0.000896253 -39.7423 0) to (1.12121 39.7423 1.12032)
	run 0
WARNING: No fixes defined, atoms won't move (../verlet.cpp:55)
Memory usage per processor = 2.24304 Mbytes
Step Temp PotEng Lx Ly Lz 
      17            0   -237.99147    1.1221091    79.484519    1.1203166 
Loop time of 9.65898e-07 on 1 procs for 0 steps with 80 atoms

Pair  time (%) = 0 (0)
Neigh time (%) = 0 (0)
Comm  time (%) = 0 (0)
Outpt time (%) = 0 (0)
Other time (%) = 9.65898e-07 (100)

Nlocal:    80 ave 80 max 80 min
Histogram: 1 0 0 0 0 0 0 0 0 0
Nghost:    376 ave 376 max 376 min
Histogram: 1 0 0 0 0 0 0 0 0 0
Neighs:    710 ave 710 max 710 min
Histogram: 1 0 0 0 0 0 0 0 0 0

Total # of neighbors = 710
Ave neighs/atom = 8.875
Neighbor list builds = 0
Dangerous builds = 0
        next i
jump SELF loop1
        change_box all y delta ${ystep1neg} ${ystep1} units lattice
        change_box all y delta -0.001 ${ystep1} units lattice
        change_box all y delta -0.001 0.001 units lattice
  orthogonal box = (-0.000896253 -39.7442 0) to (1.12121 39.7442 1.12032)
	run 0
WARNING: No fixes defined, atoms won't move (../verlet.cpp:55)
Memory usage per processor = 2.24304 Mbytes
Step Temp PotEng Lx Ly Lz 
      17            0   -237.99147    1.1221091      79.4884    1.1203166 
Loop time of 1.10036e-06 on 1 procs for 0 steps with 80 atoms

Pair  time (%) = 0 (0)
Neigh time (%) = 0 (0)
Comm  time (%) = 0 (0)
Outpt time (%) = 0 (0)
Other time (%) = 1.10036e-06 (100)

Nlocal:    80 ave 80 max 80 min
Histogram: 1 0 0 0 0 0 0 0 0 0
Nghost:    376 ave 376 max 376 min
Histogram: 1 0 0 0 0 0 0 0 0 0
Neighs:    710 ave 710 max 710 min
Histogram: 1 0 0 0 0 0 0 0 0 0

Total # of neighbors = 710
Ave neighs/atom = 8.875
Neighbor list builds = 0
Dangerous builds = 0
        next i
jump SELF loop1
        change_box all y delta ${ystep1neg} ${ystep1} units lattice
        change_box all y delta -0.001 ${ystep1} units lattice
        change_box all y delta -0.001 0.001 units lattice
  orthogonal box = (-0.000896253 -39.7461 0) to (1.12121 39.7461 1.12032)
	run 0
WARNING: No fixes defined, atoms won't move (../verlet.cpp:55)
Memory usage per processor = 2.24304 Mbytes
Step Temp PotEng Lx Ly Lz 
      17            0   -237.99147    1.1221091    79.492281    1.1203166 
Loop time of 1.04634e-06 on 1 procs for 0 steps with 80 atoms

Pair  time (%) = 0 (0)
Neigh time (%) = 0 (0)
Comm  time (%) = 0 (0)
Outpt time (%) = 0 (0)
Other time (%) = 1.04634e-06 (100)

Nlocal:    80 ave 80 max 80 min
Histogram: 1 0 0 0 0 0 0 0 0 0
Nghost:    376 ave 376 max 376 min
Histogram: 1 0 0 0 0 0 0 0 0 0
Neighs:    710 ave 710 max 710 min
Histogram: 1 0 0 0 0 0 0 0 0 0

Total # of neighbors = 710
Ave neighs/atom = 8.875
Neighbor list builds = 0
Dangerous builds = 0
        next i
jump SELF loop1
        change_box all y delta ${ystep1neg} ${ystep1} units lattice
        change_box all y delta -0.001 ${ystep1} units lattice
        change_box all y delta -0.001 0.001 units lattice
  orthogonal box = (-0.000896253 -39.7481 0) to (1.12121 39.7481 1.12032)
	run 0
WARNING: No fixes defined, atoms won't move (../verlet.cpp:55)
Memory usage per processor = 2.24304 Mbytes
Step Temp PotEng Lx Ly Lz 
      17            0   -237.99147    1.1221091    79.496162    1.1203166 
Loop time of 1.04192e-07 on 1 procs for 0 steps with 80 atoms

Pair  time (%) = 0 (0)
Neigh time (%) = 0 (0)
Comm  time (%) = 0 (0)
Outpt time (%) = 0 (0)
Other time (%) = 1.04192e-07 (100)

Nlocal:    80 ave 80 max 80 min
Histogram: 1 0 0 0 0 0 0 0 0 0
Nghost:    376 ave 376 max 376 min
Histogram: 1 0 0 0 0 0 0 0 0 0
Neighs:    710 ave 710 max 710 min
Histogram: 1 0 0 0 0 0 0 0 0 0

Total # of neighbors = 710
Ave neighs/atom = 8.875
Neighbor list builds = 0
Dangerous builds = 0
        next i
jump SELF loop1
        change_box all y delta ${ystep1neg} ${ystep1} units lattice
        change_box all y delta -0.001 ${ystep1} units lattice
        change_box all y delta -0.001 0.001 units lattice
  orthogonal box = (-0.000896253 -39.75 0) to (1.12121 39.75 1.12032)
	run 0
WARNING: No fixes defined, atoms won't move (../verlet.cpp:55)
Memory usage per processor = 2.24304 Mbytes
Step Temp PotEng Lx Ly Lz 
      17            0   -237.99147    1.1221091    79.500043    1.1203166 
Loop time of 3.77186e-08 on 1 procs for 0 steps with 80 atoms

Pair  time (%) = 0 (0)
Neigh time (%) = 0 (0)
Comm  time (%) = 0 (0)
Outpt time (%) = 0 (0)
Other time (%) = 3.77186e-08 (100)

Nlocal:    80 ave 80 max 80 min
Histogram: 1 0 0 0 0 0 0 0 0 0
Nghost:    376 ave 376 max 376 min
Histogram: 1 0 0 0 0 0 0 0 0 0
Neighs:    710 ave 710 max 710 min
Histogram: 1 0 0 0 0 0 0 0 0 0

Total # of neighbors = 710
Ave neighs/atom = 8.875
Neighbor list builds = 0
Dangerous builds = 0
        next i
jump SELF loop1
        change_box all y delta ${ystep1neg} ${ystep1} units lattice
        change_box all y delta -0.001 ${ystep1} units lattice
        change_box all y delta -0.001 0.001 units lattice
  orthogonal box = (-0.000896253 -39.752 0) to (1.12121 39.752 1.12032)
	run 0
WARNING: No fixes defined, atoms won't move (../verlet.cpp:55)
Memory usage per processor = 2.24304 Mbytes
Step Temp PotEng Lx Ly Lz 
      17            0   -237.99147    1.1221091    79.503924    1.1203166 
Loop time of 8.84291e-07 on 1 procs for 0 steps with 80 atoms

Pair  time (%) = 0 (0)
Neigh time (%) = 0 (0)
Comm  time (%) = 0 (0)
Outpt time (%) = 0 (0)
Other time (%) = 8.84291e-07 (100)

Nlocal:    80 ave 80 max 80 min
Histogram: 1 0 0 0 0 0 0 0 0 0
Nghost:    376 ave 376 max 376 min
Histogram: 1 0 0 0 0 0 0 0 0 0
Neighs:    710 ave 710 max 710 min
Histogram: 1 0 0 0 0 0 0 0 0 0

Total # of neighbors = 710
Ave neighs/atom = 8.875
Neighbor list builds = 0
Dangerous builds = 0
        next i
jump SELF loop1
        change_box all y delta ${ystep1neg} ${ystep1} units lattice
        change_box all y delta -0.001 ${ystep1} units lattice
        change_box all y delta -0.001 0.001 units lattice
  orthogonal box = (-0.000896253 -39.7539 0) to (1.12121 39.7539 1.12032)
	run 0
WARNING: No fixes defined, atoms won't move (../verlet.cpp:55)
Memory usage per processor = 2.24304 Mbytes
Step Temp PotEng Lx Ly Lz 
      17            0   -237.99147    1.1221091    79.507804    1.1203166 
Loop time of 0 on 1 procs for 0 steps with 80 atoms

Pair  time (%) = 0 (0)
Neigh time (%) = 0 (0)
Comm  time (%) = 0 (0)
Outpt time (%) = 0 (0)
Other time (%) = 0 (0)

Nlocal:    80 ave 80 max 80 min
Histogram: 1 0 0 0 0 0 0 0 0 0
Nghost:    376 ave 376 max 376 min
Histogram: 1 0 0 0 0 0 0 0 0 0
Neighs:    710 ave 710 max 710 min
Histogram: 1 0 0 0 0 0 0 0 0 0

Total # of neighbors = 710
Ave neighs/atom = 8.875
Neighbor list builds = 0
Dangerous builds = 0
        next i
jump SELF loop1
        change_box all y delta ${ystep1neg} ${ystep1} units lattice
        change_box all y delta -0.001 ${ystep1} units lattice
        change_box all y delta -0.001 0.001 units lattice
  orthogonal box = (-0.000896253 -39.7558 0) to (1.12121 39.7558 1.12032)
	run 0
WARNING: No fixes defined, atoms won't move (../verlet.cpp:55)
Memory usage per processor = 2.24304 Mbytes
Step Temp PotEng Lx Ly Lz 
      17            0   -237.99147    1.1221091    79.511685    1.1203166 
Loop time of 1.04192e-07 on 1 procs for 0 steps with 80 atoms

Pair  time (%) = 0 (0)
Neigh time (%) = 0 (0)
Comm  time (%) = 0 (0)
Outpt time (%) = 0 (0)
Other time (%) = 1.04192e-07 (100)

Nlocal:    80 ave 80 max 80 min
Histogram: 1 0 0 0 0 0 0 0 0 0
Nghost:    376 ave 376 max 376 min
Histogram: 1 0 0 0 0 0 0 0 0 0
Neighs:    710 ave 710 max 710 min
Histogram: 1 0 0 0 0 0 0 0 0 0

Total # of neighbors = 710
Ave neighs/atom = 8.875
Neighbor list builds = 0
Dangerous builds = 0
        next i
jump SELF loop1
        change_box all y delta ${ystep1neg} ${ystep1} units lattice
        change_box all y delta -0.001 ${ystep1} units lattice
        change_box all y delta -0.001 0.001 units lattice
  orthogonal box = (-0.000896253 -39.7578 0) to (1.12121 39.7578 1.12032)
	run 0
WARNING: No fixes defined, atoms won't move (../verlet.cpp:55)
Memory usage per processor = 2.24304 Mbytes
Step Temp PotEng Lx Ly Lz 
      17            0   -237.99147    1.1221091    79.515566    1.1203166 
Loop time of 2.53785e-08 on 1 procs for 0 steps with 80 atoms

Pair  time (%) = 0 (0)
Neigh time (%) = 0 (0)
Comm  time (%) = 0 (0)
Outpt time (%) = 0 (0)
Other time (%) = 2.53785e-08 (100)

Nlocal:    80 ave 80 max 80 min
Histogram: 1 0 0 0 0 0 0 0 0 0
Nghost:    376 ave 376 max 376 min
Histogram: 1 0 0 0 0 0 0 0 0 0
Neighs:    710 ave 710 max 710 min
Histogram: 1 0 0 0 0 0 0 0 0 0

Total # of neighbors = 710
Ave neighs/atom = 8.875
Neighbor list builds = 0
Dangerous builds = 0
        next i
jump SELF loop1
        change_box all y delta ${ystep1neg} ${ystep1} units lattice
        change_box all y delta -0.001 ${ystep1} units lattice
        change_box all y delta -0.001 0.001 units lattice
  orthogonal box = (-0.000896253 -39.7597 0) to (1.12121 39.7597 1.12032)
	run 0
WARNING: No fixes defined, atoms won't move (../verlet.cpp:55)
Memory usage per processor = 2.24304 Mbytes
Step Temp PotEng Lx Ly Lz 
      17            0   -237.99147    1.1221091    79.519447    1.1203166 
Loop time of -2.85218e-08 on 1 procs for 0 steps with 80 atoms

Pair  time (%) = 0 (-0)
Neigh time (%) = 0 (-0)
Comm  time (%) = 0 (-0)
Outpt time (%) = 0 (-0)
Other time (%) = -2.85218e-08 (100)

Nlocal:    80 ave 80 max 80 min
Histogram: 1 0 0 0 0 0 0 0 0 0
Nghost:    376 ave 376 max 376 min
Histogram: 1 0 0 0 0 0 0 0 0 0
Neighs:    710 ave 710 max 710 min
Histogram: 1 0 0 0 0 0 0 0 0 0

Total # of neighbors = 710
Ave neighs/atom = 8.875
Neighbor list builds = 0
Dangerous builds = 0
        next i
jump SELF loop1
        change_box all y delta ${ystep1neg} ${ystep1} units lattice
        change_box all y delta -0.001 ${ystep1} units lattice
        change_box all y delta -0.001 0.001 units lattice
  orthogonal box = (-0.000896253 -39.7617 0) to (1.12121 39.7617 1.12032)
	run 0
WARNING: No fixes defined, atoms won't move (../verlet.cpp:55)
Memory usage per processor = 2.24304 Mbytes
Step Temp PotEng Lx Ly Lz 
      17            0   -237.99147    1.1221091    79.523328    1.1203166 
Loop time of 8.99425e-07 on 1 procs for 0 steps with 80 atoms

Pair  time (%) = 0 (0)
Neigh time (%) = 0 (0)
Comm  time (%) = 0 (0)
Outpt time (%) = 0 (0)
Other time (%) = 8.99425e-07 (100)

Nlocal:    80 ave 80 max 80 min
Histogram: 1 0 0 0 0 0 0 0 0 0
Nghost:    376 ave 376 max 376 min
Histogram: 1 0 0 0 0 0 0 0 0 0
Neighs:    710 ave 710 max 710 min
Histogram: 1 0 0 0 0 0 0 0 0 0

Total # of neighbors = 710
Ave neighs/atom = 8.875
Neighbor list builds = 0
Dangerous builds = 0
        next i
jump SELF loop1
        change_box all y delta ${ystep1neg} ${ystep1} units lattice
        change_box all y delta -0.001 ${ystep1} units lattice
        change_box all y delta -0.001 0.001 units lattice
  orthogonal box = (-0.000896253 -39.7636 0) to (1.12121 39.7636 1.12032)
	run 0
WARNING: No fixes defined, atoms won't move (../verlet.cpp:55)
Memory usage per processor = 2.24304 Mbytes
Step Temp PotEng Lx Ly Lz 
      17            0   -237.99147    1.1221091    79.527209    1.1203166 
Loop time of 1.28057e-08 on 1 procs for 0 steps with 80 atoms

Pair  time (%) = 0 (0)
Neigh time (%) = 0 (0)
Comm  time (%) = 0 (0)
Outpt time (%) = 0 (0)
Other time (%) = 1.28057e-08 (100)

Nlocal:    80 ave 80 max 80 min
Histogram: 1 0 0 0 0 0 0 0 0 0
Nghost:    376 ave 376 max 376 min
Histogram: 1 0 0 0 0 0 0 0 0 0
Neighs:    710 ave 710 max 710 min
Histogram: 1 0 0 0 0 0 0 0 0 0

Total # of neighbors = 710
Ave neighs/atom = 8.875
Neighbor list builds = 0
Dangerous builds = 0
        next i
jump SELF loop1
        change_box all y delta ${ystep1neg} ${ystep1} units lattice
        change_box all y delta -0.001 ${ystep1} units lattice
        change_box all y delta -0.001 0.001 units lattice
  orthogonal box = (-0.000896253 -39.7655 0) to (1.12121 39.7655 1.12032)
	run 0
WARNING: No fixes defined, atoms won't move (../verlet.cpp:55)
Memory usage per processor = 2.24304 Mbytes
Step Temp PotEng Lx Ly Lz 
      17            0   -237.99147    1.1221091     79.53109    1.1203166 
Loop time of 6.18165e-08 on 1 procs for 0 steps with 80 atoms

Pair  time (%) = 0 (0)
Neigh time (%) = 0 (0)
Comm  time (%) = 0 (0)
Outpt time (%) = 0 (0)
Other time (%) = 6.18165e-08 (100)

Nlocal:    80 ave 80 max 80 min
Histogram: 1 0 0 0 0 0 0 0 0 0
Nghost:    376 ave 376 max 376 min
Histogram: 1 0 0 0 0 0 0 0 0 0
Neighs:    710 ave 710 max 710 min
Histogram: 1 0 0 0 0 0 0 0 0 0

Total # of neighbors = 710
Ave neighs/atom = 8.875
Neighbor list builds = 0
Dangerous builds = 0
        next i
jump SELF loop1
        change_box all y delta ${ystep1neg} ${ystep1} units lattice
        change_box all y delta -0.001 ${ystep1} units lattice
        change_box all y delta -0.001 0.001 units lattice
  orthogonal box = (-0.000896253 -39.7675 0) to (1.12121 39.7675 1.12032)
	run 0
WARNING: No fixes defined, atoms won't move (../verlet.cpp:55)
Memory usage per processor = 2.24304 Mbytes
Step Temp PotEng Lx Ly Lz 
      17            0   -237.99147    1.1221091    79.534971    1.1203166 
Loop time of -1.16299e-07 on 1 procs for 0 steps with 80 atoms

Pair  time (%) = 0 (-0)
Neigh time (%) = 0 (-0)
Comm  time (%) = 0 (-0)
Outpt time (%) = 0 (-0)
Other time (%) = -1.16299e-07 (100)

Nlocal:    80 ave 80 max 80 min
Histogram: 1 0 0 0 0 0 0 0 0 0
Nghost:    376 ave 376 max 376 min
Histogram: 1 0 0 0 0 0 0 0 0 0
Neighs:    710 ave 710 max 710 min
Histogram: 1 0 0 0 0 0 0 0 0 0

Total # of neighbors = 710
Ave neighs/atom = 8.875
Neighbor list builds = 0
Dangerous builds = 0
        next i
jump SELF loop1
        change_box all y delta ${ystep1neg} ${ystep1} units lattice
        change_box all y delta -0.001 ${ystep1} units lattice
        change_box all y delta -0.001 0.001 units lattice
  orthogonal box = (-0.000896253 -39.7694 0) to (1.12121 39.7694 1.12032)
	run 0
WARNING: No fixes defined, atoms won't move (../verlet.cpp:55)
Memory usage per processor = 2.24304 Mbytes
Step Temp PotEng Lx Ly Lz 
      17            0   -237.99147    1.1221091    79.538852    1.1203166 
Loop time of -6.1933e-08 on 1 procs for 0 steps with 80 atoms

Pair  time (%) = 0 (-0)
Neigh time (%) = 0 (-0)
Comm  time (%) = 0 (-0)
Outpt time (%) = 0 (-0)
Other time (%) = -6.1933e-08 (100)

Nlocal:    80 ave 80 max 80 min
Histogram: 1 0 0 0 0 0 0 0 0 0
Nghost:    376 ave 376 max 376 min
Histogram: 1 0 0 0 0 0 0 0 0 0
Neighs:    710 ave 710 max 710 min
Histogram: 1 0 0 0 0 0 0 0 0 0

Total # of neighbors = 710
Ave neighs/atom = 8.875
Neighbor list builds = 0
Dangerous builds = 0
        next i
jump SELF loop1
        change_box all y delta ${ystep1neg} ${ystep1} units lattice
        change_box all y delta -0.001 ${ystep1} units lattice
        change_box all y delta -0.001 0.001 units lattice
  orthogonal box = (-0.000896253 -39.7714 0) to (1.12121 39.7714 1.12032)
	run 0
WARNING: No fixes defined, atoms won't move (../verlet.cpp:55)
Memory usage per processor = 2.24304 Mbytes
Step Temp PotEng Lx Ly Lz 
      17            0   -237.99147    1.1221091    79.542732    1.1203166 
Loop time of 6.26314e-08 on 1 procs for 0 steps with 80 atoms

Pair  time (%) = 0 (0)
Neigh time (%) = 0 (0)
Comm  time (%) = 0 (0)
Outpt time (%) = 0 (0)
Other time (%) = 6.26314e-08 (100)

Nlocal:    80 ave 80 max 80 min
Histogram: 1 0 0 0 0 0 0 0 0 0
Nghost:    376 ave 376 max 376 min
Histogram: 1 0 0 0 0 0 0 0 0 0
Neighs:    710 ave 710 max 710 min
Histogram: 1 0 0 0 0 0 0 0 0 0

Total # of neighbors = 710
Ave neighs/atom = 8.875
Neighbor list builds = 0
Dangerous builds = 0
        next i
jump SELF loop1
        change_box all y delta ${ystep1neg} ${ystep1} units lattice
        change_box all y delta -0.001 ${ystep1} units lattice
        change_box all y delta -0.001 0.001 units lattice
  orthogonal box = (-0.000896253 -39.7733 0) to (1.12121 39.7733 1.12032)
	run 0
WARNING: No fixes defined, atoms won't move (../verlet.cpp:55)
Memory usage per processor = 2.24304 Mbytes
Step Temp PotEng Lx Ly Lz 
      17            0   -237.99147    1.1221091    79.546613    1.1203166 
Loop time of 9.77889e-09 on 1 procs for 0 steps with 80 atoms

Pair  time (%) = 0 (0)
Neigh time (%) = 0 (0)
Comm  time (%) = 0 (0)
Outpt time (%) = 0 (0)
Other time (%) = 9.77889e-09 (100)

Nlocal:    80 ave 80 max 80 min
Histogram: 1 0 0 0 0 0 0 0 0 0
Nghost:    376 ave 376 max 376 min
Histogram: 1 0 0 0 0 0 0 0 0 0
Neighs:    710 ave 710 max 710 min
Histogram: 1 0 0 0 0 0 0 0 0 0

Total # of neighbors = 710
Ave neighs/atom = 8.875
Neighbor list builds = 0
Dangerous builds = 0
        next i
jump SELF loop1
        change_box all y delta ${ystep1neg} ${ystep1} units lattice
        change_box all y delta -0.001 ${ystep1} units lattice
        change_box all y delta -0.001 0.001 units lattice
  orthogonal box = (-0.000896253 -39.7752 0) to (1.12121 39.7752 1.12032)
	run 0
WARNING: No fixes defined, atoms won't move (../verlet.cpp:55)
Memory usage per processor = 2.24304 Mbytes
Step Temp PotEng Lx Ly Lz 
      17            0   -237.99147    1.1221091    79.550494    1.1203166 
Loop time of 8.96398e-08 on 1 procs for 0 steps with 80 atoms

Pair  time (%) = 0 (0)
Neigh time (%) = 0 (0)
Comm  time (%) = 0 (0)
Outpt time (%) = 0 (0)
Other time (%) = 8.96398e-08 (100)

Nlocal:    80 ave 80 max 80 min
Histogram: 1 0 0 0 0 0 0 0 0 0
Nghost:    376 ave 376 max 376 min
Histogram: 1 0 0 0 0 0 0 0 0 0
Neighs:    710 ave 710 max 710 min
Histogram: 1 0 0 0 0 0 0 0 0 0

Total # of neighbors = 710
Ave neighs/atom = 8.875
Neighbor list builds = 0
Dangerous builds = 0
        next i
jump SELF loop1
        change_box all y delta ${ystep1neg} ${ystep1} units lattice
        change_box all y delta -0.001 ${ystep1} units lattice
        change_box all y delta -0.001 0.001 units lattice
  orthogonal box = (-0.000896253 -39.7772 0) to (1.12121 39.7772 1.12032)
	run 0
WARNING: No fixes defined, atoms won't move (../verlet.cpp:55)
Memory usage per processor = 2.24304 Mbytes
Step Temp PotEng Lx Ly Lz 
      17            0   -237.99147    1.1221091    79.554375    1.1203166 
Loop time of 8.95932e-07 on 1 procs for 0 steps with 80 atoms

Pair  time (%) = 0 (0)
Neigh time (%) = 0 (0)
Comm  time (%) = 0 (0)
Outpt time (%) = 0 (0)
Other time (%) = 8.95932e-07 (100)

Nlocal:    80 ave 80 max 80 min
Histogram: 1 0 0 0 0 0 0 0 0 0
Nghost:    376 ave 376 max 376 min
Histogram: 1 0 0 0 0 0 0 0 0 0
Neighs:    710 ave 710 max 710 min
Histogram: 1 0 0 0 0 0 0 0 0 0

Total # of neighbors = 710
Ave neighs/atom = 8.875
Neighbor list builds = 0
Dangerous builds = 0
        next i
jump SELF loop1
        change_box all y delta ${ystep1neg} ${ystep1} units lattice
        change_box all y delta -0.001 ${ystep1} units lattice
        change_box all y delta -0.001 0.001 units lattice
  orthogonal box = (-0.000896253 -39.7791 0) to (1.12121 39.7791 1.12032)
	run 0
WARNING: No fixes defined, atoms won't move (../verlet.cpp:55)
Memory usage per processor = 2.24304 Mbytes
Step Temp PotEng Lx Ly Lz 
      17            0   -237.99147    1.1221091    79.558256    1.1203166 
Loop time of 1.06741e-06 on 1 procs for 0 steps with 80 atoms

Pair  time (%) = 0 (0)
Neigh time (%) = 0 (0)
Comm  time (%) = 0 (0)
Outpt time (%) = 0 (0)
Other time (%) = 1.06741e-06 (100)

Nlocal:    80 ave 80 max 80 min
Histogram: 1 0 0 0 0 0 0 0 0 0
Nghost:    376 ave 376 max 376 min
Histogram: 1 0 0 0 0 0 0 0 0 0
Neighs:    710 ave 710 max 710 min
Histogram: 1 0 0 0 0 0 0 0 0 0

Total # of neighbors = 710
Ave neighs/atom = 8.875
Neighbor list builds = 0
Dangerous builds = 0
        next i
jump SELF loop1



