LAMMPS (28 Jun 2014)
# attempt at getting tensile strain-stress curve for infinite slab

#file prefix
variable prefix string compression_V_brittle_twin
variable dumpfile string ${prefix}.*.dump
variable dumpfile string compression_V_brittle_twin.*.dump
variable restartfile string ${prefix}.*.equil
variable restartfile string compression_V_brittle_twin.*.equil

#Mass (g/mol)
variable m equal 1

# lattice constant (in Angstroms) and orientation of axes (given by lattice vectors)
variable rho equal 1.0
variable x1 equal 1
variable x2 equal 0
variable x3 equal 1
variable y1 equal 0
variable y2 equal 1
variable y3 equal 0
variable z1 equal -1
variable z2 equal 0
variable z3 equal 1
# length of lattice in different directions (using orientation of lattice vectors)
variable ax equal sqrt(${x1}*${x1}+${x2}*${x2}+${x3}*${x3})
variable ax equal sqrt(1*${x1}+${x2}*${x2}+${x3}*${x3})
variable ax equal sqrt(1*1+${x2}*${x2}+${x3}*${x3})
variable ax equal sqrt(1*1+0*${x2}+${x3}*${x3})
variable ax equal sqrt(1*1+0*0+${x3}*${x3})
variable ax equal sqrt(1*1+0*0+1*${x3})
variable ax equal sqrt(1*1+0*0+1*1)
variable ay equal sqrt(${y1}*${y1}+${y2}*${y2}+${y3}*${y3})
variable ay equal sqrt(0*${y1}+${y2}*${y2}+${y3}*${y3})
variable ay equal sqrt(0*0+${y2}*${y2}+${y3}*${y3})
variable ay equal sqrt(0*0+1*${y2}+${y3}*${y3})
variable ay equal sqrt(0*0+1*1+${y3}*${y3})
variable ay equal sqrt(0*0+1*1+0*${y3})
variable ay equal sqrt(0*0+1*1+0*0)
variable az equal sqrt(${z1}*${z1}+${z2}*${z2}+${z3}*${z3})
variable az equal sqrt(-1*${z1}+${z2}*${z2}+${z3}*${z3})
variable az equal sqrt(-1*-1+${z2}*${z2}+${z3}*${z3})
variable az equal sqrt(-1*-1+0*${z2}+${z3}*${z3})
variable az equal sqrt(-1*-1+0*0+${z3}*${z3})
variable az equal sqrt(-1*-1+0*0+1*${z3})
variable az equal sqrt(-1*-1+0*0+1*1)

# size of box in lattice units
variable lxpos equal 2
variable lxneg equal 0
variable lypos equal 10
variable lyneg equal 0
variable lzpos equal 2
variable lzneg equal 0

# Define minimization parameters and damping
variable etol equal 1.0e-12
variable ftol equal 1.0e-8
variable maxiter equal 10000
variable maxeval equal 20000
variable style string hftn

# boundary conditions
dimension	3
boundary	p s p
atom_style	atomic

# create geometry
units		lj
lattice         fcc ${rho} orient x 1 1 -2 orient y 1 1 1 orient z 1 -1 0 spacing ${ax} ${ay} ${az}
lattice         fcc 1 orient x 1 1 -2 orient y 1 1 1 orient z 1 -1 0 spacing ${ax} ${ay} ${az}
lattice         fcc 1 orient x 1 1 -2 orient y 1 1 1 orient z 1 -1 0 spacing 1.4142135623731 ${ay} ${az}
lattice         fcc 1 orient x 1 1 -2 orient y 1 1 1 orient z 1 -1 0 spacing 1.4142135623731 1 ${az}
lattice         fcc 1 orient x 1 1 -2 orient y 1 1 1 orient z 1 -1 0 spacing 1.4142135623731 1 1.4142135623731
Lattice spacing in x,y,z = 2.24492 1.5874 2.24492
region		myregion block ${lxneg} ${lxpos} ${lyneg} ${lypos} ${lzneg} ${lzpos} units lattice
region		myregion block 0 ${lxpos} ${lyneg} ${lypos} ${lzneg} ${lzpos} units lattice
region		myregion block 0 2 ${lyneg} ${lypos} ${lzneg} ${lzpos} units lattice
region		myregion block 0 2 0 ${lypos} ${lzneg} ${lzpos} units lattice
region		myregion block 0 2 0 10 ${lzneg} ${lzpos} units lattice
region		myregion block 0 2 0 10 0 ${lzpos} units lattice
region		myregion block 0 2 0 10 0 2 units lattice
create_box	1 myregion
Created orthogonal box = (0 0 0) to (4.48985 15.874 4.48985)
  1 by 1 by 1 MPI processor grid

region		upper block INF INF 0.01 INF INF INF
create_atoms	1 region upper
Created 316 atoms

region		lower block INF INF INF 0.01 INF INF
lattice         fcc ${rho} orient x 1 1 -2 orient y -1 -1 -1 orient z -1 1 0 spacing ${ax} ${ay} ${az}
lattice         fcc 1 orient x 1 1 -2 orient y -1 -1 -1 orient z -1 1 0 spacing ${ax} ${ay} ${az}
lattice         fcc 1 orient x 1 1 -2 orient y -1 -1 -1 orient z -1 1 0 spacing 1.4142135623731 ${ay} ${az}
lattice         fcc 1 orient x 1 1 -2 orient y -1 -1 -1 orient z -1 1 0 spacing 1.4142135623731 1 ${az}
lattice         fcc 1 orient x 1 1 -2 orient y -1 -1 -1 orient z -1 1 0 spacing 1.4142135623731 1 1.4142135623731
Lattice spacing in x,y,z = 2.24492 1.5874 2.24492
create_atoms	1 region lower
Created 20 atoms

# define masses
mass * $m
mass * 1

# my fake/morse potential
pair_style      table linear 3001
pair_coeff      * * vpotential_brittle3d dummy
neighbor	0.3 bin
neigh_modify	delay 5

# Setup output
thermo 1
thermo_style custom step pe pxx pyy pxy lx ly lz
thermo_modify norm no

# Compute initial state by relaxing box
min_style ${style}
min_style hftn
minimize ${etol} ${ftol} ${maxiter} ${maxeval}
minimize 1e-12 ${ftol} ${maxiter} ${maxeval}
minimize 1e-12 1e-08 ${maxiter} ${maxeval}
minimize 1e-12 1e-08 10000 ${maxeval}
minimize 1e-12 1e-08 10000 20000
WARNING: Resetting reneighboring criteria during minimization (../min.cpp:168)
Memory usage per processor = 4.90059 Mbytes
Step PotEng Pxx Pyy Pxy Lx Ly Lz 
       0    37288.425    1007.4811    0.1156645  0.034937582    4.4898482    15.583444    4.4898482 
       1    12174.547    416.29239   0.63600181   0.22673672    4.4898482    15.583444    4.4898482 
       2    3235.7356    175.14692     1.409886   0.49784623    4.4898482    15.583444    4.4898482 
       3    108.13568    79.039259     2.387064   0.83222992    4.4898482    15.583444    4.4898482 
       4    108.13568    79.037983    2.3870255   0.83221649    4.4898482    15.583696    4.4898482 
       5   -1091.0917    37.709321    3.3249757  -0.20840219    4.4898482    15.583696    4.4898482 
       6   -1419.6601    24.955824     3.993337  0.059282108    4.4898482    15.583696    4.4898482 
       7   -1505.1725    20.403129    4.4013734  -0.52399402    4.4898482    15.848866    4.4898482 
       8   -1533.5013    18.450546    3.6717285  -0.68736829    4.4898482    15.848866    4.4898482 
       9   -1543.5639    18.124534    3.9359333  -0.78834114    4.4898482    15.848866    4.4898482 
      10   -1551.5934    17.423508    3.6894595  -0.96338316    4.4898482    15.848866    4.4898482 
      11   -1559.1824     16.76297    3.7350406  -0.91820677    4.4898482    16.207948    4.4898482 
      12   -1573.6433    15.313665    3.4935147    -1.145411    4.4898482    16.207948    4.4898482 
      13   -1579.2601    15.136065    3.5405361   -1.0671227    4.4898482    16.207948    4.4898482 
      14   -1588.7368    13.813315    3.2048615   -1.1917199    4.4898482    16.515667    4.4898482 
      15   -1601.5638    12.231004    2.6504193   -1.1700978    4.4898482    16.515667    4.4898482 
      16   -1614.7557     11.15634    1.8761646  -0.95404457    4.4898482     16.68178    4.4898482 
      17   -1618.0668    10.505315    1.5189041  -0.92217878    4.4898482     16.68178    4.4898482 
      18   -1623.9701    10.402563    1.1832761  -0.78227148    4.4898482     16.68178    4.4898482 
      19   -1627.7714    8.9128504    1.1624021   0.11129723    4.4898482    16.896045    4.4898482 
      20   -1648.3227    8.3521673    1.2671908  0.084090561    4.4898482    16.896045    4.4898482 
      21   -1693.2275     7.351942   0.91296584   -0.1007996    4.4898482    16.892911    4.4898482 
      22   -1704.8364     6.830079   0.64612521  -0.17864595    4.4898482    16.892911    4.4898482 
      23   -1712.7086    5.9581503  0.054869892  -0.22195469    4.4898482    16.892911    4.4898482 
      24   -1712.7086    5.9581503  0.054869892  -0.22195469    4.4898482    16.892911    4.4898482 
      25   -1716.8737     5.770883  -0.08530028  -0.19051038    4.4898482    16.892911    4.4898482 
      26   -1723.4362    5.5830721   0.13481108 -0.014117541    4.4898482    16.940183    4.4898482 
      27   -1735.8054    5.0729665   0.24555828   0.39171659    4.4898482    16.940183    4.4898482 
      28   -1759.0957    4.1692342   0.45155512   0.45968992    4.4898482    16.901542    4.4898482 
      29   -1791.0298    3.3152309   0.19120467   0.35412068    4.4898482    16.901542    4.4898482 
      30   -1809.7678    2.5305069  -0.10386278    0.3267747    4.4898482    16.890123    4.4898482 
      31   -1809.7678    2.5305069  -0.10386278    0.3267747    4.4898482    16.890123    4.4898482 
      32   -1814.8953    2.4036689   -0.2550836   0.36202872    4.4898482    16.890123    4.4898482 
      33    -1824.517    2.2161133  -0.27745288   0.43433578    4.4898482    16.890123    4.4898482 
      34   -1847.7893    1.6509065  -0.31711075   0.38143089    4.4898482    16.887035    4.4898482 
      35   -1863.8728     1.284647  -0.56713457   0.17452788    4.4898482    16.887035    4.4898482 
      36   -1863.8728    1.2856895  -0.56759481   0.17466952    4.4898482    16.873343    4.4898482 
      37   -1867.9666    1.2117201  -0.73977893  0.090719752    4.4898482    16.873343    4.4898482 
      38   -1871.9681    1.3348385  -0.70483015  0.067833326    4.4898482    16.873343    4.4898482 
      39   -1874.6591     1.228528  -0.69123154  0.026578775    4.4898482    16.873343    4.4898482 
      40    -1875.594    1.3505912  -0.35955472   0.04492131    4.4898482    16.873343    4.4898482 
      41   -1875.8738    1.4682461 -0.0050617227  0.010876737    4.4898482    16.873343    4.4898482 
      42   -1875.8853    1.4736383 0.00041109499 -0.00020070417    4.4898482    16.873343    4.4898482 
      43   -1875.8853    1.4734494 -6.1553702e-08 -5.4079336e-09    4.4898482    16.873343    4.4898482 
      44   -1875.8853    1.4734494 3.3543903e-11 1.2687324e-12    4.4898482    16.873343    4.4898482 
Loop time of 0.289793 on 1 procs for 43 steps with 336 atoms

Minimization stats:
  Stopping criterion = force tolerance
  Energy initial, next-to-last, final = 
         37288.4252671     -1875.88525171     -1875.88526412
  Force two-norm initial, final = 107401 4.2127e-09
  Force max component initial, final = 10961.9 4.81569e-10
  Final line search alpha, max atom move = 0 0
  Iterations, force evaluations = 43 915

Pair  time (%) = 0.232704 (80.3002)
Neigh time (%) = 0.00696613 (2.40383)
Comm  time (%) = 0.031725 (10.9475)
Outpt time (%) = 0.00239739 (0.827278)
Other time (%) = 0.016 (5.52119)

Nlocal:    336 ave 336 max 336 min
Histogram: 1 0 0 0 0 0 0 0 0 0
Nghost:    1119 ave 1119 max 1119 min
Histogram: 1 0 0 0 0 0 0 0 0 0
Neighs:    8488 ave 8488 max 8488 min
Histogram: 1 0 0 0 0 0 0 0 0 0

Total # of neighbors = 8488
Ave neighs/atom = 25.2619
Neighbor list builds = 16
Dangerous builds = 3
reset_timestep 0
write_dump all atom orig.dump

# Energy curve will have nstep steps
variable strainmax equal -0.05
variable strainstep equal -0.0005
variable nsteps equal round(${strainmax}/${strainstep})
variable nsteps equal round(-0.05/${strainstep})
variable nsteps equal round(-0.05/-0.0005)
variable direction string y

variable i loop ${nsteps}
variable i loop 100
label loop1
        read_dump orig.dump 0 x y z
  orthogonal box = (0 -0.59858 0) to (4.48985 16.1788 4.48985)
  336 atoms before read
  336 atoms in snapshot
  0 atoms purged
  336 atoms replaced
  0 atoms trimmed
  0 atoms added
  336 atoms after read
        variable stretch equal 1+$i*${strainstep}
        variable stretch equal 1+1*${strainstep}
        variable stretch equal 1+1*-0.0005
        change_box all ${direction} scale ${stretch} remap
        change_box all y scale ${stretch} remap
        change_box all y scale 0.9995 remap
  orthogonal box = (0 -0.596063 0) to (4.48985 16.1763 4.48985)
        min_style ${style}
        min_style hftn
        minimize ${etol} ${ftol} ${maxiter} ${maxeval}
        minimize 1e-12 ${ftol} ${maxiter} ${maxeval}
        minimize 1e-12 1e-08 ${maxiter} ${maxeval}
        minimize 1e-12 1e-08 10000 ${maxeval}
        minimize 1e-12 1e-08 10000 20000
WARNING: Resetting reneighboring criteria during minimization (../min.cpp:168)
Memory usage per processor = 4.9009 Mbytes
Step PotEng Pxx Pyy Pxy Lx Ly Lz 
       0   -1875.8836    1.4960025  0.041499957 -0.0017373945      4.48985    16.772371      4.48985 
       1   -1875.8855    1.4823633 0.00018427382 0.00041374932      4.48985    16.772371      4.48985 
       2   -1875.8855    1.4822543 -5.5717591e-06  8.38606e-08      4.48985    16.772371      4.48985 
       3   -1875.8855    1.4822543 -5.5717591e-06  8.38606e-08      4.48985    16.772371      4.48985 
       4   -1875.8855    1.4822543 -5.5717591e-06  8.38606e-08      4.48985    16.772371      4.48985 
       5   -1875.8855    1.4822543 -5.4912741e-06 1.1428646e-07      4.48985    16.772371      4.48985 
Loop time of 0.070395 on 1 procs for 4 steps with 336 atoms

Minimization stats:
  Stopping criterion = energy tolerance
  Energy initial, next-to-last, final = 
         -1875.8836187     -1875.88548417      -1875.8854862
  Force two-norm initial, final = 0.348031 0.000350899
  Force max component initial, final = 0.0476901 8.66882e-05
  Final line search alpha, max atom move = 0 0
  Iterations, force evaluations = 4 237

Pair  time (%) = 0.056326 (80.0142)
Neigh time (%) = 0 (0)
Comm  time (%) = 0.0066705 (9.47582)
Outpt time (%) = 0.000120066 (0.17056)
Other time (%) = 0.00727845 (10.3394)

Nlocal:    336 ave 336 max 336 min
Histogram: 1 0 0 0 0 0 0 0 0 0
Nghost:    1110 ave 1110 max 1110 min
Histogram: 1 0 0 0 0 0 0 0 0 0
Neighs:    8504 ave 8504 max 8504 min
Histogram: 1 0 0 0 0 0 0 0 0 0

Total # of neighbors = 8504
Ave neighs/atom = 25.3095
Neighbor list builds = 0
Dangerous builds = 0
        next i
jump SELF loop1
        read_dump orig.dump 0 x y z
  orthogonal box = (0 -0.59858 0) to (4.48985 16.1788 4.48985)
  336 atoms before read
  336 atoms in snapshot
  0 atoms purged
  336 atoms replaced
  0 atoms trimmed
  0 atoms added
  336 atoms after read
        variable stretch equal 1+$i*${strainstep}
        variable stretch equal 1+2*${strainstep}
        variable stretch equal 1+2*-0.0005
        change_box all ${direction} scale ${stretch} remap
        change_box all y scale ${stretch} remap
        change_box all y scale 0.999 remap
  orthogonal box = (0 -0.591868 0) to (4.48985 16.1721 4.48985)
        min_style ${style}
        min_style hftn
        minimize ${etol} ${ftol} ${maxiter} ${maxeval}
        minimize 1e-12 ${ftol} ${maxiter} ${maxeval}
        minimize 1e-12 1e-08 ${maxiter} ${maxeval}
        minimize 1e-12 1e-08 10000 ${maxeval}
        minimize 1e-12 1e-08 10000 20000
WARNING: Resetting reneighboring criteria during minimization (../min.cpp:168)
Memory usage per processor = 4.9009 Mbytes
Step PotEng Pxx Pyy Pxy Lx Ly Lz 
       0   -1875.8707    1.5197991   0.11110037 -0.0046224014      4.48985    16.763981      4.48985 
       1   -1875.8854    1.4834043  0.000885427 0.0010480564      4.48985    16.763981      4.48985 
       2   -1875.8855     1.482985 -5.9856679e-05 1.1231888e-05      4.48985    16.763981      4.48985 
       3   -1875.8855    1.4829981 2.197187e-08 -9.6090047e-09      4.48985    16.763981      4.48985 
       4   -1875.8855    1.4829981 -7.7841474e-11 1.5631029e-11      4.48985    16.763981      4.48985 
Loop time of 0.093164 on 1 procs for 3 steps with 336 atoms

Minimization stats:
  Stopping criterion = force tolerance
  Energy initial, next-to-last, final = 
        -1875.87071253     -1875.88548593     -1875.88548611
  Force two-norm initial, final = 0.926727 4.04341e-09
  Force max component initial, final = 0.126664 9.59352e-10
  Final line search alpha, max atom move = 0 0
  Iterations, force evaluations = 3 303

Pair  time (%) = 0.0772655 (82.9349)
Neigh time (%) = 0 (0)
Comm  time (%) = 0.00719585 (7.72385)
Outpt time (%) = 0.000163953 (0.175983)
Other time (%) = 0.0085387 (9.16524)

Nlocal:    336 ave 336 max 336 min
Histogram: 1 0 0 0 0 0 0 0 0 0
Nghost:    1110 ave 1110 max 1110 min
Histogram: 1 0 0 0 0 0 0 0 0 0
Neighs:    8504 ave 8504 max 8504 min
Histogram: 1 0 0 0 0 0 0 0 0 0

Total # of neighbors = 8504
Ave neighs/atom = 25.3095
Neighbor list builds = 0
Dangerous builds = 0
        next i
jump SELF loop1
        read_dump orig.dump 0 x y z
  orthogonal box = (0 -0.59858 0) to (4.48985 16.1788 4.48985)
  336 atoms before read
  336 atoms in snapshot
  0 atoms purged
  336 atoms replaced
  0 atoms trimmed
  0 atoms added
  336 atoms after read
        variable stretch equal 1+$i*${strainstep}
        variable stretch equal 1+3*${strainstep}
        variable stretch equal 1+3*-0.0005
        change_box all ${direction} scale ${stretch} remap
        change_box all y scale ${stretch} remap
        change_box all y scale 0.9985 remap
  orthogonal box = (0 -0.587672 0) to (4.48985 16.1679 4.48985)
        min_style ${style}
        min_style hftn
        minimize ${etol} ${ftol} ${maxiter} ${maxeval}
        minimize 1e-12 ${ftol} ${maxiter} ${maxeval}
        minimize 1e-12 1e-08 ${maxiter} ${maxeval}
        minimize 1e-12 1e-08 10000 ${maxeval}
        minimize 1e-12 1e-08 10000 20000
WARNING: Resetting reneighboring criteria during minimization (../min.cpp:168)
Memory usage per processor = 4.9009 Mbytes
Step PotEng Pxx Pyy Pxy Lx Ly Lz 
       0   -1875.8461    1.5437467    0.1811832 -0.0074666628      4.48985    16.755591      4.48985 
       1   -1875.8854    1.4846203   0.00202965 0.0017708201      4.48985    16.755591      4.48985 
       2   -1875.8855    1.4837288 -7.2202205e-05 1.6969532e-05      4.48985    16.755591      4.48985 
       3   -1875.8855    1.4837408 6.8957232e-08 2.6866569e-08      4.48985    16.755591      4.48985 
       4   -1875.8855    1.4837407 -1.8123221e-11 6.5182358e-11      4.48985    16.755591      4.48985 
       5   -1875.8855    1.4837407 4.4818485e-12 5.8944618e-13      4.48985    16.755591      4.48985 
Loop time of 0.116859 on 1 procs for 4 steps with 336 atoms

Minimization stats:
  Stopping criterion = force tolerance
  Energy initial, next-to-last, final = 
        -1875.84608365     -1875.88547647     -1875.88548611
  Force two-norm initial, final = 1.51068 8.27298e-11
  Force max component initial, final = 0.206368 2.43663e-11
  Final line search alpha, max atom move = 0 0
  Iterations, force evaluations = 4 401

Pair  time (%) = 0.0994037 (85.063)
Neigh time (%) = 0 (0)
Comm  time (%) = 0.00574669 (4.91763)
Outpt time (%) = 0.000254867 (0.218098)
Other time (%) = 0.0114537 (9.80129)

Nlocal:    336 ave 336 max 336 min
Histogram: 1 0 0 0 0 0 0 0 0 0
Nghost:    1110 ave 1110 max 1110 min
Histogram: 1 0 0 0 0 0 0 0 0 0
Neighs:    8504 ave 8504 max 8504 min
Histogram: 1 0 0 0 0 0 0 0 0 0

Total # of neighbors = 8504
Ave neighs/atom = 25.3095
Neighbor list builds = 0
Dangerous builds = 0
        next i
jump SELF loop1
        read_dump orig.dump 0 x y z
  orthogonal box = (0 -0.59858 0) to (4.48985 16.1788 4.48985)
  336 atoms before read
  336 atoms in snapshot
  0 atoms purged
  336 atoms replaced
  0 atoms trimmed
  0 atoms added
  336 atoms after read
        variable stretch equal 1+$i*${strainstep}
        variable stretch equal 1+4*${strainstep}
        variable stretch equal 1+4*-0.0005
        change_box all ${direction} scale ${stretch} remap
        change_box all y scale ${stretch} remap
        change_box all y scale 0.998 remap
  orthogonal box = (0 -0.583477 0) to (4.48985 16.1637 4.48985)
        min_style ${style}
        min_style hftn
        minimize ${etol} ${ftol} ${maxiter} ${maxeval}
        minimize 1e-12 ${ftol} ${maxiter} ${maxeval}
        minimize 1e-12 1e-08 ${maxiter} ${maxeval}
        minimize 1e-12 1e-08 10000 ${maxeval}
        minimize 1e-12 1e-08 10000 20000
WARNING: Resetting reneighboring criteria during minimization (../min.cpp:168)
Memory usage per processor = 4.9009 Mbytes
Step PotEng Pxx Pyy Pxy Lx Ly Lz 
       0   -1875.8098    1.5678595   0.25177815  -0.01029812      4.48985      16.7472      4.48985 
       1   -1875.8853     1.486037 0.0038055479 0.0023824735      4.48985      16.7472      4.48985 
       2   -1875.8855    1.4844914 -0.00010052592 4.1975134e-05      4.48985      16.7472      4.48985 
       3   -1875.8855    1.4844914 -0.00010052592 4.1975134e-05      4.48985      16.7472      4.48985 
       4   -1875.8855    1.4844914 -0.00010052592 4.1975134e-05      4.48985      16.7472      4.48985 
       5   -1875.8855    1.4844914 -0.00010052592 4.1975134e-05      4.48985      16.7472      4.48985 
       6   -1875.8855    1.4844914 -0.00010052592 4.1975134e-05      4.48985      16.7472      4.48985 
       7   -1875.8855    1.4844914 -0.00010052592 4.1975134e-05      4.48985      16.7472      4.48985 
       8   -1875.8855    1.4844914 -0.00010052592 4.1975134e-05      4.48985      16.7472      4.48985 
       9   -1875.8855    1.4844914 -0.00010052412 4.1975063e-05      4.48985      16.7472      4.48985 
Loop time of 0.086816 on 1 procs for 8 steps with 336 atoms

Minimization stats:
  Stopping criterion = energy tolerance
  Energy initial, next-to-last, final = 
        -1875.80978384     -1875.88530017     -1875.88549079
  Force two-norm initial, final = 2.09836 0.00896745
  Force max component initial, final = 0.286486 0.00210859
  Final line search alpha, max atom move = 0 0
  Iterations, force evaluations = 8 235

Pair  time (%) = 0.066815 (76.9616)
Neigh time (%) = 0 (0)
Comm  time (%) = 0.0038711 (4.45897)
Outpt time (%) = 0.0124183 (14.3041)
Other time (%) = 0.00371163 (4.27528)

Nlocal:    336 ave 336 max 336 min
Histogram: 1 0 0 0 0 0 0 0 0 0
Nghost:    1110 ave 1110 max 1110 min
Histogram: 1 0 0 0 0 0 0 0 0 0
Neighs:    8504 ave 8504 max 8504 min
Histogram: 1 0 0 0 0 0 0 0 0 0

Total # of neighbors = 8504
Ave neighs/atom = 25.3095
Neighbor list builds = 0
Dangerous builds = 0
        next i
jump SELF loop1
        read_dump orig.dump 0 x y z
  orthogonal box = (0 -0.59858 0) to (4.48985 16.1788 4.48985)
  336 atoms before read
  336 atoms in snapshot
  0 atoms purged
  336 atoms replaced
  0 atoms trimmed
  0 atoms added
  336 atoms after read
        variable stretch equal 1+$i*${strainstep}
        variable stretch equal 1+5*${strainstep}
        variable stretch equal 1+5*-0.0005
        change_box all ${direction} scale ${stretch} remap
        change_box all y scale ${stretch} remap
        change_box all y scale 0.9975 remap
  orthogonal box = (0 -0.579282 0) to (4.48985 16.1595 4.48985)
        min_style ${style}
        min_style hftn
        minimize ${etol} ${ftol} ${maxiter} ${maxeval}
        minimize 1e-12 ${ftol} ${maxiter} ${maxeval}
        minimize 1e-12 1e-08 ${maxiter} ${maxeval}
        minimize 1e-12 1e-08 10000 ${maxeval}
        minimize 1e-12 1e-08 10000 20000
WARNING: Resetting reneighboring criteria during minimization (../min.cpp:168)
Memory usage per processor = 4.9009 Mbytes
Step PotEng Pxx Pyy Pxy Lx Ly Lz 
       0    -1875.761    1.5920414   0.32273833 -0.012968917      4.48985     16.73881      4.48985 
       1   -1875.8851    1.4857677 0.0030740025 0.0032161329      4.48985     16.73881      4.48985 
       2   -1875.8855    1.4848007 -0.0014472202 0.00048921677      4.48985     16.73881      4.48985 
       3   -1875.8855    1.4852285 4.2145113e-07 1.342444e-07      4.48985     16.73881      4.48985 
       4   -1875.8855    1.4852282 -3.1864723e-12 5.4218259e-12      4.48985     16.73881      4.48985 
Loop time of 0.120612 on 1 procs for 3 steps with 336 atoms

Minimization stats:
  Stopping criterion = force tolerance
  Energy initial, next-to-last, final = 
        -1875.76102481      -1875.8854798     -1875.88548611
  Force two-norm initial, final = 2.68858 2.90906e-09
  Force max component initial, final = 0.367366 4.90982e-10
  Final line search alpha, max atom move = 0 0
  Iterations, force evaluations = 3 300

Pair  time (%) = 0.0807039 (66.9121)
Neigh time (%) = 0 (0)
Comm  time (%) = 0.0279649 (23.1859)
Outpt time (%) = 0.00273103 (2.26431)
Other time (%) = 0.00921203 (7.63775)

Nlocal:    336 ave 336 max 336 min
Histogram: 1 0 0 0 0 0 0 0 0 0
Nghost:    1110 ave 1110 max 1110 min
Histogram: 1 0 0 0 0 0 0 0 0 0
Neighs:    8504 ave 8504 max 8504 min
Histogram: 1 0 0 0 0 0 0 0 0 0

Total # of neighbors = 8504
Ave neighs/atom = 25.3095
Neighbor list builds = 0
Dangerous builds = 0
        next i
jump SELF loop1
        read_dump orig.dump 0 x y z
  orthogonal box = (0 -0.59858 0) to (4.48985 16.1788 4.48985)
  336 atoms before read
  336 atoms in snapshot
  0 atoms purged
  336 atoms replaced
  0 atoms trimmed
  0 atoms added
  336 atoms after read
        variable stretch equal 1+$i*${strainstep}
        variable stretch equal 1+6*${strainstep}
        variable stretch equal 1+6*-0.0005
        change_box all ${direction} scale ${stretch} remap
        change_box all y scale ${stretch} remap
        change_box all y scale 0.997 remap
  orthogonal box = (0 -0.575087 0) to (4.48985 16.1554 4.48985)
        min_style ${style}
        min_style hftn
        minimize ${etol} ${ftol} ${maxiter} ${maxeval}
        minimize 1e-12 ${ftol} ${maxiter} ${maxeval}
        minimize 1e-12 1e-08 ${maxiter} ${maxeval}
        minimize 1e-12 1e-08 10000 ${maxeval}
        minimize 1e-12 1e-08 10000 20000
WARNING: Resetting reneighboring criteria during minimization (../min.cpp:168)
Memory usage per processor = 4.9009 Mbytes
Step PotEng Pxx Pyy Pxy Lx Ly Lz 
       0   -1875.7004    1.6161509    0.3938454 -0.015318549      4.48985    16.730419      4.48985 
       1   -1875.8849    1.4874116 0.0057780388 0.0037984814      4.48985    16.730419      4.48985 
       2   -1875.8855    1.4859033 -0.00032508141 8.4553873e-05      4.48985    16.730419      4.48985 
       3   -1875.8855    1.4859033 -0.00032508141 8.4553873e-05      4.48985    16.730419      4.48985 
       4   -1875.8855    1.4859033 -0.00032508141 8.4553873e-05      4.48985    16.730419      4.48985 
       5   -1875.8855    1.4859033 -0.00032508141 8.4553873e-05      4.48985    16.730419      4.48985 
       6   -1875.8855    1.4859033 -0.00032508141 8.4553873e-05      4.48985    16.730419      4.48985 
       7   -1875.8855    1.4859033 -0.00032508141 8.4553873e-05      4.48985    16.730419      4.48985 
       8   -1875.8855    1.4859033 -0.00032508141 8.4553873e-05      4.48985    16.730419      4.48985 
       9   -1875.8855    1.4859033 -0.00032507145 8.4558708e-05      4.48985    16.730419      4.48985 
Loop time of 0.0678139 on 1 procs for 8 steps with 336 atoms

Minimization stats:
  Stopping criterion = energy tolerance
  Energy initial, next-to-last, final = 
          -1875.700352      -1875.8849368     -1875.88549587
  Force two-norm initial, final = 3.27865 0.0184159
  Force max component initial, final = 0.448771 0.00230767
  Final line search alpha, max atom move = 0 0
  Iterations, force evaluations = 8 229

Pair  time (%) = 0.0561288 (82.7689)
Neigh time (%) = 0 (0)
Comm  time (%) = 0.00717869 (10.5859)
Outpt time (%) = 0.00043701 (0.644426)
Other time (%) = 0.00406938 (6.0008)

Nlocal:    336 ave 336 max 336 min
Histogram: 1 0 0 0 0 0 0 0 0 0
Nghost:    1110 ave 1110 max 1110 min
Histogram: 1 0 0 0 0 0 0 0 0 0
Neighs:    8504 ave 8504 max 8504 min
Histogram: 1 0 0 0 0 0 0 0 0 0

Total # of neighbors = 8504
Ave neighs/atom = 25.3095
Neighbor list builds = 0
Dangerous builds = 0
        next i
jump SELF loop1
        read_dump orig.dump 0 x y z
  orthogonal box = (0 -0.59858 0) to (4.48985 16.1788 4.48985)
  336 atoms before read
  336 atoms in snapshot
  0 atoms purged
  336 atoms replaced
  0 atoms trimmed
  0 atoms added
  336 atoms after read
        variable stretch equal 1+$i*${strainstep}
        variable stretch equal 1+7*${strainstep}
        variable stretch equal 1+7*-0.0005
        change_box all ${direction} scale ${stretch} remap
        change_box all y scale ${stretch} remap
        change_box all y scale 0.9965 remap
  orthogonal box = (0 -0.570892 0) to (4.48985 16.1512 4.48985)
        min_style ${style}
        min_style hftn
        minimize ${etol} ${ftol} ${maxiter} ${maxeval}
        minimize 1e-12 ${ftol} ${maxiter} ${maxeval}
        minimize 1e-12 1e-08 ${maxiter} ${maxeval}
        minimize 1e-12 1e-08 10000 ${maxeval}
        minimize 1e-12 1e-08 10000 20000
WARNING: Resetting reneighboring criteria during minimization (../min.cpp:168)
Memory usage per processor = 4.9009 Mbytes
Step PotEng Pxx Pyy Pxy Lx Ly Lz 
       0   -1875.6278    1.6398515   0.46454008 -0.016917617      4.48985    16.722029      4.48985 
       1   -1875.8808    1.4807573 -0.004060319 0.0053738717      4.48985    16.722029      4.48985 
       2   -1875.8853    1.4870128 -0.0014945289 0.0071449885      4.48985    16.722029      4.48985 
       3   -1875.8855      1.48672 1.5781797e-05 -1.1550714e-05      4.48985    16.722029      4.48985 
       4   -1875.8855    1.4867186 2.4719674e-09 1.437906e-09      4.48985    16.722029      4.48985 
       5   -1875.8855    1.4867186 5.8676286e-11 -1.5767405e-11      4.48985    16.722029      4.48985 
Loop time of 0.140167 on 1 procs for 4 steps with 336 atoms

Minimization stats:
  Stopping criterion = force tolerance
  Energy initial, next-to-last, final = 
        -1875.62780537     -1875.88548582     -1875.88548611
  Force two-norm initial, final = 3.86705 3.83237e-09
  Force max component initial, final = 0.530851 1.25683e-09
  Final line search alpha, max atom move = 0 0
  Iterations, force evaluations = 4 316

Pair  time (%) = 0.107815 (76.9191)
Neigh time (%) = 0 (0)
Comm  time (%) = 0.0123409 (8.80443)
Outpt time (%) = 0.00670005 (4.78005)
Other time (%) = 0.0133109 (9.49643)

Nlocal:    336 ave 336 max 336 min
Histogram: 1 0 0 0 0 0 0 0 0 0
Nghost:    1110 ave 1110 max 1110 min
Histogram: 1 0 0 0 0 0 0 0 0 0
Neighs:    8504 ave 8504 max 8504 min
Histogram: 1 0 0 0 0 0 0 0 0 0

Total # of neighbors = 8504
Ave neighs/atom = 25.3095
Neighbor list builds = 0
Dangerous builds = 0
        next i
jump SELF loop1
        read_dump orig.dump 0 x y z
  orthogonal box = (0 -0.59858 0) to (4.48985 16.1788 4.48985)
  336 atoms before read
  336 atoms in snapshot
  0 atoms purged
  336 atoms replaced
  0 atoms trimmed
  0 atoms added
  336 atoms after read
        variable stretch equal 1+$i*${strainstep}
        variable stretch equal 1+8*${strainstep}
        variable stretch equal 1+8*-0.0005
        change_box all ${direction} scale ${stretch} remap
        change_box all y scale ${stretch} remap
        change_box all y scale 0.996 remap
  orthogonal box = (0 -0.566696 0) to (4.48985 16.147 4.48985)
        min_style ${style}
        min_style hftn
        minimize ${etol} ${ftol} ${maxiter} ${maxeval}
        minimize 1e-12 ${ftol} ${maxiter} ${maxeval}
        minimize 1e-12 1e-08 ${maxiter} ${maxeval}
        minimize 1e-12 1e-08 10000 ${maxeval}
        minimize 1e-12 1e-08 10000 20000
WARNING: Resetting reneighboring criteria during minimization (../min.cpp:168)
Memory usage per processor = 4.9009 Mbytes
Step PotEng Pxx Pyy Pxy Lx Ly Lz 
       0   -1875.5433    1.6634153   0.53526896 -0.018104563      4.48985    16.713639      4.48985 
       1   -1875.8564    1.4665621  -0.02499957 0.0080605382      4.48985    16.713639      4.48985 
       2   -1875.8848    1.4833045 -0.015214447  0.011171627      4.48985    16.713639      4.48985 
       3   -1875.8855    1.4874465 2.7776404e-05 -7.5980035e-05      4.48985    16.713639      4.48985 
       4   -1875.8855    1.4874649 -1.4156387e-07 -1.1238661e-07      4.48985    16.713639      4.48985 
       5   -1875.8855     1.487465 3.2116155e-11 -9.9946855e-11      4.48985    16.713639      4.48985 
Loop time of 0.086649 on 1 procs for 4 steps with 336 atoms

Minimization stats:
  Stopping criterion = energy tolerance
  Energy initial, next-to-last, final = 
        -1875.54326982     -1875.88547457     -1875.88548611
  Force two-norm initial, final = 4.46249 1.19058e-08
  Force max component initial, final = 0.61343 2.49271e-09
  Final line search alpha, max atom move = 0 0
  Iterations, force evaluations = 4 299

Pair  time (%) = 0.0697425 (80.4884)
Neigh time (%) = 0 (0)
Comm  time (%) = 0.00873562 (10.0816)
Outpt time (%) = 0.000220994 (0.255045)
Other time (%) = 0.00794996 (9.1749)

Nlocal:    336 ave 336 max 336 min
Histogram: 1 0 0 0 0 0 0 0 0 0
Nghost:    1110 ave 1110 max 1110 min
Histogram: 1 0 0 0 0 0 0 0 0 0
Neighs:    8504 ave 8504 max 8504 min
Histogram: 1 0 0 0 0 0 0 0 0 0

Total # of neighbors = 8504
Ave neighs/atom = 25.3095
Neighbor list builds = 0
Dangerous builds = 0
        next i
jump SELF loop1
        read_dump orig.dump 0 x y z
  orthogonal box = (0 -0.59858 0) to (4.48985 16.1788 4.48985)
  336 atoms before read
  336 atoms in snapshot
  0 atoms purged
  336 atoms replaced
  0 atoms trimmed
  0 atoms added
  336 atoms after read
        variable stretch equal 1+$i*${strainstep}
        variable stretch equal 1+9*${strainstep}
        variable stretch equal 1+9*-0.0005
        change_box all ${direction} scale ${stretch} remap
        change_box all y scale ${stretch} remap
        change_box all y scale 0.9955 remap
  orthogonal box = (0 -0.562501 0) to (4.48985 16.1428 4.48985)
        min_style ${style}
        min_style hftn
        minimize ${etol} ${ftol} ${maxiter} ${maxeval}
        minimize 1e-12 ${ftol} ${maxiter} ${maxeval}
        minimize 1e-12 1e-08 ${maxiter} ${maxeval}
        minimize 1e-12 1e-08 10000 ${maxeval}
        minimize 1e-12 1e-08 10000 20000
WARNING: Resetting reneighboring criteria during minimization (../min.cpp:168)
Memory usage per processor = 4.9009 Mbytes
Step PotEng Pxx Pyy Pxy Lx Ly Lz 
       0    -1875.447     1.686688   0.60580378 -0.018689546      4.48985    16.705248      4.48985 
       1   -1875.8567    1.4686617 -0.020936285 0.0075664019      4.48985    16.705248      4.48985 
       2   -1875.8849    1.4850474 -0.012123241  0.010804451      4.48985    16.705248      4.48985 
       3   -1875.8855    1.4882286  5.79314e-05 -1.5554885e-05      4.48985    16.705248      4.48985 
       4   -1875.8855     1.488212 -4.8269767e-08 -4.7174858e-08      4.48985    16.705248      4.48985 
       5   -1875.8855    1.4882121 1.3914423e-10 2.0074665e-11      4.48985    16.705248      4.48985 
       6   -1875.8855    1.4882121 -1.2794406e-12 1.229355e-12      4.48985    16.705248      4.48985 
Loop time of 0.11965 on 1 procs for 5 steps with 336 atoms

Minimization stats:
  Stopping criterion = force tolerance
  Energy initial, next-to-last, final = 
        -1875.44704781     -1875.88547515     -1875.88548611
  Force two-norm initial, final = 5.06962 8.11484e-11
  Force max component initial, final = 0.696644 1.88978e-11
  Final line search alpha, max atom move = 0 0
  Iterations, force evaluations = 5 410

Pair  time (%) = 0.0982915 (82.1492)
Neigh time (%) = 0 (0)
Comm  time (%) = 0.00799965 (6.68587)
Outpt time (%) = 0.000285375 (0.238508)
Other time (%) = 0.0130735 (10.9265)

Nlocal:    336 ave 336 max 336 min
Histogram: 1 0 0 0 0 0 0 0 0 0
Nghost:    1110 ave 1110 max 1110 min
Histogram: 1 0 0 0 0 0 0 0 0 0
Neighs:    8520 ave 8520 max 8520 min
Histogram: 1 0 0 0 0 0 0 0 0 0

Total # of neighbors = 8520
Ave neighs/atom = 25.3571
Neighbor list builds = 0
Dangerous builds = 0
        next i
jump SELF loop1
        read_dump orig.dump 0 x y z
  orthogonal box = (0 -0.59858 0) to (4.48985 16.1788 4.48985)
  336 atoms before read
  336 atoms in snapshot
  0 atoms purged
  336 atoms replaced
  0 atoms trimmed
  0 atoms added
  336 atoms after read
        variable stretch equal 1+$i*${strainstep}
        variable stretch equal 1+10*${strainstep}
        variable stretch equal 1+10*-0.0005
        change_box all ${direction} scale ${stretch} remap
        change_box all y scale ${stretch} remap
        change_box all y scale 0.995 remap
  orthogonal box = (0 -0.558306 0) to (4.48985 16.1386 4.48985)
        min_style ${style}
        min_style hftn
        minimize ${etol} ${ftol} ${maxiter} ${maxeval}
        minimize 1e-12 ${ftol} ${maxiter} ${maxeval}
        minimize 1e-12 1e-08 ${maxiter} ${maxeval}
        minimize 1e-12 1e-08 10000 ${maxeval}
        minimize 1e-12 1e-08 10000 20000
WARNING: Resetting reneighboring criteria during minimization (../min.cpp:168)
Memory usage per processor = 4.9009 Mbytes
Step PotEng Pxx Pyy Pxy Lx Ly Lz 
       0   -1875.3384    1.7100972   0.67681459  -0.01919871      4.48985    16.696858      4.48985 
       1   -1875.8524    1.4691363 -0.018546271 0.0070286101      4.48985    16.696858      4.48985 
       2    -1875.885    1.4865312 -0.0098124191  0.010656417      4.48985    16.696858      4.48985 
       3   -1875.8855    1.4889685 2.2367149e-05 4.6695142e-06      4.48985    16.696858      4.48985 
       4   -1875.8855    1.4889685 2.2367149e-05 4.6695142e-06      4.48985    16.696858      4.48985 
       5   -1875.8855    1.4889672 2.0403674e-05 -4.6335546e-07      4.48985    16.696858      4.48985 
       6   -1875.8855    1.4889672 2.0403674e-05 -4.6335546e-07      4.48985    16.696858      4.48985 
       7   -1875.8855    1.4889672 2.1528588e-05 -1.2078519e-06      4.48985    16.696858      4.48985 
       8   -1875.8855    1.4889672 2.1528588e-05 -1.2078519e-06      4.48985    16.696858      4.48985 
       9   -1875.8855    1.4889672 2.1528588e-05 -1.2078519e-06      4.48985    16.696858      4.48985 
      10   -1875.8855    1.4889672 2.1528588e-05 -1.2078519e-06      4.48985    16.696858      4.48985 
      11   -1875.8855    1.4889672 2.1528588e-05 -1.2078519e-06      4.48985    16.696858      4.48985 
      12   -1875.8855    1.4889672 2.1534102e-05 -1.2108935e-06      4.48985    16.696858      4.48985 
Loop time of 0.077909 on 1 procs for 11 steps with 336 atoms

Minimization stats:
  Stopping criterion = energy tolerance
  Energy initial, next-to-last, final = 
        -1875.33842059     -1875.88548712     -1875.88548753
  Force two-norm initial, final = 5.68993 0.00247153
  Force max component initial, final = 0.7804 0.000422702
  Final line search alpha, max atom move = 0 0
  Iterations, force evaluations = 11 268

Pair  time (%) = 0.0668186 (85.765)
Neigh time (%) = 0 (0)
Comm  time (%) = 0.00469762 (6.02963)
Outpt time (%) = 0.000653129 (0.838324)
Other time (%) = 0.00573961 (7.36707)

Nlocal:    336 ave 336 max 336 min
Histogram: 1 0 0 0 0 0 0 0 0 0
Nghost:    1110 ave 1110 max 1110 min
Histogram: 1 0 0 0 0 0 0 0 0 0
Neighs:    8520 ave 8520 max 8520 min
Histogram: 1 0 0 0 0 0 0 0 0 0

Total # of neighbors = 8520
Ave neighs/atom = 25.3571
Neighbor list builds = 0
Dangerous builds = 0
        next i
jump SELF loop1
        read_dump orig.dump 0 x y z
  orthogonal box = (0 -0.59858 0) to (4.48985 16.1788 4.48985)
  336 atoms before read
  336 atoms in snapshot
  0 atoms purged
  336 atoms replaced
  0 atoms trimmed
  0 atoms added
  336 atoms after read
        variable stretch equal 1+$i*${strainstep}
        variable stretch equal 1+11*${strainstep}
        variable stretch equal 1+11*-0.0005
        change_box all ${direction} scale ${stretch} remap
        change_box all y scale ${stretch} remap
        change_box all y scale 0.9945 remap
  orthogonal box = (0 -0.554111 0) to (4.48985 16.1344 4.48985)
        min_style ${style}
        min_style hftn
        minimize ${etol} ${ftol} ${maxiter} ${maxeval}
        minimize 1e-12 ${ftol} ${maxiter} ${maxeval}
        minimize 1e-12 1e-08 ${maxiter} ${maxeval}
        minimize 1e-12 1e-08 10000 ${maxeval}
        minimize 1e-12 1e-08 10000 20000
WARNING: Resetting reneighboring criteria during minimization (../min.cpp:168)
Memory usage per processor = 4.9009 Mbytes
Step PotEng Pxx Pyy Pxy Lx Ly Lz 
       0   -1875.2181    1.7336336   0.74829939 -0.019628482      4.48985    16.688468      4.48985 
       1   -1875.8534     1.471751 -0.013262694 0.0066059551      4.48985    16.688468      4.48985 
       2   -1875.8851    1.4886239 -0.0057998166     0.010257      4.48985    16.688468      4.48985 
       3   -1875.8855    1.4897114 6.0325945e-06 1.4494406e-05      4.48985    16.688468      4.48985 
       4   -1875.8855    1.4897114 6.0325945e-06 1.4494406e-05      4.48985    16.688468      4.48985 
       5   -1875.8855    1.4897114 6.0325945e-06 1.4494406e-05      4.48985    16.688468      4.48985 
       6   -1875.8855    1.4897114 6.0325945e-06 1.4494406e-05      4.48985    16.688468      4.48985 
       7   -1875.8855    1.4897114 6.0325945e-06 1.4494406e-05      4.48985    16.688468      4.48985 
       8   -1875.8855    1.4897114 6.0325945e-06 1.4494406e-05      4.48985    16.688468      4.48985 
       9   -1875.8855    1.4897114 6.0323088e-06 1.4491612e-05      4.48985    16.688468      4.48985 
Loop time of 0.0725189 on 1 procs for 8 steps with 336 atoms

Minimization stats:
  Stopping criterion = energy tolerance
  Energy initial, next-to-last, final = 
        -1875.21809425     -1875.88506049      -1875.8854876
  Force two-norm initial, final = 6.32076 0.00620774
  Force max component initial, final = 0.864864 0.0008209
  Final line search alpha, max atom move = 0 0
  Iterations, force evaluations = 8 241

Pair  time (%) = 0.0556544 (76.7447)
Neigh time (%) = 0 (0)
Comm  time (%) = 0.0120617 (16.6324)
Outpt time (%) = 0.000477456 (0.658388)
Other time (%) = 0.00432535 (5.96445)

Nlocal:    336 ave 336 max 336 min
Histogram: 1 0 0 0 0 0 0 0 0 0
Nghost:    1110 ave 1110 max 1110 min
Histogram: 1 0 0 0 0 0 0 0 0 0
Neighs:    8520 ave 8520 max 8520 min
Histogram: 1 0 0 0 0 0 0 0 0 0

Total # of neighbors = 8520
Ave neighs/atom = 25.3571
Neighbor list builds = 0
Dangerous builds = 0
        next i
jump SELF loop1
        read_dump orig.dump 0 x y z
  orthogonal box = (0 -0.59858 0) to (4.48985 16.1788 4.48985)
  336 atoms before read
  336 atoms in snapshot
  0 atoms purged
  336 atoms replaced
  0 atoms trimmed
  0 atoms added
  336 atoms after read
        variable stretch equal 1+$i*${strainstep}
        variable stretch equal 1+12*${strainstep}
        variable stretch equal 1+12*-0.0005
        change_box all ${direction} scale ${stretch} remap
        change_box all y scale ${stretch} remap
        change_box all y scale 0.994 remap
  orthogonal box = (0 -0.549916 0) to (4.48985 16.1302 4.48985)
        min_style ${style}
        min_style hftn
        minimize ${etol} ${ftol} ${maxiter} ${maxeval}
        minimize 1e-12 ${ftol} ${maxiter} ${maxeval}
        minimize 1e-12 1e-08 ${maxiter} ${maxeval}
        minimize 1e-12 1e-08 10000 ${maxeval}
        minimize 1e-12 1e-08 10000 20000
WARNING: Resetting reneighboring criteria during minimization (../min.cpp:168)
Memory usage per processor = 4.9009 Mbytes
Step PotEng Pxx Pyy Pxy Lx Ly Lz 
       0   -1875.0855    1.7573269   0.82029738 -0.020015809      4.48985    16.680077      4.48985 
       1   -1875.8533    1.4743237 -0.0069783999 0.0060046371      4.48985    16.680077      4.48985 
       2    -1875.885    1.4909399 -0.0010976686 0.0097239213      4.48985    16.680077      4.48985 
       3   -1875.8855    1.4904684 3.6664916e-05 1.4007128e-05      4.48985    16.680077      4.48985 
       4   -1875.8855    1.4904684 3.6664916e-05 1.4007128e-05      4.48985    16.680077      4.48985 
       5   -1875.8855    1.4904684 3.6664916e-05 1.4007128e-05      4.48985    16.680077      4.48985 
       6   -1875.8855    1.4904684 3.6664916e-05 1.4007128e-05      4.48985    16.680077      4.48985 
       7   -1875.8855    1.4904684 3.6664916e-05 1.4007128e-05      4.48985    16.680077      4.48985 
       8   -1875.8855    1.4904684 3.6645234e-05 1.3988118e-05      4.48985    16.680077      4.48985 
Loop time of 0.0728421 on 1 procs for 7 steps with 336 atoms

Minimization stats:
  Stopping criterion = energy tolerance
  Energy initial, next-to-last, final = 
        -1875.08551699     -1875.88502726     -1875.88548753
  Force two-norm initial, final = 6.96001 0.00609745
  Force max component initial, final = 0.94996 0.00058432
  Final line search alpha, max atom move = 0 0
  Iterations, force evaluations = 7 240

Pair  time (%) = 0.0593126 (81.4263)
Neigh time (%) = 0 (0)
Comm  time (%) = 0.00798659 (10.9643)
Outpt time (%) = 0.0012591 (1.72853)
Other time (%) = 0.00428377 (5.8809)

Nlocal:    336 ave 336 max 336 min
Histogram: 1 0 0 0 0 0 0 0 0 0
Nghost:    1110 ave 1110 max 1110 min
Histogram: 1 0 0 0 0 0 0 0 0 0
Neighs:    8536 ave 8536 max 8536 min
Histogram: 1 0 0 0 0 0 0 0 0 0

Total # of neighbors = 8536
Ave neighs/atom = 25.4048
Neighbor list builds = 0
Dangerous builds = 0
        next i
jump SELF loop1
        read_dump orig.dump 0 x y z
  orthogonal box = (0 -0.59858 0) to (4.48985 16.1788 4.48985)
  336 atoms before read
  336 atoms in snapshot
  0 atoms purged
  336 atoms replaced
  0 atoms trimmed
  0 atoms added
  336 atoms after read
        variable stretch equal 1+$i*${strainstep}
        variable stretch equal 1+13*${strainstep}
        variable stretch equal 1+13*-0.0005
        change_box all ${direction} scale ${stretch} remap
        change_box all y scale ${stretch} remap
        change_box all y scale 0.9935 remap
  orthogonal box = (0 -0.54572 0) to (4.48985 16.126 4.48985)
        min_style ${style}
        min_style hftn
        minimize ${etol} ${ftol} ${maxiter} ${maxeval}
        minimize 1e-12 ${ftol} ${maxiter} ${maxeval}
        minimize 1e-12 1e-08 ${maxiter} ${maxeval}
        minimize 1e-12 1e-08 10000 ${maxeval}
        minimize 1e-12 1e-08 10000 20000
WARNING: Resetting reneighboring criteria during minimization (../min.cpp:168)
Memory usage per processor = 4.9009 Mbytes
Step PotEng Pxx Pyy Pxy Lx Ly Lz 
       0   -1874.9404    1.7811787   0.89282063 -0.020356024      4.48985    16.671687      4.48985 
       1   -1875.8548    1.4774294 -0.00073436822 0.0055231699      4.48985    16.671687      4.48985 
       2    -1875.885    1.4933026 0.0037343382  0.009238229      4.48985    16.671687      4.48985 
       3   -1875.8855    1.4911841 -5.9225982e-05 1.8078844e-05      4.48985    16.671687      4.48985 
       4   -1875.8855    1.4911841 -5.9225982e-05 1.8078844e-05      4.48985    16.671687      4.48985 
       5   -1875.8855    1.4911841 -5.9225982e-05 1.8078844e-05      4.48985    16.671687      4.48985 
       6   -1875.8855    1.4911842 -5.9482308e-05 1.7969105e-05      4.48985    16.671687      4.48985 
       7   -1875.8855    1.4911844 -5.9819702e-05 1.7699635e-05      4.48985    16.671687      4.48985 
       8   -1875.8855    1.4911844 -5.9819702e-05 1.7699635e-05      4.48985    16.671687      4.48985 
       9   -1875.8855    1.4911844 -5.9819702e-05 1.7699635e-05      4.48985    16.671687      4.48985 
      10   -1875.8855    1.4911844 -5.978559e-05 1.7662343e-05      4.48985    16.671687      4.48985 
Loop time of 0.074839 on 1 procs for 9 steps with 336 atoms

Minimization stats:
  Stopping criterion = energy tolerance
  Energy initial, next-to-last, final = 
         -1874.9404339     -1875.88548658     -1875.88548662
  Force two-norm initial, final = 7.60689 0.00321875
  Force max component initial, final = 1.03563 0.000375667
  Final line search alpha, max atom move = 0 0
  Iterations, force evaluations = 9 252

Pair  time (%) = 0.0652803 (87.2277)
Neigh time (%) = 0 (0)
Comm  time (%) = 0.00300056 (4.00936)
Outpt time (%) = 0.00247229 (3.30348)
Other time (%) = 0.00408582 (5.45949)

Nlocal:    336 ave 336 max 336 min
Histogram: 1 0 0 0 0 0 0 0 0 0
Nghost:    1110 ave 1110 max 1110 min
Histogram: 1 0 0 0 0 0 0 0 0 0
Neighs:    8568 ave 8568 max 8568 min
Histogram: 1 0 0 0 0 0 0 0 0 0

Total # of neighbors = 8568
Ave neighs/atom = 25.5
Neighbor list builds = 0
Dangerous builds = 0
        next i
jump SELF loop1
        read_dump orig.dump 0 x y z
  orthogonal box = (0 -0.59858 0) to (4.48985 16.1788 4.48985)
  336 atoms before read
  336 atoms in snapshot
  0 atoms purged
  336 atoms replaced
  0 atoms trimmed
  0 atoms added
  336 atoms after read
        variable stretch equal 1+$i*${strainstep}
        variable stretch equal 1+14*${strainstep}
        variable stretch equal 1+14*-0.0005
        change_box all ${direction} scale ${stretch} remap
        change_box all y scale ${stretch} remap
        change_box all y scale 0.993 remap
  orthogonal box = (0 -0.541525 0) to (4.48985 16.1218 4.48985)
        min_style ${style}
        min_style hftn
        minimize ${etol} ${ftol} ${maxiter} ${maxeval}
        minimize 1e-12 ${ftol} ${maxiter} ${maxeval}
        minimize 1e-12 1e-08 ${maxiter} ${maxeval}
        minimize 1e-12 1e-08 10000 ${maxeval}
        minimize 1e-12 1e-08 10000 20000
WARNING: Resetting reneighboring criteria during minimization (../min.cpp:168)
Memory usage per processor = 4.9009 Mbytes
Step PotEng Pxx Pyy Pxy Lx Ly Lz 
       0   -1874.7839    1.8051748   0.96582599 -0.020637776      4.48985    16.663296      4.48985 
       1    -1875.855    1.4807165 0.0069418473 0.0048037937      4.48985    16.663296      4.48985 
       2   -1875.8849     1.495939 0.0094979018 0.0086061875      4.48985    16.663296      4.48985 
       3   -1875.8855    1.4919575 5.6540488e-06 1.5311995e-05      4.48985    16.663296      4.48985 
       4   -1875.8855    1.4919575 5.6540488e-06 1.5311995e-05      4.48985    16.663296      4.48985 
       5   -1875.8855    1.4919575 5.6540488e-06 1.5311995e-05      4.48985    16.663296      4.48985 
       6   -1875.8855    1.4919575 5.6540488e-06 1.5311995e-05      4.48985    16.663296      4.48985 
       7   -1875.8855    1.4919575 5.6540488e-06 1.5311995e-05      4.48985    16.663296      4.48985 
       8   -1875.8855    1.4919575 5.6540488e-06 1.5311995e-05      4.48985    16.663296      4.48985 
       9   -1875.8855    1.4919575 5.6507517e-06 1.5308266e-05      4.48985    16.663296      4.48985 
Loop time of 0.0706369 on 1 procs for 8 steps with 336 atoms

Minimization stats:
  Stopping criterion = energy tolerance
  Energy initial, next-to-last, final = 
        -1874.78386621     -1875.88486256     -1875.88548713
  Force two-norm initial, final = 8.26045 0.00555085
  Force max component initial, final = 1.12195 0.000720219
  Final line search alpha, max atom move = 0 0
  Iterations, force evaluations = 8 241

Pair  time (%) = 0.0609912 (86.3446)
Neigh time (%) = 0 (0)
Comm  time (%) = 0.00156835 (2.2203)
Outpt time (%) = 0.000388645 (0.5502)
Other time (%) = 0.00768873 (10.8849)

Nlocal:    336 ave 336 max 336 min
Histogram: 1 0 0 0 0 0 0 0 0 0
Nghost:    1110 ave 1110 max 1110 min
Histogram: 1 0 0 0 0 0 0 0 0 0
Neighs:    8568 ave 8568 max 8568 min
Histogram: 1 0 0 0 0 0 0 0 0 0

Total # of neighbors = 8568
Ave neighs/atom = 25.5
Neighbor list builds = 0
Dangerous builds = 0
        next i
jump SELF loop1
        read_dump orig.dump 0 x y z
  orthogonal box = (0 -0.59858 0) to (4.48985 16.1788 4.48985)
  336 atoms before read
  336 atoms in snapshot
  0 atoms purged
  336 atoms replaced
  0 atoms trimmed
  0 atoms added
  336 atoms after read
        variable stretch equal 1+$i*${strainstep}
        variable stretch equal 1+15*${strainstep}
        variable stretch equal 1+15*-0.0005
        change_box all ${direction} scale ${stretch} remap
        change_box all y scale ${stretch} remap
        change_box all y scale 0.9925 remap
  orthogonal box = (0 -0.53733 0) to (4.48985 16.1176 4.48985)
        min_style ${style}
        min_style hftn
        minimize ${etol} ${ftol} ${maxiter} ${maxeval}
        minimize 1e-12 ${ftol} ${maxiter} ${maxeval}
        minimize 1e-12 1e-08 ${maxiter} ${maxeval}
        minimize 1e-12 1e-08 10000 ${maxeval}
        minimize 1e-12 1e-08 10000 20000
WARNING: Resetting reneighboring criteria during minimization (../min.cpp:168)
Memory usage per processor = 4.9009 Mbytes
Step PotEng Pxx Pyy Pxy Lx Ly Lz 
       0    -1874.614     1.829346    1.0393861 -0.020886012      4.48985    16.654906      4.48985 
       1   -1875.8558    1.4833436   0.01233212 0.0044345073      4.48985    16.654906      4.48985 
       2   -1875.8848    1.4980581  0.013488048 0.0082350924      4.48985    16.654906      4.48985 
       3   -1875.8855     1.492707 8.3198056e-06 1.4727127e-05      4.48985    16.654906      4.48985 
       4   -1875.8855    1.4927107 5.8047361e-07 1.6131477e-07      4.48985    16.654906      4.48985 
       5   -1875.8855    1.4927104 4.5793334e-13 8.8725164e-14      4.48985    16.654906      4.48985 
Loop time of 0.151335 on 1 procs for 4 steps with 336 atoms

Minimization stats:
  Stopping criterion = force tolerance
  Energy initial, next-to-last, final = 
         -1874.6140227     -1875.88548421     -1875.88548611
  Force two-norm initial, final = 8.91995 3.39018e-10
  Force max component initial, final = 1.20881 4.51017e-11
  Final line search alpha, max atom move = 0 0
  Iterations, force evaluations = 4 343

Pair  time (%) = 0.113925 (75.28)
Neigh time (%) = 0 (0)
Comm  time (%) = 0.0212301 (14.0285)
Outpt time (%) = 0.00474204 (3.13347)
Other time (%) = 0.0114379 (7.55797)

Nlocal:    336 ave 336 max 336 min
Histogram: 1 0 0 0 0 0 0 0 0 0
Nghost:    1110 ave 1110 max 1110 min
Histogram: 1 0 0 0 0 0 0 0 0 0
Neighs:    8568 ave 8568 max 8568 min
Histogram: 1 0 0 0 0 0 0 0 0 0

Total # of neighbors = 8568
Ave neighs/atom = 25.5
Neighbor list builds = 0
Dangerous builds = 0
        next i
jump SELF loop1
        read_dump orig.dump 0 x y z
  orthogonal box = (0 -0.59858 0) to (4.48985 16.1788 4.48985)
  336 atoms before read
  336 atoms in snapshot
  0 atoms purged
  336 atoms replaced
  0 atoms trimmed
  0 atoms added
  336 atoms after read
        variable stretch equal 1+$i*${strainstep}
        variable stretch equal 1+16*${strainstep}
        variable stretch equal 1+16*-0.0005
        change_box all ${direction} scale ${stretch} remap
        change_box all y scale ${stretch} remap
        change_box all y scale 0.992 remap
  orthogonal box = (0 -0.533135 0) to (4.48985 16.1134 4.48985)
        min_style ${style}
        min_style hftn
        minimize ${etol} ${ftol} ${maxiter} ${maxeval}
        minimize 1e-12 ${ftol} ${maxiter} ${maxeval}
        minimize 1e-12 1e-08 ${maxiter} ${maxeval}
        minimize 1e-12 1e-08 10000 ${maxeval}
        minimize 1e-12 1e-08 10000 20000
WARNING: Resetting reneighboring criteria during minimization (../min.cpp:168)
Memory usage per processor = 4.9009 Mbytes
Step PotEng Pxx Pyy Pxy Lx Ly Lz 
       0   -1874.4323    1.8536575    1.1134562 -0.021051788      4.48985    16.646516      4.48985 
       1   -1875.8562    1.4869436  0.020979597 0.0035049709      4.48985    16.646516      4.48985 
       2   -1875.8845     1.500961  0.020042726 0.0074948493      4.48985    16.646516      4.48985 
       3   -1875.8855    1.4934783 5.2275541e-05 2.4789118e-05      4.48985    16.646516      4.48985 
       4   -1875.8855    1.4934783 5.2275541e-05 2.4789118e-05      4.48985    16.646516      4.48985 
       5   -1875.8855    1.4934783 5.2275541e-05 2.4789118e-05      4.48985    16.646516      4.48985 
       6   -1875.8855    1.4934783 5.2275541e-05 2.4789118e-05      4.48985    16.646516      4.48985 
       7   -1875.8855    1.4934783 5.2275541e-05 2.4789118e-05      4.48985    16.646516      4.48985 
       8   -1875.8855    1.4934783 5.2275541e-05 2.4789118e-05      4.48985    16.646516      4.48985 
       9   -1875.8855    1.4934783 5.2265799e-05 2.4784249e-05      4.48985    16.646516      4.48985 
Loop time of 0.076233 on 1 procs for 8 steps with 336 atoms

Minimization stats:
  Stopping criterion = energy tolerance
  Energy initial, next-to-last, final = 
        -1874.43230145     -1875.88453043     -1875.88548682
  Force two-norm initial, final = 9.58489 0.00657071
  Force max component initial, final = 1.29637 0.000880608
  Final line search alpha, max atom move = 0 0
  Iterations, force evaluations = 8 247

Pair  time (%) = 0.0610552 (80.0903)
Neigh time (%) = 0 (0)
Comm  time (%) = 0.00891218 (11.6907)
Outpt time (%) = 0.000673073 (0.882916)
Other time (%) = 0.00559252 (7.33609)

Nlocal:    336 ave 336 max 336 min
Histogram: 1 0 0 0 0 0 0 0 0 0
Nghost:    1110 ave 1110 max 1110 min
Histogram: 1 0 0 0 0 0 0 0 0 0
Neighs:    8568 ave 8568 max 8568 min
Histogram: 1 0 0 0 0 0 0 0 0 0

Total # of neighbors = 8568
Ave neighs/atom = 25.5
Neighbor list builds = 0
Dangerous builds = 0
        next i
jump SELF loop1
        read_dump orig.dump 0 x y z
  orthogonal box = (0 -0.59858 0) to (4.48985 16.1788 4.48985)
  336 atoms before read
  336 atoms in snapshot
  0 atoms purged
  336 atoms replaced
  0 atoms trimmed
  0 atoms added
  336 atoms after read
        variable stretch equal 1+$i*${strainstep}
        variable stretch equal 1+17*${strainstep}
        variable stretch equal 1+17*-0.0005
        change_box all ${direction} scale ${stretch} remap
        change_box all y scale ${stretch} remap
        change_box all y scale 0.9915 remap
  orthogonal box = (0 -0.52894 0) to (4.48985 16.1092 4.48985)
        min_style ${style}
        min_style hftn
        minimize ${etol} ${ftol} ${maxiter} ${maxeval}
        minimize 1e-12 ${ftol} ${maxiter} ${maxeval}
        minimize 1e-12 1e-08 ${maxiter} ${maxeval}
        minimize 1e-12 1e-08 10000 ${maxeval}
        minimize 1e-12 1e-08 10000 20000
WARNING: Resetting reneighboring criteria during minimization (../min.cpp:168)
Memory usage per processor = 4.9009 Mbytes
Step PotEng Pxx Pyy Pxy Lx Ly Lz 
       0   -1874.2372    1.8781478    1.1880802 -0.021197453      4.48985    16.638125      4.48985 
       1   -1875.8539    1.4898205  0.030518015 0.0012923885      4.48985    16.638125      4.48985 
       2   -1875.8853    1.4959157 0.0032638379 0.0050992613      4.48985    16.638125      4.48985 
       3   -1875.8855    1.4942184 2.4769494e-05 -8.0484352e-06      4.48985    16.638125      4.48985 
       4   -1875.8855    1.4942184 2.4769494e-05 -8.0484352e-06      4.48985    16.638125      4.48985 
       5   -1875.8855     1.494219 1.9530253e-05 -4.7200302e-06      4.48985    16.638125      4.48985 
       6   -1875.8855     1.494219 1.9530253e-05 -4.7200302e-06      4.48985    16.638125      4.48985 
       7   -1875.8855    1.4942187 1.6746586e-05 -4.200344e-06      4.48985    16.638125      4.48985 
       8   -1875.8855    1.4942187 1.6746586e-05 -4.200344e-06      4.48985    16.638125      4.48985 
       9   -1875.8855    1.4942187 1.6746586e-05 -4.200344e-06      4.48985    16.638125      4.48985 
      10   -1875.8855    1.4942187 1.6746586e-05 -4.200344e-06      4.48985    16.638125      4.48985 
      11   -1875.8855    1.4942187 1.6746586e-05 -4.200344e-06      4.48985    16.638125      4.48985 
      12   -1875.8855    1.4942187 1.6735422e-05 -4.1977557e-06      4.48985    16.638125      4.48985 
Loop time of 0.0747401 on 1 procs for 11 steps with 336 atoms

Minimization stats:
  Stopping criterion = energy tolerance
  Energy initial, next-to-last, final = 
        -1874.23715213     -1875.88548682     -1875.88548686
  Force two-norm initial, final = 10.2554 0.00171842
  Force max component initial, final = 1.38458 0.000178054
  Final line search alpha, max atom move = 0 0
  Iterations, force evaluations = 11 250

Pair  time (%) = 0.0637191 (85.2542)
Neigh time (%) = 0 (0)
Comm  time (%) = 0.00391606 (5.23958)
Outpt time (%) = 0.00053665 (0.718022)
Other time (%) = 0.00656828 (8.78817)

Nlocal:    336 ave 336 max 336 min
Histogram: 1 0 0 0 0 0 0 0 0 0
Nghost:    1110 ave 1110 max 1110 min
Histogram: 1 0 0 0 0 0 0 0 0 0
Neighs:    8568 ave 8568 max 8568 min
Histogram: 1 0 0 0 0 0 0 0 0 0

Total # of neighbors = 8568
Ave neighs/atom = 25.5
Neighbor list builds = 0
Dangerous builds = 0
        next i
jump SELF loop1
        read_dump orig.dump 0 x y z
  orthogonal box = (0 -0.59858 0) to (4.48985 16.1788 4.48985)
  336 atoms before read
  336 atoms in snapshot
  0 atoms purged
  336 atoms replaced
  0 atoms trimmed
  0 atoms added
  336 atoms after read
        variable stretch equal 1+$i*${strainstep}
        variable stretch equal 1+18*${strainstep}
        variable stretch equal 1+18*-0.0005
        change_box all ${direction} scale ${stretch} remap
        change_box all y scale ${stretch} remap
        change_box all y scale 0.991 remap
  orthogonal box = (0 -0.524744 0) to (4.48985 16.105 4.48985)
        min_style ${style}
        min_style hftn
        minimize ${etol} ${ftol} ${maxiter} ${maxeval}
        minimize 1e-12 ${ftol} ${maxiter} ${maxeval}
        minimize 1e-12 1e-08 ${maxiter} ${maxeval}
        minimize 1e-12 1e-08 10000 ${maxeval}
        minimize 1e-12 1e-08 10000 20000
WARNING: Resetting reneighboring criteria during minimization (../min.cpp:168)
Memory usage per processor = 4.9009 Mbytes
Step PotEng Pxx Pyy Pxy Lx Ly Lz 
       0   -1874.0305     1.902779    1.2631811 -0.021266691      4.48985    16.629735      4.48985 
       1   -1875.8541    1.4937879  0.039554933 0.0006305873      4.48985    16.629735      4.48985 
       2   -1875.8853    1.4965417 0.0031933634 0.0048497885      4.48985    16.629735      4.48985 
       3   -1875.8855    1.4949782 1.9254439e-05 8.5476304e-06      4.48985    16.629735      4.48985 
       4   -1875.8855    1.4949782 1.9254439e-05 8.5476304e-06      4.48985    16.629735      4.48985 
       5   -1875.8855    1.4949765 9.6380884e-06 6.6754301e-06      4.48985    16.629735      4.48985 
       6   -1875.8855    1.4949765 9.6380884e-06 6.6754301e-06      4.48985    16.629735      4.48985 
       7   -1875.8855    1.4949765 9.6380884e-06 6.6754301e-06      4.48985    16.629735      4.48985 
       8   -1875.8855    1.4949765 9.6380884e-06 6.6754301e-06      4.48985    16.629735      4.48985 
       9   -1875.8855    1.4949765 9.6380884e-06 6.6754301e-06      4.48985    16.629735      4.48985 
      10   -1875.8855    1.4949765 9.6099559e-06 6.6774202e-06      4.48985    16.629735      4.48985 
Loop time of 0.0816369 on 1 procs for 9 steps with 336 atoms

Minimization stats:
  Stopping criterion = energy tolerance
  Energy initial, next-to-last, final = 
        -1874.03051046     -1875.88548639     -1875.88548654
  Force two-norm initial, final = 10.9306 0.00238359
  Force max component initial, final = 1.47353 0.000399316
  Final line search alpha, max atom move = 0 0
  Iterations, force evaluations = 9 274

Pair  time (%) = 0.073642 (90.2067)
Neigh time (%) = 0 (0)
Comm  time (%) = 0.00231873 (2.8403)
Outpt time (%) = 0.001158 (1.41847)
Other time (%) = 0.00451819 (5.53449)

Nlocal:    336 ave 336 max 336 min
Histogram: 1 0 0 0 0 0 0 0 0 0
Nghost:    1110 ave 1110 max 1110 min
Histogram: 1 0 0 0 0 0 0 0 0 0
Neighs:    8568 ave 8568 max 8568 min
Histogram: 1 0 0 0 0 0 0 0 0 0

Total # of neighbors = 8568
Ave neighs/atom = 25.5
Neighbor list builds = 0
Dangerous builds = 0
        next i
jump SELF loop1
        read_dump orig.dump 0 x y z
  orthogonal box = (0 -0.59858 0) to (4.48985 16.1788 4.48985)
  336 atoms before read
  336 atoms in snapshot
  0 atoms purged
  336 atoms replaced
  0 atoms trimmed
  0 atoms added
  336 atoms after read
        variable stretch equal 1+$i*${strainstep}
        variable stretch equal 1+19*${strainstep}
        variable stretch equal 1+19*-0.0005
        change_box all ${direction} scale ${stretch} remap
        change_box all y scale ${stretch} remap
        change_box all y scale 0.9905 remap
  orthogonal box = (0 -0.520549 0) to (4.48985 16.1008 4.48985)
        min_style ${style}
        min_style hftn
        minimize ${etol} ${ftol} ${maxiter} ${maxeval}
        minimize 1e-12 ${ftol} ${maxiter} ${maxeval}
        minimize 1e-12 1e-08 ${maxiter} ${maxeval}
        minimize 1e-12 1e-08 10000 ${maxeval}
        minimize 1e-12 1e-08 10000 20000
WARNING: Resetting reneighboring criteria during minimization (../min.cpp:168)
Memory usage per processor = 4.9009 Mbytes
Step PotEng Pxx Pyy Pxy Lx Ly Lz 
       0   -1873.8101      1.92759    1.3388602 -0.021308532      4.48985    16.621345      4.48985 
       1   -1875.8539    1.4977711  0.048738747 0.00031130326      4.48985    16.621345      4.48985 
       2   -1875.8852    1.4972995 0.0034446132 0.0045218617      4.48985    16.621345      4.48985 
       3   -1875.8855    1.4957316 2.3336777e-06 1.0170388e-05      4.48985    16.621345      4.48985 
       4   -1875.8855    1.4957316 2.3336777e-06 1.0170388e-05      4.48985    16.621345      4.48985 
       5   -1875.8855    1.4957316 2.3336777e-06 1.0170388e-05      4.48985    16.621345      4.48985 
       6   -1875.8855    1.4957316 2.3336777e-06 1.0170388e-05      4.48985    16.621345      4.48985 
       7   -1875.8855    1.4957316 2.3336777e-06 1.0170388e-05      4.48985    16.621345      4.48985 
       8   -1875.8855    1.4957316 2.3155739e-06 1.0149927e-05      4.48985    16.621345      4.48985 
Loop time of 0.072508 on 1 procs for 7 steps with 336 atoms

Minimization stats:
  Stopping criterion = energy tolerance
  Energy initial, next-to-last, final = 
        -1873.81008097     -1875.88524471     -1875.88548694
  Force two-norm initial, final = 11.6107 0.00430049
  Force max component initial, final = 1.56295 0.000505937
  Final line search alpha, max atom move = 0 0
  Iterations, force evaluations = 7 250

Pair  time (%) = 0.0635773 (87.6831)
Neigh time (%) = 0 (0)
Comm  time (%) = 0.00360758 (4.97543)
Outpt time (%) = 0.000390644 (0.538759)
Other time (%) = 0.0049325 (6.8027)

Nlocal:    336 ave 336 max 336 min
Histogram: 1 0 0 0 0 0 0 0 0 0
Nghost:    1110 ave 1110 max 1110 min
Histogram: 1 0 0 0 0 0 0 0 0 0
Neighs:    8568 ave 8568 max 8568 min
Histogram: 1 0 0 0 0 0 0 0 0 0

Total # of neighbors = 8568
Ave neighs/atom = 25.5
Neighbor list builds = 0
Dangerous builds = 0
        next i
jump SELF loop1
        read_dump orig.dump 0 x y z
  orthogonal box = (0 -0.59858 0) to (4.48985 16.1788 4.48985)
  336 atoms before read
  336 atoms in snapshot
  0 atoms purged
  336 atoms replaced
  0 atoms trimmed
  0 atoms added
  336 atoms after read
        variable stretch equal 1+$i*${strainstep}
        variable stretch equal 1+20*${strainstep}
        variable stretch equal 1+20*-0.0005
        change_box all ${direction} scale ${stretch} remap
        change_box all y scale ${stretch} remap
        change_box all y scale 0.99 remap
  orthogonal box = (0 -0.516354 0) to (4.48985 16.0966 4.48985)
        min_style ${style}
        min_style hftn
        minimize ${etol} ${ftol} ${maxiter} ${maxeval}
        minimize 1e-12 ${ftol} ${maxiter} ${maxeval}
        minimize 1e-12 1e-08 ${maxiter} ${maxeval}
        minimize 1e-12 1e-08 10000 ${maxeval}
        minimize 1e-12 1e-08 10000 20000
WARNING: Resetting reneighboring criteria during minimization (../min.cpp:168)
Memory usage per processor = 4.9009 Mbytes
Step PotEng Pxx Pyy Pxy Lx Ly Lz 
       0   -1873.5775    1.9525497    1.4150537 -0.021268151      4.48985    16.612954      4.48985 
       1   -1875.8528     1.501327  0.057398796 -0.00063688174      4.48985    16.612954      4.48985 
       2   -1875.8852    1.4980105 0.0034681129 0.0042663059      4.48985    16.612954      4.48985 
       3   -1875.8855    1.4964847 -9.9236259e-06 1.6940861e-05      4.48985    16.612954      4.48985 
       4   -1875.8855    1.4964847 -9.9236259e-06 1.6940861e-05      4.48985    16.612954      4.48985 
       5   -1875.8855    1.4964847 -9.9236259e-06 1.6940861e-05      4.48985    16.612954      4.48985 
       6   -1875.8855    1.4964847 -9.9236259e-06 1.6940861e-05      4.48985    16.612954      4.48985 
       7   -1875.8855    1.4964847 -9.9236259e-06 1.6940861e-05      4.48985    16.612954      4.48985 
       8   -1875.8855    1.4964847 -9.9236259e-06 1.6940861e-05      4.48985    16.612954      4.48985 
       9   -1875.8855    1.4964847 -9.9298735e-06 1.6931798e-05      4.48985    16.612954      4.48985 
Loop time of 0.077079 on 1 procs for 8 steps with 336 atoms

Minimization stats:
  Stopping criterion = energy tolerance
  Energy initial, next-to-last, final = 
        -1873.57748323     -1875.88523606     -1875.88548704
  Force two-norm initial, final = 12.2957 0.00507076
  Force max component initial, final = 1.65316 0.00069823
  Final line search alpha, max atom move = 0 0
  Iterations, force evaluations = 8 259

Pair  time (%) = 0.0669287 (86.8313)
Neigh time (%) = 0 (0)
Comm  time (%) = 0.00571435 (7.41362)
Outpt time (%) = 0.000434952 (0.564294)
Other time (%) = 0.00400096 (5.19073)

Nlocal:    336 ave 336 max 336 min
Histogram: 1 0 0 0 0 0 0 0 0 0
Nghost:    1110 ave 1110 max 1110 min
Histogram: 1 0 0 0 0 0 0 0 0 0
Neighs:    8568 ave 8568 max 8568 min
Histogram: 1 0 0 0 0 0 0 0 0 0

Total # of neighbors = 8568
Ave neighs/atom = 25.5
Neighbor list builds = 0
Dangerous builds = 0
        next i
jump SELF loop1
        read_dump orig.dump 0 x y z
  orthogonal box = (0 -0.59858 0) to (4.48985 16.1788 4.48985)
  336 atoms before read
  336 atoms in snapshot
  0 atoms purged
  336 atoms replaced
  0 atoms trimmed
  0 atoms added
  336 atoms after read
        variable stretch equal 1+$i*${strainstep}
        variable stretch equal 1+21*${strainstep}
        variable stretch equal 1+21*-0.0005
        change_box all ${direction} scale ${stretch} remap
        change_box all y scale ${stretch} remap
        change_box all y scale 0.9895 remap
  orthogonal box = (0 -0.512159 0) to (4.48985 16.0924 4.48985)
        min_style ${style}
        min_style hftn
        minimize ${etol} ${ftol} ${maxiter} ${maxeval}
        minimize 1e-12 ${ftol} ${maxiter} ${maxeval}
        minimize 1e-12 1e-08 ${maxiter} ${maxeval}
        minimize 1e-12 1e-08 10000 ${maxeval}
        minimize 1e-12 1e-08 10000 20000
WARNING: Resetting reneighboring criteria during minimization (../min.cpp:168)
Memory usage per processor = 4.9009 Mbytes
Step PotEng Pxx Pyy Pxy Lx Ly Lz 
       0   -1873.3313    1.9776271    1.4916471 -0.021286852      4.48985    16.604564      4.48985 
       1   -1875.8551    1.5043467  0.064640679 -0.0028868548      4.48985    16.604564      4.48985 
       2   -1875.8853     1.498097 0.0019138345 0.0040331595      4.48985    16.604564      4.48985 
       3   -1875.8855    1.4972341 -4.4737083e-05 1.8974127e-05      4.48985    16.604564      4.48985 
       4   -1875.8855    1.4972361 5.1077474e-08 5.8291498e-08      4.48985    16.604564      4.48985 
       5   -1875.8855    1.4972361 5.1077474e-08 5.8291498e-08      4.48985    16.604564      4.48985 
       6   -1875.8855    1.4972361 5.1077474e-08 5.8291498e-08      4.48985    16.604564      4.48985 
       7   -1875.8855    1.4972361 5.1077474e-08 5.8291498e-08      4.48985    16.604564      4.48985 
       8   -1875.8855    1.4972361 5.1077474e-08 5.8291498e-08      4.48985    16.604564      4.48985 
       9   -1875.8855    1.4972361 5.1077474e-08 5.8291498e-08      4.48985    16.604564      4.48985 
      10   -1875.8855    1.4972361 5.1077474e-08 5.8291498e-08      4.48985    16.604564      4.48985 
      11   -1875.8855    1.4972361 5.1077474e-08 5.8291498e-08      4.48985    16.604564      4.48985 
      12   -1875.8855    1.4972361 5.1077474e-08 5.8291498e-08      4.48985    16.604564      4.48985 
      13   -1875.8855    1.4972361 5.1077474e-08 5.8291498e-08      4.48985    16.604564      4.48985 
      14   -1875.8855    1.4972361 5.1077474e-08 5.8291498e-08      4.48985    16.604564      4.48985 
      15   -1875.8855    1.4972361 5.1077474e-08 5.8291498e-08      4.48985    16.604564      4.48985 
      16   -1875.8855    1.4972361 5.1077474e-08 5.8291498e-08      4.48985    16.604564      4.48985 
Loop time of 0.119412 on 1 procs for 15 steps with 336 atoms

Minimization stats:
  Stopping criterion = trust region too small
  Energy initial, next-to-last, final = 
        -1873.33126393     -1875.88548403     -1875.88548612
  Force two-norm initial, final = 12.9761 1.37357e-05
  Force max component initial, final = 1.7438 1.42464e-06
  Final line search alpha, max atom move = 0 0
  Iterations, force evaluations = 15 410

Pair  time (%) = 0.0984933 (82.4819)
Neigh time (%) = 0 (0)
Comm  time (%) = 0.010787 (9.03345)
Outpt time (%) = 0.00148866 (1.24666)
Other time (%) = 0.00864302 (7.23798)

Nlocal:    336 ave 336 max 336 min
Histogram: 1 0 0 0 0 0 0 0 0 0
Nghost:    1110 ave 1110 max 1110 min
Histogram: 1 0 0 0 0 0 0 0 0 0
Neighs:    8568 ave 8568 max 8568 min
Histogram: 1 0 0 0 0 0 0 0 0 0

Total # of neighbors = 8568
Ave neighs/atom = 25.5
Neighbor list builds = 0
Dangerous builds = 0
        next i
jump SELF loop1
        read_dump orig.dump 0 x y z
  orthogonal box = (0 -0.59858 0) to (4.48985 16.1788 4.48985)
  336 atoms before read
  336 atoms in snapshot
  0 atoms purged
  336 atoms replaced
  0 atoms trimmed
  0 atoms added
  336 atoms after read
        variable stretch equal 1+$i*${strainstep}
        variable stretch equal 1+22*${strainstep}
        variable stretch equal 1+22*-0.0005
        change_box all ${direction} scale ${stretch} remap
        change_box all y scale ${stretch} remap
        change_box all y scale 0.989 remap
  orthogonal box = (0 -0.507964 0) to (4.48985 16.0882 4.48985)
        min_style ${style}
        min_style hftn
        minimize ${etol} ${ftol} ${maxiter} ${maxeval}
        minimize 1e-12 ${ftol} ${maxiter} ${maxeval}
        minimize 1e-12 1e-08 ${maxiter} ${maxeval}
        minimize 1e-12 1e-08 10000 ${maxeval}
        minimize 1e-12 1e-08 10000 20000
WARNING: Resetting reneighboring criteria during minimization (../min.cpp:168)
Memory usage per processor = 4.9009 Mbytes
Step PotEng Pxx Pyy Pxy Lx Ly Lz 
       0   -1873.0727    2.0028231    1.5686584 -0.021297214      4.48985    16.596173      4.48985 
       1   -1875.8438    1.5029634   0.06321109 -0.010494604      4.48985    16.596173      4.48985 
       2   -1875.8852    1.5000775 0.0067456423 0.0031639174      4.48985    16.596173      4.48985 
       3   -1875.8855    1.4979836 -3.0233289e-05 1.9343664e-05      4.48985    16.596173      4.48985 
       4   -1875.8855    1.4979836 -3.0233289e-05 1.9343664e-05      4.48985    16.596173      4.48985 
       5   -1875.8855    1.4979836 -3.0233289e-05 1.9343664e-05      4.48985    16.596173      4.48985 
       6   -1875.8855    1.4979836 -3.0233289e-05 1.9343664e-05      4.48985    16.596173      4.48985 
       7   -1875.8855    1.4979836 -3.0233289e-05 1.9343664e-05      4.48985    16.596173      4.48985 
       8   -1875.8855    1.4979836 -3.0233289e-05 1.9343664e-05      4.48985    16.596173      4.48985 
       9   -1875.8855    1.4979836 -3.0233148e-05 1.9338513e-05      4.48985    16.596173      4.48985 
Loop time of 0.074791 on 1 procs for 8 steps with 336 atoms

Minimization stats:
  Stopping criterion = energy tolerance
  Energy initial, next-to-last, final = 
        -1873.07272285     -1875.88523503     -1875.88548728
  Force two-norm initial, final = 13.6554 0.00524463
  Force max component initial, final = 1.83535 0.000743428
  Final line search alpha, max atom move = 0 0
  Iterations, force evaluations = 8 257

Pair  time (%) = 0.0619704 (82.8581)
Neigh time (%) = 0 (0)
Comm  time (%) = 0.00627247 (8.38667)
Outpt time (%) = 0.000547019 (0.731397)
Other time (%) = 0.0060011 (8.02383)

Nlocal:    336 ave 336 max 336 min
Histogram: 1 0 0 0 0 0 0 0 0 0
Nghost:    1110 ave 1110 max 1110 min
Histogram: 1 0 0 0 0 0 0 0 0 0
Neighs:    8568 ave 8568 max 8568 min
Histogram: 1 0 0 0 0 0 0 0 0 0

Total # of neighbors = 8568
Ave neighs/atom = 25.5
Neighbor list builds = 0
Dangerous builds = 0
        next i
jump SELF loop1
        read_dump orig.dump 0 x y z
  orthogonal box = (0 -0.59858 0) to (4.48985 16.1788 4.48985)
  336 atoms before read
  336 atoms in snapshot
  0 atoms purged
  336 atoms replaced
  0 atoms trimmed
  0 atoms added
  336 atoms after read
        variable stretch equal 1+$i*${strainstep}
        variable stretch equal 1+23*${strainstep}
        variable stretch equal 1+23*-0.0005
        change_box all ${direction} scale ${stretch} remap
        change_box all y scale ${stretch} remap
        change_box all y scale 0.9885 remap
  orthogonal box = (0 -0.503768 0) to (4.48985 16.084 4.48985)
        min_style ${style}
        min_style hftn
        minimize ${etol} ${ftol} ${maxiter} ${maxeval}
        minimize 1e-12 ${ftol} ${maxiter} ${maxeval}
        minimize 1e-12 1e-08 ${maxiter} ${maxeval}
        minimize 1e-12 1e-08 10000 ${maxeval}
        minimize 1e-12 1e-08 10000 20000
WARNING: Resetting reneighboring criteria during minimization (../min.cpp:168)
Memory usage per processor = 4.9009 Mbytes
Step PotEng Pxx Pyy Pxy Lx Ly Lz 
       0   -1872.8005    2.0279651    1.6456026  -0.02163981      4.48985    16.587783      4.48985 
       1   -1875.8446    1.5065843  0.071444647 -0.012069576      4.48985    16.587783      4.48985 
       2   -1875.8853    1.4998855 0.0044615282  0.002296303      4.48985    16.587783      4.48985 
       3   -1875.8855    1.4987417 -5.1581328e-05  2.53059e-05      4.48985    16.587783      4.48985 
       4   -1875.8855    1.4987417 -5.1581328e-05  2.53059e-05      4.48985    16.587783      4.48985 
       5   -1875.8855    1.4987417 -5.1581328e-05  2.53059e-05      4.48985    16.587783      4.48985 
       6   -1875.8855    1.4987417 -5.1581328e-05  2.53059e-05      4.48985    16.587783      4.48985 
       7   -1875.8855    1.4987417 -5.1581328e-05  2.53059e-05      4.48985    16.587783      4.48985 
       8   -1875.8855    1.4987417 -5.1590651e-05 2.5266014e-05      4.48985    16.587783      4.48985 
Loop time of 0.0759541 on 1 procs for 7 steps with 336 atoms

Minimization stats:
  Stopping criterion = energy tolerance
  Energy initial, next-to-last, final = 
         -1872.8004856     -1875.88533374       -1875.885487
  Force two-norm initial, final = 14.3035 0.00577433
  Force max component initial, final = 1.9274 0.00094834
  Final line search alpha, max atom move = 0 0
  Iterations, force evaluations = 7 252

Pair  time (%) = 0.0613569 (80.7816)
Neigh time (%) = 0 (0)
Comm  time (%) = 0.00882833 (11.6232)
Outpt time (%) = 0.00106589 (1.40333)
Other time (%) = 0.00470294 (6.19182)

Nlocal:    336 ave 336 max 336 min
Histogram: 1 0 0 0 0 0 0 0 0 0
Nghost:    1110 ave 1110 max 1110 min
Histogram: 1 0 0 0 0 0 0 0 0 0
Neighs:    8568 ave 8568 max 8568 min
Histogram: 1 0 0 0 0 0 0 0 0 0

Total # of neighbors = 8568
Ave neighs/atom = 25.5
Neighbor list builds = 0
Dangerous builds = 0
        next i
jump SELF loop1
        read_dump orig.dump 0 x y z
  orthogonal box = (0 -0.59858 0) to (4.48985 16.1788 4.48985)
  336 atoms before read
  336 atoms in snapshot
  0 atoms purged
  336 atoms replaced
  0 atoms trimmed
  0 atoms added
  336 atoms after read
        variable stretch equal 1+$i*${strainstep}
        variable stretch equal 1+24*${strainstep}
        variable stretch equal 1+24*-0.0005
        change_box all ${direction} scale ${stretch} remap
        change_box all y scale ${stretch} remap
        change_box all y scale 0.988 remap
  orthogonal box = (0 -0.499573 0) to (4.48985 16.0798 4.48985)
        min_style ${style}
        min_style hftn
        minimize ${etol} ${ftol} ${maxiter} ${maxeval}
        minimize 1e-12 ${ftol} ${maxiter} ${maxeval}
        minimize 1e-12 1e-08 ${maxiter} ${maxeval}
        minimize 1e-12 1e-08 10000 ${maxeval}
        minimize 1e-12 1e-08 10000 20000
WARNING: Resetting reneighboring criteria during minimization (../min.cpp:168)
Memory usage per processor = 4.9009 Mbytes
Step PotEng Pxx Pyy Pxy Lx Ly Lz 
       0    -1872.516    2.0531742    1.7227982 -0.022081485      4.48985    16.579393      4.48985 
       1   -1875.7145    1.4965008  0.048939599 -0.028932374      4.48985    16.579393      4.48985 
       2   -1875.8801    1.5153653  0.051093311 -0.0070767166      4.48985    16.579393      4.48985 
       3   -1875.8855    1.4994047 2.633908e-05 -0.0011724306      4.48985    16.579393      4.48985 
       4   -1875.8855    1.4995065 -4.3783015e-06 -6.8394008e-07      4.48985    16.579393      4.48985 
       5   -1875.8855    1.4995065 -4.3783015e-06 -6.8394008e-07      4.48985    16.579393      4.48985 
       6   -1875.8855    1.4995065 -4.3783015e-06 -6.8394008e-07      4.48985    16.579393      4.48985 
       7   -1875.8855    1.4995065 -4.3783015e-06 -6.8394008e-07      4.48985    16.579393      4.48985 
       8   -1875.8855    1.4995065 -4.367284e-06 -6.8842711e-07      4.48985    16.579393      4.48985 
Loop time of 0.0867111 on 1 procs for 7 steps with 336 atoms

Minimization stats:
  Stopping criterion = energy tolerance
[...]
  Energy initial, next-to-last, final = 
        -1813.16542055     -1875.88545188     -1875.88548636
  Force two-norm initial, final = 73.7008 0.00070578
  Force max component initial, final = 10.5877 0.000163331
  Final line search alpha, max atom move = 0 0
  Iterations, force evaluations = 13 426

Pair  time (%) = 0.134536 (73.7013)
Neigh time (%) = 0.000800887 (0.438742)
Comm  time (%) = 0.0209782 (11.4922)
Outpt time (%) = 0.0115249 (6.31357)
Other time (%) = 0.0147021 (8.05412)

Nlocal:    336 ave 336 max 336 min
Histogram: 1 0 0 0 0 0 0 0 0 0
Nghost:    1110 ave 1110 max 1110 min
Histogram: 1 0 0 0 0 0 0 0 0 0
Neighs:    8504 ave 8504 max 8504 min
Histogram: 1 0 0 0 0 0 0 0 0 0

Total # of neighbors = 8504
Ave neighs/atom = 25.3095
Neighbor list builds = 2
Dangerous builds = 0
        next i
jump SELF loop1
        read_dump orig.dump 0 x y z
  orthogonal box = (0 -0.59858 0) to (4.48985 16.1788 4.48985)
  336 atoms before read
  336 atoms in snapshot
  0 atoms purged
  336 atoms replaced
  0 atoms trimmed
  0 atoms added
  336 atoms after read
        variable stretch equal 1+$i*${strainstep}
        variable stretch equal 1+96*${strainstep}
        variable stretch equal 1+96*-0.0005
        change_box all ${direction} scale ${stretch} remap
        change_box all y scale ${stretch} remap
        change_box all y scale 0.952 remap
  orthogonal box = (0 -0.197519 0) to (4.48985 15.7778 4.48985)
        min_style ${style}
        min_style hftn
        minimize ${etol} ${ftol} ${maxiter} ${maxeval}
        minimize 1e-12 ${ftol} ${maxiter} ${maxeval}
        minimize 1e-12 1e-08 ${maxiter} ${maxeval}
        minimize 1e-12 1e-08 10000 ${maxeval}
        minimize 1e-12 1e-08 10000 20000
WARNING: Resetting reneighboring criteria during minimization (../min.cpp:168)
Memory usage per processor = 4.9009 Mbytes
Step PotEng Pxx Pyy Pxy Lx Ly Lz 
       0   -1811.6792    4.3362501    8.8508277  0.087848158      4.48985    15.975285      4.48985 
       1   -1830.0955    3.7440888    6.5727336  0.057239888      4.48985    15.975285      4.48985 
       2   -1839.6885    3.4429896     5.996003  0.068985196      4.48985    15.975285      4.48985 
       3    -1853.551    2.8531642    3.7331871 -0.028435835      4.48985    16.384257      4.48985 
       4   -1862.7489    2.5809675    3.2787127 -0.00039814659      4.48985    16.384257      4.48985 
       5   -1868.9219    2.1830329    2.0475502 -0.0097350681      4.48985    16.384257      4.48985 
       6   -1875.0123    1.6561158   0.56058048 -0.031861661      4.48985    16.702023      4.48985 
       7    -1875.869    1.4860966 0.0088961074 0.0036904701      4.48985    16.702023      4.48985 
       8   -1875.8855    1.4880147 -0.0024538335 0.0017387268      4.48985    16.702023      4.48985 
       9   -1875.8855    1.4884983 -1.6855842e-06 -1.0030787e-06      4.48985    16.702023      4.48985 
      10   -1875.8855    1.4884994 -1.7956546e-09 2.5709431e-10      4.48985    16.702023      4.48985 
      11   -1875.8855    1.4884994 2.9570236e-12 1.0318799e-12      4.48985    16.702023      4.48985 
Loop time of 0.149241 on 1 procs for 10 steps with 336 atoms

Minimization stats:
  Stopping criterion = force tolerance
  Energy initial, next-to-last, final = 
        -1811.67916851     -1875.88548581     -1875.88548611
  Force two-norm initial, final = 74.7674 3.20337e-10
  Force max component initial, final = 10.7406 8.13287e-11
  Final line search alpha, max atom move = 0 0
  Iterations, force evaluations = 10 488

Pair  time (%) = 0.125816 (84.3037)
Neigh time (%) = 0.000487932 (0.326942)
Comm  time (%) = 0.0132431 (8.87362)
Outpt time (%) = 0.000631188 (0.422932)
Other time (%) = 0.00906312 (6.07281)

Nlocal:    336 ave 336 max 336 min
Histogram: 1 0 0 0 0 0 0 0 0 0
Nghost:    1110 ave 1110 max 1110 min
Histogram: 1 0 0 0 0 0 0 0 0 0
Neighs:    8520 ave 8520 max 8520 min
Histogram: 1 0 0 0 0 0 0 0 0 0

Total # of neighbors = 8520
Ave neighs/atom = 25.3571
Neighbor list builds = 2
Dangerous builds = 0
        next i
jump SELF loop1
        read_dump orig.dump 0 x y z
  orthogonal box = (0 -0.59858 0) to (4.48985 16.1788 4.48985)
  336 atoms before read
  336 atoms in snapshot
  0 atoms purged
  336 atoms replaced
  0 atoms trimmed
  0 atoms added
  336 atoms after read
        variable stretch equal 1+$i*${strainstep}
        variable stretch equal 1+97*${strainstep}
        variable stretch equal 1+97*-0.0005
        change_box all ${direction} scale ${stretch} remap
        change_box all y scale ${stretch} remap
        change_box all y scale 0.9515 remap
  orthogonal box = (0 -0.193324 0) to (4.48985 15.7736 4.48985)
        min_style ${style}
        min_style hftn
        minimize ${etol} ${ftol} ${maxiter} ${maxeval}
        minimize 1e-12 ${ftol} ${maxiter} ${maxeval}
        minimize 1e-12 1e-08 ${maxiter} ${maxeval}
        minimize 1e-12 1e-08 10000 ${maxeval}
        minimize 1e-12 1e-08 10000 20000
WARNING: Resetting reneighboring criteria during minimization (../min.cpp:168)
Memory usage per processor = 4.9009 Mbytes
Step PotEng Pxx Pyy Pxy Lx Ly Lz 
       0   -1810.1723     4.375962    8.9762153  0.092921398      4.48985    15.966895      4.48985 
       1   -1829.0344     3.775779    6.6648196  0.059177737      4.48985    15.966895      4.48985 
       2   -1838.8669    3.4676533    6.0744793  0.070384696      4.48985    15.966895      4.48985 
       3   -1852.9916    2.8753947    3.7937556 -0.026671876      4.48985    16.377938      4.48985 
       4   -1862.4177    2.5977093    3.3234288 -4.4132097e-05      4.48985    16.377938      4.48985 
       5   -1868.7303    2.1953147    2.0818113 -0.007790549      4.48985    16.377938      4.48985 
       6   -1874.8607    1.6594581   0.58743118 -0.031013275      4.48985    16.699432      4.48985 
       7   -1875.8693    1.4877609  0.013774324 0.0039563651      4.48985    16.699432      4.48985 
       8   -1875.8855    1.4884038 -0.0022077964 0.0022836706      4.48985    16.699432      4.48985 
       9   -1875.8855    1.4884038 -0.0022077964 0.0022836706      4.48985    16.699432      4.48985 
      10   -1875.8855    1.4884038 -0.0022077964 0.0022836706      4.48985    16.699432      4.48985 
      11   -1875.8855    1.4884038 -0.0022077964 0.0022836706      4.48985    16.699432      4.48985 
      12   -1875.8855    1.4884038 -0.0022077964 0.0022836706      4.48985    16.699432      4.48985 
      13   -1875.8855    1.4884038 -0.0022077964 0.0022836706      4.48985    16.699432      4.48985 
      14   -1875.8855    1.4884038 -0.0022077964 0.0022836706      4.48985    16.699432      4.48985 
      15   -1875.8855    1.4884038 -0.0022077964 0.0022836706      4.48985    16.699432      4.48985 
      16   -1875.8855    1.4884038 -0.0022077964 0.0022836706      4.48985    16.699432      4.48985 
      17   -1875.8855    1.4884038 -0.0022077964 0.0022836706      4.48985    16.699432      4.48985 
      18   -1875.8855    1.4884038 -0.0022077976 0.0022836707      4.48985    16.699432      4.48985 
Loop time of 0.102518 on 1 procs for 17 steps with 336 atoms

Minimization stats:
  Stopping criterion = energy tolerance
  Energy initial, next-to-last, final = 
        -1810.17233995     -1875.86934411     -1875.88549377
  Force two-norm initial, final = 75.8408 0.0648455
  Force max component initial, final = 10.8947 0.0111934
  Final line search alpha, max atom move = 0 0
  Iterations, force evaluations = 17 344

Pair  time (%) = 0.0881431 (85.9781)
Neigh time (%) = 0.000897135 (0.875099)
Comm  time (%) = 0.0035682 (3.48055)
Outpt time (%) = 0.000828405 (0.808057)
Other time (%) = 0.00908128 (8.85822)

Nlocal:    336 ave 336 max 336 min
Histogram: 1 0 0 0 0 0 0 0 0 0
Nghost:    1110 ave 1110 max 1110 min
Histogram: 1 0 0 0 0 0 0 0 0 0
Neighs:    8520 ave 8520 max 8520 min
Histogram: 1 0 0 0 0 0 0 0 0 0

Total # of neighbors = 8520
Ave neighs/atom = 25.3571
Neighbor list builds = 2
Dangerous builds = 0
        next i
jump SELF loop1
        read_dump orig.dump 0 x y z
  orthogonal box = (0 -0.59858 0) to (4.48985 16.1788 4.48985)
  336 atoms before read
  336 atoms in snapshot
  0 atoms purged
  336 atoms replaced
  0 atoms trimmed
  0 atoms added
  336 atoms after read
        variable stretch equal 1+$i*${strainstep}
        variable stretch equal 1+98*${strainstep}
        variable stretch equal 1+98*-0.0005
        change_box all ${direction} scale ${stretch} remap
        change_box all y scale ${stretch} remap
        change_box all y scale 0.951 remap
  orthogonal box = (0 -0.189129 0) to (4.48985 15.7694 4.48985)
        min_style ${style}
        min_style hftn
        minimize ${etol} ${ftol} ${maxiter} ${maxeval}
        minimize 1e-12 ${ftol} ${maxiter} ${maxeval}
        minimize 1e-12 1e-08 ${maxiter} ${maxeval}
        minimize 1e-12 1e-08 10000 ${maxeval}
        minimize 1e-12 1e-08 10000 20000
WARNING: Resetting reneighboring criteria during minimization (../min.cpp:168)
Memory usage per processor = 4.9009 Mbytes
Step PotEng Pxx Pyy Pxy Lx Ly Lz 
       0    -1808.643    4.4159553    9.1024794  0.098099528      4.48985    15.958504      4.48985 
       1   -1827.9595    3.8076971    6.7569921  0.060755854      4.48985    15.958504      4.48985 
       2   -1838.0267    3.4935422    6.1521602  0.073288137      4.48985    15.958504      4.48985 
       3   -1852.4032    2.8989103    3.8510071 -0.028739129      4.48985    16.372762      4.48985 
       4   -1862.0921    2.6126832    3.3654163 0.00016110102      4.48985    16.372762      4.48985 
       5    -1868.535    2.2103625    2.1155815 -0.0088495868      4.48985    16.372762      4.48985 
       6   -1874.9221    1.6639441   0.58963798 -0.034118376      4.48985    16.698573      4.48985 
       7   -1875.8691     1.487481  0.012331173 0.0032697977      4.48985    16.698573      4.48985 
       8   -1875.8855    1.4885086 -0.0021035328 0.0021854187      4.48985    16.698573      4.48985 
       9   -1875.8855    1.4885086 -0.0021035328 0.0021854187      4.48985    16.698573      4.48985 
      10   -1875.8855    1.4885086 -0.0021035328 0.0021854187      4.48985    16.698573      4.48985 
      11   -1875.8855    1.4885086 -0.0021035328 0.0021854187      4.48985    16.698573      4.48985 
      12   -1875.8855    1.4885086 -0.0021035328 0.0021854187      4.48985    16.698573      4.48985 
      13   -1875.8855    1.4885086 -0.0021035328 0.0021854187      4.48985    16.698573      4.48985 
      14   -1875.8855    1.4885086 -0.0021035328 0.0021854187      4.48985    16.698573      4.48985 
      15   -1875.8855    1.4885086 -0.0021035328 0.0021854187      4.48985    16.698573      4.48985 
      16   -1875.8855    1.4885086 -0.0021035328 0.0021854187      4.48985    16.698573      4.48985 
      17   -1875.8855    1.4885086 -0.0021035328 0.0021854187      4.48985    16.698573      4.48985 
      18   -1875.8855    1.4885086 -0.0021035357 0.0021854192      4.48985    16.698573      4.48985 
Loop time of 0.106199 on 1 procs for 17 steps with 336 atoms

Minimization stats:
  Stopping criterion = energy tolerance
  Energy initial, next-to-last, final = 
        -1808.64299894     -1875.86906752     -1875.88549152
  Force two-norm initial, final = 76.9214 0.0634667
  Force max component initial, final = 11.0495 0.0120048
  Final line search alpha, max atom move = 0 0
  Iterations, force evaluations = 17 348

Pair  time (%) = 0.0822308 (77.4309)
Neigh time (%) = 0.000903036 (0.850324)
Comm  time (%) = 0.00704781 (6.63642)
Outpt time (%) = 0.00423728 (3.98994)
Other time (%) = 0.0117801 (11.0925)

Nlocal:    336 ave 336 max 336 min
Histogram: 1 0 0 0 0 0 0 0 0 0
Nghost:    1110 ave 1110 max 1110 min
Histogram: 1 0 0 0 0 0 0 0 0 0
Neighs:    8520 ave 8520 max 8520 min
Histogram: 1 0 0 0 0 0 0 0 0 0

Total # of neighbors = 8520
Ave neighs/atom = 25.3571
Neighbor list builds = 2
Dangerous builds = 0
        next i
jump SELF loop1
        read_dump orig.dump 0 x y z
  orthogonal box = (0 -0.59858 0) to (4.48985 16.1788 4.48985)
  336 atoms before read
  336 atoms in snapshot
  0 atoms purged
  336 atoms replaced
  0 atoms trimmed
  0 atoms added
  336 atoms after read
        variable stretch equal 1+$i*${strainstep}
        variable stretch equal 1+99*${strainstep}
        variable stretch equal 1+99*-0.0005
        change_box all ${direction} scale ${stretch} remap
        change_box all y scale ${stretch} remap
        change_box all y scale 0.9505 remap
  orthogonal box = (0 -0.184934 0) to (4.48985 15.7652 4.48985)
        min_style ${style}
        min_style hftn
        minimize ${etol} ${ftol} ${maxiter} ${maxeval}
        minimize 1e-12 ${ftol} ${maxiter} ${maxeval}
        minimize 1e-12 1e-08 ${maxiter} ${maxeval}
        minimize 1e-12 1e-08 10000 ${maxeval}
        minimize 1e-12 1e-08 10000 20000
WARNING: Resetting reneighboring criteria during minimization (../min.cpp:168)
Memory usage per processor = 4.9009 Mbytes
Step PotEng Pxx Pyy Pxy Lx Ly Lz 
       0   -1807.0931    4.4561848    9.2295532   0.10343915      4.48985    15.950114      4.48985 
       1   -1826.8865    3.8387616    6.8474234  0.061554168      4.48985    15.950114      4.48985 
       2   -1837.2163     3.518486    6.2287046  0.075784818      4.48985    15.950114      4.48985 
       3   -1851.9253    2.9169213    3.8973587 -0.027802473      4.48985    16.368902      4.48985 
       4   -1861.8121    2.6272991    3.4057084 -0.00016296295      4.48985    16.368902      4.48985 
       5   -1868.4201     2.214882     2.133151 -0.0067162847      4.48985    16.368902      4.48985 
       6   -1874.9361    1.6579247   0.58196225 -0.032244336      4.48985    16.699157      4.48985 
       7   -1875.8689    1.4868697  0.011587203 0.0033544779      4.48985    16.699157      4.48985 
       8   -1875.8855    1.4884341 -0.0021521578 0.0021131462      4.48985    16.699157      4.48985 
       9   -1875.8855    1.4884341 -0.0021521578 0.0021131462      4.48985    16.699157      4.48985 
      10   -1875.8855    1.4884341 -0.0021521578 0.0021131462      4.48985    16.699157      4.48985 
      11   -1875.8855    1.4884341 -0.0021521578 0.0021131462      4.48985    16.699157      4.48985 
      12   -1875.8855    1.4884341 -0.0021521578 0.0021131462      4.48985    16.699157      4.48985 
      13   -1875.8855    1.4884341 -0.0021521578 0.0021131462      4.48985    16.699157      4.48985 
      14   -1875.8855    1.4884341 -0.0021521578 0.0021131462      4.48985    16.699157      4.48985 
      15   -1875.8855    1.4884341 -0.0021521578 0.0021131462      4.48985    16.699157      4.48985 
      16   -1875.8855    1.4884341 -0.0021521578 0.0021131462      4.48985    16.699157      4.48985 
      17   -1875.8855    1.4884341 -0.0021521578 0.0021131462      4.48985    16.699157      4.48985 
      18   -1875.8855    1.4884341 -0.0021521584 0.0021131464      4.48985    16.699157      4.48985 
Loop time of 0.104492 on 1 procs for 17 steps with 336 atoms

Minimization stats:
  Stopping criterion = energy tolerance
  Energy initial, next-to-last, final = 
        -1807.09309708     -1875.86890792     -1875.88549552
  Force two-norm initial, final = 78.0105 0.0715416
  Force max component initial, final = 11.2058 0.014874
  Final line search alpha, max atom move = 0 0
  Iterations, force evaluations = 17 346

Pair  time (%) = 0.0873252 (83.5712)
Neigh time (%) = 0.000500055 (0.478559)
Comm  time (%) = 0.0086089 (8.23882)
Outpt time (%) = 0.00105821 (1.01272)
Other time (%) = 0.00699956 (6.69866)

Nlocal:    336 ave 336 max 336 min
Histogram: 1 0 0 0 0 0 0 0 0 0
Nghost:    1110 ave 1110 max 1110 min
Histogram: 1 0 0 0 0 0 0 0 0 0
Neighs:    8520 ave 8520 max 8520 min
Histogram: 1 0 0 0 0 0 0 0 0 0

Total # of neighbors = 8520
Ave neighs/atom = 25.3571
Neighbor list builds = 2
Dangerous builds = 0
        next i
jump SELF loop1
        read_dump orig.dump 0 x y z
  orthogonal box = (0 -0.59858 0) to (4.48985 16.1788 4.48985)
  336 atoms before read
  336 atoms in snapshot
  0 atoms purged
  336 atoms replaced
  0 atoms trimmed
  0 atoms added
  336 atoms after read
        variable stretch equal 1+$i*${strainstep}
        variable stretch equal 1+100*${strainstep}
        variable stretch equal 1+100*-0.0005
        change_box all ${direction} scale ${stretch} remap
        change_box all y scale ${stretch} remap
        change_box all y scale 0.95 remap
  orthogonal box = (0 -0.180738 0) to (4.48985 15.761 4.48985)
        min_style ${style}
        min_style hftn
        minimize ${etol} ${ftol} ${maxiter} ${maxeval}
        minimize 1e-12 ${ftol} ${maxiter} ${maxeval}
        minimize 1e-12 1e-08 ${maxiter} ${maxeval}
        minimize 1e-12 1e-08 10000 ${maxeval}
        minimize 1e-12 1e-08 10000 20000
WARNING: Resetting reneighboring criteria during minimization (../min.cpp:168)
Memory usage per processor = 4.9009 Mbytes
Step PotEng Pxx Pyy Pxy Lx Ly Lz 
       0   -1805.5207    4.4966889    9.3575005   0.10889397      4.48985    15.941724      4.48985 
       1   -1825.7816    3.8711716    6.9430307  0.063651935      4.48985    15.941724      4.48985 
       2    -1836.361    3.5443366    6.3080139  0.078094902      4.48985    15.941724      4.48985 
       3   -1851.3556    2.9381235    3.9548619 -0.030190825      4.48985    16.363741      4.48985 
       4   -1861.4841    2.6432126    3.4489283 0.0010227089      4.48985    16.363741      4.48985 
       5   -1868.2375    2.2290662    2.1631704 -0.006821276      4.48985    16.363741      4.48985 
       6   -1874.8627    1.6615849   0.59705349 -0.033432419      4.48985    16.698311      4.48985 
       7   -1875.8698    1.4882426  0.014468972 0.0034670293      4.48985    16.698311      4.48985 
       8   -1875.8855    1.4886049 -0.0018704893 0.0022816049      4.48985    16.698311      4.48985 
       9   -1875.8855    1.4886049 -0.0018704893 0.0022816049      4.48985    16.698311      4.48985 
      10   -1875.8855    1.4886049 -0.0018704893 0.0022816049      4.48985    16.698311      4.48985 
      11   -1875.8855    1.4884538 -0.0018434091 0.0022011265      4.48985    16.698311      4.48985 
      12   -1875.8855    1.4884538 -0.0018434091 0.0022011265      4.48985    16.698311      4.48985 
      13   -1875.8855    1.4885055 -0.0017431402 0.0021818007      4.48985    16.698311      4.48985 
      14   -1875.8855    1.4885055 -0.0017431402 0.0021818007      4.48985    16.698311      4.48985 
      15   -1875.8855    1.4885055 -0.0017431402 0.0021818007      4.48985    16.698311      4.48985 
      16   -1875.8855    1.4885055 -0.0017431402 0.0021818007      4.48985    16.698311      4.48985 
      17   -1875.8855    1.4885055 -0.0017431402 0.0021818007      4.48985    16.698311      4.48985 
      18   -1875.8855    1.4885055 -0.0017431402 0.0021818007      4.48985    16.698311      4.48985 
      19   -1875.8855    1.4885055 -0.0017431402 0.0021818007      4.48985    16.698311      4.48985 
      20   -1875.8855    1.4885055 -0.0017431339  0.002181797      4.48985    16.698311      4.48985 
Loop time of 0.109847 on 1 procs for 19 steps with 336 atoms

Minimization stats:
  Stopping criterion = energy tolerance
  Energy initial, next-to-last, final = 
        -1805.52065311     -1875.88548685     -1875.88549027
  Force two-norm initial, final = 79.1068 0.0158851
  Force max component initial, final = 11.3629 0.00188718
  Final line search alpha, max atom move = 0 0
  Iterations, force evaluations = 19 362

Pair  time (%) = 0.091815 (83.5844)
Neigh time (%) = 0.000898838 (0.818263)
Comm  time (%) = 0.00887952 (8.08353)
Outpt time (%) = 0.00145792 (1.32723)
Other time (%) = 0.00679573 (6.18654)

Nlocal:    336 ave 336 max 336 min
Histogram: 1 0 0 0 0 0 0 0 0 0
Nghost:    1110 ave 1110 max 1110 min
Histogram: 1 0 0 0 0 0 0 0 0 0
Neighs:    8520 ave 8520 max 8520 min
Histogram: 1 0 0 0 0 0 0 0 0 0

Total # of neighbors = 8520
Ave neighs/atom = 25.3571
Neighbor list builds = 2
Dangerous builds = 0
        next i
jump SELF loop1

