LAMMPS (28 Jun 2014)
# attempt at getting tensile strain-stress curve for infinite slab

#file prefix
variable prefix string compression_Warner_ductile
variable dumpfile string ${prefix}.*.dump
variable dumpfile string compression_Warner_ductile.*.dump
variable restartfile string ${prefix}.*.equil
variable restartfile string compression_Warner_ductile.*.equil

#Mass (g/mol)
variable m equal 1

# lattice constant (in Angstroms) and orientation of axes (given by lattice vectors)
variable rho equal 0.918
variable x1 equal 1
variable x2 equal 0
variable x3 equal 0
variable y1 equal 0
variable y2 equal 1
variable y3 equal 0
# length of lattice in different directions (using orientation of lattice vectors)
variable ax equal sqrt(${x1}*${x1}+${x2}*${x2}+${x3}*${x3})
variable ax equal sqrt(1*${x1}+${x2}*${x2}+${x3}*${x3})
variable ax equal sqrt(1*1+${x2}*${x2}+${x3}*${x3})
variable ax equal sqrt(1*1+0*${x2}+${x3}*${x3})
variable ax equal sqrt(1*1+0*0+${x3}*${x3})
variable ax equal sqrt(1*1+0*0+0*${x3})
variable ax equal sqrt(1*1+0*0+0*0)
variable ay equal sqrt(${y1}*${y1}+${y2}*${y2}+${y3}*${y3})
variable ay equal sqrt(0*${y1}+${y2}*${y2}+${y3}*${y3})
variable ay equal sqrt(0*0+${y2}*${y2}+${y3}*${y3})
variable ay equal sqrt(0*0+1*${y2}+${y3}*${y3})
variable ay equal sqrt(0*0+1*1+${y3}*${y3})
variable ay equal sqrt(0*0+1*1+0*${y3})
variable ay equal sqrt(0*0+1*1+0*0)
variable az equal 1

# size of box in lattice units
variable lxpos equal 3
variable lxneg equal 0
variable lypos equal 3
variable lyneg equal 0
variable lzpos equal 0.25
variable lzneg equal -0.25

# Define minimization parameters and damping
variable etol equal 1.0e-12
variable ftol equal 1.0e-8
variable maxiter equal 10000
variable maxeval equal 20000
variable style string cg

# boundary conditions
dimension	2
boundary	p p p
atom_style	atomic

# create geometry
units		lj
lattice         hex ${rho}
lattice         hex 0.918
Lattice spacing in x,y,z = 1.12154 1.94256 1.12154
region		myregion block ${lxneg} ${lxpos} ${lyneg} ${lypos} ${lzneg} ${lzpos} units lattice
region		myregion block 0 ${lxpos} ${lyneg} ${lypos} ${lzneg} ${lzpos} units lattice
region		myregion block 0 3 ${lyneg} ${lypos} ${lzneg} ${lzpos} units lattice
region		myregion block 0 3 0 ${lypos} ${lzneg} ${lzpos} units lattice
region		myregion block 0 3 0 3 ${lzneg} ${lzpos} units lattice
region		myregion block 0 3 0 3 -0.25 ${lzpos} units lattice
region		myregion block 0 3 0 3 -0.25 0.25 units lattice
create_box	1 myregion
Created orthogonal box = (0 0 -0.280384) to (3.36461 5.82767 0.280384)
  1 by 1 by 1 MPI processor grid
create_atoms	1 box
Created 18 atoms

# define masses
mass * $m
mass * 1

# my fake/morse potential
pair_style      table linear 1000
pair_coeff      * * da_potential_ductile dummy
neighbor	0.3 bin
neigh_modify	delay 5

# Setup output
thermo 1
thermo_style custom step pe pxx pyy pxy lx ly lz
thermo_modify norm no

# Compute initial state by relaxing box
min_style ${style}
min_style cg
minimize ${etol} ${ftol} ${maxiter} ${maxeval}
minimize 1e-12 ${ftol} ${maxiter} ${maxeval}
minimize 1e-12 1e-08 ${maxiter} ${maxeval}
minimize 1e-12 1e-08 10000 ${maxeval}
minimize 1e-12 1e-08 10000 20000
WARNING: Resetting reneighboring criteria during minimization (../min.cpp:168)
Memory usage per processor = 3.35096 Mbytes
Step PotEng Pxx Pyy Pxy Lx Ly Lz 
       0   -53.998794 0.0031519848 0.0031519848 -9.3870212e-20     3.364609    5.8276737   0.56076816 
       1   -53.998794 0.0031519848 0.0031519848 -9.3870212e-20     3.364609    5.8276737   0.56076816 
Loop time of 7.10721e-05 on 1 procs for 1 steps with 18 atoms

Minimization stats:
  Stopping criterion = linesearch alpha is zero
  Energy initial, next-to-last, final = 
        -53.9987944629     -53.9987944629     -53.9987944629
  Force two-norm initial, final = 9.48929e-14 9.48929e-14
  Force max component initial, final = 3.32908e-14 3.32908e-14
  Final line search alpha, max atom move = 0.5 1.66454e-14
  Iterations, force evaluations = 1 2

Pair  time (%) = 1.80164e-05 (25.3495)
Neigh time (%) = 0 (0)
Comm  time (%) = 4.05894e-06 (5.71101)
Outpt time (%) = 0 (0)
Other time (%) = 4.89968e-05 (68.9395)

Nlocal:    18 ave 18 max 18 min
Histogram: 1 0 0 0 0 0 0 0 0 0
Nghost:    65 ave 65 max 65 min
Histogram: 1 0 0 0 0 0 0 0 0 0
Neighs:    162 ave 162 max 162 min
Histogram: 1 0 0 0 0 0 0 0 0 0

Total # of neighbors = 162
Ave neighs/atom = 9
Neighbor list builds = 0
Dangerous builds = 0
reset_timestep 0
write_dump all atom orig.dump

# Energy curve will have nstep steps
variable strainmax equal -0.04
variable strainstep equal -0.0005
variable nsteps equal round(${strainmax}/${strainstep})
variable nsteps equal round(-0.04/${strainstep})
variable nsteps equal round(-0.04/-0.0005)
variable direction string y

variable i loop ${nsteps}
variable i loop 80
label loop1
	read_dump orig.dump 0 x y
  orthogonal box = (0 0 -0.280384) to (3.36461 5.82767 0.280384)
  18 atoms before read
  18 atoms in snapshot
  0 atoms purged
  18 atoms replaced
  0 atoms trimmed
  0 atoms added
  18 atoms after read
        variable stretch equal 1+$i*${strainstep}
        variable stretch equal 1+1*${strainstep}
        variable stretch equal 1+1*-0.0005
        change_box all ${direction} scale ${stretch} remap
        change_box all y scale ${stretch} remap
        change_box all y scale 0.9995 remap
  orthogonal box = (0 0.00145692 -0.280384) to (3.36461 5.82621 0.280384)
        min_style ${style}
        min_style cg
        minimize ${etol} ${ftol} ${maxiter} ${maxeval}
        minimize 1e-12 ${ftol} ${maxiter} ${maxeval}
        minimize 1e-12 1e-08 ${maxiter} ${maxeval}
        minimize 1e-12 1e-08 10000 ${maxeval}
        minimize 1e-12 1e-08 10000 20000
WARNING: Resetting reneighboring criteria during minimization (../min.cpp:168)
Memory usage per processor = 3.35096 Mbytes
Step PotEng Pxx Pyy Pxy Lx Ly Lz 
       0   -53.998738 0.0084070441  0.018920814 6.6969906e-20      3.36461    5.8247562   0.56076816 
       1   -53.998738 0.0084070441  0.018920814 6.6969906e-20      3.36461    5.8247562   0.56076816 
Loop time of 0.000237929 on 1 procs for 1 steps with 18 atoms

Minimization stats:
  Stopping criterion = linesearch alpha is zero
  Energy initial, next-to-last, final = 
          -53.99873774       -53.99873774       -53.99873774
  Force two-norm initial, final = 0.000847243 0.000847243
  Force max component initial, final = 0.000211734 0.000211734
  Final line search alpha, max atom move = 0.015625 3.30834e-06
  Iterations, force evaluations = 1 7

Pair  time (%) = 4.60964e-05 (19.374)
Neigh time (%) = 0 (0)
Comm  time (%) = 8.0457e-06 (3.38156)
Outpt time (%) = 0 (0)
Other time (%) = 0.000183787 (77.2444)

Nlocal:    18 ave 18 max 18 min
Histogram: 1 0 0 0 0 0 0 0 0 0
Nghost:    65 ave 65 max 65 min
Histogram: 1 0 0 0 0 0 0 0 0 0
Neighs:    162 ave 162 max 162 min
Histogram: 1 0 0 0 0 0 0 0 0 0

Total # of neighbors = 162
Ave neighs/atom = 9
Neighbor list builds = 0
Dangerous builds = 0
        next i
jump SELF loop1
	read_dump orig.dump 0 x y
  orthogonal box = (0 0 -0.280384) to (3.36461 5.82767 0.280384)
  18 atoms before read
  18 atoms in snapshot
  0 atoms purged
  18 atoms replaced
  0 atoms trimmed
  0 atoms added
  18 atoms after read
        variable stretch equal 1+$i*${strainstep}
        variable stretch equal 1+2*${strainstep}
        variable stretch equal 1+2*-0.0005
        change_box all ${direction} scale ${stretch} remap
        change_box all y scale ${stretch} remap
        change_box all y scale 0.999 remap
  orthogonal box = (0 0.00291384 -0.280384) to (3.36461 5.82476 0.280384)
        min_style ${style}
        min_style cg
        minimize ${etol} ${ftol} ${maxiter} ${maxeval}
        minimize 1e-12 ${ftol} ${maxiter} ${maxeval}
        minimize 1e-12 1e-08 ${maxiter} ${maxeval}
        minimize 1e-12 1e-08 10000 ${maxeval}
        minimize 1e-12 1e-08 10000 20000
WARNING: Resetting reneighboring criteria during minimization (../min.cpp:168)
Memory usage per processor = 3.35096 Mbytes
Step PotEng Pxx Pyy Pxy Lx Ly Lz 
       0   -53.997856  0.013821682  0.035110162 5.7553577e-19      3.36461    5.8218423   0.56076816 
       1   -53.997856  0.013821682  0.035110162 5.7553577e-19      3.36461    5.8218423   0.56076816 
Loop time of 0.00010096 on 1 procs for 1 steps with 18 atoms

Minimization stats:
  Stopping criterion = linesearch alpha is zero
  Energy initial, next-to-last, final = 
        -53.9978562063     -53.9978562063     -53.9978562063
  Force two-norm initial, final = 0.000869477 0.000869477
  Force max component initial, final = 0.000218383 0.000218383
  Final line search alpha, max atom move = 0.015625 3.41224e-06
  Iterations, force evaluations = 1 7

Pair  time (%) = 4.50262e-05 (44.5979)
Neigh time (%) = 0 (0)
Comm  time (%) = 9.09762e-06 (9.01108)
Outpt time (%) = 0 (0)
Other time (%) = 4.68366e-05 (46.391)

Nlocal:    18 ave 18 max 18 min
Histogram: 1 0 0 0 0 0 0 0 0 0
Nghost:    65 ave 65 max 65 min
Histogram: 1 0 0 0 0 0 0 0 0 0
Neighs:    162 ave 162 max 162 min
Histogram: 1 0 0 0 0 0 0 0 0 0

Total # of neighbors = 162
Ave neighs/atom = 9
Neighbor list builds = 0
Dangerous builds = 0
        next i
jump SELF loop1
	read_dump orig.dump 0 x y
  orthogonal box = (0 0 -0.280384) to (3.36461 5.82767 0.280384)
  18 atoms before read
  18 atoms in snapshot
  0 atoms purged
  18 atoms replaced
  0 atoms trimmed
  0 atoms added
  18 atoms after read
        variable stretch equal 1+$i*${strainstep}
        variable stretch equal 1+3*${strainstep}
        variable stretch equal 1+3*-0.0005
        change_box all ${direction} scale ${stretch} remap
        change_box all y scale ${stretch} remap
        change_box all y scale 0.9985 remap
  orthogonal box = (0 0.00437075 -0.280384) to (3.36461 5.8233 0.280384)
        min_style ${style}
        min_style cg
        minimize ${etol} ${ftol} ${maxiter} ${maxeval}
        minimize 1e-12 ${ftol} ${maxiter} ${maxeval}
        minimize 1e-12 1e-08 ${maxiter} ${maxeval}
        minimize 1e-12 1e-08 10000 ${maxeval}
        minimize 1e-12 1e-08 10000 20000
WARNING: Resetting reneighboring criteria during minimization (../min.cpp:168)
Memory usage per processor = 3.35096 Mbytes
Step PotEng Pxx Pyy Pxy Lx Ly Lz 
       0   -53.996858  0.019260947  0.051340737 4.4928701e-18      3.36461    5.8189285   0.56076816 
       1   -53.996858  0.019260947  0.051340737 4.4928701e-18      3.36461    5.8189285   0.56076816 
Loop time of 6.90462e-05 on 1 procs for 1 steps with 18 atoms

Minimization stats:
  Stopping criterion = linesearch alpha is zero
  Energy initial, next-to-last, final = 
        -53.9968577391     -53.9968577391     -53.9968577391
  Force two-norm initial, final = 0.000868052 0.000868052
  Force max component initial, final = 0.000217946 0.000217946
  Final line search alpha, max atom move = 0.015625 3.40541e-06
  Iterations, force evaluations = 1 7

Pair  time (%) = 4.76725e-05 (69.0444)
Neigh time (%) = 0 (0)
Comm  time (%) = 9.33721e-06 (13.5231)
Outpt time (%) = 0 (0)
Other time (%) = 1.20364e-05 (17.4324)

Nlocal:    18 ave 18 max 18 min
Histogram: 1 0 0 0 0 0 0 0 0 0
Nghost:    65 ave 65 max 65 min
Histogram: 1 0 0 0 0 0 0 0 0 0
Neighs:    162 ave 162 max 162 min
Histogram: 1 0 0 0 0 0 0 0 0 0

Total # of neighbors = 162
Ave neighs/atom = 9
Neighbor list builds = 0
Dangerous builds = 0
        next i
jump SELF loop1
	read_dump orig.dump 0 x y
  orthogonal box = (0 0 -0.280384) to (3.36461 5.82767 0.280384)
  18 atoms before read
  18 atoms in snapshot
  0 atoms purged
  18 atoms replaced
  0 atoms trimmed
  0 atoms added
  18 atoms after read
        variable stretch equal 1+$i*${strainstep}
        variable stretch equal 1+4*${strainstep}
        variable stretch equal 1+4*-0.0005
        change_box all ${direction} scale ${stretch} remap
        change_box all y scale ${stretch} remap
        change_box all y scale 0.998 remap
  orthogonal box = (0 0.00582767 -0.280384) to (3.36461 5.82184 0.280384)
        min_style ${style}
        min_style cg
        minimize ${etol} ${ftol} ${maxiter} ${maxeval}
        minimize 1e-12 ${ftol} ${maxiter} ${maxeval}
        minimize 1e-12 1e-08 ${maxiter} ${maxeval}
        minimize 1e-12 1e-08 10000 ${maxeval}
        minimize 1e-12 1e-08 10000 20000
WARNING: Resetting reneighboring criteria during minimization (../min.cpp:168)
Memory usage per processor = 3.35096 Mbytes
Step PotEng Pxx Pyy Pxy Lx Ly Lz 
       0    -53.99586  0.024702942  0.067546909 7.2858698e-19      3.36461    5.8160147   0.56076816 
       1    -53.99586  0.024702942  0.067546909 7.2858698e-19      3.36461    5.8160147   0.56076816 
Loop time of 6.8931e-05 on 1 procs for 1 steps with 18 atoms

Minimization stats:
  Stopping criterion = linesearch alpha is zero
  Energy initial, next-to-last, final = 
        -53.9958597718     -53.9958597718     -53.9958597718
  Force two-norm initial, final = 0.000866628 0.000866628
  Force max component initial, final = 0.000217509 0.000217509
  Final line search alpha, max atom move = 0.015625 3.39858e-06
  Iterations, force evaluations = 1 7

Pair  time (%) = 4.51356e-05 (65.4794)
Neigh time (%) = 0 (0)
Comm  time (%) = 1.00781e-05 (14.6205)
Outpt time (%) = 0 (0)
Other time (%) = 1.37173e-05 (19.9001)

Nlocal:    18 ave 18 max 18 min
Histogram: 1 0 0 0 0 0 0 0 0 0
Nghost:    65 ave 65 max 65 min
Histogram: 1 0 0 0 0 0 0 0 0 0
Neighs:    162 ave 162 max 162 min
Histogram: 1 0 0 0 0 0 0 0 0 0

Total # of neighbors = 162
Ave neighs/atom = 9
Neighbor list builds = 0
Dangerous builds = 0
        next i
jump SELF loop1
	read_dump orig.dump 0 x y
  orthogonal box = (0 0 -0.280384) to (3.36461 5.82767 0.280384)
  18 atoms before read
  18 atoms in snapshot
  0 atoms purged
  18 atoms replaced
  0 atoms trimmed
  0 atoms added
  18 atoms after read
        variable stretch equal 1+$i*${strainstep}
        variable stretch equal 1+5*${strainstep}
        variable stretch equal 1+5*-0.0005
        change_box all ${direction} scale ${stretch} remap
        change_box all y scale ${stretch} remap
        change_box all y scale 0.9975 remap
  orthogonal box = (0 0.00728459 -0.280384) to (3.36461 5.82039 0.280384)
        min_style ${style}
        min_style cg
        minimize ${etol} ${ftol} ${maxiter} ${maxeval}
        minimize 1e-12 ${ftol} ${maxiter} ${maxeval}
        minimize 1e-12 1e-08 ${maxiter} ${maxeval}
        minimize 1e-12 1e-08 10000 ${maxeval}
        minimize 1e-12 1e-08 10000 20000
WARNING: Resetting reneighboring criteria during minimization (../min.cpp:168)
Memory usage per processor = 3.35096 Mbytes
Step PotEng Pxx Pyy Pxy Lx Ly Lz 
       0   -53.994862   0.03014767  0.083728691 7.2993649e-18      3.36461    5.8131008   0.56076816 
       1   -53.994862   0.03014767  0.083728691 7.2993649e-18      3.36461    5.8131008   0.56076816 
Loop time of 6.9008e-05 on 1 procs for 1 steps with 18 atoms

Minimization stats:
  Stopping criterion = linesearch alpha is zero
  Energy initial, next-to-last, final = 
        -53.9948623043     -53.9948623043     -53.9948623043
  Force two-norm initial, final = 0.000865206 0.000865206
  Force max component initial, final = 0.000217073 0.000217073
  Final line search alpha, max atom move = 0.015625 3.39176e-06
  Iterations, force evaluations = 1 7

Pair  time (%) = 4.62285e-05 (66.9901)
Neigh time (%) = 0 (0)
Comm  time (%) = 9.8797e-06 (14.3168)
Outpt time (%) = 0 (0)
Other time (%) = 1.28997e-05 (18.6931)

Nlocal:    18 ave 18 max 18 min
Histogram: 1 0 0 0 0 0 0 0 0 0
Nghost:    65 ave 65 max 65 min
Histogram: 1 0 0 0 0 0 0 0 0 0
Neighs:    162 ave 162 max 162 min
Histogram: 1 0 0 0 0 0 0 0 0 0

Total # of neighbors = 162
Ave neighs/atom = 9
Neighbor list builds = 0
Dangerous builds = 0
        next i
jump SELF loop1
	read_dump orig.dump 0 x y
  orthogonal box = (0 0 -0.280384) to (3.36461 5.82767 0.280384)
  18 atoms before read
  18 atoms in snapshot
  0 atoms purged
  18 atoms replaced
  0 atoms trimmed
  0 atoms added
  18 atoms after read
        variable stretch equal 1+$i*${strainstep}
        variable stretch equal 1+6*${strainstep}
        variable stretch equal 1+6*-0.0005
        change_box all ${direction} scale ${stretch} remap
        change_box all y scale ${stretch} remap
        change_box all y scale 0.997 remap
  orthogonal box = (0 0.00874151 -0.280384) to (3.36461 5.81893 0.280384)
        min_style ${style}
        min_style cg
        minimize ${etol} ${ftol} ${maxiter} ${maxeval}
        minimize 1e-12 ${ftol} ${maxiter} ${maxeval}
        minimize 1e-12 1e-08 ${maxiter} ${maxeval}
        minimize 1e-12 1e-08 10000 ${maxeval}
        minimize 1e-12 1e-08 10000 20000
WARNING: Resetting reneighboring criteria during minimization (../min.cpp:168)
Memory usage per processor = 3.35096 Mbytes
Step PotEng Pxx Pyy Pxy Lx Ly Lz 
       0   -53.993865  0.035595135  0.099886095 -6.3846533e-18      3.36461     5.810187   0.56076816 
       1   -53.993865  0.035595135  0.099886095 -6.3846533e-18      3.36461     5.810187   0.56076816 
Loop time of 7.00318e-05 on 1 procs for 1 steps with 18 atoms

Minimization stats:
  Stopping criterion = linesearch alpha is zero
  Energy initial, next-to-last, final = 
        -53.9938653367     -53.9938653367     -53.9938653367
  Force two-norm initial, final = 0.000863786 0.000863786
  Force max component initial, final = 0.000216637 0.000216637
  Final line search alpha, max atom move = 0.015625 3.38495e-06
  Iterations, force evaluations = 1 7

Pair  time (%) = 4.79822e-05 (68.5148)
Neigh time (%) = 0 (0)
Comm  time (%) = 7.81065e-06 (11.153)
Outpt time (%) = 0 (0)
Other time (%) = 1.4239e-05 (20.3322)

Nlocal:    18 ave 18 max 18 min
Histogram: 1 0 0 0 0 0 0 0 0 0
Nghost:    65 ave 65 max 65 min
Histogram: 1 0 0 0 0 0 0 0 0 0
Neighs:    162 ave 162 max 162 min
Histogram: 1 0 0 0 0 0 0 0 0 0

Total # of neighbors = 162
Ave neighs/atom = 9
Neighbor list builds = 0
Dangerous builds = 0
        next i
jump SELF loop1
	read_dump orig.dump 0 x y
  orthogonal box = (0 0 -0.280384) to (3.36461 5.82767 0.280384)
  18 atoms before read
  18 atoms in snapshot
  0 atoms purged
  18 atoms replaced
  0 atoms trimmed
  0 atoms added
  18 atoms after read
        variable stretch equal 1+$i*${strainstep}
        variable stretch equal 1+7*${strainstep}
        variable stretch equal 1+7*-0.0005
        change_box all ${direction} scale ${stretch} remap
        change_box all y scale ${stretch} remap
        change_box all y scale 0.9965 remap
  orthogonal box = (0 0.0101984 -0.280384) to (3.36461 5.81747 0.280384)
        min_style ${style}
        min_style cg
        minimize ${etol} ${ftol} ${maxiter} ${maxeval}
        minimize 1e-12 ${ftol} ${maxiter} ${maxeval}
        minimize 1e-12 1e-08 ${maxiter} ${maxeval}
        minimize 1e-12 1e-08 10000 ${maxeval}
        minimize 1e-12 1e-08 10000 20000
WARNING: Resetting reneighboring criteria during minimization (../min.cpp:168)
Memory usage per processor = 3.35096 Mbytes
Step PotEng Pxx Pyy Pxy Lx Ly Lz 
       0   -53.992869  0.041045342   0.11601913 -1.3527207e-18      3.36461    5.8072732   0.56076816 
       1   -53.992869  0.041045342   0.11601913 -1.3527207e-18      3.36461    5.8072732   0.56076816 
Loop time of 6.89032e-05 on 1 procs for 1 steps with 18 atoms

Minimization stats:
  Stopping criterion = linesearch alpha is zero
  Energy initial, next-to-last, final = 
         -53.992868869      -53.992868869      -53.992868869
  Force two-norm initial, final = 0.000862367 0.000862367
  Force max component initial, final = 0.000216202 0.000216202
  Final line search alpha, max atom move = 0.015625 3.37815e-06
  Iterations, force evaluations = 1 7

Pair  time (%) = 4.91978e-05 (71.4013)
Neigh time (%) = 0 (0)
Comm  time (%) = 5.85779e-06 (8.50147)
Outpt time (%) = 0 (0)
Other time (%) = 1.38476e-05 (20.0972)

Nlocal:    18 ave 18 max 18 min
Histogram: 1 0 0 0 0 0 0 0 0 0
Nghost:    65 ave 65 max 65 min
Histogram: 1 0 0 0 0 0 0 0 0 0
Neighs:    162 ave 162 max 162 min
Histogram: 1 0 0 0 0 0 0 0 0 0

Total # of neighbors = 162
Ave neighs/atom = 9
Neighbor list builds = 0
Dangerous builds = 0
        next i
jump SELF loop1
	read_dump orig.dump 0 x y
  orthogonal box = (0 0 -0.280384) to (3.36461 5.82767 0.280384)
  18 atoms before read
  18 atoms in snapshot
  0 atoms purged
  18 atoms replaced
  0 atoms trimmed
  0 atoms added
  18 atoms after read
        variable stretch equal 1+$i*${strainstep}
        variable stretch equal 1+8*${strainstep}
        variable stretch equal 1+8*-0.0005
        change_box all ${direction} scale ${stretch} remap
        change_box all y scale ${stretch} remap
        change_box all y scale 0.996 remap
  orthogonal box = (0 0.0116553 -0.280384) to (3.36461 5.81601 0.280384)
        min_style ${style}
        min_style cg
        minimize ${etol} ${ftol} ${maxiter} ${maxeval}
        minimize 1e-12 ${ftol} ${maxiter} ${maxeval}
        minimize 1e-12 1e-08 ${maxiter} ${maxeval}
        minimize 1e-12 1e-08 10000 ${maxeval}
        minimize 1e-12 1e-08 10000 20000
WARNING: Resetting reneighboring criteria during minimization (../min.cpp:168)
Memory usage per processor = 3.35096 Mbytes
Step PotEng Pxx Pyy Pxy Lx Ly Lz 
       0    -53.99098  0.046664778   0.13262328 9.9958543e-20      3.36461    5.8043593   0.56076816 
       1    -53.99098  0.046664778   0.13262328 9.9958543e-20      3.36461    5.8043593   0.56076816 
Loop time of 6.90863e-05 on 1 procs for 1 steps with 18 atoms

Minimization stats:
  Stopping criterion = linesearch alpha is zero
  Energy initial, next-to-last, final = 
        -53.9909802429     -53.9909802429     -53.9909802429
  Force two-norm initial, final = 0.000885109 0.000885109
  Force max component initial, final = 0.000222984 0.000222984
  Final line search alpha, max atom move = 0.015625 3.48413e-06
  Iterations, force evaluations = 1 7

Pair  time (%) = 4.8948e-05 (70.8505)
Neigh time (%) = 0 (0)
Comm  time (%) = 6.21914e-06 (9.00198)
Outpt time (%) = 0 (0)
Other time (%) = 1.39192e-05 (20.1475)

Nlocal:    18 ave 18 max 18 min
Histogram: 1 0 0 0 0 0 0 0 0 0
Nghost:    65 ave 65 max 65 min
Histogram: 1 0 0 0 0 0 0 0 0 0
Neighs:    162 ave 162 max 162 min
Histogram: 1 0 0 0 0 0 0 0 0 0

Total # of neighbors = 162
Ave neighs/atom = 9
Neighbor list builds = 0
Dangerous builds = 0
        next i
jump SELF loop1
	read_dump orig.dump 0 x y
  orthogonal box = (0 0 -0.280384) to (3.36461 5.82767 0.280384)
  18 atoms before read
  18 atoms in snapshot
  0 atoms purged
  18 atoms replaced
  0 atoms trimmed
  0 atoms added
  18 atoms after read
        variable stretch equal 1+$i*${strainstep}
        variable stretch equal 1+9*${strainstep}
        variable stretch equal 1+9*-0.0005
        change_box all ${direction} scale ${stretch} remap
        change_box all y scale ${stretch} remap
        change_box all y scale 0.9955 remap
  orthogonal box = (0 0.0131123 -0.280384) to (3.36461 5.81456 0.280384)
        min_style ${style}
        min_style cg
        minimize ${etol} ${ftol} ${maxiter} ${maxeval}
        minimize 1e-12 ${ftol} ${maxiter} ${maxeval}
        minimize 1e-12 1e-08 ${maxiter} ${maxeval}
        minimize 1e-12 1e-08 10000 ${maxeval}
        minimize 1e-12 1e-08 10000 20000
WARNING: Resetting reneighboring criteria during minimization (../min.cpp:168)
Memory usage per processor = 3.35096 Mbytes
Step PotEng Pxx Pyy Pxy Lx Ly Lz 
       0   -53.989014  0.052301615   0.14924564 -8.3589447e-18      3.36461    5.8014455   0.56076816 
       1   -53.989014  0.052301615   0.14924564 -8.3589447e-18      3.36461    5.8014455   0.56076816 
Loop time of 8.00734e-05 on 1 procs for 1 steps with 18 atoms

Minimization stats:
  Stopping criterion = linesearch alpha is zero
  Energy initial, next-to-last, final = 
        -53.9890144961     -53.9890144961     -53.9890144961
  Force two-norm initial, final = 0.000883642 0.000883642
  Force max component initial, final = 0.000222536 0.000222536
  Final line search alpha, max atom move = 0.015625 3.47712e-06
  Iterations, force evaluations = 1 7

Pair  time (%) = 5.0934e-05 (63.6092)
Neigh time (%) = 0 (0)
Comm  time (%) = 8.95292e-06 (11.1809)
Outpt time (%) = 0 (0)
Other time (%) = 2.01864e-05 (25.2099)

Nlocal:    18 ave 18 max 18 min
Histogram: 1 0 0 0 0 0 0 0 0 0
Nghost:    65 ave 65 max 65 min
Histogram: 1 0 0 0 0 0 0 0 0 0
Neighs:    162 ave 162 max 162 min
Histogram: 1 0 0 0 0 0 0 0 0 0

Total # of neighbors = 162
Ave neighs/atom = 9
Neighbor list builds = 0
Dangerous builds = 0
        next i
jump SELF loop1
	read_dump orig.dump 0 x y
  orthogonal box = (0 0 -0.280384) to (3.36461 5.82767 0.280384)
  18 atoms before read
  18 atoms in snapshot
  0 atoms purged
  18 atoms replaced
  0 atoms trimmed
  0 atoms added
  18 atoms after read
        variable stretch equal 1+$i*${strainstep}
        variable stretch equal 1+10*${strainstep}
        variable stretch equal 1+10*-0.0005
        change_box all ${direction} scale ${stretch} remap
        change_box all y scale ${stretch} remap
        change_box all y scale 0.995 remap
  orthogonal box = (0 0.0145692 -0.280384) to (3.36461 5.8131 0.280384)
        min_style ${style}
        min_style cg
        minimize ${etol} ${ftol} ${maxiter} ${maxeval}
        minimize 1e-12 ${ftol} ${maxiter} ${maxeval}
        minimize 1e-12 1e-08 ${maxiter} ${maxeval}
        minimize 1e-12 1e-08 10000 ${maxeval}
        minimize 1e-12 1e-08 10000 20000
WARNING: Resetting reneighboring criteria during minimization (../min.cpp:168)
Memory usage per processor = 3.35096 Mbytes
Step PotEng Pxx Pyy Pxy Lx Ly Lz 
       0    -53.98705  0.057941297   0.16584288 4.1123464e-18      3.36461    5.7985317   0.56076816 
       1    -53.98705  0.057941297   0.16584288 4.1123464e-18      3.36461    5.7985317   0.56076816 
Loop time of 6.99287e-05 on 1 procs for 1 steps with 18 atoms

Minimization stats:
  Stopping criterion = linesearch alpha is zero
  Energy initial, next-to-last, final = 
        -53.9870497362     -53.9870497362     -53.9870497362
  Force two-norm initial, final = 0.000882177 0.000882177
  Force max component initial, final = 0.000222087 0.000222087
  Final line search alpha, max atom move = 0.015625 3.47011e-06
  Iterations, force evaluations = 1 7

Pair  time (%) = 4.69182e-05 (67.0943)
Neigh time (%) = 0 (0)
Comm  time (%) = 1.03053e-05 (14.7369)
Outpt time (%) = 0 (0)
Other time (%) = 1.27052e-05 (18.1688)

Nlocal:    18 ave 18 max 18 min
Histogram: 1 0 0 0 0 0 0 0 0 0
Nghost:    65 ave 65 max 65 min
Histogram: 1 0 0 0 0 0 0 0 0 0
Neighs:    162 ave 162 max 162 min
Histogram: 1 0 0 0 0 0 0 0 0 0

Total # of neighbors = 162
Ave neighs/atom = 9
Neighbor list builds = 0
Dangerous builds = 0
        next i
jump SELF loop1
	read_dump orig.dump 0 x y
  orthogonal box = (0 0 -0.280384) to (3.36461 5.82767 0.280384)
  18 atoms before read
  18 atoms in snapshot
  0 atoms purged
  18 atoms replaced
  0 atoms trimmed
  0 atoms added
  18 atoms after read
        variable stretch equal 1+$i*${strainstep}
        variable stretch equal 1+11*${strainstep}
        variable stretch equal 1+11*-0.0005
        change_box all ${direction} scale ${stretch} remap
        change_box all y scale ${stretch} remap
        change_box all y scale 0.9945 remap
  orthogonal box = (0 0.0160261 -0.280384) to (3.36461 5.81164 0.280384)
        min_style ${style}
        min_style cg
        minimize ${etol} ${ftol} ${maxiter} ${maxeval}
        minimize 1e-12 ${ftol} ${maxiter} ${maxeval}
        minimize 1e-12 1e-08 ${maxiter} ${maxeval}
        minimize 1e-12 1e-08 10000 ${maxeval}
        minimize 1e-12 1e-08 10000 20000
WARNING: Resetting reneighboring criteria during minimization (../min.cpp:168)
Memory usage per processor = 3.35096 Mbytes
Step PotEng Pxx Pyy Pxy Lx Ly Lz 
       0   -53.985086  0.063583829   0.18241494 2.2958668e-18      3.36461    5.7956178   0.56076816 
       1   -53.985086  0.063583829   0.18241494 2.2958668e-18      3.36461    5.7956178   0.56076816 
Loop time of 6.99785e-05 on 1 procs for 1 steps with 18 atoms

Minimization stats:
  Stopping criterion = linesearch alpha is zero
  Energy initial, next-to-last, final = 
        -53.9850859642     -53.9850859642     -53.9850859642
  Force two-norm initial, final = 0.000880713 0.000880713
  Force max component initial, final = 0.000221639 0.000221639
  Final line search alpha, max atom move = 0.015625 3.46311e-06
  Iterations, force evaluations = 1 7

Pair  time (%) = 4.90388e-05 (70.0769)
Neigh time (%) = 0 (0)
Comm  time (%) = 6.92392e-06 (9.89435)
Outpt time (%) = 0 (0)
Other time (%) = 1.40158e-05 (20.0287)

Nlocal:    18 ave 18 max 18 min
Histogram: 1 0 0 0 0 0 0 0 0 0
Nghost:    65 ave 65 max 65 min
Histogram: 1 0 0 0 0 0 0 0 0 0
Neighs:    162 ave 162 max 162 min
Histogram: 1 0 0 0 0 0 0 0 0 0

Total # of neighbors = 162
Ave neighs/atom = 9
Neighbor list builds = 0
Dangerous builds = 0
        next i
jump SELF loop1
	read_dump orig.dump 0 x y
  orthogonal box = (0 0 -0.280384) to (3.36461 5.82767 0.280384)
  18 atoms before read
  18 atoms in snapshot
  0 atoms purged
  18 atoms replaced
  0 atoms trimmed
  0 atoms added
  18 atoms after read
        variable stretch equal 1+$i*${strainstep}
        variable stretch equal 1+12*${strainstep}
        variable stretch equal 1+12*-0.0005
        change_box all ${direction} scale ${stretch} remap
        change_box all y scale ${stretch} remap
        change_box all y scale 0.994 remap
  orthogonal box = (0 0.017483 -0.280384) to (3.36461 5.81019 0.280384)
        min_style ${style}
        min_style cg
        minimize ${etol} ${ftol} ${maxiter} ${maxeval}
        minimize 1e-12 ${ftol} ${maxiter} ${maxeval}
        minimize 1e-12 1e-08 ${maxiter} ${maxeval}
        minimize 1e-12 1e-08 10000 ${maxeval}
        minimize 1e-12 1e-08 10000 20000
WARNING: Resetting reneighboring criteria during minimization (../min.cpp:168)
Memory usage per processor = 3.35096 Mbytes
Step PotEng Pxx Pyy Pxy Lx Ly Lz 
       0   -53.983123  0.069229213   0.19896194 -3.3053777e-18      3.36461     5.792704   0.56076816 
       1   -53.983123  0.069229213   0.19896194 -3.3053777e-18      3.36461     5.792704   0.56076816 
Loop time of 7.09337e-05 on 1 procs for 1 steps with 18 atoms

Minimization stats:
  Stopping criterion = linesearch alpha is zero
  Energy initial, next-to-last, final = 
        -53.9831231784     -53.9831231784     -53.9831231784
  Force two-norm initial, final = 0.000879255 0.000879255
  Force max component initial, final = 0.000221193 0.000221193
  Final line search alpha, max atom move = 0.015625 3.45613e-06
  Iterations, force evaluations = 1 7

Pair  time (%) = 4.79447e-05 (67.5909)
Neigh time (%) = 0 (0)
Comm  time (%) = 5.88153e-06 (8.29159)
Outpt time (%) = 0 (0)
Other time (%) = 1.71075e-05 (24.1175)

Nlocal:    18 ave 18 max 18 min
Histogram: 1 0 0 0 0 0 0 0 0 0
Nghost:    65 ave 65 max 65 min
Histogram: 1 0 0 0 0 0 0 0 0 0
Neighs:    162 ave 162 max 162 min
Histogram: 1 0 0 0 0 0 0 0 0 0

Total # of neighbors = 162
Ave neighs/atom = 9
Neighbor list builds = 0
Dangerous builds = 0
        next i
jump SELF loop1
	read_dump orig.dump 0 x y
  orthogonal box = (0 0 -0.280384) to (3.36461 5.82767 0.280384)
  18 atoms before read
  18 atoms in snapshot
  0 atoms purged
  18 atoms replaced
  0 atoms trimmed
  0 atoms added
  18 atoms after read
        variable stretch equal 1+$i*${strainstep}
        variable stretch equal 1+13*${strainstep}
        variable stretch equal 1+13*-0.0005
        change_box all ${direction} scale ${stretch} remap
        change_box all y scale ${stretch} remap
        change_box all y scale 0.9935 remap
  orthogonal box = (0 0.0189399 -0.280384) to (3.36461 5.80873 0.280384)
        min_style ${style}
        min_style cg
        minimize ${etol} ${ftol} ${maxiter} ${maxeval}
        minimize 1e-12 ${ftol} ${maxiter} ${maxeval}
        minimize 1e-12 1e-08 ${maxiter} ${maxeval}
        minimize 1e-12 1e-08 10000 ${maxeval}
        minimize 1e-12 1e-08 10000 20000
WARNING: Resetting reneighboring criteria during minimization (../min.cpp:168)
Memory usage per processor = 3.35096 Mbytes
Step PotEng Pxx Pyy Pxy Lx Ly Lz 
       0   -53.981161  0.074877456   0.21548402 -6.3168044e-18      3.36461    5.7897901   0.56076816 
       1   -53.981161  0.074877456   0.21548402 -6.3168044e-18      3.36461    5.7897901   0.56076816 
Loop time of 6.90218e-05 on 1 procs for 1 steps with 18 atoms

Minimization stats:
  Stopping criterion = linesearch alpha is zero
  Energy initial, next-to-last, final = 
        -53.9811613773     -53.9811613773     -53.9811613773
  Force two-norm initial, final = 0.000877796 0.000877796
  Force max component initial, final = 0.000220746 0.000220746
  Final line search alpha, max atom move = 0.015625 3.44915e-06
  Iterations, force evaluations = 1 7

Pair  time (%) = 4.70015e-05 (68.0966)
Neigh time (%) = 0 (0)
Comm  time (%) = 8.94803e-06 (12.9641)
Outpt time (%) = 0 (0)
Other time (%) = 1.30723e-05 (18.9393)

Nlocal:    18 ave 18 max 18 min
Histogram: 1 0 0 0 0 0 0 0 0 0
Nghost:    65 ave 65 max 65 min
Histogram: 1 0 0 0 0 0 0 0 0 0
Neighs:    162 ave 162 max 162 min
Histogram: 1 0 0 0 0 0 0 0 0 0

Total # of neighbors = 162
Ave neighs/atom = 9
Neighbor list builds = 0
Dangerous builds = 0
        next i
jump SELF loop1
	read_dump orig.dump 0 x y
  orthogonal box = (0 0 -0.280384) to (3.36461 5.82767 0.280384)
  18 atoms before read
  18 atoms in snapshot
  0 atoms purged
  18 atoms replaced
  0 atoms trimmed
  0 atoms added
  18 atoms after read
        variable stretch equal 1+$i*${strainstep}
        variable stretch equal 1+14*${strainstep}
        variable stretch equal 1+14*-0.0005
        change_box all ${direction} scale ${stretch} remap
        change_box all y scale ${stretch} remap
        change_box all y scale 0.993 remap
  orthogonal box = (0 0.0203968 -0.280384) to (3.36461 5.80727 0.280384)
        min_style ${style}
        min_style cg
        minimize ${etol} ${ftol} ${maxiter} ${maxeval}
        minimize 1e-12 ${ftol} ${maxiter} ${maxeval}
        minimize 1e-12 1e-08 ${maxiter} ${maxeval}
        minimize 1e-12 1e-08 10000 ${maxeval}
        minimize 1e-12 1e-08 10000 20000
WARNING: Resetting reneighboring criteria during minimization (../min.cpp:168)
Memory usage per processor = 3.35096 Mbytes
Step PotEng Pxx Pyy Pxy Lx Ly Lz 
       0   -53.978255  0.080704889   0.23250202 -1.7710199e-17      3.36461    5.7868763   0.56076816 
       1   -53.978255  0.080704889   0.23250202 -1.7710199e-17      3.36461    5.7868763   0.56076816 
Loop time of 7.69114e-05 on 1 procs for 1 steps with 18 atoms

Minimization stats:
  Stopping criterion = linesearch alpha is zero
  Energy initial, next-to-last, final = 
         -53.978254734      -53.978254734      -53.978254734
  Force two-norm initial, final = 0.000901047 0.000901047
  Force max component initial, final = 0.000227662 0.000227662
  Final line search alpha, max atom move = 0.0078125 1.77861e-06
  Iterations, force evaluations = 1 8

Pair  time (%) = 5.2703e-05 (68.5242)
Neigh time (%) = 0 (0)
Comm  time (%) = 6.10622e-06 (7.93929)
Outpt time (%) = 0 (0)
Other time (%) = 1.81022e-05 (23.5365)

Nlocal:    18 ave 18 max 18 min
Histogram: 1 0 0 0 0 0 0 0 0 0
Nghost:    65 ave 65 max 65 min
Histogram: 1 0 0 0 0 0 0 0 0 0
Neighs:    162 ave 162 max 162 min
Histogram: 1 0 0 0 0 0 0 0 0 0

Total # of neighbors = 162
Ave neighs/atom = 9
Neighbor list builds = 0
Dangerous builds = 0
        next i
jump SELF loop1
	read_dump orig.dump 0 x y
  orthogonal box = (0 0 -0.280384) to (3.36461 5.82767 0.280384)
  18 atoms before read
  18 atoms in snapshot
  0 atoms purged
  18 atoms replaced
  0 atoms trimmed
  0 atoms added
  18 atoms after read
        variable stretch equal 1+$i*${strainstep}
        variable stretch equal 1+15*${strainstep}
        variable stretch equal 1+15*-0.0005
        change_box all ${direction} scale ${stretch} remap
        change_box all y scale ${stretch} remap
        change_box all y scale 0.9925 remap
  orthogonal box = (0 0.0218538 -0.280384) to (3.36461 5.80582 0.280384)
        min_style ${style}
        min_style cg
        minimize ${etol} ${ftol} ${maxiter} ${maxeval}
        minimize 1e-12 ${ftol} ${maxiter} ${maxeval}
        minimize 1e-12 1e-08 ${maxiter} ${maxeval}
        minimize 1e-12 1e-08 10000 ${maxeval}
        minimize 1e-12 1e-08 10000 20000
WARNING: Resetting reneighboring criteria during minimization (../min.cpp:168)
Memory usage per processor = 3.35096 Mbytes
Step PotEng Pxx Pyy Pxy Lx Ly Lz 
       0   -53.975295  0.086545372   0.24952435 1.2970366e-17      3.36461    5.7839625   0.56076816 
       1   -53.975296  0.086542047   0.24951452 3.0315402e-18      3.36461    5.7839625   0.56076816 
       2   -53.975296  0.086542047   0.24951452 3.0315402e-18      3.36461    5.7839625   0.56076816 
Loop time of 0.000572935 on 1 procs for 2 steps with 18 atoms

Minimization stats:
  Stopping criterion = linesearch alpha is zero
  Energy initial, next-to-last, final = 
        -53.9752954244     -53.9752958442     -53.9752958442
  Force two-norm initial, final = 0.000899555 0.103953
  Force max component initial, final = 0.000227206 0.0265587
  Final line search alpha, max atom move = 9.53674e-07 2.53283e-08
  Iterations, force evaluations = 2 22

Pair  time (%) = 0.000142514 (24.8744)
Neigh time (%) = 0 (0)
Comm  time (%) = 1.6553e-05 (2.88915)
Outpt time (%) = 6.92171e-06 (1.20811)
Other time (%) = 0.000406947 (71.0284)

Nlocal:    18 ave 18 max 18 min
Histogram: 1 0 0 0 0 0 0 0 0 0
Nghost:    65 ave 65 max 65 min
Histogram: 1 0 0 0 0 0 0 0 0 0
Neighs:    162 ave 162 max 162 min
Histogram: 1 0 0 0 0 0 0 0 0 0

Total # of neighbors = 162
Ave neighs/atom = 9
Neighbor list builds = 0
Dangerous builds = 0
        next i
jump SELF loop1
	read_dump orig.dump 0 x y
  orthogonal box = (0 0 -0.280384) to (3.36461 5.82767 0.280384)
  18 atoms before read
  18 atoms in snapshot
  0 atoms purged
  18 atoms replaced
  0 atoms trimmed
  0 atoms added
  18 atoms after read
        variable stretch equal 1+$i*${strainstep}
        variable stretch equal 1+16*${strainstep}
        variable stretch equal 1+16*-0.0005
        change_box all ${direction} scale ${stretch} remap
        change_box all y scale ${stretch} remap
        change_box all y scale 0.992 remap
  orthogonal box = (0 0.0233107 -0.280384) to (3.36461 5.80436 0.280384)
        min_style ${style}
        min_style cg
        minimize ${etol} ${ftol} ${maxiter} ${maxeval}
        minimize 1e-12 ${ftol} ${maxiter} ${maxeval}
        minimize 1e-12 1e-08 ${maxiter} ${maxeval}
        minimize 1e-12 1e-08 10000 ${maxeval}
        minimize 1e-12 1e-08 10000 20000
WARNING: Resetting reneighboring criteria during minimization (../min.cpp:168)
Memory usage per processor = 3.35096 Mbytes
Step PotEng Pxx Pyy Pxy Lx Ly Lz 
       0   -53.972338  0.092388821   0.26652191 -4.2901997e-18      3.36461    5.7810486   0.56076816 
       1   -53.972338    0.0923855   0.26651194 -8.0926648e-17      3.36461    5.7810486   0.56076816 
       2   -53.972338    0.0923855   0.26651194 -8.0926648e-17      3.36461    5.7810486   0.56076816 
Loop time of 0.00024999 on 1 procs for 2 steps with 18 atoms

Minimization stats:
  Stopping criterion = linesearch alpha is zero
  Energy initial, next-to-last, final = 
        -53.9723375902      -53.972338011      -53.972338011
  Force two-norm initial, final = 0.000898048 0.103638
  Force max component initial, final = 0.000226746 0.0264639
  Final line search alpha, max atom move = 9.53674e-07 2.52379e-08
  Iterations, force evaluations = 2 22

Pair  time (%) = 0.000140262 (56.1072)
Neigh time (%) = 0 (0)
Comm  time (%) = 1.76399e-05 (7.05626)
Outpt time (%) = 3.80691e-05 (15.2282)
Other time (%) = 5.40186e-05 (21.6083)

Nlocal:    18 ave 18 max 18 min
Histogram: 1 0 0 0 0 0 0 0 0 0
Nghost:    65 ave 65 max 65 min
Histogram: 1 0 0 0 0 0 0 0 0 0
Neighs:    162 ave 162 max 162 min
Histogram: 1 0 0 0 0 0 0 0 0 0

Total # of neighbors = 162
Ave neighs/atom = 9
Neighbor list builds = 0
Dangerous builds = 0
        next i
jump SELF loop1
	read_dump orig.dump 0 x y
  orthogonal box = (0 0 -0.280384) to (3.36461 5.82767 0.280384)
  18 atoms before read
  18 atoms in snapshot
  0 atoms purged
  18 atoms replaced
  0 atoms trimmed
  0 atoms added
  18 atoms after read
        variable stretch equal 1+$i*${strainstep}
        variable stretch equal 1+17*${strainstep}
        variable stretch equal 1+17*-0.0005
        change_box all ${direction} scale ${stretch} remap
        change_box all y scale ${stretch} remap
        change_box all y scale 0.9915 remap
  orthogonal box = (0 0.0247676 -0.280384) to (3.36461 5.8029 0.280384)
        min_style ${style}
        min_style cg
        minimize ${etol} ${ftol} ${maxiter} ${maxeval}
        minimize 1e-12 ${ftol} ${maxiter} ${maxeval}
        minimize 1e-12 1e-08 ${maxiter} ${maxeval}
        minimize 1e-12 1e-08 10000 ${maxeval}
        minimize 1e-12 1e-08 10000 20000
WARNING: Resetting reneighboring criteria during minimization (../min.cpp:168)
Memory usage per processor = 3.35096 Mbytes
Step PotEng Pxx Pyy Pxy Lx Ly Lz 
       0   -53.969381  0.098235238   0.28349198 2.1710591e-17      3.36461    5.7781348   0.56076816 
       1   -53.969382  0.098231922   0.28348224 -1.763394e-17      3.36461    5.7781348   0.56076816 
       2   -53.969382  0.098231922   0.28348224 -1.763394e-17      3.36461    5.7781348   0.56076816 
Loop time of 0.000191892 on 1 procs for 2 steps with 18 atoms

Minimization stats:
  Stopping criterion = linesearch alpha is zero
  Energy initial, next-to-last, final = 
         -53.969381268      -53.969381685      -53.969381685
  Force two-norm initial, final = 0.000896523 0.103322
  Force max component initial, final = 0.00022628 0.0263684
  Final line search alpha, max atom move = 9.53674e-07 2.51469e-08
  Iterations, force evaluations = 2 22

Pair  time (%) = 0.00013646 (71.1128)
Neigh time (%) = 0 (0)
Comm  time (%) = 1.57104e-05 (8.18707)
Outpt time (%) = 8.11729e-06 (4.23012)
Other time (%) = 3.16047e-05 (16.47)

Nlocal:    18 ave 18 max 18 min
Histogram: 1 0 0 0 0 0 0 0 0 0
Nghost:    65 ave 65 max 65 min
Histogram: 1 0 0 0 0 0 0 0 0 0
Neighs:    162 ave 162 max 162 min
Histogram: 1 0 0 0 0 0 0 0 0 0

Total # of neighbors = 162
Ave neighs/atom = 9
Neighbor list builds = 0
Dangerous builds = 0
        next i
jump SELF loop1
	read_dump orig.dump 0 x y
  orthogonal box = (0 0 -0.280384) to (3.36461 5.82767 0.280384)
  18 atoms before read
  18 atoms in snapshot
  0 atoms purged
  18 atoms replaced
  0 atoms trimmed
  0 atoms added
  18 atoms after read
        variable stretch equal 1+$i*${strainstep}
        variable stretch equal 1+18*${strainstep}
        variable stretch equal 1+18*-0.0005
        change_box all ${direction} scale ${stretch} remap
        change_box all y scale ${stretch} remap
        change_box all y scale 0.991 remap
  orthogonal box = (0 0.0262245 -0.280384) to (3.36461 5.80145 0.280384)
        min_style ${style}
        min_style cg
        minimize ${etol} ${ftol} ${maxiter} ${maxeval}
        minimize 1e-12 ${ftol} ${maxiter} ${maxeval}
        minimize 1e-12 1e-08 ${maxiter} ${maxeval}
        minimize 1e-12 1e-08 10000 ${maxeval}
        minimize 1e-12 1e-08 10000 20000
WARNING: Resetting reneighboring criteria during minimization (../min.cpp:168)
Memory usage per processor = 3.35096 Mbytes
Step PotEng Pxx Pyy Pxy Lx Ly Lz 
       0   -53.966436   0.10408463   0.29988228 3.5354377e-17      3.36461     5.775221   0.56076816 
       1   -53.966436   0.10408135   0.29987328 -3.1492865e-17      3.36461     5.775221   0.56076816 
       2   -53.966436   0.10408135   0.29987328 -3.1492865e-17      3.36461     5.775221   0.56076816 
Loop time of 0.000192924 on 1 procs for 2 steps with 18 atoms

Minimization stats:
  Stopping criterion = linesearch alpha is zero
  Energy initial, next-to-last, final = 
         -53.966435929     -53.9664363274     -53.9664363274
  Force two-norm initial, final = 0.000877377 0.0989076
  Force max component initial, final = 0.000219976 0.0249263
  Final line search alpha, max atom move = 9.53674e-07 2.37715e-08
  Iterations, force evaluations = 2 22

Pair  time (%) = 0.000137427 (71.2339)
Neigh time (%) = 0 (0)
Comm  time (%) = 1.74531e-05 (9.04663)
Outpt time (%) = 7.9103e-06 (4.10022)
Other time (%) = 3.01333e-05 (15.6193)

Nlocal:    18 ave 18 max 18 min
Histogram: 1 0 0 0 0 0 0 0 0 0
Nghost:    65 ave 65 max 65 min
Histogram: 1 0 0 0 0 0 0 0 0 0
Neighs:    162 ave 162 max 162 min
Histogram: 1 0 0 0 0 0 0 0 0 0

Total # of neighbors = 162
Ave neighs/atom = 9
Neighbor list builds = 0
Dangerous builds = 0
        next i
jump SELF loop1
	read_dump orig.dump 0 x y
  orthogonal box = (0 0 -0.280384) to (3.36461 5.82767 0.280384)
  18 atoms before read
  18 atoms in snapshot
  0 atoms purged
  18 atoms replaced
  0 atoms trimmed
  0 atoms added
  18 atoms after read
        variable stretch equal 1+$i*${strainstep}
        variable stretch equal 1+19*${strainstep}
        variable stretch equal 1+19*-0.0005
        change_box all ${direction} scale ${stretch} remap
        change_box all y scale ${stretch} remap
        change_box all y scale 0.9905 remap
  orthogonal box = (0 0.0276814 -0.280384) to (3.36461 5.79999 0.280384)
        min_style ${style}
        min_style cg
        minimize ${etol} ${ftol} ${maxiter} ${maxeval}
        minimize 1e-12 ${ftol} ${maxiter} ${maxeval}
        minimize 1e-12 1e-08 ${maxiter} ${maxeval}
        minimize 1e-12 1e-08 10000 ${maxeval}
        minimize 1e-12 1e-08 10000 20000
WARNING: Resetting reneighboring criteria during minimization (../min.cpp:168)
Memory usage per processor = 3.35096 Mbytes
Step PotEng Pxx Pyy Pxy Lx Ly Lz 
       0   -53.963513     0.109937   0.31504851 9.2215459e-18      3.36461    5.7723071   0.56076816 
       1   -53.963513     0.109937   0.31504851 9.2215459e-18      3.36461    5.7723071   0.56076816 
Loop time of 6.997e-05 on 1 procs for 1 steps with 18 atoms

Minimization stats:
  Stopping criterion = linesearch alpha is zero
  Energy initial, next-to-last, final = 
         -53.963512638      -53.963512638      -53.963512638
  Force two-norm initial, final = 0.000875919 0.000875919
  Force max component initial, final = 0.000219529 0.000219529
  Final line search alpha, max atom move = 0.015625 3.43014e-06
  Iterations, force evaluations = 1 7

Pair  time (%) = 4.70639e-05 (67.263)
Neigh time (%) = 0 (0)
Comm  time (%) = 8.83522e-06 (12.6272)
Outpt time (%) = 0 (0)
Other time (%) = 1.40709e-05 (20.1099)

Nlocal:    18 ave 18 max 18 min
Histogram: 1 0 0 0 0 0 0 0 0 0
Nghost:    65 ave 65 max 65 min
Histogram: 1 0 0 0 0 0 0 0 0 0
Neighs:    162 ave 162 max 162 min
Histogram: 1 0 0 0 0 0 0 0 0 0

Total # of neighbors = 162
Ave neighs/atom = 9
Neighbor list builds = 0
Dangerous builds = 0
        next i
jump SELF loop1
	read_dump orig.dump 0 x y
  orthogonal box = (0 0 -0.280384) to (3.36461 5.82767 0.280384)
  18 atoms before read
  18 atoms in snapshot
  0 atoms purged
  18 atoms replaced
  0 atoms trimmed
  0 atoms added
  18 atoms after read
        variable stretch equal 1+$i*${strainstep}
        variable stretch equal 1+20*${strainstep}
        variable stretch equal 1+20*-0.0005
        change_box all ${direction} scale ${stretch} remap
        change_box all y scale ${stretch} remap
        change_box all y scale 0.99 remap
  orthogonal box = (0 0.0291384 -0.280384) to (3.36461 5.79853 0.280384)
        min_style ${style}
        min_style cg
        minimize ${etol} ${ftol} ${maxiter} ${maxeval}
        minimize 1e-12 ${ftol} ${maxiter} ${maxeval}
        minimize 1e-12 1e-08 ${maxiter} ${maxeval}
        minimize 1e-12 1e-08 10000 ${maxeval}
        minimize 1e-12 1e-08 10000 20000
WARNING: Resetting reneighboring criteria during minimization (../min.cpp:168)
Memory usage per processor = 3.35096 Mbytes
Step PotEng Pxx Pyy Pxy Lx Ly Lz 
       0   -53.959733   0.11597551   0.32426508 6.6880463e-18      3.36461    5.7693933   0.56076816 
       1   -53.959733   0.11597551   0.32426508 6.6880463e-18      3.36461    5.7693933   0.56076816 
Loop time of 6.90315e-05 on 1 procs for 1 steps with 18 atoms

Minimization stats:
  Stopping criterion = linesearch alpha is zero
  Energy initial, next-to-last, final = 
        -53.9597333758     -53.9597333758     -53.9597333758
  Force two-norm initial, final = 0.00082115 0.00082115
  Force max component initial, final = 0.000200221 0.000200221
  Final line search alpha, max atom move = 0.015625 3.12846e-06
  Iterations, force evaluations = 1 7

Pair  time (%) = 4.69331e-05 (67.9879)
Neigh time (%) = 0 (0)
Comm  time (%) = 5.05021e-06 (7.31581)
Outpt time (%) = 0 (0)
Other time (%) = 1.70482e-05 (24.6963)

Nlocal:    18 ave 18 max 18 min
Histogram: 1 0 0 0 0 0 0 0 0 0
Nghost:    65 ave 65 max 65 min
Histogram: 1 0 0 0 0 0 0 0 0 0
Neighs:    162 ave 162 max 162 min
Histogram: 1 0 0 0 0 0 0 0 0 0

Total # of neighbors = 162
Ave neighs/atom = 9
Neighbor list builds = 0
Dangerous builds = 0
        next i
jump SELF loop1
	read_dump orig.dump 0 x y
  orthogonal box = (0 0 -0.280384) to (3.36461 5.82767 0.280384)
  18 atoms before read
  18 atoms in snapshot
  0 atoms purged
  18 atoms replaced
  0 atoms trimmed
  0 atoms added
  18 atoms after read
        variable stretch equal 1+$i*${strainstep}
        variable stretch equal 1+21*${strainstep}
        variable stretch equal 1+21*-0.0005
        change_box all ${direction} scale ${stretch} remap
        change_box all y scale ${stretch} remap
        change_box all y scale 0.9895 remap
  orthogonal box = (0 0.0305953 -0.280384) to (3.36461 5.79707 0.280384)
        min_style ${style}
        min_style cg
        minimize ${etol} ${ftol} ${maxiter} ${maxeval}
        minimize 1e-12 ${ftol} ${maxiter} ${maxeval}
        minimize 1e-12 1e-08 ${maxiter} ${maxeval}
        minimize 1e-12 1e-08 10000 ${maxeval}
        minimize 1e-12 1e-08 10000 20000
WARNING: Resetting reneighboring criteria during minimization (../min.cpp:168)
Memory usage per processor = 3.35096 Mbytes
Step PotEng Pxx Pyy Pxy Lx Ly Lz 
       0   -53.955993   0.12202591    0.3312568 3.0096222e-17      3.36461    5.7664795   0.56076816 
       1   -53.955993   0.12202266   0.33125062 1.7241681e-16      3.36461    5.7664795   0.56076816 
       2   -53.955993   0.12202266   0.33125062 1.7241681e-16      3.36461    5.7664795   0.56076816 
Loop time of 0.000200069 on 1 procs for 2 steps with 18 atoms

Minimization stats:
  Stopping criterion = linesearch alpha is zero
  Energy initial, next-to-last, final = 
        -53.9559928927      -53.955993328      -53.955993328
  Force two-norm initial, final = 0.000795899 0.0819524
  Force max component initial, final = 0.000191581 0.0189117
  Final line search alpha, max atom move = 9.53674e-07 1.80356e-08
  Iterations, force evaluations = 2 22

Pair  time (%) = 0.000136884 (68.4186)
Neigh time (%) = 0 (0)
Comm  time (%) = 1.78443e-05 (8.91905)
Outpt time (%) = 7.05535e-06 (3.52646)
Other time (%) = 3.8285e-05 (19.1359)

Nlocal:    18 ave 18 max 18 min
Histogram: 1 0 0 0 0 0 0 0 0 0
Nghost:    65 ave 65 max 65 min
Histogram: 1 0 0 0 0 0 0 0 0 0
Neighs:    162 ave 162 max 162 min
Histogram: 1 0 0 0 0 0 0 0 0 0

Total # of neighbors = 162
Ave neighs/atom = 9
Neighbor list builds = 0
Dangerous builds = 0
        next i
jump SELF loop1
	read_dump orig.dump 0 x y
  orthogonal box = (0 0 -0.280384) to (3.36461 5.82767 0.280384)
  18 atoms before read
  18 atoms in snapshot
  0 atoms purged
  18 atoms replaced
  0 atoms trimmed
  0 atoms added
  18 atoms after read
        variable stretch equal 1+$i*${strainstep}
        variable stretch equal 1+22*${strainstep}
        variable stretch equal 1+22*-0.0005
        change_box all ${direction} scale ${stretch} remap
        change_box all y scale ${stretch} remap
        change_box all y scale 0.989 remap
  orthogonal box = (0 0.0320522 -0.280384) to (3.36461 5.79562 0.280384)
        min_style ${style}
        min_style cg
        minimize ${etol} ${ftol} ${maxiter} ${maxeval}
        minimize 1e-12 ${ftol} ${maxiter} ${maxeval}
        minimize 1e-12 1e-08 ${maxiter} ${maxeval}
        minimize 1e-12 1e-08 10000 ${maxeval}
        minimize 1e-12 1e-08 10000 20000
WARNING: Resetting reneighboring criteria during minimization (../min.cpp:168)
Memory usage per processor = 3.35096 Mbytes
Step PotEng Pxx Pyy Pxy Lx Ly Lz 
       0   -53.952376   0.12807939   0.33654497 4.0540441e-17      3.36461    5.7635656   0.56076816 
       1   -53.952388   0.12807615   0.33657279 1.3929445e-16      3.36461    5.7635656   0.56076816 
       2   -53.952388   0.12807615   0.33657279 1.3929445e-16      3.36461    5.7635656   0.56076816 
Loop time of 0.000190949 on 1 procs for 2 steps with 18 atoms

Minimization stats:
  Stopping criterion = linesearch alpha is zero
  Energy initial, next-to-last, final = 
        -53.9523756399     -53.9523876467     -53.9523876467
  Force two-norm initial, final = 0.000794639 0.0818906
  Force max component initial, final = 0.000191191 0.018901
  Final line search alpha, max atom move = 9.53674e-07 1.80254e-08
  Iterations, force evaluations = 2 22

Pair  time (%) = 0.000134834 (70.6126)
Neigh time (%) = 0 (0)
Comm  time (%) = 2.06046e-05 (10.7906)
Outpt time (%) = 6.93544e-06 (3.63209)
Other time (%) = 2.8575e-05 (14.9647)

Nlocal:    18 ave 18 max 18 min
Histogram: 1 0 0 0 0 0 0 0 0 0
Nghost:    65 ave 65 max 65 min
Histogram: 1 0 0 0 0 0 0 0 0 0
Neighs:    162 ave 162 max 162 min
Histogram: 1 0 0 0 0 0 0 0 0 0

Total # of neighbors = 162
Ave neighs/atom = 9
Neighbor list builds = 0
Dangerous builds = 0
        next i
jump SELF loop1
	read_dump orig.dump 0 x y
  orthogonal box = (0 0 -0.280384) to (3.36461 5.82767 0.280384)
  18 atoms before read
  18 atoms in snapshot
  0 atoms purged
  18 atoms replaced
  0 atoms trimmed
  0 atoms added
  18 atoms after read
        variable stretch equal 1+$i*${strainstep}
        variable stretch equal 1+23*${strainstep}
        variable stretch equal 1+23*-0.0005
        change_box all ${direction} scale ${stretch} remap
        change_box all y scale ${stretch} remap
        change_box all y scale 0.9885 remap
  orthogonal box = (0 0.0335091 -0.280384) to (3.36461 5.79416 0.280384)
        min_style ${style}
        min_style cg
        minimize ${etol} ${ftol} ${maxiter} ${maxeval}
        minimize 1e-12 ${ftol} ${maxiter} ${maxeval}
        minimize 1e-12 1e-08 ${maxiter} ${maxeval}
        minimize 1e-12 1e-08 10000 ${maxeval}
        minimize 1e-12 1e-08 10000 20000
WARNING: Resetting reneighboring criteria during minimization (../min.cpp:168)
Memory usage per processor = 3.35096 Mbytes
Step PotEng Pxx Pyy Pxy Lx Ly Lz 
       0   -53.948899   0.13413597   0.34223339 2.4625381e-18      3.36461    5.7606518   0.56076816 
       1     -53.9489   0.13413272   0.34222712 1.7124888e-17      3.36461    5.7606518   0.56076816 
       2     -53.9489   0.13413272   0.34222712 1.7124888e-17      3.36461    5.7606518   0.56076816 
Loop time of 0.000169937 on 1 procs for 2 steps with 18 atoms

Minimization stats:
  Stopping criterion = linesearch alpha is zero
  Energy initial, next-to-last, final = 
        -53.9488993842     -53.9488998187     -53.9488998187
  Force two-norm initial, final = 0.000798207 0.0824329
  Force max component initial, final = 0.000192471 0.019108
  Final line search alpha, max atom move = 9.53674e-07 1.82228e-08
  Iterations, force evaluations = 2 22

Pair  time (%) = 0.000119175 (70.1287)
Neigh time (%) = 0 (0)
Comm  time (%) = 2.08763e-05 (12.2847)
Outpt time (%) = 6.93079e-06 (4.07843)
Other time (%) = 2.29555e-05 (13.5082)

Nlocal:    18 ave 18 max 18 min
Histogram: 1 0 0 0 0 0 0 0 0 0
Nghost:    65 ave 65 max 65 min
Histogram: 1 0 0 0 0 0 0 0 0 0
Neighs:    162 ave 162 max 162 min
Histogram: 1 0 0 0 0 0 0 0 0 0

Total # of neighbors = 162
Ave neighs/atom = 9
Neighbor list builds = 0
Dangerous builds = 0
        next i
jump SELF loop1
	read_dump orig.dump 0 x y
  orthogonal box = (0 0 -0.280384) to (3.36461 5.82767 0.280384)
  18 atoms before read
  18 atoms in snapshot
  0 atoms purged
  18 atoms replaced
  0 atoms trimmed
  0 atoms added
  18 atoms after read
        variable stretch equal 1+$i*${strainstep}
        variable stretch equal 1+24*${strainstep}
        variable stretch equal 1+24*-0.0005
        change_box all ${direction} scale ${stretch} remap
        change_box all y scale ${stretch} remap
        change_box all y scale 0.988 remap
  orthogonal box = (0 0.034966 -0.280384) to (3.36461 5.7927 0.280384)
        min_style ${style}
        min_style cg
        minimize ${etol} ${ftol} ${maxiter} ${maxeval}
        minimize 1e-12 ${ftol} ${maxiter} ${maxeval}
        minimize 1e-12 1e-08 ${maxiter} ${maxeval}
        minimize 1e-12 1e-08 10000 ${maxeval}
        minimize 1e-12 1e-08 10000 20000
WARNING: Resetting reneighboring criteria during minimization (../min.cpp:168)
Memory usage per processor = 3.35096 Mbytes
Step PotEng Pxx Pyy Pxy Lx Ly Lz 
       0   -53.945511   0.14019564   0.34795169 2.0120422e-17      3.36461     5.757738   0.56076816 
       1   -53.945511   0.14019241    0.3479455 1.6695417e-17      3.36461     5.757738   0.56076816 
       2   -53.945511   0.14019241    0.3479455 1.6695417e-17      3.36461     5.757738   0.56076816 
Loop time of 9.09466e-05 on 1 procs for 2 steps with 18 atoms

Minimization stats:
  Stopping criterion = linesearch alpha is zero
  Energy initial, next-to-last, final = 
         -53.945510645     -53.9455110729     -53.9455110729
  Force two-norm initial, final = 0.000795231 0.0818839
  Force max component initial, final = 0.000191487 0.0189219
  Final line search alpha, max atom move = 9.53674e-07 1.80453e-08
  Iterations, force evaluations = 2 22

Pair  time (%) = 6.46688e-05 (71.1064)
Neigh time (%) = 0 (0)
Comm  time (%) = 8.59413e-06 (9.44965)
Outpt time (%) = -5.34346e-08 (-0.0587539)
Other time (%) = 1.7737e-05 (19.5027)

Nlocal:    18 ave 18 max 18 min
Histogram: 1 0 0 0 0 0 0 0 0 0
Nghost:    65 ave 65 max 65 min
Histogram: 1 0 0 0 0 0 0 0 0 0
Neighs:    162 ave 162 max 162 min
Histogram: 1 0 0 0 0 0 0 0 0 0

Total # of neighbors = 162
Ave neighs/atom = 9
Neighbor list builds = 0
Dangerous builds = 0
        next i
jump SELF loop1
	read_dump orig.dump 0 x y
  orthogonal box = (0 0 -0.280384) to (3.36461 5.82767 0.280384)
  18 atoms before read
  18 atoms in snapshot
  0 atoms purged
  18 atoms replaced
  0 atoms trimmed
  0 atoms added
  18 atoms after read
        variable stretch equal 1+$i*${strainstep}
        variable stretch equal 1+25*${strainstep}
        variable stretch equal 1+25*-0.0005
        change_box all ${direction} scale ${stretch} remap
        change_box all y scale ${stretch} remap
        change_box all y scale 0.9875 remap
  orthogonal box = (0 0.0364229 -0.280384) to (3.36461 5.79125 0.280384)
        min_style ${style}
        min_style cg
        minimize ${etol} ${ftol} ${maxiter} ${maxeval}
        minimize 1e-12 ${ftol} ${maxiter} ${maxeval}
        minimize 1e-12 1e-08 ${maxiter} ${maxeval}
        minimize 1e-12 1e-08 10000 ${maxeval}
        minimize 1e-12 1e-08 10000 20000
WARNING: Resetting reneighboring criteria during minimization (../min.cpp:168)
Memory usage per processor = 3.35096 Mbytes
Step PotEng Pxx Pyy Pxy Lx Ly Lz 
       0   -53.942243   0.14625842   0.35353847 2.1097173e-17      3.36461    5.7548241   0.56076816 
       1   -53.942243   0.14625842   0.35353847 2.1097173e-17      3.36461    5.7548241   0.56076816 
Loop time of 6.18938e-05 on 1 procs for 1 steps with 18 atoms

Minimization stats:
  Stopping criterion = linesearch alpha is zero
  Energy initial, next-to-last, final = 
        -53.9422433162     -53.9422433162     -53.9422433162
  Force two-norm initial, final = 0.000793968 0.000793968
  Force max component initial, final = 0.000191096 0.000191096
  Final line search alpha, max atom move = 0.015625 2.98587e-06
  Iterations, force evaluations = 1 7

Pair  time (%) = 4.41037e-05 (71.257)
Neigh time (%) = 0 (0)
Comm  time (%) = 5.10691e-06 (8.25108)
Outpt time (%) = 0 (0)
Other time (%) = 1.26832e-05 (20.4919)

Nlocal:    18 ave 18 max 18 min
Histogram: 1 0 0 0 0 0 0 0 0 0
Nghost:    65 ave 65 max 65 min
Histogram: 1 0 0 0 0 0 0 0 0 0
Neighs:    162 ave 162 max 162 min
Histogram: 1 0 0 0 0 0 0 0 0 0

Total # of neighbors = 162
Ave neighs/atom = 9
Neighbor list builds = 0
Dangerous builds = 0
        next i
jump SELF loop1
	read_dump orig.dump 0 x y
  orthogonal box = (0 0 -0.280384) to (3.36461 5.82767 0.280384)
  18 atoms before read
  18 atoms in snapshot
  0 atoms purged
  18 atoms replaced
  0 atoms trimmed
  0 atoms added
  18 atoms after read
        variable stretch equal 1+$i*${strainstep}
        variable stretch equal 1+26*${strainstep}
        variable stretch equal 1+26*-0.0005
        change_box all ${direction} scale ${stretch} remap
        change_box all y scale ${stretch} remap
        change_box all y scale 0.987 remap
  orthogonal box = (0 0.0378799 -0.280384) to (3.36461 5.78979 0.280384)
        min_style ${style}
        min_style cg
        minimize ${etol} ${ftol} ${maxiter} ${maxeval}
        minimize 1e-12 ${ftol} ${maxiter} ${maxeval}
        minimize 1e-12 1e-08 ${maxiter} ${maxeval}
        minimize 1e-12 1e-08 10000 ${maxeval}
        minimize 1e-12 1e-08 10000 20000
WARNING: Resetting reneighboring criteria during minimization (../min.cpp:168)
Memory usage per processor = 3.35096 Mbytes
Step PotEng Pxx Pyy Pxy Lx Ly Lz 
       0   -53.938115   0.15251096   0.35971121 -1.6956508e-17      3.36461    5.7519103   0.56076816 
       1   -53.938115   0.15251013   0.35970953 7.5906027e-17      3.36461    5.7519103   0.56076816 
       2   -53.938115   0.15251013   0.35970953 7.5906027e-17      3.36461    5.7519103   0.56076816 
Loop time of 0.000165031 on 1 procs for 2 steps with 18 atoms

Minimization stats:
  Stopping criterion = linesearch alpha is zero
  Energy initial, next-to-last, final = 
        -53.9381149735     -53.9381151144     -53.9381151144
  Force two-norm initial, final = 0.000818435 0.0428855
  Force max component initial, final = 0.000198576 0.010087
  Final line search alpha, max atom move = 3.8147e-06 3.84787e-08
  Iterations, force evaluations = 2 21

Pair  time (%) = 0.000114885 (69.6142)
Neigh time (%) = 0 (0)
Comm  time (%) = 1.21105e-05 (7.33831)
Outpt time (%) = 6.05651e-06 (3.66993)
Other time (%) = 3.19789e-05 (19.3776)

Nlocal:    18 ave 18 max 18 min
Histogram: 1 0 0 0 0 0 0 0 0 0
Nghost:    65 ave 65 max 65 min
Histogram: 1 0 0 0 0 0 0 0 0 0
Neighs:    162 ave 162 max 162 min
Histogram: 1 0 0 0 0 0 0 0 0 0

Total # of neighbors = 162
Ave neighs/atom = 9
Neighbor list builds = 0
Dangerous builds = 0
        next i
jump SELF loop1
	read_dump orig.dump 0 x y
  orthogonal box = (0 0 -0.280384) to (3.36461 5.82767 0.280384)
  18 atoms before read
  18 atoms in snapshot
  0 atoms purged
  18 atoms replaced
  0 atoms trimmed
  0 atoms added
  18 atoms after read
        variable stretch equal 1+$i*${strainstep}
        variable stretch equal 1+27*${strainstep}
        variable stretch equal 1+27*-0.0005
        change_box all ${direction} scale ${stretch} remap
        change_box all y scale ${stretch} remap
        change_box all y scale 0.9865 remap
  orthogonal box = (0 0.0393368 -0.280384) to (3.36461 5.78833 0.280384)
        min_style ${style}
        min_style cg
        minimize ${etol} ${ftol} ${maxiter} ${maxeval}
        minimize 1e-12 ${ftol} ${maxiter} ${maxeval}
        minimize 1e-12 1e-08 ${maxiter} ${maxeval}
        minimize 1e-12 1e-08 10000 ${maxeval}
        minimize 1e-12 1e-08 10000 20000
WARNING: Resetting reneighboring criteria during minimization (../min.cpp:168)
Memory usage per processor = 3.35096 Mbytes
Step PotEng Pxx Pyy Pxy Lx Ly Lz 
       0   -53.934015   0.15877772   0.36591664 2.4515566e-17      3.36461    5.7489965   0.56076816 
       1   -53.934015   0.15877434   0.36590979 -1.5081349e-16      3.36461    5.7489965   0.56076816 
       2   -53.934015   0.15877434   0.36590979 -1.5081349e-16      3.36461    5.7489965   0.56076816 
Loop time of 0.00017198 on 1 procs for 2 steps with 18 atoms

Minimization stats:
  Stopping criterion = linesearch alpha is zero
  Energy initial, next-to-last, final = 
         -53.934014864     -53.9340154329     -53.9340154329
  Force two-norm initial, final = 0.000817063 0.0863501
  Force max component initial, final = 0.00019815 0.0202999
  Final line search alpha, max atom move = 9.53674e-07 1.93595e-08
  Iterations, force evaluations = 2 22

Pair  time (%) = 0.000124979 (72.6707)
Neigh time (%) = 0 (0)
Comm  time (%) = 2.02853e-05 (11.7951)
Outpt time (%) = 5.91984e-06 (3.44217)
Other time (%) = 2.07959e-05 (12.092)

Nlocal:    18 ave 18 max 18 min
Histogram: 1 0 0 0 0 0 0 0 0 0
Nghost:    65 ave 65 max 65 min
Histogram: 1 0 0 0 0 0 0 0 0 0
Neighs:    162 ave 162 max 162 min
Histogram: 1 0 0 0 0 0 0 0 0 0

Total # of neighbors = 162
Ave neighs/atom = 9
Neighbor list builds = 0
Dangerous builds = 0
        next i
jump SELF loop1
	read_dump orig.dump 0 x y
  orthogonal box = (0 0 -0.280384) to (3.36461 5.82767 0.280384)
  18 atoms before read
  18 atoms in snapshot
  0 atoms purged
  18 atoms replaced
  0 atoms trimmed
  0 atoms added
  18 atoms after read
        variable stretch equal 1+$i*${strainstep}
        variable stretch equal 1+28*${strainstep}
        variable stretch equal 1+28*-0.0005
        change_box all ${direction} scale ${stretch} remap
        change_box all y scale ${stretch} remap
        change_box all y scale 0.986 remap
  orthogonal box = (0 0.0407937 -0.280384) to (3.36461 5.78688 0.280384)
        min_style ${style}
        min_style cg
        minimize ${etol} ${ftol} ${maxiter} ${maxeval}
        minimize 1e-12 ${ftol} ${maxiter} ${maxeval}
        minimize 1e-12 1e-08 ${maxiter} ${maxeval}
        minimize 1e-12 1e-08 10000 ${maxeval}
        minimize 1e-12 1e-08 10000 20000
WARNING: Resetting reneighboring criteria during minimization (../min.cpp:168)
Memory usage per processor = 3.35096 Mbytes
Step PotEng Pxx Pyy Pxy Lx Ly Lz 
       0   -53.930037    0.1650477   0.37210837 -3.7540376e-17      3.36461    5.7460826   0.56076816 
       1   -53.930049   0.16504432   0.37210212 7.2441561e-17      3.36461    5.7460826   0.56076816 
       2   -53.930049   0.16504432   0.37210212 7.2441561e-17      3.36461    5.7460826   0.56076816 
Loop time of 0.000146929 on 1 procs for 2 steps with 18 atoms

Minimization stats:
  Stopping criterion = linesearch alpha is zero
  Energy initial, next-to-last, final = 
        -53.9300374502     -53.9300493115     -53.9300493115
  Force two-norm initial, final = 0.000815748 0.0861141
  Force max component initial, final = 0.000197744 0.0202277
  Final line search alpha, max atom move = 9.53674e-07 1.92906e-08
  Iterations, force evaluations = 2 22

Pair  time (%) = 0.000102113 (69.4983)
Neigh time (%) = 0 (0)
Comm  time (%) = 1.21967e-05 (8.3011)
Outpt time (%) = 7.10739e-06 (4.8373)
Other time (%) = 2.55117e-05 (17.3633)

Nlocal:    18 ave 18 max 18 min
Histogram: 1 0 0 0 0 0 0 0 0 0
Nghost:    65 ave 65 max 65 min
Histogram: 1 0 0 0 0 0 0 0 0 0
Neighs:    162 ave 162 max 162 min
Histogram: 1 0 0 0 0 0 0 0 0 0

Total # of neighbors = 162
Ave neighs/atom = 9
Neighbor list builds = 0
Dangerous builds = 0
        next i
jump SELF loop1
	read_dump orig.dump 0 x y
  orthogonal box = (0 0 -0.280384) to (3.36461 5.82767 0.280384)
  18 atoms before read
  18 atoms in snapshot
  0 atoms purged
  18 atoms replaced
  0 atoms trimmed
  0 atoms added
  18 atoms after read
        variable stretch equal 1+$i*${strainstep}
        variable stretch equal 1+29*${strainstep}
        variable stretch equal 1+29*-0.0005
        change_box all ${direction} scale ${stretch} remap
        change_box all y scale ${stretch} remap
        change_box all y scale 0.9855 remap
  orthogonal box = (0 0.0422506 -0.280384) to (3.36461 5.78542 0.280384)
        min_style ${style}
        min_style cg
        minimize ${etol} ${ftol} ${maxiter} ${maxeval}
        minimize 1e-12 ${ftol} ${maxiter} ${maxeval}
        minimize 1e-12 1e-08 ${maxiter} ${maxeval}
        minimize 1e-12 1e-08 10000 ${maxeval}
        minimize 1e-12 1e-08 10000 20000
WARNING: Resetting reneighboring criteria during minimization (../min.cpp:168)
Memory usage per processor = 3.35096 Mbytes
Step PotEng Pxx Pyy Pxy Lx Ly Lz 
       0   -53.926199   0.17132091   0.37829739 -2.7661059e-17      3.36461    5.7431688   0.56076816 
       1   -53.926199   0.17131753    0.3782906 1.4883753e-16      3.36461    5.7431688   0.56076816 
       2   -53.926199   0.17131753    0.3782906 1.4883753e-16      3.36461    5.7431688   0.56076816 
Loop time of 0.000179118 on 1 procs for 2 steps with 18 atoms

Minimization stats:
  Stopping criterion = linesearch alpha is zero
  Energy initial, next-to-last, final = 
        -53.9261986323     -53.9261991942     -53.9261991942
  Force two-norm initial, final = 0.00081452 0.0858901
  Force max component initial, final = 0.000197368 0.0201598
  Final line search alpha, max atom move = 9.53674e-07 1.92259e-08
  Iterations, force evaluations = 2 22

Pair  time (%) = 0.000127048 (70.9296)
Neigh time (%) = 0 (0)
Comm  time (%) = 1.37013e-05 (7.64928)
Outpt time (%) = 6.10482e-06 (3.40826)
Other time (%) = 3.22644e-05 (18.0129)

Nlocal:    18 ave 18 max 18 min
Histogram: 1 0 0 0 0 0 0 0 0 0
Nghost:    65 ave 65 max 65 min
Histogram: 1 0 0 0 0 0 0 0 0 0
Neighs:    162 ave 162 max 162 min
Histogram: 1 0 0 0 0 0 0 0 0 0

Total # of neighbors = 162
Ave neighs/atom = 9
Neighbor list builds = 0
Dangerous builds = 0
        next i
jump SELF loop1
	read_dump orig.dump 0 x y
  orthogonal box = (0 0 -0.280384) to (3.36461 5.82767 0.280384)
  18 atoms before read
  18 atoms in snapshot
  0 atoms purged
  18 atoms replaced
  0 atoms trimmed
  0 atoms added
  18 atoms after read
        variable stretch equal 1+$i*${strainstep}
        variable stretch equal 1+30*${strainstep}
        variable stretch equal 1+30*-0.0005
        change_box all ${direction} scale ${stretch} remap
        change_box all y scale ${stretch} remap
        change_box all y scale 0.985 remap
  orthogonal box = (0 0.0437075 -0.280384) to (3.36461 5.78396 0.280384)
        min_style ${style}
        min_style cg
        minimize ${etol} ${ftol} ${maxiter} ${maxeval}
        minimize 1e-12 ${ftol} ${maxiter} ${maxeval}
        minimize 1e-12 1e-08 ${maxiter} ${maxeval}
        minimize 1e-12 1e-08 10000 ${maxeval}
        minimize 1e-12 1e-08 10000 20000
WARNING: Resetting reneighboring criteria during minimization (../min.cpp:168)
Memory usage per processor = 3.35096 Mbytes
Step PotEng Pxx Pyy Pxy Lx Ly Lz 
       0   -53.922446   0.17759734   0.38448063 -7.9386475e-19      3.36461    5.7402549   0.56076816 
       1   -53.922447   0.17759397   0.38447386 -3.4227223e-16      3.36461    5.7402549   0.56076816 
       2   -53.922447   0.17759397   0.38447386 -3.4227223e-16      3.36461    5.7402549   0.56076816 
Loop time of 0.000173111 on 1 procs for 2 steps with 18 atoms

Minimization stats:
  Stopping criterion = linesearch alpha is zero
  Energy initial, next-to-last, final = 
        -53.9224464088     -53.9224469655     -53.9224469655
  Force two-norm initial, final = 0.00081328 0.0856667
  Force max component initial, final = 0.000196987 0.020092
  Final line search alpha, max atom move = 9.53674e-07 1.91612e-08
  Iterations, force evaluations = 2 22

Pair  time (%) = 0.000122788 (70.93)
Neigh time (%) = 0 (0)
Comm  time (%) = 1.99102e-05 (11.5014)
Outpt time (%) = 7.05151e-06 (4.07339)
Other time (%) = 2.33618e-05 (13.4952)

Nlocal:    18 ave 18 max 18 min
Histogram: 1 0 0 0 0 0 0 0 0 0
Nghost:    65 ave 65 max 65 min
Histogram: 1 0 0 0 0 0 0 0 0 0
Neighs:    162 ave 162 max 162 min
Histogram: 1 0 0 0 0 0 0 0 0 0

Total # of neighbors = 162
Ave neighs/atom = 9
Neighbor list builds = 0
Dangerous builds = 0
        next i
jump SELF loop1
	read_dump orig.dump 0 x y
  orthogonal box = (0 0 -0.280384) to (3.36461 5.82767 0.280384)
  18 atoms before read
  18 atoms in snapshot
  0 atoms purged
  18 atoms replaced
  0 atoms trimmed
  0 atoms added
  18 atoms after read
        variable stretch equal 1+$i*${strainstep}
        variable stretch equal 1+31*${strainstep}
        variable stretch equal 1+31*-0.0005
        change_box all ${direction} scale ${stretch} remap
        change_box all y scale ${stretch} remap
        change_box all y scale 0.9845 remap
  orthogonal box = (0 0.0451644 -0.280384) to (3.36461 5.78251 0.280384)
        min_style ${style}
        min_style cg
        minimize ${etol} ${ftol} ${maxiter} ${maxeval}
        minimize 1e-12 ${ftol} ${maxiter} ${maxeval}
        minimize 1e-12 1e-08 ${maxiter} ${maxeval}
        minimize 1e-12 1e-08 10000 ${maxeval}
        minimize 1e-12 1e-08 10000 20000
WARNING: Resetting reneighboring criteria during minimization (../min.cpp:168)
Memory usage per processor = 3.35096 Mbytes
Step PotEng Pxx Pyy Pxy Lx Ly Lz 
       0   -53.918819     0.183877    0.3906594 2.3672717e-17      3.36461    5.7373411   0.56076816 
       1   -53.918819     0.183877    0.3906594 2.3672717e-17      3.36461    5.7373411   0.56076816 
Loop time of 3.59488e-05 on 1 procs for 1 steps with 18 atoms

Minimization stats:
  Stopping criterion = linesearch alpha is zero
  Energy initial, next-to-last, final = 
        -53.9188188062     -53.9188188062     -53.9188188062
  Force two-norm initial, final = 0.00081197 0.00081197
  Force max component initial, final = 0.000196583 0.000196583
  Final line search alpha, max atom move = 0.015625 3.0716e-06
  Iterations, force evaluations = 1 7

Pair  time (%) = 2.2807e-05 (63.4431)
Neigh time (%) = 0 (0)
Comm  time (%) = 2.54053e-06 (7.06708)
Outpt time (%) = 0 (0)
Other time (%) = 1.06012e-05 (29.4898)

Nlocal:    18 ave 18 max 18 min
Histogram: 1 0 0 0 0 0 0 0 0 0
Nghost:    65 ave 65 max 65 min
Histogram: 1 0 0 0 0 0 0 0 0 0
Neighs:    162 ave 162 max 162 min
Histogram: 1 0 0 0 0 0 0 0 0 0

Total # of neighbors = 162
Ave neighs/atom = 9
Neighbor list builds = 0
Dangerous builds = 0
        next i
jump SELF loop1
	read_dump orig.dump 0 x y
  orthogonal box = (0 0 -0.280384) to (3.36461 5.82767 0.280384)
  18 atoms before read
  18 atoms in snapshot
  0 atoms purged
  18 atoms replaced
  0 atoms trimmed
  0 atoms added
  18 atoms after read
        variable stretch equal 1+$i*${strainstep}
        variable stretch equal 1+32*${strainstep}
        variable stretch equal 1+32*-0.0005
        change_box all ${direction} scale ${stretch} remap
        change_box all y scale ${stretch} remap
        change_box all y scale 0.984 remap
  orthogonal box = (0 0.0466214 -0.280384) to (3.36461 5.78105 0.280384)
        min_style ${style}
        min_style cg
        minimize ${etol} ${ftol} ${maxiter} ${maxeval}
        minimize 1e-12 ${ftol} ${maxiter} ${maxeval}
        minimize 1e-12 1e-08 ${maxiter} ${maxeval}
        minimize 1e-12 1e-08 10000 ${maxeval}
        minimize 1e-12 1e-08 10000 20000
WARNING: Resetting reneighboring criteria during minimization (../min.cpp:168)
Memory usage per processor = 3.35096 Mbytes
Step PotEng Pxx Pyy Pxy Lx Ly Lz 
       0   -53.914326   0.19034636   0.39737531 4.7085954e-17      3.36461    5.7344273   0.56076816 
       1   -53.914326   0.19034549   0.39737347 -1.4263131e-17      3.36461    5.7344273   0.56076816 
       2   -53.914326   0.19034549   0.39737347 -1.4263131e-17      3.36461    5.7344273   0.56076816 
Loop time of 0.000165 on 1 procs for 2 steps with 18 atoms

Minimization stats:
  Stopping criterion = linesearch alpha is zero
  Energy initial, next-to-last, final = 
        -53.9143259088     -53.9143260854     -53.9143260854
  Force two-norm initial, final = 0.000836494 0.0448499
  Force max component initial, final = 0.000204025 0.010687
  Final line search alpha, max atom move = 3.8147e-06 4.07676e-08
  Iterations, force evaluations = 2 21

Pair  time (%) = 0.000117817 (71.4041)
Neigh time (%) = 0 (0)
Comm  time (%) = 1.86367e-05 (11.295)
Outpt time (%) = 6.02577e-06 (3.65199)
Other time (%) = 2.25208e-05 (13.649)

Nlocal:    18 ave 18 max 18 min
Histogram: 1 0 0 0 0 0 0 0 0 0
Nghost:    65 ave 65 max 65 min
Histogram: 1 0 0 0 0 0 0 0 0 0
Neighs:    162 ave 162 max 162 min
Histogram: 1 0 0 0 0 0 0 0 0 0

Total # of neighbors = 162
Ave neighs/atom = 9
Neighbor list builds = 0
Dangerous builds = 0
        next i
jump SELF loop1
	read_dump orig.dump 0 x y
  orthogonal box = (0 0 -0.280384) to (3.36461 5.82767 0.280384)
  18 atoms before read
  18 atoms in snapshot
  0 atoms purged
  18 atoms replaced
  0 atoms trimmed
  0 atoms added
  18 atoms after read
        variable stretch equal 1+$i*${strainstep}
        variable stretch equal 1+33*${strainstep}
        variable stretch equal 1+33*-0.0005
        change_box all ${direction} scale ${stretch} remap
        change_box all y scale ${stretch} remap
        change_box all y scale 0.9835 remap
  orthogonal box = (0 0.0480783 -0.280384) to (3.36461 5.77959 0.280384)
        min_style ${style}
        min_style cg
        minimize ${etol} ${ftol} ${maxiter} ${maxeval}
        minimize 1e-12 ${ftol} ${maxiter} ${maxeval}
        minimize 1e-12 1e-08 ${maxiter} ${maxeval}
        minimize 1e-12 1e-08 10000 ${maxeval}
        minimize 1e-12 1e-08 10000 20000
WARNING: Resetting reneighboring criteria during minimization (../min.cpp:168)
Memory usage per processor = 3.35096 Mbytes
Step PotEng Pxx Pyy Pxy Lx Ly Lz 
       0   -53.909828   0.19683615   0.40413376 3.2053424e-17      3.36461    5.7315134   0.56076816 
       1   -53.909828   0.19683263   0.40412628 -1.5686733e-16      3.36461    5.7315134   0.56076816 
       2   -53.909828   0.19683263   0.40412628 -1.5686733e-16      3.36461    5.7315134   0.56076816 
Loop time of 0.000171956 on 1 procs for 2 steps with 18 atoms

Minimization stats:
  Stopping criterion = linesearch alpha is zero
  Energy initial, next-to-last, final = 
        -53.9098276192     -53.9098283328     -53.9098283328
  Force two-norm initial, final = 0.000835201 0.0903076
  Force max component initial, final = 0.00020363 0.0215101
  Final line search alpha, max atom move = 9.53674e-07 2.05136e-08
  Iterations, force evaluations = 2 22

Pair  time (%) = 0.000121103 (70.4268)
Neigh time (%) = 0 (0)
Comm  time (%) = 2.20167e-05 (12.8037)
Outpt time (%) = 5.89585e-06 (3.4287)
Other time (%) = 2.29403e-05 (13.3408)

Nlocal:    18 ave 18 max 18 min
Histogram: 1 0 0 0 0 0 0 0 0 0
Nghost:    65 ave 65 max 65 min
Histogram: 1 0 0 0 0 0 0 0 0 0
Neighs:    162 ave 162 max 162 min
Histogram: 1 0 0 0 0 0 0 0 0 0

Total # of neighbors = 162
Ave neighs/atom = 9
Neighbor list builds = 0
Dangerous builds = 0
        next i
jump SELF loop1
	read_dump orig.dump 0 x y
  orthogonal box = (0 0 -0.280384) to (3.36461 5.82767 0.280384)
  18 atoms before read
  18 atoms in snapshot
  0 atoms purged
  18 atoms replaced
  0 atoms trimmed
  0 atoms added
  18 atoms after read
        variable stretch equal 1+$i*${strainstep}
        variable stretch equal 1+34*${strainstep}
        variable stretch equal 1+34*-0.0005
        change_box all ${direction} scale ${stretch} remap
        change_box all y scale ${stretch} remap
        change_box all y scale 0.983 remap
  orthogonal box = (0 0.0495352 -0.280384) to (3.36461 5.77813 0.280384)
        min_style ${style}
        min_style cg
        minimize ${etol} ${ftol} ${maxiter} ${maxeval}
        minimize 1e-12 ${ftol} ${maxiter} ${maxeval}
        minimize 1e-12 1e-08 ${maxiter} ${maxeval}
        minimize 1e-12 1e-08 10000 ${maxeval}
        minimize 1e-12 1e-08 10000 20000
WARNING: Resetting reneighboring criteria during minimization (../min.cpp:168)
Memory usage per processor = 3.35096 Mbytes
Step PotEng Pxx Pyy Pxy Lx Ly Lz 
[...]
        min_style ${style}
        min_style cg
        minimize ${etol} ${ftol} ${maxiter} ${maxeval}
        minimize 1e-12 ${ftol} ${maxiter} ${maxeval}
        minimize 1e-12 1e-08 ${maxiter} ${maxeval}
        minimize 1e-12 1e-08 10000 ${maxeval}
        minimize 1e-12 1e-08 10000 20000
WARNING: Resetting reneighboring criteria during minimization (../min.cpp:168)
Memory usage per processor = 3.35096 Mbytes
Step PotEng Pxx Pyy Pxy Lx Ly Lz 
       0   -53.684932   0.47848846    0.7359275 7.7120224e-17      3.36461    5.6178739   0.56076816 
       1   -53.684941   0.47833391   0.73586937 1.2732622e-16      3.36461    5.6178739   0.56076816 
       2   -53.684941   0.47833391   0.73586937 1.2732622e-16      3.36461    5.6178739   0.56076816 
Loop time of 0.000178893 on 1 procs for 2 steps with 18 atoms

Minimization stats:
  Stopping criterion = linesearch alpha is zero
  Energy initial, next-to-last, final = 
        -53.6849319494     -53.6849409152     -53.6849409152
  Force two-norm initial, final = 0.000938675 0.116136
  Force max component initial, final = 0.00023408 0.0291981
  Final line search alpha, max atom move = 4.76837e-07 1.39227e-08
  Iterations, force evaluations = 2 23

Pair  time (%) = 0.000125843 (70.345)
Neigh time (%) = 0 (0)
Comm  time (%) = 1.69665e-05 (9.48414)
Outpt time (%) = 7.07177e-06 (3.95307)
Other time (%) = 2.90124e-05 (16.2177)

Nlocal:    18 ave 18 max 18 min
Histogram: 1 0 0 0 0 0 0 0 0 0
Nghost:    65 ave 65 max 65 min
Histogram: 1 0 0 0 0 0 0 0 0 0
Neighs:    162 ave 162 max 162 min
Histogram: 1 0 0 0 0 0 0 0 0 0

Total # of neighbors = 162
Ave neighs/atom = 9
Neighbor list builds = 0
Dangerous builds = 0
        next i
jump SELF loop1
	read_dump orig.dump 0 x y
  orthogonal box = (0 0 -0.280384) to (3.36461 5.82767 0.280384)
  18 atoms before read
  18 atoms in snapshot
  0 atoms purged
  18 atoms replaced
  0 atoms trimmed
  0 atoms added
  18 atoms after read
        variable stretch equal 1+$i*${strainstep}
        variable stretch equal 1+73*${strainstep}
        variable stretch equal 1+73*-0.0005
        change_box all ${direction} scale ${stretch} remap
        change_box all y scale ${stretch} remap
        change_box all y scale 0.9635 remap
  orthogonal box = (0 0.106355 -0.280384) to (3.36461 5.72132 0.280384)
        min_style ${style}
        min_style cg
        minimize ${etol} ${ftol} ${maxiter} ${maxeval}
        minimize 1e-12 ${ftol} ${maxiter} ${maxeval}
        minimize 1e-12 1e-08 ${maxiter} ${maxeval}
        minimize 1e-12 1e-08 10000 ${maxeval}
        minimize 1e-12 1e-08 10000 20000
WARNING: Resetting reneighboring criteria during minimization (../min.cpp:168)
Memory usage per processor = 3.35096 Mbytes
Step PotEng Pxx Pyy Pxy Lx Ly Lz 
       0   -53.677733    0.4858154     0.745993 3.9201453e-17      3.36461      5.61496   0.56076816 
       1   -53.677734   0.48581094   0.74598127 -1.4959169e-16      3.36461      5.61496   0.56076816 
       2   -53.677734   0.48581094   0.74598127 -1.4959169e-16      3.36461      5.61496   0.56076816 
Loop time of 0.000178904 on 1 procs for 2 steps with 18 atoms

Minimization stats:
  Stopping criterion = linesearch alpha is zero
  Energy initial, next-to-last, final = 
        -53.6777325247     -53.6777344323     -53.6777344323
  Force two-norm initial, final = 0.000937114 0.11532
  Force max component initial, final = 0.000233609 0.0289392
  Final line search alpha, max atom move = 4.76837e-07 1.37993e-08
  Iterations, force evaluations = 2 23

Pair  time (%) = 0.000130015 (72.673)
Neigh time (%) = 0 (0)
Comm  time (%) = 1.91125e-05 (10.6831)
Outpt time (%) = 6.08282e-06 (3.40004)
Other time (%) = 2.36939e-05 (13.2439)

Nlocal:    18 ave 18 max 18 min
Histogram: 1 0 0 0 0 0 0 0 0 0
Nghost:    65 ave 65 max 65 min
Histogram: 1 0 0 0 0 0 0 0 0 0
Neighs:    162 ave 162 max 162 min
Histogram: 1 0 0 0 0 0 0 0 0 0

Total # of neighbors = 162
Ave neighs/atom = 9
Neighbor list builds = 0
Dangerous builds = 0
        next i
jump SELF loop1
	read_dump orig.dump 0 x y
  orthogonal box = (0 0 -0.280384) to (3.36461 5.82767 0.280384)
  18 atoms before read
  18 atoms in snapshot
  0 atoms purged
  18 atoms replaced
  0 atoms trimmed
  0 atoms added
  18 atoms after read
        variable stretch equal 1+$i*${strainstep}
        variable stretch equal 1+74*${strainstep}
        variable stretch equal 1+74*-0.0005
        change_box all ${direction} scale ${stretch} remap
        change_box all y scale ${stretch} remap
        change_box all y scale 0.963 remap
  orthogonal box = (0 0.107812 -0.280384) to (3.36461 5.71986 0.280384)
        min_style ${style}
        min_style cg
        minimize ${etol} ${ftol} ${maxiter} ${maxeval}
        minimize 1e-12 ${ftol} ${maxiter} ${maxeval}
        minimize 1e-12 1e-08 ${maxiter} ${maxeval}
        minimize 1e-12 1e-08 10000 ${maxeval}
        minimize 1e-12 1e-08 10000 20000
WARNING: Resetting reneighboring criteria during minimization (../min.cpp:168)
Memory usage per processor = 3.35096 Mbytes
Step PotEng Pxx Pyy Pxy Lx Ly Lz 
       0   -53.670358   0.49319386   0.75617843 5.1939923e-17      3.36461    5.6120462   0.56076816 
       1   -53.670358   0.49319386   0.75617843 5.1939923e-17      3.36461    5.6120462   0.56076816 
Loop time of 6.89393e-05 on 1 procs for 1 steps with 18 atoms

Minimization stats:
  Stopping criterion = linesearch alpha is zero
  Energy initial, next-to-last, final = 
        -53.6703580008     -53.6703580008     -53.6703580008
  Force two-norm initial, final = 0.000965976 0.000965976
  Force max component initial, final = 0.000242158 0.000242158
  Final line search alpha, max atom move = 0.0078125 1.89186e-06
  Iterations, force evaluations = 1 8

Pair  time (%) = 4.90936e-05 (71.2128)
Neigh time (%) = 0 (0)
Comm  time (%) = 8.03359e-06 (11.6531)
Outpt time (%) = 0 (0)
Other time (%) = 1.18121e-05 (17.134)

Nlocal:    18 ave 18 max 18 min
Histogram: 1 0 0 0 0 0 0 0 0 0
Nghost:    65 ave 65 max 65 min
Histogram: 1 0 0 0 0 0 0 0 0 0
Neighs:    162 ave 162 max 162 min
Histogram: 1 0 0 0 0 0 0 0 0 0

Total # of neighbors = 162
Ave neighs/atom = 9
Neighbor list builds = 0
Dangerous builds = 0
        next i
jump SELF loop1
	read_dump orig.dump 0 x y
  orthogonal box = (0 0 -0.280384) to (3.36461 5.82767 0.280384)
  18 atoms before read
  18 atoms in snapshot
  0 atoms purged
  18 atoms replaced
  0 atoms trimmed
  0 atoms added
  18 atoms after read
        variable stretch equal 1+$i*${strainstep}
        variable stretch equal 1+75*${strainstep}
        variable stretch equal 1+75*-0.0005
        change_box all ${direction} scale ${stretch} remap
        change_box all y scale ${stretch} remap
        change_box all y scale 0.9625 remap
  orthogonal box = (0 0.109269 -0.280384) to (3.36461 5.7184 0.280384)
        min_style ${style}
        min_style cg
        minimize ${etol} ${ftol} ${maxiter} ${maxeval}
        minimize 1e-12 ${ftol} ${maxiter} ${maxeval}
        minimize 1e-12 1e-08 ${maxiter} ${maxeval}
        minimize 1e-12 1e-08 10000 ${maxeval}
        minimize 1e-12 1e-08 10000 20000
WARNING: Resetting reneighboring criteria during minimization (../min.cpp:168)
Memory usage per processor = 3.35096 Mbytes
Step PotEng Pxx Pyy Pxy Lx Ly Lz 
       0   -53.662062   0.50077893   0.76691853 3.0352729e-17      3.36461    5.6091324   0.56076816 
       1   -53.662062   0.50077777   0.76691534 1.0438656e-16      3.36461    5.6091324   0.56076816 
       2   -53.662062   0.50077777   0.76691534 1.0438656e-16      3.36461    5.6091324   0.56076816 
Loop time of 0.000173905 on 1 procs for 2 steps with 18 atoms

Minimization stats:
  Stopping criterion = linesearch alpha is zero
  Energy initial, next-to-last, final = 
        -53.6620616704      -53.662062221      -53.662062221
  Force two-norm initial, final = 0.000964272 0.0606551
  Force max component initial, final = 0.000241643 0.0153775
  Final line search alpha, max atom move = 1.90735e-06 2.93302e-08
  Iterations, force evaluations = 2 22

Pair  time (%) = 0.000125161 (71.971)
Neigh time (%) = 0 (0)
Comm  time (%) = 1.6842e-05 (9.68462)
Outpt time (%) = 6.93102e-06 (3.98552)
Other time (%) = 2.49707e-05 (14.3588)

Nlocal:    18 ave 18 max 18 min
Histogram: 1 0 0 0 0 0 0 0 0 0
Nghost:    65 ave 65 max 65 min
Histogram: 1 0 0 0 0 0 0 0 0 0
Neighs:    162 ave 162 max 162 min
Histogram: 1 0 0 0 0 0 0 0 0 0

Total # of neighbors = 162
Ave neighs/atom = 9
Neighbor list builds = 0
Dangerous builds = 0
        next i
jump SELF loop1
	read_dump orig.dump 0 x y
  orthogonal box = (0 0 -0.280384) to (3.36461 5.82767 0.280384)
  18 atoms before read
  18 atoms in snapshot
  0 atoms purged
  18 atoms replaced
  0 atoms trimmed
  0 atoms added
  18 atoms after read
        variable stretch equal 1+$i*${strainstep}
        variable stretch equal 1+76*${strainstep}
        variable stretch equal 1+76*-0.0005
        change_box all ${direction} scale ${stretch} remap
        change_box all y scale ${stretch} remap
        change_box all y scale 0.962 remap
  orthogonal box = (0 0.110726 -0.280384) to (3.36461 5.71694 0.280384)
        min_style ${style}
        min_style cg
        minimize ${etol} ${ftol} ${maxiter} ${maxeval}
        minimize 1e-12 ${ftol} ${maxiter} ${maxeval}
        minimize 1e-12 1e-08 ${maxiter} ${maxeval}
        minimize 1e-12 1e-08 10000 ${maxeval}
        minimize 1e-12 1e-08 10000 20000
WARNING: Resetting reneighboring criteria during minimization (../min.cpp:168)
Memory usage per processor = 3.35096 Mbytes
Step PotEng Pxx Pyy Pxy Lx Ly Lz 
       0   -53.653853   0.50836807   0.77764552 1.666197e-16      3.36461    5.6062185   0.56076816 
       1   -53.653855   0.50836339   0.77763261 1.0369556e-16      3.36461    5.6062185   0.56076816 
       2   -53.653855   0.50836339   0.77763261 1.0369556e-16      3.36461    5.6062185   0.56076816 
Loop time of 0.000180076 on 1 procs for 2 steps with 18 atoms

Minimization stats:
  Stopping criterion = linesearch alpha is zero
  Energy initial, next-to-last, final = 
        -53.6538526083     -53.6538548336     -53.6538548336
  Force two-norm initial, final = 0.000962652 0.121929
  Force max component initial, final = 0.000241155 0.0308957
  Final line search alpha, max atom move = 4.76837e-07 1.47322e-08
  Iterations, force evaluations = 2 23

Pair  time (%) = 0.000128575 (71.4005)
Neigh time (%) = 0 (0)
Comm  time (%) = 1.95695e-05 (10.8674)
Outpt time (%) = 7.01554e-06 (3.89589)
Other time (%) = 2.49157e-05 (13.8362)

Nlocal:    18 ave 18 max 18 min
Histogram: 1 0 0 0 0 0 0 0 0 0
Nghost:    65 ave 65 max 65 min
Histogram: 1 0 0 0 0 0 0 0 0 0
Neighs:    162 ave 162 max 162 min
Histogram: 1 0 0 0 0 0 0 0 0 0

Total # of neighbors = 162
Ave neighs/atom = 9
Neighbor list builds = 0
Dangerous builds = 0
        next i
jump SELF loop1
	read_dump orig.dump 0 x y
  orthogonal box = (0 0 -0.280384) to (3.36461 5.82767 0.280384)
  18 atoms before read
  18 atoms in snapshot
  0 atoms purged
  18 atoms replaced
  0 atoms trimmed
  0 atoms added
  18 atoms after read
        variable stretch equal 1+$i*${strainstep}
        variable stretch equal 1+77*${strainstep}
        variable stretch equal 1+77*-0.0005
        change_box all ${direction} scale ${stretch} remap
        change_box all y scale ${stretch} remap
        change_box all y scale 0.9615 remap
  orthogonal box = (0 0.112183 -0.280384) to (3.36461 5.71549 0.280384)
        min_style ${style}
        min_style cg
        minimize ${etol} ${ftol} ${maxiter} ${maxeval}
        minimize 1e-12 ${ftol} ${maxiter} ${maxeval}
        minimize 1e-12 1e-08 ${maxiter} ${maxeval}
        minimize 1e-12 1e-08 10000 ${maxeval}
        minimize 1e-12 1e-08 10000 20000
WARNING: Resetting reneighboring criteria during minimization (../min.cpp:168)
Memory usage per processor = 3.35096 Mbytes
Step PotEng Pxx Pyy Pxy Lx Ly Lz 
       0   -53.645729    0.5159613   0.78835934 -2.1452499e-17      3.36461    5.6033047   0.56076816 
       1   -53.645756   0.51595662   0.78834775 1.0042709e-16      3.36461    5.6033047   0.56076816 
       2   -53.645756   0.51595662   0.78834775 1.0042709e-16      3.36461    5.6033047   0.56076816 
Loop time of 0.000178991 on 1 procs for 2 steps with 18 atoms

Minimization stats:
  Stopping criterion = linesearch alpha is zero
  Energy initial, next-to-last, final = 
        -53.6457292719     -53.6457561896     -53.6457561896
  Force two-norm initial, final = 0.000960952 0.121547
  Force max component initial, final = 0.000240641 0.0307818
  Final line search alpha, max atom move = 4.76837e-07 1.46779e-08
  Iterations, force evaluations = 2 23

Pair  time (%) = 0.000130084 (72.6761)
Neigh time (%) = 0 (0)
Comm  time (%) = 1.60574e-05 (8.97108)
Outpt time (%) = 6.93079e-06 (3.87215)
Other time (%) = 2.59191e-05 (14.4807)

Nlocal:    18 ave 18 max 18 min
Histogram: 1 0 0 0 0 0 0 0 0 0
Nghost:    65 ave 65 max 65 min
Histogram: 1 0 0 0 0 0 0 0 0 0
Neighs:    162 ave 162 max 162 min
Histogram: 1 0 0 0 0 0 0 0 0 0

Total # of neighbors = 162
Ave neighs/atom = 9
Neighbor list builds = 0
Dangerous builds = 0
        next i
jump SELF loop1
	read_dump orig.dump 0 x y
  orthogonal box = (0 0 -0.280384) to (3.36461 5.82767 0.280384)
  18 atoms before read
  18 atoms in snapshot
  0 atoms purged
  18 atoms replaced
  0 atoms trimmed
  0 atoms added
  18 atoms after read
        variable stretch equal 1+$i*${strainstep}
        variable stretch equal 1+78*${strainstep}
        variable stretch equal 1+78*-0.0005
        change_box all ${direction} scale ${stretch} remap
        change_box all y scale ${stretch} remap
        change_box all y scale 0.961 remap
  orthogonal box = (0 0.11364 -0.280384) to (3.36461 5.71403 0.280384)
        min_style ${style}
        min_style cg
        minimize ${etol} ${ftol} ${maxiter} ${maxeval}
        minimize 1e-12 ${ftol} ${maxiter} ${maxeval}
        minimize 1e-12 1e-08 ${maxiter} ${maxeval}
        minimize 1e-12 1e-08 10000 ${maxeval}
        minimize 1e-12 1e-08 10000 20000
WARNING: Resetting reneighboring criteria during minimization (../min.cpp:168)
Memory usage per processor = 3.35096 Mbytes
Step PotEng Pxx Pyy Pxy Lx Ly Lz 
       0   -53.637776   0.52322688   0.79896179 1.5913901e-16      3.36461    5.6003909   0.56076816 
       1   -53.637798   0.52239173   0.79869466 -1.9747025e-15      3.36461    5.6003909   0.56076816 
       2   -53.637798   0.52239173   0.79869466 -1.9747025e-15      3.36461    5.6003909   0.56076816 
Loop time of 0.000180072 on 1 procs for 2 steps with 18 atoms

Minimization stats:
  Stopping criterion = linesearch alpha is zero
  Energy initial, next-to-last, final = 
        -53.6377758488     -53.6377983098     -53.6377983098
  Force two-norm initial, final = 0.000923322 0.114682
  Force max component initial, final = 0.000228088 0.0285153
  Final line search alpha, max atom move = 4.76837e-07 1.35972e-08
  Iterations, force evaluations = 2 23

Pair  time (%) = 0.00012587 (69.8999)
Neigh time (%) = 0 (0)
Comm  time (%) = 1.85445e-05 (10.2984)
Outpt time (%) = 7.01216e-06 (3.89409)
Other time (%) = 2.86452e-05 (15.9076)

Nlocal:    18 ave 18 max 18 min
Histogram: 1 0 0 0 0 0 0 0 0 0
Nghost:    65 ave 65 max 65 min
Histogram: 1 0 0 0 0 0 0 0 0 0
Neighs:    162 ave 162 max 162 min
Histogram: 1 0 0 0 0 0 0 0 0 0

Total # of neighbors = 162
Ave neighs/atom = 9
Neighbor list builds = 0
Dangerous builds = 0
        next i
jump SELF loop1
	read_dump orig.dump 0 x y
  orthogonal box = (0 0 -0.280384) to (3.36461 5.82767 0.280384)
  18 atoms before read
  18 atoms in snapshot
  0 atoms purged
  18 atoms replaced
  0 atoms trimmed
  0 atoms added
  18 atoms after read
        variable stretch equal 1+$i*${strainstep}
        variable stretch equal 1+79*${strainstep}
        variable stretch equal 1+79*-0.0005
        change_box all ${direction} scale ${stretch} remap
        change_box all y scale ${stretch} remap
        change_box all y scale 0.9605 remap
  orthogonal box = (0 0.115096 -0.280384) to (3.36461 5.71257 0.280384)
        min_style ${style}
        min_style cg
        minimize ${etol} ${ftol} ${maxiter} ${maxeval}
        minimize 1e-12 ${ftol} ${maxiter} ${maxeval}
        minimize 1e-12 1e-08 ${maxiter} ${maxeval}
        minimize 1e-12 1e-08 10000 ${maxeval}
        minimize 1e-12 1e-08 10000 20000
WARNING: Resetting reneighboring criteria during minimization (../min.cpp:168)
Memory usage per processor = 3.35096 Mbytes
Step PotEng Pxx Pyy Pxy Lx Ly Lz 
       0   -53.629967   0.52779637   0.80872062 5.4777282e-17      3.36461     5.597477   0.56076816 
       1   -53.629969   0.52779213   0.80870957 -1.3804241e-16      3.36461     5.597477   0.56076816 
       2   -53.629969   0.52779213   0.80870957 -1.3804241e-16      3.36461     5.597477   0.56076816 
Loop time of 0.000194054 on 1 procs for 2 steps with 18 atoms

Minimization stats:
  Stopping criterion = linesearch alpha is zero
  Energy initial, next-to-last, final = 
        -53.6299673145     -53.6299693413     -53.6299693413
  Force two-norm initial, final = 0.000921796 0.111796
  Force max component initial, final = 0.000227627 0.0275567
  Final line search alpha, max atom move = 9.53674e-07 2.62801e-08
  Iterations, force evaluations = 2 22

Pair  time (%) = 0.000140906 (72.612)
Neigh time (%) = 0 (0)
Comm  time (%) = 1.48288e-05 (7.64156)
Outpt time (%) = 5.99411e-06 (3.08889)
Other time (%) = 3.23247e-05 (16.6576)

Nlocal:    18 ave 18 max 18 min
Histogram: 1 0 0 0 0 0 0 0 0 0
Nghost:    65 ave 65 max 65 min
Histogram: 1 0 0 0 0 0 0 0 0 0
Neighs:    162 ave 162 max 162 min
Histogram: 1 0 0 0 0 0 0 0 0 0

Total # of neighbors = 162
Ave neighs/atom = 9
Neighbor list builds = 0
Dangerous builds = 0
        next i
jump SELF loop1
	read_dump orig.dump 0 x y
  orthogonal box = (0 0 -0.280384) to (3.36461 5.82767 0.280384)
  18 atoms before read
  18 atoms in snapshot
  0 atoms purged
  18 atoms replaced
  0 atoms trimmed
  0 atoms added
  18 atoms after read
        variable stretch equal 1+$i*${strainstep}
        variable stretch equal 1+80*${strainstep}
        variable stretch equal 1+80*-0.0005
        change_box all ${direction} scale ${stretch} remap
        change_box all y scale ${stretch} remap
        change_box all y scale 0.96 remap
  orthogonal box = (0 0.116553 -0.280384) to (3.36461 5.71112 0.280384)
        min_style ${style}
        min_style cg
        minimize ${etol} ${ftol} ${maxiter} ${maxeval}
        minimize 1e-12 ${ftol} ${maxiter} ${maxeval}
        minimize 1e-12 1e-08 ${maxiter} ${maxeval}
        minimize 1e-12 1e-08 10000 ${maxeval}
        minimize 1e-12 1e-08 10000 20000
WARNING: Resetting reneighboring criteria during minimization (../min.cpp:168)
Memory usage per processor = 3.35096 Mbytes
Step PotEng Pxx Pyy Pxy Lx Ly Lz 
       0   -53.622247   0.53237067   0.81847488 4.1482817e-17      3.36461    5.5945632   0.56076816 
       1   -53.622247   0.53237067   0.81847488 4.1482817e-17      3.36461    5.5945632   0.56076816 
Loop time of 7.00946e-05 on 1 procs for 1 steps with 18 atoms

Minimization stats:
  Stopping criterion = linesearch alpha is zero
  Energy initial, next-to-last, final = 
        -53.6222466973     -53.6222466973     -53.6222466973
  Force two-norm initial, final = 0.000951113 0.000951113
  Force max component initial, final = 0.000236345 0.000236345
  Final line search alpha, max atom move = 0.0078125 1.84644e-06
  Iterations, force evaluations = 1 8

Pair  time (%) = 4.69154e-05 (66.9315)
Neigh time (%) = 0 (0)
Comm  time (%) = 8.01496e-06 (11.4345)
Outpt time (%) = 0 (0)
Other time (%) = 1.51643e-05 (21.634)

Nlocal:    18 ave 18 max 18 min
Histogram: 1 0 0 0 0 0 0 0 0 0
Nghost:    79 ave 79 max 79 min
Histogram: 1 0 0 0 0 0 0 0 0 0
Neighs:    162 ave 162 max 162 min
Histogram: 1 0 0 0 0 0 0 0 0 0

Total # of neighbors = 162
Ave neighs/atom = 9
Neighbor list builds = 0
Dangerous builds = 0
        next i
jump SELF loop1

