LAMMPS (28 Jun 2014)
# attempt at getting tensile strain-stress curve for infinite slab

#file prefix
variable prefix string compression_V_inter2new
variable dumpfile string ${prefix}.*.dump
variable dumpfile string compression_V_inter2new.*.dump
variable restartfile string ${prefix}.*.equil
variable restartfile string compression_V_inter2new.*.equil

#Mass (g/mol)
variable m equal 1

# lattice constant (in Angstroms) and orientation of axes (given by lattice vectors)
variable rho equal 0.9165
variable x1 equal 1
variable x2 equal 0
variable x3 equal 0
variable y1 equal 0
variable y2 equal 1
variable y3 equal 0
# length of lattice in different directions (using orientation of lattice vectors)
variable ax equal sqrt(${x1}*${x1}+${x2}*${x2}+${x3}*${x3})
variable ax equal sqrt(1*${x1}+${x2}*${x2}+${x3}*${x3})
variable ax equal sqrt(1*1+${x2}*${x2}+${x3}*${x3})
variable ax equal sqrt(1*1+0*${x2}+${x3}*${x3})
variable ax equal sqrt(1*1+0*0+${x3}*${x3})
variable ax equal sqrt(1*1+0*0+0*${x3})
variable ax equal sqrt(1*1+0*0+0*0)
variable ay equal sqrt(${y1}*${y1}+${y2}*${y2}+${y3}*${y3})
variable ay equal sqrt(0*${y1}+${y2}*${y2}+${y3}*${y3})
variable ay equal sqrt(0*0+${y2}*${y2}+${y3}*${y3})
variable ay equal sqrt(0*0+1*${y2}+${y3}*${y3})
variable ay equal sqrt(0*0+1*1+${y3}*${y3})
variable ay equal sqrt(0*0+1*1+0*${y3})
variable ay equal sqrt(0*0+1*1+0*0)
variable az equal 1

# size of box in lattice units
variable lxpos equal 3
variable lxneg equal 0
variable lypos equal 3
variable lyneg equal 0
variable lzpos equal 0.25
variable lzneg equal -0.25

# Define minimization parameters and damping
variable etol equal 1.0e-12
variable ftol equal 1.0e-8
variable maxiter equal 10000
variable maxeval equal 20000
variable style string cg

# boundary conditions
dimension	2
boundary	p p p
atom_style	atomic

# create geometry
units		lj
lattice         hex ${rho}
lattice         hex 0.9165
Lattice spacing in x,y,z = 1.12245 1.94415 1.12245
region		myregion block ${lxneg} ${lxpos} ${lyneg} ${lypos} ${lzneg} ${lzpos} units lattice
region		myregion block 0 ${lxpos} ${lyneg} ${lypos} ${lzneg} ${lzpos} units lattice
region		myregion block 0 3 ${lyneg} ${lypos} ${lzneg} ${lzpos} units lattice
region		myregion block 0 3 0 ${lypos} ${lzneg} ${lzpos} units lattice
region		myregion block 0 3 0 3 ${lzneg} ${lzpos} units lattice
region		myregion block 0 3 0 3 -0.25 ${lzpos} units lattice
region		myregion block 0 3 0 3 -0.25 0.25 units lattice
create_box	1 myregion
Created orthogonal box = (0 0 -0.280613) to (3.36736 5.83244 0.280613)
  1 by 1 by 1 MPI processor grid
create_atoms	1 box
Created 18 atoms

# define masses
mass * $m
mass * 1

# my fake/morse potential
pair_style      table linear 3001
pair_coeff      * * vpotential_inter2new dummy
neighbor	0.3 bin
neigh_modify	delay 5

# Setup output
thermo 1
thermo_style custom step pe pxx pyy pxy lx ly lz
thermo_modify norm no

# Compute initial state by relaxing box
min_style ${style}
min_style cg
minimize ${etol} ${ftol} ${maxiter} ${maxeval}
minimize 1e-12 ${ftol} ${maxiter} ${maxeval}
minimize 1e-12 1e-08 ${maxiter} ${maxeval}
minimize 1e-12 1e-08 10000 ${maxeval}
minimize 1e-12 1e-08 10000 20000
WARNING: Resetting reneighboring criteria during minimization (../min.cpp:168)
Memory usage per processor = 3.35099 Mbytes
Step PotEng Pxx Pyy Pxy Lx Ly Lz 
       0   -53.999984 0.0003469208 0.0003469208 1.4825282e-22    3.3673612    5.8324407   0.56122687 
       1   -53.999984 0.0003469208 0.0003469208 -2.4069537e-16    3.3673612    5.8324407   0.56122687 
Loop time of 2.59797e-05 on 1 procs for 1 steps with 18 atoms

Minimization stats:
  Stopping criterion = energy tolerance
  Energy initial, next-to-last, final = 
         -53.999983866      -53.999983866      -53.999983866
  Force two-norm initial, final = 1.11801e-13 1.30891e-11
  Force max component initial, final = 5.05401e-14 5.36567e-12
  Final line search alpha, max atom move = 1 5.36567e-12
  Iterations, force evaluations = 1 1

Pair  time (%) = 8.03184e-06 (30.9158)
Neigh time (%) = 0 (0)
Comm  time (%) = 1.86474e-06 (7.17768)
Outpt time (%) = 0 (0)
Other time (%) = 1.60831e-05 (61.9065)

Nlocal:    18 ave 18 max 18 min
Histogram: 1 0 0 0 0 0 0 0 0 0
Nghost:    65 ave 65 max 65 min
Histogram: 1 0 0 0 0 0 0 0 0 0
Neighs:    162 ave 162 max 162 min
Histogram: 1 0 0 0 0 0 0 0 0 0

Total # of neighbors = 162
Ave neighs/atom = 9
Neighbor list builds = 0
Dangerous builds = 0
reset_timestep 0
write_dump all atom orig.dump

# Energy curve will have nstep steps
variable strainmax equal -0.05
variable strainstep equal -0.0005
variable nsteps equal round(${strainmax}/${strainstep})
variable nsteps equal round(-0.05/${strainstep})
variable nsteps equal round(-0.05/-0.0005)
variable direction string y

variable i loop ${nsteps}
variable i loop 100
label loop1
	read_dump orig.dump 0 x y
  orthogonal box = (0 0 -0.280613) to (3.36736 5.83244 0.280613)
  18 atoms before read
  18 atoms in snapshot
  0 atoms purged
  18 atoms replaced
  0 atoms trimmed
  0 atoms added
  18 atoms after read
        variable stretch equal 1+$i*${strainstep}
        variable stretch equal 1+1*${strainstep}
        variable stretch equal 1+1*-0.0005
        change_box all ${direction} scale ${stretch} remap
        change_box all y scale ${stretch} remap
        change_box all y scale 0.9995 remap
  orthogonal box = (0 0.00145811 -0.280613) to (3.36736 5.83098 0.280613)
        min_style ${style}
        min_style cg
        minimize ${etol} ${ftol} ${maxiter} ${maxeval}
        minimize 1e-12 ${ftol} ${maxiter} ${maxeval}
        minimize 1e-12 1e-08 ${maxiter} ${maxeval}
        minimize 1e-12 1e-08 10000 ${maxeval}
        minimize 1e-12 1e-08 10000 20000
WARNING: Resetting reneighboring criteria during minimization (../min.cpp:168)
Memory usage per processor = 3.35099 Mbytes
Step PotEng Pxx Pyy Pxy Lx Ly Lz 
       0   -53.999886 0.0056837775  0.016310321 -8.4228194e-19      3.36736    5.8295238   0.56122687 
       1   -53.999886 0.0056837775  0.016310321 -8.4228194e-19      3.36736    5.8295238   0.56122687 
Loop time of 6.10655e-05 on 1 procs for 1 steps with 18 atoms

Minimization stats:
  Stopping criterion = linesearch alpha is zero
  Energy initial, next-to-last, final = 
        -53.9998864007     -53.9998864007     -53.9998864007
  Force two-norm initial, final = 0.000858906 0.000858906
  Force max component initial, final = 0.000214646 0.000214646
  Final line search alpha, max atom move = 0.015625 3.35385e-06
  Iterations, force evaluations = 1 7

Pair  time (%) = 3.99417e-05 (65.408)
Neigh time (%) = 0 (0)
Comm  time (%) = 7.07433e-06 (11.5848)
Outpt time (%) = 0 (0)
Other time (%) = 1.40495e-05 (23.0072)

Nlocal:    18 ave 18 max 18 min
Histogram: 1 0 0 0 0 0 0 0 0 0
Nghost:    65 ave 65 max 65 min
Histogram: 1 0 0 0 0 0 0 0 0 0
Neighs:    162 ave 162 max 162 min
Histogram: 1 0 0 0 0 0 0 0 0 0

Total # of neighbors = 162
Ave neighs/atom = 9
Neighbor list builds = 0
Dangerous builds = 0
        next i
jump SELF loop1
	read_dump orig.dump 0 x y
  orthogonal box = (0 0 -0.280613) to (3.36736 5.83244 0.280613)
  18 atoms before read
  18 atoms in snapshot
  0 atoms purged
  18 atoms replaced
  0 atoms trimmed
  0 atoms added
  18 atoms after read
        variable stretch equal 1+$i*${strainstep}
        variable stretch equal 1+2*${strainstep}
        variable stretch equal 1+2*-0.0005
        change_box all ${direction} scale ${stretch} remap
        change_box all y scale ${stretch} remap
        change_box all y scale 0.999 remap
  orthogonal box = (0 0.00291622 -0.280613) to (3.36736 5.82952 0.280613)
        min_style ${style}
        min_style cg
        minimize ${etol} ${ftol} ${maxiter} ${maxeval}
        minimize 1e-12 ${ftol} ${maxiter} ${maxeval}
        minimize 1e-12 1e-08 ${maxiter} ${maxeval}
        minimize 1e-12 1e-08 10000 ${maxeval}
        minimize 1e-12 1e-08 10000 20000
WARNING: Resetting reneighboring criteria during minimization (../min.cpp:168)
Memory usage per processor = 3.35099 Mbytes
Step PotEng Pxx Pyy Pxy Lx Ly Lz 
       0   -53.999635  0.011039582  0.032328946 2.1488939e-18      3.36736    5.8266076   0.56122687 
       1   -53.999635  0.011039582  0.032328946 2.1488939e-18      3.36736    5.8266076   0.56122687 
Loop time of 5.30906e-05 on 1 procs for 1 steps with 18 atoms

Minimization stats:
  Stopping criterion = linesearch alpha is zero
  Energy initial, next-to-last, final = 
        -53.9996354394     -53.9996354394     -53.9996354394
  Force two-norm initial, final = 0.000863132 0.000863132
  Force max component initial, final = 0.000215903 0.000215903
  Final line search alpha, max atom move = 0.015625 3.37348e-06
  Iterations, force evaluations = 1 7

Pair  time (%) = 3.4149e-05 (64.3222)
Neigh time (%) = 0 (0)
Comm  time (%) = 6.16477e-06 (11.6118)
Outpt time (%) = 0 (0)
Other time (%) = 1.27768e-05 (24.066)

Nlocal:    18 ave 18 max 18 min
Histogram: 1 0 0 0 0 0 0 0 0 0
Nghost:    65 ave 65 max 65 min
Histogram: 1 0 0 0 0 0 0 0 0 0
Neighs:    162 ave 162 max 162 min
Histogram: 1 0 0 0 0 0 0 0 0 0

Total # of neighbors = 162
Ave neighs/atom = 9
Neighbor list builds = 0
Dangerous builds = 0
        next i
jump SELF loop1
	read_dump orig.dump 0 x y
  orthogonal box = (0 0 -0.280613) to (3.36736 5.83244 0.280613)
  18 atoms before read
  18 atoms in snapshot
  0 atoms purged
  18 atoms replaced
  0 atoms trimmed
  0 atoms added
  18 atoms after read
        variable stretch equal 1+$i*${strainstep}
        variable stretch equal 1+3*${strainstep}
        variable stretch equal 1+3*-0.0005
        change_box all ${direction} scale ${stretch} remap
        change_box all y scale ${stretch} remap
        change_box all y scale 0.9985 remap
  orthogonal box = (0 0.00437433 -0.280613) to (3.36736 5.82807 0.280613)
        min_style ${style}
        min_style cg
        minimize ${etol} ${ftol} ${maxiter} ${maxeval}
        minimize 1e-12 ${ftol} ${maxiter} ${maxeval}
        minimize 1e-12 1e-08 ${maxiter} ${maxeval}
        minimize 1e-12 1e-08 10000 ${maxeval}
        minimize 1e-12 1e-08 10000 20000
WARNING: Resetting reneighboring criteria during minimization (../min.cpp:168)
Memory usage per processor = 3.35099 Mbytes
Step PotEng Pxx Pyy Pxy Lx Ly Lz 
       0   -53.999254  0.016422703   0.04839719 6.2377119e-17      3.36736    5.8236913   0.56122687 
       1   -53.999254  0.016422703   0.04839719 6.2377119e-17      3.36736    5.8236913   0.56122687 
Loop time of 5.3007e-05 on 1 procs for 1 steps with 18 atoms

Minimization stats:
  Stopping criterion = linesearch alpha is zero
  Energy initial, next-to-last, final = 
        -53.9992537611     -53.9992537611     -53.9992537611
  Force two-norm initial, final = 0.000867359 0.000867359
  Force max component initial, final = 0.000217159 0.000217159
  Final line search alpha, max atom move = 0.015625 3.3931e-06
  Iterations, force evaluations = 1 7

Pair  time (%) = 3.39042e-05 (63.9617)
Neigh time (%) = 0 (0)
Comm  time (%) = 3.72145e-06 (7.02067)
Outpt time (%) = 0 (0)
Other time (%) = 1.53814e-05 (29.0176)

Nlocal:    18 ave 18 max 18 min
Histogram: 1 0 0 0 0 0 0 0 0 0
Nghost:    65 ave 65 max 65 min
Histogram: 1 0 0 0 0 0 0 0 0 0
Neighs:    162 ave 162 max 162 min
Histogram: 1 0 0 0 0 0 0 0 0 0

Total # of neighbors = 162
Ave neighs/atom = 9
Neighbor list builds = 0
Dangerous builds = 0
        next i
jump SELF loop1
	read_dump orig.dump 0 x y
  orthogonal box = (0 0 -0.280613) to (3.36736 5.83244 0.280613)
  18 atoms before read
  18 atoms in snapshot
  0 atoms purged
  18 atoms replaced
  0 atoms trimmed
  0 atoms added
  18 atoms after read
        variable stretch equal 1+$i*${strainstep}
        variable stretch equal 1+4*${strainstep}
        variable stretch equal 1+4*-0.0005
        change_box all ${direction} scale ${stretch} remap
        change_box all y scale ${stretch} remap
        change_box all y scale 0.998 remap
  orthogonal box = (0 0.00583244 -0.280613) to (3.36736 5.82661 0.280613)
        min_style ${style}
        min_style cg
        minimize ${etol} ${ftol} ${maxiter} ${maxeval}
        minimize 1e-12 ${ftol} ${maxiter} ${maxeval}
        minimize 1e-12 1e-08 ${maxiter} ${maxeval}
        minimize 1e-12 1e-08 10000 ${maxeval}
        minimize 1e-12 1e-08 10000 20000
WARNING: Resetting reneighboring criteria during minimization (../min.cpp:168)
Memory usage per processor = 3.35099 Mbytes
Step PotEng Pxx Pyy Pxy Lx Ly Lz 
       0   -53.998711  0.021838761  0.064531626 6.1260937e-18      3.36736    5.8207751   0.56122687 
       1   -53.998711  0.021838761  0.064531626 6.1260937e-18      3.36736    5.8207751   0.56122687 
Loop time of 5.29271e-05 on 1 procs for 1 steps with 18 atoms

Minimization stats:
  Stopping criterion = linesearch alpha is zero
  Energy initial, next-to-last, final = 
        -53.9987112769     -53.9987112769     -53.9987112769
  Force two-norm initial, final = 0.000865943 0.000865943
  Force max component initial, final = 0.000216723 0.000216723
  Final line search alpha, max atom move = 0.015625 3.3863e-06
  Iterations, force evaluations = 1 7

Pair  time (%) = 3.48408e-05 (65.8279)
Neigh time (%) = 0 (0)
Comm  time (%) = 4.97198e-06 (9.39403)
Outpt time (%) = 0 (0)
Other time (%) = 1.31143e-05 (24.7781)

Nlocal:    18 ave 18 max 18 min
Histogram: 1 0 0 0 0 0 0 0 0 0
Nghost:    65 ave 65 max 65 min
Histogram: 1 0 0 0 0 0 0 0 0 0
Neighs:    162 ave 162 max 162 min
Histogram: 1 0 0 0 0 0 0 0 0 0

Total # of neighbors = 162
Ave neighs/atom = 9
Neighbor list builds = 0
Dangerous builds = 0
        next i
jump SELF loop1
	read_dump orig.dump 0 x y
  orthogonal box = (0 0 -0.280613) to (3.36736 5.83244 0.280613)
  18 atoms before read
  18 atoms in snapshot
  0 atoms purged
  18 atoms replaced
  0 atoms trimmed
  0 atoms added
  18 atoms after read
        variable stretch equal 1+$i*${strainstep}
        variable stretch equal 1+5*${strainstep}
        variable stretch equal 1+5*-0.0005
        change_box all ${direction} scale ${stretch} remap
        change_box all y scale ${stretch} remap
        change_box all y scale 0.9975 remap
  orthogonal box = (0 0.00729055 -0.280613) to (3.36736 5.82515 0.280613)
        min_style ${style}
        min_style cg
        minimize ${etol} ${ftol} ${maxiter} ${maxeval}
        minimize 1e-12 ${ftol} ${maxiter} ${maxeval}
        minimize 1e-12 1e-08 ${maxiter} ${maxeval}
        minimize 1e-12 1e-08 10000 ${maxeval}
        minimize 1e-12 1e-08 10000 20000
WARNING: Resetting reneighboring criteria during minimization (../min.cpp:168)
Memory usage per processor = 3.35099 Mbytes
Step PotEng Pxx Pyy Pxy Lx Ly Lz 
       0   -53.997974  0.027294317  0.080751563 1.1305057e-16      3.36736    5.8178589   0.56122687 
       1   -53.997974  0.027294317  0.080751563 1.1305057e-16      3.36736    5.8178589   0.56122687 
Loop time of 5.30978e-05 on 1 procs for 1 steps with 18 atoms

Minimization stats:
  Stopping criterion = linesearch alpha is zero
  Energy initial, next-to-last, final = 
        -53.9979740887     -53.9979740887     -53.9979740887
  Force two-norm initial, final = 0.000870209 0.000870209
  Force max component initial, final = 0.00021799 0.00021799
  Final line search alpha, max atom move = 0.015625 3.4061e-06
  Iterations, force evaluations = 1 7

Pair  time (%) = 3.31082e-05 (62.3531)
Neigh time (%) = 0 (0)
Comm  time (%) = 5.32123e-06 (10.0216)
Outpt time (%) = 0 (0)
Other time (%) = 1.46684e-05 (27.6253)

Nlocal:    18 ave 18 max 18 min
Histogram: 1 0 0 0 0 0 0 0 0 0
Nghost:    65 ave 65 max 65 min
Histogram: 1 0 0 0 0 0 0 0 0 0
Neighs:    162 ave 162 max 162 min
Histogram: 1 0 0 0 0 0 0 0 0 0

Total # of neighbors = 162
Ave neighs/atom = 9
Neighbor list builds = 0
Dangerous builds = 0
        next i
jump SELF loop1
	read_dump orig.dump 0 x y
  orthogonal box = (0 0 -0.280613) to (3.36736 5.83244 0.280613)
  18 atoms before read
  18 atoms in snapshot
  0 atoms purged
  18 atoms replaced
  0 atoms trimmed
  0 atoms added
  18 atoms after read
        variable stretch equal 1+$i*${strainstep}
        variable stretch equal 1+6*${strainstep}
        variable stretch equal 1+6*-0.0005
        change_box all ${direction} scale ${stretch} remap
        change_box all y scale ${stretch} remap
        change_box all y scale 0.997 remap
  orthogonal box = (0 0.00874866 -0.280613) to (3.36736 5.82369 0.280613)
        min_style ${style}
        min_style cg
        minimize ${etol} ${ftol} ${maxiter} ${maxeval}
        minimize 1e-12 ${ftol} ${maxiter} ${maxeval}
        minimize 1e-12 1e-08 ${maxiter} ${maxeval}
        minimize 1e-12 1e-08 10000 ${maxeval}
        minimize 1e-12 1e-08 10000 20000
WARNING: Resetting reneighboring criteria during minimization (../min.cpp:168)
Memory usage per processor = 3.35099 Mbytes
Step PotEng Pxx Pyy Pxy Lx Ly Lz 
       0   -53.997105   0.03277753  0.097021365 7.9483775e-18      3.36736    5.8149427   0.56122687 
       1   -53.997105   0.03277753  0.097021365 7.9483775e-18      3.36736    5.8149427   0.56122687 
Loop time of 5.39662e-05 on 1 procs for 1 steps with 18 atoms

Minimization stats:
  Stopping criterion = linesearch alpha is zero
  Energy initial, next-to-last, final = 
        -53.9971047551     -53.9971047551     -53.9971047551
  Force two-norm initial, final = 0.000874478 0.000874478
  Force max component initial, final = 0.000219257 0.000219257
  Final line search alpha, max atom move = 0.015625 3.42589e-06
  Iterations, force evaluations = 1 7

Pair  time (%) = 3.38627e-05 (62.7479)
Neigh time (%) = 0 (0)
Comm  time (%) = 4.59189e-06 (8.50882)
Outpt time (%) = 0 (0)
Other time (%) = 1.55116e-05 (28.7433)

Nlocal:    18 ave 18 max 18 min
Histogram: 1 0 0 0 0 0 0 0 0 0
Nghost:    65 ave 65 max 65 min
Histogram: 1 0 0 0 0 0 0 0 0 0
Neighs:    162 ave 162 max 162 min
Histogram: 1 0 0 0 0 0 0 0 0 0

Total # of neighbors = 162
Ave neighs/atom = 9
Neighbor list builds = 0
Dangerous builds = 0
        next i
jump SELF loop1
	read_dump orig.dump 0 x y
  orthogonal box = (0 0 -0.280613) to (3.36736 5.83244 0.280613)
  18 atoms before read
  18 atoms in snapshot
  0 atoms purged
  18 atoms replaced
  0 atoms trimmed
  0 atoms added
  18 atoms after read
        variable stretch equal 1+$i*${strainstep}
        variable stretch equal 1+7*${strainstep}
        variable stretch equal 1+7*-0.0005
        change_box all ${direction} scale ${stretch} remap
        change_box all y scale ${stretch} remap
        change_box all y scale 0.9965 remap
  orthogonal box = (0 0.0102068 -0.280613) to (3.36736 5.82223 0.280613)
        min_style ${style}
        min_style cg
        minimize ${etol} ${ftol} ${maxiter} ${maxeval}
        minimize 1e-12 ${ftol} ${maxiter} ${maxeval}
        minimize 1e-12 1e-08 ${maxiter} ${maxeval}
        minimize 1e-12 1e-08 10000 ${maxeval}
        minimize 1e-12 1e-08 10000 20000
WARNING: Resetting reneighboring criteria during minimization (../min.cpp:168)
Memory usage per processor = 3.35099 Mbytes
Step PotEng Pxx Pyy Pxy Lx Ly Lz 
       0   -53.996103  0.038288412   0.11334084 -5.0516634e-17      3.36736    5.8120265   0.56122687 
       1   -53.996103  0.038288412   0.11334084 -5.0516634e-17      3.36736    5.8120265   0.56122687 
Loop time of 4.50617e-05 on 1 procs for 1 steps with 18 atoms

Minimization stats:
  Stopping criterion = linesearch alpha is zero
  Energy initial, next-to-last, final = 
        -53.9961033099     -53.9961033099     -53.9961033099
  Force two-norm initial, final = 0.000878791 0.000878791
  Force max component initial, final = 0.000220536 0.000220536
  Final line search alpha, max atom move = 0.015625 3.44587e-06
  Iterations, force evaluations = 1 7

Pair  time (%) = 3.1196e-05 (69.2296)
Neigh time (%) = 0 (0)
Comm  time (%) = 6.11972e-06 (13.5808)
Outpt time (%) = 0 (0)
Other time (%) = 7.74593e-06 (17.1896)

Nlocal:    18 ave 18 max 18 min
Histogram: 1 0 0 0 0 0 0 0 0 0
Nghost:    65 ave 65 max 65 min
Histogram: 1 0 0 0 0 0 0 0 0 0
Neighs:    162 ave 162 max 162 min
Histogram: 1 0 0 0 0 0 0 0 0 0

Total # of neighbors = 162
Ave neighs/atom = 9
Neighbor list builds = 0
Dangerous builds = 0
        next i
jump SELF loop1
	read_dump orig.dump 0 x y
  orthogonal box = (0 0 -0.280613) to (3.36736 5.83244 0.280613)
  18 atoms before read
  18 atoms in snapshot
  0 atoms purged
  18 atoms replaced
  0 atoms trimmed
  0 atoms added
  18 atoms after read
        variable stretch equal 1+$i*${strainstep}
        variable stretch equal 1+8*${strainstep}
        variable stretch equal 1+8*-0.0005
        change_box all ${direction} scale ${stretch} remap
        change_box all y scale ${stretch} remap
        change_box all y scale 0.996 remap
  orthogonal box = (0 0.0116649 -0.280613) to (3.36736 5.82078 0.280613)
        min_style ${style}
        min_style cg
        minimize ${etol} ${ftol} ${maxiter} ${maxeval}
        minimize 1e-12 ${ftol} ${maxiter} ${maxeval}
        minimize 1e-12 1e-08 ${maxiter} ${maxeval}
        minimize 1e-12 1e-08 10000 ${maxeval}
        minimize 1e-12 1e-08 10000 20000
WARNING: Resetting reneighboring criteria during minimization (../min.cpp:168)
Memory usage per processor = 3.35099 Mbytes
Step PotEng Pxx Pyy Pxy Lx Ly Lz 
       0   -53.994882  0.043843507   0.12975901 8.1432809e-17      3.36736    5.8091102   0.56122687 
       1   -53.994882  0.043843507   0.12975901 8.1432809e-17      3.36736    5.8091102   0.56122687 
Loop time of 5.29619e-05 on 1 procs for 1 steps with 18 atoms

Minimization stats:
  Stopping criterion = linesearch alpha is zero
  Energy initial, next-to-last, final = 
        -53.9948823254     -53.9948823254     -53.9948823254
  Force two-norm initial, final = 0.000877345 0.000877345
  Force max component initial, final = 0.000220092 0.000220092
  Final line search alpha, max atom move = 0.015625 3.43894e-06
  Iterations, force evaluations = 1 7

Pair  time (%) = 3.37879e-05 (63.7967)
Neigh time (%) = 0 (0)
Comm  time (%) = 6.68096e-06 (12.6147)
Outpt time (%) = 0 (0)
Other time (%) = 1.2493e-05 (23.5887)

Nlocal:    18 ave 18 max 18 min
Histogram: 1 0 0 0 0 0 0 0 0 0
Nghost:    65 ave 65 max 65 min
Histogram: 1 0 0 0 0 0 0 0 0 0
Neighs:    162 ave 162 max 162 min
Histogram: 1 0 0 0 0 0 0 0 0 0

Total # of neighbors = 162
Ave neighs/atom = 9
Neighbor list builds = 0
Dangerous builds = 0
        next i
jump SELF loop1
	read_dump orig.dump 0 x y
  orthogonal box = (0 0 -0.280613) to (3.36736 5.83244 0.280613)
  18 atoms before read
  18 atoms in snapshot
  0 atoms purged
  18 atoms replaced
  0 atoms trimmed
  0 atoms added
  18 atoms after read
        variable stretch equal 1+$i*${strainstep}
        variable stretch equal 1+9*${strainstep}
        variable stretch equal 1+9*-0.0005
        change_box all ${direction} scale ${stretch} remap
        change_box all y scale ${stretch} remap
        change_box all y scale 0.9955 remap
  orthogonal box = (0 0.013123 -0.280613) to (3.36736 5.81932 0.280613)
        min_style ${style}
        min_style cg
        minimize ${etol} ${ftol} ${maxiter} ${maxeval}
        minimize 1e-12 ${ftol} ${maxiter} ${maxeval}
        minimize 1e-12 1e-08 ${maxiter} ${maxeval}
        minimize 1e-12 1e-08 10000 ${maxeval}
        minimize 1e-12 1e-08 10000 20000
WARNING: Resetting reneighboring criteria during minimization (../min.cpp:168)
Memory usage per processor = 3.35099 Mbytes
Step PotEng Pxx Pyy Pxy Lx Ly Lz 
       0   -53.993519  0.049428252   0.14623219 -9.010921e-17      3.36736     5.806194   0.56122687 
       1   -53.993519  0.049428252   0.14623219 -9.010921e-17      3.36736     5.806194   0.56122687 
Loop time of 5.29746e-05 on 1 procs for 1 steps with 18 atoms

Minimization stats:
  Stopping criterion = linesearch alpha is zero
  Energy initial, next-to-last, final = 
        -53.9935192651     -53.9935192651     -53.9935192651
  Force two-norm initial, final = 0.000881674 0.000881674
  Force max component initial, final = 0.000221375 0.000221375
  Final line search alpha, max atom move = 0.015625 3.45898e-06
  Iterations, force evaluations = 1 7

Pair  time (%) = 3.49359e-05 (65.9484)
Neigh time (%) = 0 (0)
Comm  time (%) = 5.83101e-06 (11.0072)
Outpt time (%) = 0 (0)
Other time (%) = 1.22077e-05 (23.0444)

Nlocal:    18 ave 18 max 18 min
Histogram: 1 0 0 0 0 0 0 0 0 0
Nghost:    65 ave 65 max 65 min
Histogram: 1 0 0 0 0 0 0 0 0 0
Neighs:    162 ave 162 max 162 min
Histogram: 1 0 0 0 0 0 0 0 0 0

Total # of neighbors = 162
Ave neighs/atom = 9
Neighbor list builds = 0
Dangerous builds = 0
        next i
jump SELF loop1
	read_dump orig.dump 0 x y
  orthogonal box = (0 0 -0.280613) to (3.36736 5.83244 0.280613)
  18 atoms before read
  18 atoms in snapshot
  0 atoms purged
  18 atoms replaced
  0 atoms trimmed
  0 atoms added
  18 atoms after read
        variable stretch equal 1+$i*${strainstep}
        variable stretch equal 1+10*${strainstep}
        variable stretch equal 1+10*-0.0005
        change_box all ${direction} scale ${stretch} remap
        change_box all y scale ${stretch} remap
        change_box all y scale 0.995 remap
  orthogonal box = (0 0.0145811 -0.280613) to (3.36736 5.81786 0.280613)
        min_style ${style}
        min_style cg
        minimize ${etol} ${ftol} ${maxiter} ${maxeval}
        minimize 1e-12 ${ftol} ${maxiter} ${maxeval}
        minimize 1e-12 1e-08 ${maxiter} ${maxeval}
        minimize 1e-12 1e-08 10000 ${maxeval}
        minimize 1e-12 1e-08 10000 20000
WARNING: Resetting reneighboring criteria during minimization (../min.cpp:168)
Memory usage per processor = 3.35099 Mbytes
Step PotEng Pxx Pyy Pxy Lx Ly Lz 
       0   -53.992023  0.055041075   0.16275549 -1.351818e-16      3.36736    5.8032778   0.56122687 
       1   -53.992023  0.055041075   0.16275549 -1.351818e-16      3.36736    5.8032778   0.56122687 
Loop time of 5.29477e-05 on 1 procs for 1 steps with 18 atoms

Minimization stats:
  Stopping criterion = linesearch alpha is zero
  Energy initial, next-to-last, final = 
        -53.9920225932     -53.9920225932     -53.9920225932
  Force two-norm initial, final = 0.000886008 0.000886008
  Force max component initial, final = 0.000222658 0.000222658
  Final line search alpha, max atom move = 0.015625 3.47903e-06
  Iterations, force evaluations = 1 7

Pair  time (%) = 3.57212e-05 (67.4652)
Neigh time (%) = 0 (0)
Comm  time (%) = 4.97105e-06 (9.38861)
Outpt time (%) = 0 (0)
Other time (%) = 1.22554e-05 (23.1462)

Nlocal:    18 ave 18 max 18 min
Histogram: 1 0 0 0 0 0 0 0 0 0
Nghost:    65 ave 65 max 65 min
Histogram: 1 0 0 0 0 0 0 0 0 0
Neighs:    162 ave 162 max 162 min
Histogram: 1 0 0 0 0 0 0 0 0 0

Total # of neighbors = 162
Ave neighs/atom = 9
Neighbor list builds = 0
Dangerous builds = 0
        next i
jump SELF loop1
	read_dump orig.dump 0 x y
  orthogonal box = (0 0 -0.280613) to (3.36736 5.83244 0.280613)
  18 atoms before read
  18 atoms in snapshot
  0 atoms purged
  18 atoms replaced
  0 atoms trimmed
  0 atoms added
  18 atoms after read
        variable stretch equal 1+$i*${strainstep}
        variable stretch equal 1+11*${strainstep}
        variable stretch equal 1+11*-0.0005
        change_box all ${direction} scale ${stretch} remap
        change_box all y scale ${stretch} remap
        change_box all y scale 0.9945 remap
  orthogonal box = (0 0.0160392 -0.280613) to (3.36736 5.8164 0.280613)
        min_style ${style}
        min_style cg
        minimize ${etol} ${ftol} ${maxiter} ${maxeval}
        minimize 1e-12 ${ftol} ${maxiter} ${maxeval}
        minimize 1e-12 1e-08 ${maxiter} ${maxeval}
        minimize 1e-12 1e-08 10000 ${maxeval}
        minimize 1e-12 1e-08 10000 20000
WARNING: Resetting reneighboring criteria during minimization (../min.cpp:168)
Memory usage per processor = 3.35099 Mbytes
Step PotEng Pxx Pyy Pxy Lx Ly Lz 
       0   -53.990342  0.060691397   0.17935662 -1.2775463e-16      3.36736    5.8003616   0.56122687 
       1   -53.990342  0.060691397   0.17935662 -1.2775463e-16      3.36736    5.8003616   0.56122687 
Loop time of 5.39288e-05 on 1 procs for 1 steps with 18 atoms

Minimization stats:
  Stopping criterion = linesearch alpha is zero
  Energy initial, next-to-last, final = 
         -53.990342188      -53.990342188      -53.990342188
  Force two-norm initial, final = 0.000884543 0.000884543
  Force max component initial, final = 0.000222209 0.000222209
  Final line search alpha, max atom move = 0.015625 3.47202e-06
  Iterations, force evaluations = 1 7

Pair  time (%) = 3.28947e-05 (60.9964)
Neigh time (%) = 0 (0)
Comm  time (%) = 6.60971e-06 (12.2564)
Outpt time (%) = 0 (0)
Other time (%) = 1.44244e-05 (26.7472)

Nlocal:    18 ave 18 max 18 min
Histogram: 1 0 0 0 0 0 0 0 0 0
Nghost:    65 ave 65 max 65 min
Histogram: 1 0 0 0 0 0 0 0 0 0
Neighs:    162 ave 162 max 162 min
Histogram: 1 0 0 0 0 0 0 0 0 0

Total # of neighbors = 162
Ave neighs/atom = 9
Neighbor list builds = 0
Dangerous builds = 0
        next i
jump SELF loop1
	read_dump orig.dump 0 x y
  orthogonal box = (0 0 -0.280613) to (3.36736 5.83244 0.280613)
  18 atoms before read
  18 atoms in snapshot
  0 atoms purged
  18 atoms replaced
  0 atoms trimmed
  0 atoms added
  18 atoms after read
        variable stretch equal 1+$i*${strainstep}
        variable stretch equal 1+12*${strainstep}
        variable stretch equal 1+12*-0.0005
        change_box all ${direction} scale ${stretch} remap
        change_box all y scale ${stretch} remap
        change_box all y scale 0.994 remap
  orthogonal box = (0 0.0174973 -0.280613) to (3.36736 5.81494 0.280613)
        min_style ${style}
        min_style cg
        minimize ${etol} ${ftol} ${maxiter} ${maxeval}
        minimize 1e-12 ${ftol} ${maxiter} ${maxeval}
        minimize 1e-12 1e-08 ${maxiter} ${maxeval}
        minimize 1e-12 1e-08 10000 ${maxeval}
        minimize 1e-12 1e-08 10000 20000
WARNING: Resetting reneighboring criteria during minimization (../min.cpp:168)
Memory usage per processor = 3.35099 Mbytes
Step PotEng Pxx Pyy Pxy Lx Ly Lz 
       0    -53.98848  0.066378992   0.19603461 -1.5672878e-16      3.36736    5.7974454   0.56122687 
       1    -53.98848  0.066378992   0.19603461 -1.5672878e-16      3.36736    5.7974454   0.56122687 
Loop time of 5.29415e-05 on 1 procs for 1 steps with 18 atoms

Minimization stats:
  Stopping criterion = linesearch alpha is zero
  Energy initial, next-to-last, final = 
        -53.9884797318     -53.9884797318     -53.9884797318
  Force two-norm initial, final = 0.000888912 0.000888912
  Force max component initial, final = 0.000223502 0.000223502
  Final line search alpha, max atom move = 0.015625 3.49222e-06
  Iterations, force evaluations = 1 7

Pair  time (%) = 3.41025e-05 (64.4154)
Neigh time (%) = 0 (0)
Comm  time (%) = 6.02519e-06 (11.3808)
Outpt time (%) = 0 (0)
Other time (%) = 1.28138e-05 (24.2038)

Nlocal:    18 ave 18 max 18 min
Histogram: 1 0 0 0 0 0 0 0 0 0
Nghost:    65 ave 65 max 65 min
Histogram: 1 0 0 0 0 0 0 0 0 0
Neighs:    162 ave 162 max 162 min
Histogram: 1 0 0 0 0 0 0 0 0 0

Total # of neighbors = 162
Ave neighs/atom = 9
Neighbor list builds = 0
Dangerous builds = 0
        next i
jump SELF loop1
	read_dump orig.dump 0 x y
  orthogonal box = (0 0 -0.280613) to (3.36736 5.83244 0.280613)
  18 atoms before read
  18 atoms in snapshot
  0 atoms purged
  18 atoms replaced
  0 atoms trimmed
  0 atoms added
  18 atoms after read
        variable stretch equal 1+$i*${strainstep}
        variable stretch equal 1+13*${strainstep}
        variable stretch equal 1+13*-0.0005
        change_box all ${direction} scale ${stretch} remap
        change_box all y scale ${stretch} remap
        change_box all y scale 0.9935 remap
  orthogonal box = (0 0.0189554 -0.280613) to (3.36736 5.81348 0.280613)
        min_style ${style}
        min_style cg
        minimize ${etol} ${ftol} ${maxiter} ${maxeval}
        minimize 1e-12 ${ftol} ${maxiter} ${maxeval}
        minimize 1e-12 1e-08 ${maxiter} ${maxeval}
        minimize 1e-12 1e-08 10000 ${maxeval}
        minimize 1e-12 1e-08 10000 20000
WARNING: Resetting reneighboring criteria during minimization (../min.cpp:168)
Memory usage per processor = 3.35099 Mbytes
Step PotEng Pxx Pyy Pxy Lx Ly Lz 
       0   -53.986482  0.072095044   0.21276304 -1.8951193e-16      3.36736    5.7945291   0.56122687 
       1   -53.986482  0.072095044   0.21276304 -1.8951193e-16      3.36736    5.7945291   0.56122687 
Loop time of 5.41136e-05 on 1 procs for 1 steps with 18 atoms

Minimization stats:
  Stopping criterion = linesearch alpha is zero
  Energy initial, next-to-last, final = 
        -53.9864822051     -53.9864822051     -53.9864822051
  Force two-norm initial, final = 0.0008933 0.0008933
  Force max component initial, final = 0.000224799 0.000224799
  Final line search alpha, max atom move = 0.015625 3.51249e-06
  Iterations, force evaluations = 1 7

Pair  time (%) = 3.28957e-05 (60.7901)
Neigh time (%) = 0 (0)
Comm  time (%) = 6.32706e-06 (11.6922)
Outpt time (%) = 0 (0)
Other time (%) = 1.48908e-05 (27.5177)

Nlocal:    18 ave 18 max 18 min
Histogram: 1 0 0 0 0 0 0 0 0 0
Nghost:    65 ave 65 max 65 min
Histogram: 1 0 0 0 0 0 0 0 0 0
Neighs:    162 ave 162 max 162 min
Histogram: 1 0 0 0 0 0 0 0 0 0

Total # of neighbors = 162
Ave neighs/atom = 9
Neighbor list builds = 0
Dangerous builds = 0
        next i
jump SELF loop1
	read_dump orig.dump 0 x y
  orthogonal box = (0 0 -0.280613) to (3.36736 5.83244 0.280613)
  18 atoms before read
  18 atoms in snapshot
  0 atoms purged
  18 atoms replaced
  0 atoms trimmed
  0 atoms added
  18 atoms after read
        variable stretch equal 1+$i*${strainstep}
        variable stretch equal 1+14*${strainstep}
        variable stretch equal 1+14*-0.0005
        change_box all ${direction} scale ${stretch} remap
        change_box all y scale ${stretch} remap
        change_box all y scale 0.993 remap
  orthogonal box = (0 0.0204135 -0.280613) to (3.36736 5.81203 0.280613)
        min_style ${style}
        min_style cg
        minimize ${etol} ${ftol} ${maxiter} ${maxeval}
        minimize 1e-12 ${ftol} ${maxiter} ${maxeval}
        minimize 1e-12 1e-08 ${maxiter} ${maxeval}
        minimize 1e-12 1e-08 10000 ${maxeval}
        minimize 1e-12 1e-08 10000 20000
WARNING: Resetting reneighboring criteria during minimization (../min.cpp:168)
Memory usage per processor = 3.35099 Mbytes
Step PotEng Pxx Pyy Pxy Lx Ly Lz 
       0   -53.984336  0.077842057   0.22954909 -1.3704543e-16      3.36736    5.7916129   0.56122687 
       1   -53.984336  0.077842057   0.22954909 -1.3704543e-16      3.36736    5.7916129   0.56122687 
Loop time of 6.30665e-05 on 1 procs for 1 steps with 18 atoms

Minimization stats:
  Stopping criterion = linesearch alpha is zero
  Energy initial, next-to-last, final = 
        -53.9843364171     -53.9843364171     -53.9843364171
  Force two-norm initial, final = 0.000891816 0.000891816
  Force max component initial, final = 0.000224345 0.000224345
  Final line search alpha, max atom move = 0.015625 3.50539e-06
  Iterations, force evaluations = 1 7

Pair  time (%) = 3.75836e-05 (59.5937)
Neigh time (%) = 0 (0)
Comm  time (%) = 5.64975e-06 (8.95841)
Outpt time (%) = 0 (0)
Other time (%) = 1.98331e-05 (31.4479)

Nlocal:    18 ave 18 max 18 min
Histogram: 1 0 0 0 0 0 0 0 0 0
Nghost:    65 ave 65 max 65 min
Histogram: 1 0 0 0 0 0 0 0 0 0
Neighs:    162 ave 162 max 162 min
Histogram: 1 0 0 0 0 0 0 0 0 0

Total # of neighbors = 162
Ave neighs/atom = 9
Neighbor list builds = 0
Dangerous builds = 0
        next i
jump SELF loop1
	read_dump orig.dump 0 x y
  orthogonal box = (0 0 -0.280613) to (3.36736 5.83244 0.280613)
  18 atoms before read
  18 atoms in snapshot
  0 atoms purged
  18 atoms replaced
  0 atoms trimmed
  0 atoms added
  18 atoms after read
        variable stretch equal 1+$i*${strainstep}
        variable stretch equal 1+15*${strainstep}
        variable stretch equal 1+15*-0.0005
        change_box all ${direction} scale ${stretch} remap
        change_box all y scale ${stretch} remap
        change_box all y scale 0.9925 remap
  orthogonal box = (0 0.0218716 -0.280613) to (3.36736 5.81057 0.280613)
        min_style ${style}
        min_style cg
        minimize ${etol} ${ftol} ${maxiter} ${maxeval}
        minimize 1e-12 ${ftol} ${maxiter} ${maxeval}
        minimize 1e-12 1e-08 ${maxiter} ${maxeval}
        minimize 1e-12 1e-08 10000 ${maxeval}
        minimize 1e-12 1e-08 10000 20000
WARNING: Resetting reneighboring criteria during minimization (../min.cpp:168)
Memory usage per processor = 3.35099 Mbytes
Step PotEng Pxx Pyy Pxy Lx Ly Lz 
       0   -53.981969  0.083633958   0.24643368 -1.5971612e-17      3.36736    5.7886967   0.56122687 
       1   -53.981969  0.083633958   0.24643368 -1.5971612e-17      3.36736    5.7886967   0.56122687 
Loop time of 5.91164e-05 on 1 procs for 1 steps with 18 atoms

Minimization stats:
  Stopping criterion = linesearch alpha is zero
  Energy initial, next-to-last, final = 
        -53.9819685392     -53.9819685392     -53.9819685392
  Force two-norm initial, final = 0.00089622 0.00089622
  Force max component initial, final = 0.000225646 0.000225646
  Final line search alpha, max atom move = 0.0078125 1.76286e-06
  Iterations, force evaluations = 1 8

Pair  time (%) = 3.87348e-05 (65.5229)
Neigh time (%) = 0 (0)
Comm  time (%) = 6.09097e-06 (10.3033)
Outpt time (%) = 0 (0)
Other time (%) = 1.42907e-05 (24.1738)

Nlocal:    18 ave 18 max 18 min
Histogram: 1 0 0 0 0 0 0 0 0 0
Nghost:    65 ave 65 max 65 min
Histogram: 1 0 0 0 0 0 0 0 0 0
Neighs:    162 ave 162 max 162 min
Histogram: 1 0 0 0 0 0 0 0 0 0

Total # of neighbors = 162
Ave neighs/atom = 9
Neighbor list builds = 0
Dangerous builds = 0
        next i
jump SELF loop1
	read_dump orig.dump 0 x y
  orthogonal box = (0 0 -0.280613) to (3.36736 5.83244 0.280613)
  18 atoms before read
  18 atoms in snapshot
  0 atoms purged
  18 atoms replaced
  0 atoms trimmed
  0 atoms added
  18 atoms after read
        variable stretch equal 1+$i*${strainstep}
        variable stretch equal 1+16*${strainstep}
        variable stretch equal 1+16*-0.0005
        change_box all ${direction} scale ${stretch} remap
        change_box all y scale ${stretch} remap
        change_box all y scale 0.992 remap
  orthogonal box = (0 0.0233298 -0.280613) to (3.36736 5.80911 0.280613)
        min_style ${style}
        min_style cg
        minimize ${etol} ${ftol} ${maxiter} ${maxeval}
        minimize 1e-12 ${ftol} ${maxiter} ${maxeval}
        minimize 1e-12 1e-08 ${maxiter} ${maxeval}
        minimize 1e-12 1e-08 10000 ${maxeval}
        minimize 1e-12 1e-08 10000 20000
WARNING: Resetting reneighboring criteria during minimization (../min.cpp:168)
Memory usage per processor = 3.35099 Mbytes
Step PotEng Pxx Pyy Pxy Lx Ly Lz 
       0   -53.979464  0.089454698   0.26336903 -8.5922335e-17      3.36736    5.7857805   0.56122687 
       1   -53.979464  0.089454698   0.26336903 -8.5922335e-17      3.36736    5.7857805   0.56122687 
Loop time of 5.9016e-05 on 1 procs for 1 steps with 18 atoms

Minimization stats:
  Stopping criterion = linesearch alpha is zero
  Energy initial, next-to-last, final = 
        -53.9794641423     -53.9794641423     -53.9794641423
  Force two-norm initial, final = 0.000900655 0.000900655
  Force max component initial, final = 0.000226956 0.000226956
  Final line search alpha, max atom move = 0.0078125 1.77309e-06
  Iterations, force evaluations = 1 8

Pair  time (%) = 3.7077e-05 (62.8253)
Neigh time (%) = 0 (0)
Comm  time (%) = 7.68283e-06 (13.0182)
Outpt time (%) = 0 (0)
Other time (%) = 1.42562e-05 (24.1565)

Nlocal:    18 ave 18 max 18 min
Histogram: 1 0 0 0 0 0 0 0 0 0
Nghost:    65 ave 65 max 65 min
Histogram: 1 0 0 0 0 0 0 0 0 0
Neighs:    162 ave 162 max 162 min
Histogram: 1 0 0 0 0 0 0 0 0 0

Total # of neighbors = 162
Ave neighs/atom = 9
Neighbor list builds = 0
Dangerous builds = 0
        next i
jump SELF loop1
	read_dump orig.dump 0 x y
  orthogonal box = (0 0 -0.280613) to (3.36736 5.83244 0.280613)
  18 atoms before read
  18 atoms in snapshot
  0 atoms purged
  18 atoms replaced
  0 atoms trimmed
  0 atoms added
  18 atoms after read
        variable stretch equal 1+$i*${strainstep}
        variable stretch equal 1+17*${strainstep}
        variable stretch equal 1+17*-0.0005
        change_box all ${direction} scale ${stretch} remap
        change_box all y scale ${stretch} remap
        change_box all y scale 0.9915 remap
  orthogonal box = (0 0.0247879 -0.280613) to (3.36736 5.80765 0.280613)
        min_style ${style}
        min_style cg
        minimize ${etol} ${ftol} ${maxiter} ${maxeval}
        minimize 1e-12 ${ftol} ${maxiter} ${maxeval}
        minimize 1e-12 1e-08 ${maxiter} ${maxeval}
        minimize 1e-12 1e-08 10000 ${maxeval}
        minimize 1e-12 1e-08 10000 20000
WARNING: Resetting reneighboring criteria during minimization (../min.cpp:168)
Memory usage per processor = 3.35099 Mbytes
Step PotEng Pxx Pyy Pxy Lx Ly Lz 
       0   -53.976823  0.095304297   0.28035499 1.5915062e-16      3.36736    5.7828643   0.56122687 
       1   -53.976823  0.095304297   0.28035499 1.5915062e-16      3.36736    5.7828643   0.56122687 
Loop time of 5.58897e-05 on 1 procs for 1 steps with 18 atoms

Minimization stats:
  Stopping criterion = linesearch alpha is zero
  Energy initial, next-to-last, final = 
        -53.9768233051     -53.9768233051     -53.9768233051
  Force two-norm initial, final = 0.000905109 0.000905109
  Force max component initial, final = 0.00022827 0.00022827
  Final line search alpha, max atom move = 0.0078125 1.78336e-06
  Iterations, force evaluations = 1 8

Pair  time (%) = 3.68874e-05 (66.0003)
Neigh time (%) = 0 (0)
Comm  time (%) = 5.21098e-06 (9.32369)
Outpt time (%) = 0 (0)
Other time (%) = 1.37914e-05 (24.676)

Nlocal:    18 ave 18 max 18 min
Histogram: 1 0 0 0 0 0 0 0 0 0
Nghost:    65 ave 65 max 65 min
Histogram: 1 0 0 0 0 0 0 0 0 0
Neighs:    162 ave 162 max 162 min
Histogram: 1 0 0 0 0 0 0 0 0 0

Total # of neighbors = 162
Ave neighs/atom = 9
Neighbor list builds = 0
Dangerous builds = 0
        next i
jump SELF loop1
	read_dump orig.dump 0 x y
  orthogonal box = (0 0 -0.280613) to (3.36736 5.83244 0.280613)
  18 atoms before read
  18 atoms in snapshot
  0 atoms purged
  18 atoms replaced
  0 atoms trimmed
  0 atoms added
  18 atoms after read
        variable stretch equal 1+$i*${strainstep}
        variable stretch equal 1+18*${strainstep}
        variable stretch equal 1+18*-0.0005
        change_box all ${direction} scale ${stretch} remap
        change_box all y scale ${stretch} remap
        change_box all y scale 0.991 remap
  orthogonal box = (0 0.026246 -0.280613) to (3.36736 5.80619 0.280613)
        min_style ${style}
        min_style cg
        minimize ${etol} ${ftol} ${maxiter} ${maxeval}
        minimize 1e-12 ${ftol} ${maxiter} ${maxeval}
        minimize 1e-12 1e-08 ${maxiter} ${maxeval}
        minimize 1e-12 1e-08 10000 ${maxeval}
        minimize 1e-12 1e-08 10000 20000
WARNING: Resetting reneighboring criteria during minimization (../min.cpp:168)
Memory usage per processor = 3.35099 Mbytes
Step PotEng Pxx Pyy Pxy Lx Ly Lz 
       0   -53.973968   0.10119743   0.29743456 -1.9374873e-16      3.36736     5.779948   0.56122687 
       1   -53.973968   0.10119743   0.29743456 -1.9374873e-16      3.36736     5.779948   0.56122687 
Loop time of 5.90945e-05 on 1 procs for 1 steps with 18 atoms

Minimization stats:
  Stopping criterion = linesearch alpha is zero
  Energy initial, next-to-last, final = 
        -53.9739679813     -53.9739679813     -53.9739679813
  Force two-norm initial, final = 0.000903594 0.000903594
  Force max component initial, final = 0.000227807 0.000227807
  Final line search alpha, max atom move = 0.0078125 1.77974e-06
  Iterations, force evaluations = 1 8

Pair  time (%) = 4.00684e-05 (67.8039)
Neigh time (%) = 0 (0)
Comm  time (%) = 6.08922e-06 (10.3042)
Outpt time (%) = 0 (0)
Other time (%) = 1.29369e-05 (21.8919)

Nlocal:    18 ave 18 max 18 min
Histogram: 1 0 0 0 0 0 0 0 0 0
Nghost:    65 ave 65 max 65 min
Histogram: 1 0 0 0 0 0 0 0 0 0
Neighs:    162 ave 162 max 162 min
Histogram: 1 0 0 0 0 0 0 0 0 0

Total # of neighbors = 162
Ave neighs/atom = 9
Neighbor list builds = 0
Dangerous builds = 0
        next i
jump SELF loop1
	read_dump orig.dump 0 x y
  orthogonal box = (0 0 -0.280613) to (3.36736 5.83244 0.280613)
  18 atoms before read
  18 atoms in snapshot
  0 atoms purged
  18 atoms replaced
  0 atoms trimmed
  0 atoms added
  18 atoms after read
        variable stretch equal 1+$i*${strainstep}
        variable stretch equal 1+19*${strainstep}
        variable stretch equal 1+19*-0.0005
        change_box all ${direction} scale ${stretch} remap
        change_box all y scale ${stretch} remap
        change_box all y scale 0.9905 remap
  orthogonal box = (0 0.0277041 -0.280613) to (3.36736 5.80474 0.280613)
        min_style ${style}
        min_style cg
        minimize ${etol} ${ftol} ${maxiter} ${maxeval}
        minimize 1e-12 ${ftol} ${maxiter} ${maxeval}
        minimize 1e-12 1e-08 ${maxiter} ${maxeval}
        minimize 1e-12 1e-08 10000 ${maxeval}
        minimize 1e-12 1e-08 10000 20000
WARNING: Resetting reneighboring criteria during minimization (../min.cpp:168)
Memory usage per processor = 3.35099 Mbytes
Step PotEng Pxx Pyy Pxy Lx Ly Lz 
       0   -53.970951   0.10712432   0.31457856 -9.2868656e-17      3.36736    5.7770318   0.56122687 
       1   -53.970951   0.10712432   0.31457856 -9.2868656e-17      3.36736    5.7770318   0.56122687 
Loop time of 7.80213e-05 on 1 procs for 1 steps with 18 atoms

Minimization stats:
  Stopping criterion = linesearch alpha is zero
  Energy initial, next-to-last, final = 
         -53.970950598      -53.970950598      -53.970950598
  Force two-norm initial, final = 0.000908076 0.000908076
  Force max component initial, final = 0.000229129 0.000229129
  Final line search alpha, max atom move = 0.0078125 1.79007e-06
  Iterations, force evaluations = 1 8

Pair  time (%) = 3.61488e-05 (46.332)
Neigh time (%) = 0 (0)
Comm  time (%) = 9.18435e-06 (11.7716)
Outpt time (%) = 0 (0)
Other time (%) = 3.26881e-05 (41.8964)

Nlocal:    18 ave 18 max 18 min
Histogram: 1 0 0 0 0 0 0 0 0 0
Nghost:    65 ave 65 max 65 min
Histogram: 1 0 0 0 0 0 0 0 0 0
Neighs:    162 ave 162 max 162 min
Histogram: 1 0 0 0 0 0 0 0 0 0

Total # of neighbors = 162
Ave neighs/atom = 9
Neighbor list builds = 0
Dangerous builds = 0
        next i
jump SELF loop1
	read_dump orig.dump 0 x y
  orthogonal box = (0 0 -0.280613) to (3.36736 5.83244 0.280613)
  18 atoms before read
  18 atoms in snapshot
  0 atoms purged
  18 atoms replaced
  0 atoms trimmed
  0 atoms added
  18 atoms after read
        variable stretch equal 1+$i*${strainstep}
        variable stretch equal 1+20*${strainstep}
        variable stretch equal 1+20*-0.0005
        change_box all ${direction} scale ${stretch} remap
        change_box all y scale ${stretch} remap
        change_box all y scale 0.99 remap
  orthogonal box = (0 0.0291622 -0.280613) to (3.36736 5.80328 0.280613)
        min_style ${style}
        min_style cg
        minimize ${etol} ${ftol} ${maxiter} ${maxeval}
        minimize 1e-12 ${ftol} ${maxiter} ${maxeval}
        minimize 1e-12 1e-08 ${maxiter} ${maxeval}
        minimize 1e-12 1e-08 10000 ${maxeval}
        minimize 1e-12 1e-08 10000 20000
WARNING: Resetting reneighboring criteria during minimization (../min.cpp:168)
Memory usage per processor = 3.35099 Mbytes
Step PotEng Pxx Pyy Pxy Lx Ly Lz 
       0   -53.967795   0.11308043   0.33177346 -3.0145838e-16      3.36736    5.7741156   0.56122687 
       1   -53.967795   0.11308043   0.33177346 -3.0145838e-16      3.36736    5.7741156   0.56122687 
Loop time of 5.9086e-05 on 1 procs for 1 steps with 18 atoms

Minimization stats:
  Stopping criterion = linesearch alpha is zero
  Energy initial, next-to-last, final = 
        -53.9677952481     -53.9677952481     -53.9677952481
  Force two-norm initial, final = 0.000912568 0.000912568
  Force max component initial, final = 0.000230453 0.000230453
  Final line search alpha, max atom move = 0.0078125 1.80042e-06
  Iterations, force evaluations = 1 8

Pair  time (%) = 3.90377e-05 (66.0692)
Neigh time (%) = 0 (0)
Comm  time (%) = 7.41181e-06 (12.5441)
Outpt time (%) = 0 (0)
Other time (%) = 1.26365e-05 (21.3867)

Nlocal:    18 ave 18 max 18 min
Histogram: 1 0 0 0 0 0 0 0 0 0
Nghost:    65 ave 65 max 65 min
Histogram: 1 0 0 0 0 0 0 0 0 0
Neighs:    162 ave 162 max 162 min
Histogram: 1 0 0 0 0 0 0 0 0 0

Total # of neighbors = 162
Ave neighs/atom = 9
Neighbor list builds = 0
Dangerous builds = 0
        next i
jump SELF loop1
	read_dump orig.dump 0 x y
  orthogonal box = (0 0 -0.280613) to (3.36736 5.83244 0.280613)
  18 atoms before read
  18 atoms in snapshot
  0 atoms purged
  18 atoms replaced
  0 atoms trimmed
  0 atoms added
  18 atoms after read
        variable stretch equal 1+$i*${strainstep}
        variable stretch equal 1+21*${strainstep}
        variable stretch equal 1+21*-0.0005
        change_box all ${direction} scale ${stretch} remap
        change_box all y scale ${stretch} remap
        change_box all y scale 0.9895 remap
  orthogonal box = (0 0.0306203 -0.280613) to (3.36736 5.80182 0.280613)
        min_style ${style}
        min_style cg
        minimize ${etol} ${ftol} ${maxiter} ${maxeval}
        minimize 1e-12 ${ftol} ${maxiter} ${maxeval}
        minimize 1e-12 1e-08 ${maxiter} ${maxeval}
        minimize 1e-12 1e-08 10000 ${maxeval}
        minimize 1e-12 1e-08 10000 20000
WARNING: Resetting reneighboring criteria during minimization (../min.cpp:168)
Memory usage per processor = 3.35099 Mbytes
Step PotEng Pxx Pyy Pxy Lx Ly Lz 
       0   -53.964459   0.11907375   0.34904244 -2.0629666e-16      3.36736    5.7711994   0.56122687 
       1   -53.964459   0.11907375   0.34904244 -2.0629666e-16      3.36736    5.7711994   0.56122687 
Loop time of 6.10787e-05 on 1 procs for 1 steps with 18 atoms

Minimization stats:
  Stopping criterion = linesearch alpha is zero
  Energy initial, next-to-last, final = 
        -53.9644594348     -53.9644594348     -53.9644594348
  Force two-norm initial, final = 0.000911033 0.000911033
  Force max component initial, final = 0.000229984 0.000229984
  Final line search alpha, max atom move = 0.0078125 1.79675e-06
  Iterations, force evaluations = 1 8

Pair  time (%) = 3.79052e-05 (62.0596)
Neigh time (%) = 0 (0)
Comm  time (%) = 8.8159e-06 (14.4337)
Outpt time (%) = 0 (0)
Other time (%) = 1.43576e-05 (23.5068)

Nlocal:    18 ave 18 max 18 min
Histogram: 1 0 0 0 0 0 0 0 0 0
Nghost:    65 ave 65 max 65 min
Histogram: 1 0 0 0 0 0 0 0 0 0
Neighs:    162 ave 162 max 162 min
Histogram: 1 0 0 0 0 0 0 0 0 0

Total # of neighbors = 162
Ave neighs/atom = 9
Neighbor list builds = 0
Dangerous builds = 0
        next i
jump SELF loop1
	read_dump orig.dump 0 x y
  orthogonal box = (0 0 -0.280613) to (3.36736 5.83244 0.280613)
  18 atoms before read
  18 atoms in snapshot
  0 atoms purged
  18 atoms replaced
  0 atoms trimmed
  0 atoms added
  18 atoms after read
        variable stretch equal 1+$i*${strainstep}
        variable stretch equal 1+22*${strainstep}
        variable stretch equal 1+22*-0.0005
        change_box all ${direction} scale ${stretch} remap
        change_box all y scale ${stretch} remap
        change_box all y scale 0.989 remap
  orthogonal box = (0 0.0320784 -0.280613) to (3.36736 5.80036 0.280613)
        min_style ${style}
        min_style cg
        minimize ${etol} ${ftol} ${maxiter} ${maxeval}
        minimize 1e-12 ${ftol} ${maxiter} ${maxeval}
        minimize 1e-12 1e-08 ${maxiter} ${maxeval}
        minimize 1e-12 1e-08 10000 ${maxeval}
        minimize 1e-12 1e-08 10000 20000
WARNING: Resetting reneighboring criteria during minimization (../min.cpp:168)
Memory usage per processor = 3.35099 Mbytes
Step PotEng Pxx Pyy Pxy Lx Ly Lz 
       0   -53.960923   0.12510824    0.3663968 2.3126228e-16      3.36736    5.7682832   0.56122687 
       1   -53.960923   0.12510824    0.3663968 2.3126228e-16      3.36736    5.7682832   0.56122687 
Loop time of 2.01029e-05 on 1 procs for 1 steps with 18 atoms

Minimization stats:
  Stopping criterion = linesearch alpha is zero
  Energy initial, next-to-last, final = 
        -53.9609230205     -53.9609230205     -53.9609230205
  Force two-norm initial, final = 0.000915562 0.000915562
  Force max component initial, final = 0.000231318 0.000231318
  Final line search alpha, max atom move = 0.0078125 1.80717e-06
  Iterations, force evaluations = 1 8

Pair  time (%) = 9.76701e-06 (48.585)
Neigh time (%) = 0 (0)
Comm  time (%) = 3.14298e-06 (15.6344)
Outpt time (%) = 0 (0)
Other time (%) = 7.19295e-06 (35.7806)

Nlocal:    18 ave 18 max 18 min
Histogram: 1 0 0 0 0 0 0 0 0 0
Nghost:    65 ave 65 max 65 min
Histogram: 1 0 0 0 0 0 0 0 0 0
Neighs:    162 ave 162 max 162 min
Histogram: 1 0 0 0 0 0 0 0 0 0

Total # of neighbors = 162
Ave neighs/atom = 9
Neighbor list builds = 0
Dangerous builds = 0
        next i
jump SELF loop1
	read_dump orig.dump 0 x y
  orthogonal box = (0 0 -0.280613) to (3.36736 5.83244 0.280613)
  18 atoms before read
  18 atoms in snapshot
  0 atoms purged
  18 atoms replaced
  0 atoms trimmed
  0 atoms added
  18 atoms after read
        variable stretch equal 1+$i*${strainstep}
        variable stretch equal 1+23*${strainstep}
        variable stretch equal 1+23*-0.0005
        change_box all ${direction} scale ${stretch} remap
        change_box all y scale ${stretch} remap
        change_box all y scale 0.9885 remap
  orthogonal box = (0 0.0335365 -0.280613) to (3.36736 5.7989 0.280613)
        min_style ${style}
        min_style cg
        minimize ${etol} ${ftol} ${maxiter} ${maxeval}
        minimize 1e-12 ${ftol} ${maxiter} ${maxeval}
        minimize 1e-12 1e-08 ${maxiter} ${maxeval}
        minimize 1e-12 1e-08 10000 ${maxeval}
        minimize 1e-12 1e-08 10000 20000
WARNING: Resetting reneighboring criteria during minimization (../min.cpp:168)
Memory usage per processor = 3.35099 Mbytes
Step PotEng Pxx Pyy Pxy Lx Ly Lz 
       0   -53.957247   0.13117232   0.38380229 -3.8614868e-17      3.36736    5.7653669   0.56122687 
       1   -53.957247   0.13117232   0.38380229 -3.8614868e-17      3.36736    5.7653669   0.56122687 
Loop time of 6.91101e-05 on 1 procs for 1 steps with 18 atoms

Minimization stats:
  Stopping criterion = linesearch alpha is zero
  Energy initial, next-to-last, final = 
        -53.9572473246     -53.9572473246     -53.9572473246
  Force two-norm initial, final = 0.000920095 0.000920095
  Force max component initial, final = 0.000232653 0.000232653
  Final line search alpha, max atom move = 0.0078125 1.8176e-06
  Iterations, force evaluations = 1 8

Pair  time (%) = 4.465e-05 (64.6072)
Neigh time (%) = 0 (0)
Comm  time (%) = 7.43766e-06 (10.762)
Outpt time (%) = 0 (0)
Other time (%) = 1.70224e-05 (24.6308)

Nlocal:    18 ave 18 max 18 min
Histogram: 1 0 0 0 0 0 0 0 0 0
Nghost:    65 ave 65 max 65 min
Histogram: 1 0 0 0 0 0 0 0 0 0
Neighs:    162 ave 162 max 162 min
Histogram: 1 0 0 0 0 0 0 0 0 0

Total # of neighbors = 162
Ave neighs/atom = 9
Neighbor list builds = 0
Dangerous builds = 0
        next i
jump SELF loop1
	read_dump orig.dump 0 x y
  orthogonal box = (0 0 -0.280613) to (3.36736 5.83244 0.280613)
  18 atoms before read
  18 atoms in snapshot
  0 atoms purged
  18 atoms replaced
  0 atoms trimmed
  0 atoms added
  18 atoms after read
        variable stretch equal 1+$i*${strainstep}
        variable stretch equal 1+24*${strainstep}
        variable stretch equal 1+24*-0.0005
        change_box all ${direction} scale ${stretch} remap
        change_box all y scale ${stretch} remap
        change_box all y scale 0.988 remap
  orthogonal box = (0 0.0349946 -0.280613) to (3.36736 5.79745 0.280613)
        min_style ${style}
        min_style cg
        minimize ${etol} ${ftol} ${maxiter} ${maxeval}
        minimize 1e-12 ${ftol} ${maxiter} ${maxeval}
        minimize 1e-12 1e-08 ${maxiter} ${maxeval}
        minimize 1e-12 1e-08 10000 ${maxeval}
        minimize 1e-12 1e-08 10000 20000
WARNING: Resetting reneighboring criteria during minimization (../min.cpp:168)
Memory usage per processor = 3.35099 Mbytes
Step PotEng Pxx Pyy Pxy Lx Ly Lz 
       0   -53.953425    0.1372673   0.40126249 1.0212738e-16      3.36736    5.7624507   0.56122687 
       1   -53.953425    0.1372673   0.40126249 1.0212738e-16      3.36736    5.7624507   0.56122687 
Loop time of 5.90956e-05 on 1 procs for 1 steps with 18 atoms

Minimization stats:
  Stopping criterion = linesearch alpha is zero
  Energy initial, next-to-last, final = 
        -53.9534254236     -53.9534254236     -53.9534254236
  Force two-norm initial, final = 0.00091854 0.00091854
  Force max component initial, final = 0.000232178 0.000232178
  Final line search alpha, max atom move = 0.0078125 1.81389e-06
  Iterations, force evaluations = 1 8

Pair  time (%) = 3.91244e-05 (66.2053)
Neigh time (%) = 0 (0)
Comm  time (%) = 6.10866e-06 (10.3369)
Outpt time (%) = 0 (0)
Other time (%) = 1.38625e-05 (23.4578)

Nlocal:    18 ave 18 max 18 min
Histogram: 1 0 0 0 0 0 0 0 0 0
Nghost:    65 ave 65 max 65 min
Histogram: 1 0 0 0 0 0 0 0 0 0
Neighs:    162 ave 162 max 162 min
Histogram: 1 0 0 0 0 0 0 0 0 0

Total # of neighbors = 162
Ave neighs/atom = 9
Neighbor list builds = 0
Dangerous builds = 0
        next i
jump SELF loop1
	read_dump orig.dump 0 x y
  orthogonal box = (0 0 -0.280613) to (3.36736 5.83244 0.280613)
  18 atoms before read
  18 atoms in snapshot
  0 atoms purged
  18 atoms replaced
  0 atoms trimmed
  0 atoms added
  18 atoms after read
        variable stretch equal 1+$i*${strainstep}
        variable stretch equal 1+25*${strainstep}
        variable stretch equal 1+25*-0.0005
        change_box all ${direction} scale ${stretch} remap
        change_box all y scale ${stretch} remap
        change_box all y scale 0.9875 remap
  orthogonal box = (0 0.0364527 -0.280613) to (3.36736 5.79599 0.280613)
        min_style ${style}
        min_style cg
        minimize ${etol} ${ftol} ${maxiter} ${maxeval}
        minimize 1e-12 ${ftol} ${maxiter} ${maxeval}
        minimize 1e-12 1e-08 ${maxiter} ${maxeval}
        minimize 1e-12 1e-08 10000 ${maxeval}
        minimize 1e-12 1e-08 10000 20000
WARNING: Resetting reneighboring criteria during minimization (../min.cpp:168)
Memory usage per processor = 3.35099 Mbytes
Step PotEng Pxx Pyy Pxy Lx Ly Lz 
       0   -53.949364   0.14341087   0.41882895 -1.8096566e-16      3.36736    5.7595345   0.56122687 
       1   -53.949364   0.14341087   0.41882895 -1.8096566e-16      3.36736    5.7595345   0.56122687 
Loop time of 5.91138e-05 on 1 procs for 1 steps with 18 atoms

Minimization stats:
  Stopping criterion = linesearch alpha is zero
  Energy initial, next-to-last, final = 
        -53.9493639012     -53.9493639012     -53.9493639012
  Force two-norm initial, final = 0.000923115 0.000923115
  Force max component initial, final = 0.000233524 0.000233524
  Final line search alpha, max atom move = 0.0078125 1.82441e-06
  Iterations, force evaluations = 1 8

Pair  time (%) = 3.79047e-05 (64.1216)
Neigh time (%) = 0 (0)
Comm  time (%) = 5.38456e-06 (9.10879)
Outpt time (%) = 0 (0)
Other time (%) = 1.58246e-05 (26.7697)

Nlocal:    18 ave 18 max 18 min
Histogram: 1 0 0 0 0 0 0 0 0 0
Nghost:    65 ave 65 max 65 min
Histogram: 1 0 0 0 0 0 0 0 0 0
Neighs:    162 ave 162 max 162 min
Histogram: 1 0 0 0 0 0 0 0 0 0

Total # of neighbors = 162
Ave neighs/atom = 9
Neighbor list builds = 0
Dangerous builds = 0
        next i
jump SELF loop1
	read_dump orig.dump 0 x y
  orthogonal box = (0 0 -0.280613) to (3.36736 5.83244 0.280613)
  18 atoms before read
  18 atoms in snapshot
  0 atoms purged
  18 atoms replaced
  0 atoms trimmed
  0 atoms added
  18 atoms after read
        variable stretch equal 1+$i*${strainstep}
        variable stretch equal 1+26*${strainstep}
        variable stretch equal 1+26*-0.0005
        change_box all ${direction} scale ${stretch} remap
        change_box all y scale ${stretch} remap
        change_box all y scale 0.987 remap
  orthogonal box = (0 0.0379109 -0.280613) to (3.36736 5.79453 0.280613)
        min_style ${style}
        min_style cg
        minimize ${etol} ${ftol} ${maxiter} ${maxeval}
        minimize 1e-12 ${ftol} ${maxiter} ${maxeval}
        minimize 1e-12 1e-08 ${maxiter} ${maxeval}
        minimize 1e-12 1e-08 10000 ${maxeval}
        minimize 1e-12 1e-08 10000 20000
WARNING: Resetting reneighboring criteria during minimization (../min.cpp:168)
Memory usage per processor = 3.35099 Mbytes
Step PotEng Pxx Pyy Pxy Lx Ly Lz 
       0   -53.945162   0.14958444   0.43644692 -3.590776e-18      3.36736    5.7566183   0.56122687 
       1   -53.945162   0.14958444   0.43644692 -3.590776e-18      3.36736    5.7566183   0.56122687 
Loop time of 5.79277e-05 on 1 procs for 1 steps with 18 atoms

Minimization stats:
  Stopping criterion = linesearch alpha is zero
  Energy initial, next-to-last, final = 
        -53.9451615165     -53.9451615165     -53.9451615165
  Force two-norm initial, final = 0.000927711 0.000927711
  Force max component initial, final = 0.000234875 0.000234875
  Final line search alpha, max atom move = 0.0078125 1.83496e-06
  Iterations, force evaluations = 1 8

Pair  time (%) = 3.69048e-05 (63.7084)
Neigh time (%) = 0 (0)
Comm  time (%) = 9.29204e-06 (16.0408)
Outpt time (%) = 0 (0)
Other time (%) = 1.17308e-05 (20.2508)

Nlocal:    18 ave 18 max 18 min
Histogram: 1 0 0 0 0 0 0 0 0 0
Nghost:    65 ave 65 max 65 min
Histogram: 1 0 0 0 0 0 0 0 0 0
Neighs:    162 ave 162 max 162 min
Histogram: 1 0 0 0 0 0 0 0 0 0

Total # of neighbors = 162
Ave neighs/atom = 9
Neighbor list builds = 0
Dangerous builds = 0
        next i
jump SELF loop1
	read_dump orig.dump 0 x y
  orthogonal box = (0 0 -0.280613) to (3.36736 5.83244 0.280613)
  18 atoms before read
  18 atoms in snapshot
  0 atoms purged
  18 atoms replaced
  0 atoms trimmed
  0 atoms added
  18 atoms after read
        variable stretch equal 1+$i*${strainstep}
        variable stretch equal 1+27*${strainstep}
        variable stretch equal 1+27*-0.0005
        change_box all ${direction} scale ${stretch} remap
        change_box all y scale ${stretch} remap
        change_box all y scale 0.9865 remap
  orthogonal box = (0 0.039369 -0.280613) to (3.36736 5.79307 0.280613)
        min_style ${style}
        min_style cg
        minimize ${etol} ${ftol} ${maxiter} ${maxeval}
        minimize 1e-12 ${ftol} ${maxiter} ${maxeval}
        minimize 1e-12 1e-08 ${maxiter} ${maxeval}
        minimize 1e-12 1e-08 10000 ${maxeval}
        minimize 1e-12 1e-08 10000 20000
WARNING: Resetting reneighboring criteria during minimization (../min.cpp:168)
Memory usage per processor = 3.35099 Mbytes
Step PotEng Pxx Pyy Pxy Lx Ly Lz 
       0   -53.940818   0.15578802   0.45411535 -5.1118948e-17      3.36736    5.7537021   0.56122687 
       1   -53.940818   0.15578802   0.45411535 -5.1118948e-17      3.36736    5.7537021   0.56122687 
Loop time of 5.90421e-05 on 1 procs for 1 steps with 18 atoms

Minimization stats:
  Stopping criterion = linesearch alpha is zero
  Energy initial, next-to-last, final = 
        -53.9408183882     -53.9408183882     -53.9408183882
  Force two-norm initial, final = 0.000932333 0.000932333
  Force max component initial, final = 0.000236234 0.000236234
  Final line search alpha, max atom move = 0.0078125 1.84558e-06
  Iterations, force evaluations = 1 8

Pair  time (%) = 3.90272e-05 (66.1006)
Neigh time (%) = 0 (0)
Comm  time (%) = 6.72229e-06 (11.3856)
Outpt time (%) = 0 (0)
Other time (%) = 1.32927e-05 (22.5138)

Nlocal:    18 ave 18 max 18 min
Histogram: 1 0 0 0 0 0 0 0 0 0
Nghost:    65 ave 65 max 65 min
Histogram: 1 0 0 0 0 0 0 0 0 0
Neighs:    162 ave 162 max 162 min
Histogram: 1 0 0 0 0 0 0 0 0 0

Total # of neighbors = 162
Ave neighs/atom = 9
Neighbor list builds = 0
Dangerous builds = 0
        next i
jump SELF loop1
	read_dump orig.dump 0 x y
  orthogonal box = (0 0 -0.280613) to (3.36736 5.83244 0.280613)
  18 atoms before read
  18 atoms in snapshot
  0 atoms purged
  18 atoms replaced
  0 atoms trimmed
  0 atoms added
  18 atoms after read
        variable stretch equal 1+$i*${strainstep}
        variable stretch equal 1+28*${strainstep}
        variable stretch equal 1+28*-0.0005
        change_box all ${direction} scale ${stretch} remap
        change_box all y scale ${stretch} remap
        change_box all y scale 0.986 remap
  orthogonal box = (0 0.0408271 -0.280613) to (3.36736 5.79161 0.280613)
        min_style ${style}
        min_style cg
        minimize ${etol} ${ftol} ${maxiter} ${maxeval}
        minimize 1e-12 ${ftol} ${maxiter} ${maxeval}
        minimize 1e-12 1e-08 ${maxiter} ${maxeval}
        minimize 1e-12 1e-08 10000 ${maxeval}
        minimize 1e-12 1e-08 10000 20000
WARNING: Resetting reneighboring criteria during minimization (../min.cpp:168)
Memory usage per processor = 3.35099 Mbytes
Step PotEng Pxx Pyy Pxy Lx Ly Lz 
       0   -53.936254   0.16203668   0.47187707 -1.658695e-16      3.36736    5.7507858   0.56122687 
       1   -53.936254   0.16203668   0.47187707 -1.658695e-16      3.36736    5.7507858   0.56122687 
Loop time of 5.89418e-05 on 1 procs for 1 steps with 18 atoms

Minimization stats:
  Stopping criterion = linesearch alpha is zero
  Energy initial, next-to-last, final = 
        -53.9362540998     -53.9362540998     -53.9362540998
  Force two-norm initial, final = 0.000930374 0.000930374
  Force max component initial, final = 0.000235628 0.000235628
  Final line search alpha, max atom move = 0.0078125 1.84085e-06
  Iterations, force evaluations = 1 8

Pair  time (%) = 3.77866e-05 (64.1083)
Neigh time (%) = 0 (0)
Comm  time (%) = 5.90971e-06 (10.0263)
Outpt time (%) = 0 (0)
Other time (%) = 1.52455e-05 (25.8654)

Nlocal:    18 ave 18 max 18 min
Histogram: 1 0 0 0 0 0 0 0 0 0
Nghost:    65 ave 65 max 65 min
Histogram: 1 0 0 0 0 0 0 0 0 0
Neighs:    162 ave 162 max 162 min
Histogram: 1 0 0 0 0 0 0 0 0 0

Total # of neighbors = 162
Ave neighs/atom = 9
Neighbor list builds = 0
Dangerous builds = 0
        next i
jump SELF loop1
	read_dump orig.dump 0 x y
  orthogonal box = (0 0 -0.280613) to (3.36736 5.83244 0.280613)
  18 atoms before read
  18 atoms in snapshot
  0 atoms purged
  18 atoms replaced
  0 atoms trimmed
  0 atoms added
  18 atoms after read
        variable stretch equal 1+$i*${strainstep}
        variable stretch equal 1+29*${strainstep}
        variable stretch equal 1+29*-0.0005
        change_box all ${direction} scale ${stretch} remap
        change_box all y scale ${stretch} remap
        change_box all y scale 0.9855 remap
  orthogonal box = (0 0.0422852 -0.280613) to (3.36736 5.79015 0.280613)
        min_style ${style}
        min_style cg
        minimize ${etol} ${ftol} ${maxiter} ${maxeval}
        minimize 1e-12 ${ftol} ${maxiter} ${maxeval}
        minimize 1e-12 1e-08 ${maxiter} ${maxeval}
        minimize 1e-12 1e-08 10000 ${maxeval}
        minimize 1e-12 1e-08 10000 20000
WARNING: Resetting reneighboring criteria during minimization (../min.cpp:168)
Memory usage per processor = 3.35099 Mbytes
Step PotEng Pxx Pyy Pxy Lx Ly Lz 
       0   -53.931519   0.16832116   0.48975799 -7.3896601e-17      3.36736    5.7478696   0.56122687 
       1   -53.931519   0.16832116   0.48975799 -7.3896601e-17      3.36736    5.7478696   0.56122687 
Loop time of 6.0019e-05 on 1 procs for 1 steps with 18 atoms

Minimization stats:
  Stopping criterion = linesearch alpha is zero
  Energy initial, next-to-last, final = 
         -53.931519138      -53.931519138      -53.931519138
  Force two-norm initial, final = 0.000936185 0.000936185
  Force max component initial, final = 0.000237375 0.000237375
  Final line search alpha, max atom move = 0.0078125 1.85449e-06
  Iterations, force evaluations = 1 8

Pair  time (%) = 4.02824e-05 (67.1161)
Neigh time (%) = 0 (0)
Comm  time (%) = 4.27873e-06 (7.12896)
Outpt time (%) = 0 (0)
Other time (%) = 1.54579e-05 (25.755)

Nlocal:    18 ave 18 max 18 min
Histogram: 1 0 0 0 0 0 0 0 0 0
Nghost:    65 ave 65 max 65 min
Histogram: 1 0 0 0 0 0 0 0 0 0
Neighs:    162 ave 162 max 162 min
Histogram: 1 0 0 0 0 0 0 0 0 0

Total # of neighbors = 162
Ave neighs/atom = 9
Neighbor list builds = 0
Dangerous builds = 0
        next i
jump SELF loop1
	read_dump orig.dump 0 x y
  orthogonal box = (0 0 -0.280613) to (3.36736 5.83244 0.280613)
  18 atoms before read
  18 atoms in snapshot
  0 atoms purged
  18 atoms replaced
  0 atoms trimmed
  0 atoms added
  18 atoms after read
        variable stretch equal 1+$i*${strainstep}
        variable stretch equal 1+30*${strainstep}
        variable stretch equal 1+30*-0.0005
        change_box all ${direction} scale ${stretch} remap
        change_box all y scale ${stretch} remap
        change_box all y scale 0.985 remap
  orthogonal box = (0 0.0437433 -0.280613) to (3.36736 5.7887 0.280613)
        min_style ${style}
        min_style cg
        minimize ${etol} ${ftol} ${maxiter} ${maxeval}
        minimize 1e-12 ${ftol} ${maxiter} ${maxeval}
        minimize 1e-12 1e-08 ${maxiter} ${maxeval}
        minimize 1e-12 1e-08 10000 ${maxeval}
        minimize 1e-12 1e-08 10000 20000
WARNING: Resetting reneighboring criteria during minimization (../min.cpp:168)
Memory usage per processor = 3.35099 Mbytes
Step PotEng Pxx Pyy Pxy Lx Ly Lz 
       0   -53.926644   0.17463606   0.50511136 -7.2404092e-17      3.36736    5.7449534   0.56122687 
       1   -53.926644   0.17463606   0.50511136 -7.2404092e-17      3.36736    5.7449534   0.56122687 
Loop time of 5.31108e-05 on 1 procs for 1 steps with 18 atoms

Minimization stats:
  Stopping criterion = linesearch alpha is zero
  Energy initial, next-to-last, final = 
        -53.9266436487     -53.9266436487     -53.9266436487
  Force two-norm initial, final = 0.00087796 0.00087796
  Force max component initial, final = 0.000217869 0.000217869
  Final line search alpha, max atom move = 0.015625 3.4042e-06
  Iterations, force evaluations = 1 7

Pair  time (%) = 3.63105e-05 (68.3675)
Neigh time (%) = 0 (0)
Comm  time (%) = 6.67304e-06 (12.5644)
Outpt time (%) = 0 (0)
Other time (%) = 1.01272e-05 (19.0681)

Nlocal:    18 ave 18 max 18 min
Histogram: 1 0 0 0 0 0 0 0 0 0
Nghost:    65 ave 65 max 65 min
Histogram: 1 0 0 0 0 0 0 0 0 0
Neighs:    162 ave 162 max 162 min
Histogram: 1 0 0 0 0 0 0 0 0 0

Total # of neighbors = 162
Ave neighs/atom = 9
Neighbor list builds = 0
Dangerous builds = 0
        next i
jump SELF loop1
	read_dump orig.dump 0 x y
  orthogonal box = (0 0 -0.280613) to (3.36736 5.83244 0.280613)
  18 atoms before read
  18 atoms in snapshot
  0 atoms purged
  18 atoms replaced
  0 atoms trimmed
  0 atoms added
  18 atoms after read
        variable stretch equal 1+$i*${strainstep}
        variable stretch equal 1+31*${strainstep}
        variable stretch equal 1+31*-0.0005
        change_box all ${direction} scale ${stretch} remap
        change_box all y scale ${stretch} remap
        change_box all y scale 0.9845 remap
  orthogonal box = (0 0.0452014 -0.280613) to (3.36736 5.78724 0.280613)
        min_style ${style}
        min_style cg
        minimize ${etol} ${ftol} ${maxiter} ${maxeval}
        minimize 1e-12 ${ftol} ${maxiter} ${maxeval}
        minimize 1e-12 1e-08 ${maxiter} ${maxeval}
        minimize 1e-12 1e-08 10000 ${maxeval}
        minimize 1e-12 1e-08 10000 20000
WARNING: Resetting reneighboring criteria during minimization (../min.cpp:168)
Memory usage per processor = 3.35099 Mbytes
Step PotEng Pxx Pyy Pxy Lx Ly Lz 
       0   -53.921644   0.18099013   0.51253503 -8.7569392e-17      3.36736    5.7420372   0.56122687 
       1   -53.921644   0.18099013   0.51253503 -8.7569392e-17      3.36736    5.7420372   0.56122687 
Loop time of 5.38826e-05 on 1 procs for 1 steps with 18 atoms

Minimization stats:
  Stopping criterion = linesearch alpha is zero
  Energy initial, next-to-last, final = 
        -53.9216441106     -53.9216441106     -53.9216441106
  Force two-norm initial, final = 0.000811679 0.000811679
  Force max component initial, final = 0.000195328 0.000195328
  Final line search alpha, max atom move = 0.015625 3.052e-06
  Iterations, force evaluations = 1 7

Pair  time (%) = 3.19093e-05 (59.2201)
Neigh time (%) = 0 (0)
Comm  time (%) = 6.35395e-06 (11.7922)
Outpt time (%) = 0 (0)
Other time (%) = 1.56193e-05 (28.9877)

Nlocal:    18 ave 18 max 18 min
Histogram: 1 0 0 0 0 0 0 0 0 0
Nghost:    65 ave 65 max 65 min
Histogram: 1 0 0 0 0 0 0 0 0 0
Neighs:    162 ave 162 max 162 min
Histogram: 1 0 0 0 0 0 0 0 0 0

Total # of neighbors = 162
Ave neighs/atom = 9
Neighbor list builds = 0
Dangerous builds = 0
        next i
jump SELF loop1
	read_dump orig.dump 0 x y
  orthogonal box = (0 0 -0.280613) to (3.36736 5.83244 0.280613)
  18 atoms before read
  18 atoms in snapshot
  0 atoms purged
  18 atoms replaced
  0 atoms trimmed
  0 atoms added
  18 atoms after read
        variable stretch equal 1+$i*${strainstep}
        variable stretch equal 1+32*${strainstep}
        variable stretch equal 1+32*-0.0005
        change_box all ${direction} scale ${stretch} remap
        change_box all y scale ${stretch} remap
        change_box all y scale 0.984 remap
  orthogonal box = (0 0.0466595 -0.280613) to (3.36736 5.78578 0.280613)
        min_style ${style}
        min_style cg
        minimize ${etol} ${ftol} ${maxiter} ${maxeval}
        minimize 1e-12 ${ftol} ${maxiter} ${maxeval}
        minimize 1e-12 1e-08 ${maxiter} ${maxeval}
        minimize 1e-12 1e-08 10000 ${maxeval}
        minimize 1e-12 1e-08 10000 20000
WARNING: Resetting reneighboring criteria during minimization (../min.cpp:168)
Memory usage per processor = 3.35099 Mbytes
Step PotEng Pxx Pyy Pxy Lx Ly Lz 
       0    -53.91656   0.18738707   0.51800217 -2.1748351e-16      3.36736     5.739121   0.56122687 
       1    -53.91656   0.18738707   0.51800217 -2.1748351e-16      3.36736     5.739121   0.56122687 
Loop time of 5.2946e-05 on 1 procs for 1 steps with 18 atoms

Minimization stats:
  Stopping criterion = linesearch alpha is zero
  Energy initial, next-to-last, final = 
        -53.9165599405     -53.9165599405     -53.9165599405
  Force two-norm initial, final = 0.00081967 0.00081967
  Force max component initial, final = 0.00019789 0.00019789
  Final line search alpha, max atom move = 0.015625 3.09203e-06
  Iterations, force evaluations = 1 7

Pair  time (%) = 3.29465e-05 (62.2265)
Neigh time (%) = 0 (0)
Comm  time (%) = 7.9514e-06 (15.0179)
Outpt time (%) = 0 (0)
Other time (%) = 1.20482e-05 (22.7556)

Nlocal:    18 ave 18 max 18 min
Histogram: 1 0 0 0 0 0 0 0 0 0
Nghost:    65 ave 65 max 65 min
Histogram: 1 0 0 0 0 0 0 0 0 0
Neighs:    162 ave 162 max 162 min
Histogram: 1 0 0 0 0 0 0 0 0 0

Total # of neighbors = 162
Ave neighs/atom = 9
Neighbor list builds = 0
Dangerous builds = 0
        next i
jump SELF loop1
	read_dump orig.dump 0 x y
  orthogonal box = (0 0 -0.280613) to (3.36736 5.83244 0.280613)
  18 atoms before read
  18 atoms in snapshot
  0 atoms purged
  18 atoms replaced
  0 atoms trimmed
  0 atoms added
  18 atoms after read
        variable stretch equal 1+$i*${strainstep}
        variable stretch equal 1+33*${strainstep}
        variable stretch equal 1+33*-0.0005
        change_box all ${direction} scale ${stretch} remap
        change_box all y scale ${stretch} remap
        change_box all y scale 0.9835 remap
  orthogonal box = (0 0.0481176 -0.280613) to (3.36736 5.78432 0.280613)
        min_style ${style}
        min_style cg
        minimize ${etol} ${ftol} ${maxiter} ${maxeval}
        minimize 1e-12 ${ftol} ${maxiter} ${maxeval}
        minimize 1e-12 1e-08 ${maxiter} ${maxeval}
        minimize 1e-12 1e-08 10000 ${maxeval}
        minimize 1e-12 1e-08 10000 20000
WARNING: Resetting reneighboring criteria during minimization (../min.cpp:168)
Memory usage per processor = 3.35099 Mbytes
Step PotEng Pxx Pyy Pxy Lx Ly Lz 
       0   -53.911454    0.1938148   0.52359299 1.6004947e-16      3.36736    5.7362047   0.56122687 
       1   -53.911455   0.19381459   0.52359266 2.0128267e-17      3.36736    5.7362047   0.56122687 
       2   -53.911455   0.19381459   0.52359266 2.0128267e-17      3.36736    5.7362047   0.56122687 
Loop time of 0.00013499 on 1 procs for 2 steps with 18 atoms

Minimization stats:
  Stopping criterion = linesearch alpha is zero
  Energy initial, next-to-last, final = 
        -53.9114539323     -53.9114553868     -53.9114553868
  Force two-norm initial, final = 0.000824557 0.0214114
  Force max component initial, final = 0.000199376 0.00499865
  Final line search alpha, max atom move = 1.52588e-05 7.62734e-08
  Iterations, force evaluations = 2 20

Pair  time (%) = 8.76954e-05 (64.9642)
Neigh time (%) = 0 (0)
Comm  time (%) = 1.47194e-05 (10.9041)
Outpt time (%) = 5.96314e-06 (4.41746)
Other time (%) = 2.66123e-05 (19.7142)

Nlocal:    18 ave 18 max 18 min
Histogram: 1 0 0 0 0 0 0 0 0 0
Nghost:    65 ave 65 max 65 min
Histogram: 1 0 0 0 0 0 0 0 0 0
Neighs:    162 ave 162 max 162 min
Histogram: 1 0 0 0 0 0 0 0 0 0

Total # of neighbors = 162
Ave neighs/atom = 9
Neighbor list builds = 0
Dangerous builds = 0
        next i
jump SELF loop1
	read_dump orig.dump 0 x y
  orthogonal box = (0 0 -0.280613) to (3.36736 5.83244 0.280613)
  18 atoms before read
  18 atoms in snapshot
  0 atoms purged
  18 atoms replaced
  0 atoms trimmed
  0 atoms added
  18 atoms after read
        variable stretch equal 1+$i*${strainstep}
        variable stretch equal 1+34*${strainstep}
        variable stretch equal 1+34*-0.0005
        change_box all ${direction} scale ${stretch} remap
        change_box all y scale ${stretch} remap
        change_box all y scale 0.983 remap
  orthogonal box = (0 0.0495757 -0.280613) to (3.36736 5.78286 0.280613)
        min_style ${style}
        min_style cg
        minimize ${etol} ${ftol} ${maxiter} ${maxeval}
        minimize 1e-12 ${ftol} ${maxiter} ${maxeval}
        minimize 1e-12 1e-08 ${maxiter} ${maxeval}
        minimize 1e-12 1e-08 10000 ${maxeval}
        minimize 1e-12 1e-08 10000 20000
WARNING: Resetting reneighboring criteria during minimization (../min.cpp:168)
Memory usage per processor = 3.35099 Mbytes
Step PotEng Pxx Pyy Pxy Lx Ly Lz 
       0   -53.906316   0.20027581   0.52927341 1.6772353e-16      3.36736    5.7332885   0.56122687 
       1   -53.906316   0.20027581   0.52927341 1.6772353e-16      3.36736    5.7332885   0.56122687 
Loop time of 5.20468e-05 on 1 procs for 1 steps with 18 atoms

Minimization stats:
  Stopping criterion = linesearch alpha is zero
  Energy initial, next-to-last, final = 
        -53.9063163366     -53.9063163366     -53.9063163366
  Force two-norm initial, final = 0.00082323 0.00082323
  Force max component initial, final = 0.000198966 0.000198966
  Final line search alpha, max atom move = 0.015625 3.10884e-06
  Iterations, force evaluations = 1 7

Pair  time (%) = 3.38989e-05 (65.1314)
Neigh time (%) = 0 (0)
Comm  time (%) = 5.71075e-06 (10.9723)
Outpt time (%) = 0 (0)
Other time (%) = 1.24372e-05 (23.8962)

Nlocal:    18 ave 18 max 18 min
Histogram: 1 0 0 0 0 0 0 0 0 0
Nghost:    65 ave 65 max 65 min
Histogram: 1 0 0 0 0 0 0 0 0 0
Neighs:    162 ave 162 max 162 min
Histogram: 1 0 0 0 0 0 0 0 0 0

Total # of neighbors = 162
Ave neighs/atom = 9
Neighbor list builds = 0
Dangerous builds = 0
        next i
jump SELF loop1
	read_dump orig.dump 0 x y
  orthogonal box = (0 0 -0.280613) to (3.36736 5.83244 0.280613)
  18 atoms before read
  18 atoms in snapshot
  0 atoms purged
  18 atoms replaced
  0 atoms trimmed
  0 atoms added
  18 atoms after read
        variable stretch equal 1+$i*${strainstep}
        variable stretch equal 1+35*${strainstep}
        variable stretch equal 1+35*-0.0005
        change_box all ${direction} scale ${stretch} remap
        change_box all y scale ${stretch} remap
        change_box all y scale 0.9825 remap
[...]
        change_box all y scale ${stretch} remap
        change_box all y scale 0.954 remap
  orthogonal box = (0 0.134146 -0.280613) to (3.36736 5.69829 0.280613)
        min_style ${style}
        min_style cg
        minimize ${etol} ${ftol} ${maxiter} ${maxeval}
        minimize 1e-12 ${ftol} ${maxiter} ${maxeval}
        minimize 1e-12 1e-08 ${maxiter} ${maxeval}
        minimize 1e-12 1e-08 10000 ${maxeval}
        minimize 1e-12 1e-08 10000 20000
WARNING: Resetting reneighboring criteria during minimization (../min.cpp:168)
Memory usage per processor = 3.35099 Mbytes
Step PotEng Pxx Pyy Pxy Lx Ly Lz 
       0   -53.479035   0.64540838    1.0270692 -3.3720339e-16      3.36736    5.5641478   0.56122687 
       1   -53.479036   0.64540806    1.0270683 -6.6947389e-17      3.36736    5.5641478   0.56122687 
       2   -53.479036   0.64540806    1.0270683 -6.6947389e-17      3.36736    5.5641478   0.56122687 
Loop time of 0.000144081 on 1 procs for 2 steps with 18 atoms

Minimization stats:
  Stopping criterion = linesearch alpha is zero
  Energy initial, next-to-last, final = 
        -53.4790345374     -53.4790362648     -53.4790362648
  Force two-norm initial, final = 0.00101126 0.0331109
  Force max component initial, final = 0.000254723 0.0084922
  Final line search alpha, max atom move = 7.62939e-06 6.47903e-08
  Iterations, force evaluations = 2 21

Pair  time (%) = 9.40444e-05 (65.2717)
Neigh time (%) = 0 (0)
Comm  time (%) = 1.66954e-05 (11.5874)
Outpt time (%) = 7.0543e-06 (4.89605)
Other time (%) = 2.62874e-05 (18.2448)

Nlocal:    18 ave 18 max 18 min
Histogram: 1 0 0 0 0 0 0 0 0 0
Nghost:    65 ave 65 max 65 min
Histogram: 1 0 0 0 0 0 0 0 0 0
Neighs:    162 ave 162 max 162 min
Histogram: 1 0 0 0 0 0 0 0 0 0

Total # of neighbors = 162
Ave neighs/atom = 9
Neighbor list builds = 0
Dangerous builds = 0
        next i
jump SELF loop1
	read_dump orig.dump 0 x y
  orthogonal box = (0 0 -0.280613) to (3.36736 5.83244 0.280613)
  18 atoms before read
  18 atoms in snapshot
  0 atoms purged
  18 atoms replaced
  0 atoms trimmed
  0 atoms added
  18 atoms after read
        variable stretch equal 1+$i*${strainstep}
        variable stretch equal 1+93*${strainstep}
        variable stretch equal 1+93*-0.0005
        change_box all ${direction} scale ${stretch} remap
        change_box all y scale ${stretch} remap
        change_box all y scale 0.9535 remap
  orthogonal box = (0 0.135604 -0.280613) to (3.36736 5.69684 0.280613)
        min_style ${style}
        min_style cg
        minimize ${etol} ${ftol} ${maxiter} ${maxeval}
        minimize 1e-12 ${ftol} ${maxiter} ${maxeval}
        minimize 1e-12 1e-08 ${maxiter} ${maxeval}
        minimize 1e-12 1e-08 10000 ${maxeval}
        minimize 1e-12 1e-08 10000 20000
WARNING: Resetting reneighboring criteria during minimization (../min.cpp:168)
Memory usage per processor = 3.35099 Mbytes
Step PotEng Pxx Pyy Pxy Lx Ly Lz 
       0   -53.468875    0.6544083     1.038668 1.1302334e-16      3.36736    5.5612315   0.56122687 
       1   -53.468876   0.65440797    1.0386671 1.4247917e-16      3.36736    5.5612315   0.56122687 
       2   -53.468876   0.65440797    1.0386671 1.4247917e-16      3.36736    5.5612315   0.56122687 
Loop time of 0.000139011 on 1 procs for 2 steps with 18 atoms

Minimization stats:
  Stopping criterion = linesearch alpha is zero
  Energy initial, next-to-last, final = 
        -53.4688753027     -53.4688758519     -53.4688758519
  Force two-norm initial, final = 0.00101721 0.03353
  Force max component initial, final = 0.000256462 0.00861506
  Final line search alpha, max atom move = 7.62939e-06 6.57277e-08
  Iterations, force evaluations = 2 21

Pair  time (%) = 9.38243e-05 (67.494)
Neigh time (%) = 0 (0)
Comm  time (%) = 1.38249e-05 (9.94516)
Outpt time (%) = 6.938e-06 (4.99096)
Other time (%) = 2.44242e-05 (17.5699)

Nlocal:    18 ave 18 max 18 min
Histogram: 1 0 0 0 0 0 0 0 0 0
Nghost:    65 ave 65 max 65 min
Histogram: 1 0 0 0 0 0 0 0 0 0
Neighs:    162 ave 162 max 162 min
Histogram: 1 0 0 0 0 0 0 0 0 0

Total # of neighbors = 162
Ave neighs/atom = 9
Neighbor list builds = 0
Dangerous builds = 0
        next i
jump SELF loop1
	read_dump orig.dump 0 x y
  orthogonal box = (0 0 -0.280613) to (3.36736 5.83244 0.280613)
  18 atoms before read
  18 atoms in snapshot
  0 atoms purged
  18 atoms replaced
  0 atoms trimmed
  0 atoms added
  18 atoms after read
        variable stretch equal 1+$i*${strainstep}
        variable stretch equal 1+94*${strainstep}
        variable stretch equal 1+94*-0.0005
        change_box all ${direction} scale ${stretch} remap
        change_box all y scale ${stretch} remap
        change_box all y scale 0.953 remap
  orthogonal box = (0 0.137062 -0.280613) to (3.36736 5.69538 0.280613)
        min_style ${style}
        min_style cg
        minimize ${etol} ${ftol} ${maxiter} ${maxeval}
        minimize 1e-12 ${ftol} ${maxiter} ${maxeval}
        minimize 1e-12 1e-08 ${maxiter} ${maxeval}
        minimize 1e-12 1e-08 10000 ${maxeval}
        minimize 1e-12 1e-08 10000 20000
WARNING: Resetting reneighboring criteria during minimization (../min.cpp:168)
Memory usage per processor = 3.35099 Mbytes
Step PotEng Pxx Pyy Pxy Lx Ly Lz 
       0   -53.458654     0.663447    1.0503454 -3.3256145e-16      3.36736    5.5583153   0.56122687 
       1   -53.458654     0.663447    1.0503454 -3.3256145e-16      3.36736    5.5583153   0.56122687 
Loop time of 5.7981e-05 on 1 procs for 1 steps with 18 atoms

Minimization stats:
  Stopping criterion = linesearch alpha is zero
  Energy initial, next-to-last, final = 
        -53.4586541704     -53.4586541704     -53.4586541704
  Force two-norm initial, final = 0.00102318 0.00102318
  Force max component initial, final = 0.000258208 0.000258208
  Final line search alpha, max atom move = 0.0078125 2.01725e-06
  Iterations, force evaluations = 1 8

Pair  time (%) = 3.79541e-05 (65.4595)
Neigh time (%) = 0 (0)
Comm  time (%) = 6.76804e-06 (11.6729)
Outpt time (%) = 0 (0)
Other time (%) = 1.32589e-05 (22.8676)

Nlocal:    18 ave 18 max 18 min
Histogram: 1 0 0 0 0 0 0 0 0 0
Nghost:    65 ave 65 max 65 min
Histogram: 1 0 0 0 0 0 0 0 0 0
Neighs:    162 ave 162 max 162 min
Histogram: 1 0 0 0 0 0 0 0 0 0

Total # of neighbors = 162
Ave neighs/atom = 9
Neighbor list builds = 0
Dangerous builds = 0
        next i
jump SELF loop1
	read_dump orig.dump 0 x y
  orthogonal box = (0 0 -0.280613) to (3.36736 5.83244 0.280613)
  18 atoms before read
  18 atoms in snapshot
  0 atoms purged
  18 atoms replaced
  0 atoms trimmed
  0 atoms added
  18 atoms after read
        variable stretch equal 1+$i*${strainstep}
        variable stretch equal 1+95*${strainstep}
        variable stretch equal 1+95*-0.0005
        change_box all ${direction} scale ${stretch} remap
        change_box all y scale ${stretch} remap
        change_box all y scale 0.9525 remap
  orthogonal box = (0 0.13852 -0.280613) to (3.36736 5.69392 0.280613)
        min_style ${style}
        min_style cg
        minimize ${etol} ${ftol} ${maxiter} ${maxeval}
        minimize 1e-12 ${ftol} ${maxiter} ${maxeval}
        minimize 1e-12 1e-08 ${maxiter} ${maxeval}
        minimize 1e-12 1e-08 10000 ${maxeval}
        minimize 1e-12 1e-08 10000 20000
WARNING: Resetting reneighboring criteria during minimization (../min.cpp:168)
Memory usage per processor = 3.35099 Mbytes
Step PotEng Pxx Pyy Pxy Lx Ly Lz 
       0   -53.448269   0.67254377    1.0621533 1.7778515e-16      3.36736    5.5553991   0.56122687 
       1   -53.448269   0.67254344    1.0621524 -3.3359738e-16      3.36736    5.5553991   0.56122687 
       2   -53.448269   0.67254344    1.0621524 -3.3359738e-16      3.36736    5.5553991   0.56122687 
Loop time of 0.000137954 on 1 procs for 2 steps with 18 atoms

Minimization stats:
  Stopping criterion = linesearch alpha is zero
  Energy initial, next-to-last, final = 
        -53.4482685591     -53.4482692136     -53.4482692136
  Force two-norm initial, final = 0.00102139 0.0338442
  Force max component initial, final = 0.000257668 0.00870685
  Final line search alpha, max atom move = 7.62939e-06 6.6428e-08
  Iterations, force evaluations = 2 21

Pair  time (%) = 9.10542e-05 (66.0033)
Neigh time (%) = 0 (0)
Comm  time (%) = 2.00069e-05 (14.5026)
Outpt time (%) = 6.11914e-06 (4.43563)
Other time (%) = 2.07738e-05 (15.0585)

Nlocal:    18 ave 18 max 18 min
Histogram: 1 0 0 0 0 0 0 0 0 0
Nghost:    65 ave 65 max 65 min
Histogram: 1 0 0 0 0 0 0 0 0 0
Neighs:    162 ave 162 max 162 min
Histogram: 1 0 0 0 0 0 0 0 0 0

Total # of neighbors = 162
Ave neighs/atom = 9
Neighbor list builds = 0
Dangerous builds = 0
        next i
jump SELF loop1
	read_dump orig.dump 0 x y
  orthogonal box = (0 0 -0.280613) to (3.36736 5.83244 0.280613)
  18 atoms before read
  18 atoms in snapshot
  0 atoms purged
  18 atoms replaced
  0 atoms trimmed
  0 atoms added
  18 atoms after read
        variable stretch equal 1+$i*${strainstep}
        variable stretch equal 1+96*${strainstep}
        variable stretch equal 1+96*-0.0005
        change_box all ${direction} scale ${stretch} remap
        change_box all y scale ${stretch} remap
        change_box all y scale 0.952 remap
  orthogonal box = (0 0.139979 -0.280613) to (3.36736 5.69246 0.280613)
        min_style ${style}
        min_style cg
        minimize ${etol} ${ftol} ${maxiter} ${maxeval}
        minimize 1e-12 ${ftol} ${maxiter} ${maxeval}
        minimize 1e-12 1e-08 ${maxiter} ${maxeval}
        minimize 1e-12 1e-08 10000 ${maxeval}
        minimize 1e-12 1e-08 10000 20000
WARNING: Resetting reneighboring criteria during minimization (../min.cpp:168)
Memory usage per processor = 3.35099 Mbytes
Step PotEng Pxx Pyy Pxy Lx Ly Lz 
       0   -53.437757     0.681692    1.0740735 1.292881e-16      3.36736    5.5524829   0.56122687 
       1   -53.437758   0.68169166    1.0740726 -1.5020044e-16      3.36736    5.5524829   0.56122687 
       2   -53.437758   0.68169166    1.0740726 -1.5020044e-16      3.36736    5.5524829   0.56122687 
Loop time of 0.000138055 on 1 procs for 2 steps with 18 atoms

Minimization stats:
  Stopping criterion = linesearch alpha is zero
  Energy initial, next-to-last, final = 
        -53.4377572144     -53.4377583197     -53.4377583197
  Force two-norm initial, final = 0.0010274 0.0342732
  Force max component initial, final = 0.000259422 0.00883244
  Final line search alpha, max atom move = 7.62939e-06 6.73862e-08
  Iterations, force evaluations = 2 21

Pair  time (%) = 9.08817e-05 (65.8302)
Neigh time (%) = 0 (0)
Comm  time (%) = 1.88999e-05 (13.6902)
Outpt time (%) = 5.98119e-06 (4.33248)
Other time (%) = 2.22919e-05 (16.1472)

Nlocal:    18 ave 18 max 18 min
Histogram: 1 0 0 0 0 0 0 0 0 0
Nghost:    65 ave 65 max 65 min
Histogram: 1 0 0 0 0 0 0 0 0 0
Neighs:    162 ave 162 max 162 min
Histogram: 1 0 0 0 0 0 0 0 0 0

Total # of neighbors = 162
Ave neighs/atom = 9
Neighbor list builds = 0
Dangerous builds = 0
        next i
jump SELF loop1
	read_dump orig.dump 0 x y
  orthogonal box = (0 0 -0.280613) to (3.36736 5.83244 0.280613)
  18 atoms before read
  18 atoms in snapshot
  0 atoms purged
  18 atoms replaced
  0 atoms trimmed
  0 atoms added
  18 atoms after read
        variable stretch equal 1+$i*${strainstep}
        variable stretch equal 1+97*${strainstep}
        variable stretch equal 1+97*-0.0005
        change_box all ${direction} scale ${stretch} remap
        change_box all y scale ${stretch} remap
        change_box all y scale 0.9515 remap
  orthogonal box = (0 0.141437 -0.280613) to (3.36736 5.691 0.280613)
        min_style ${style}
        min_style cg
        minimize ${etol} ${ftol} ${maxiter} ${maxeval}
        minimize 1e-12 ${ftol} ${maxiter} ${maxeval}
        minimize 1e-12 1e-08 ${maxiter} ${maxeval}
        minimize 1e-12 1e-08 10000 ${maxeval}
        minimize 1e-12 1e-08 10000 20000
WARNING: Resetting reneighboring criteria during minimization (../min.cpp:168)
Memory usage per processor = 3.35099 Mbytes
Step PotEng Pxx Pyy Pxy Lx Ly Lz 
       0   -53.427184   0.69087943    1.0860724 -3.7858592e-17      3.36736    5.5495667   0.56122687 
       1   -53.427184   0.69087943    1.0860724 -3.7858592e-17      3.36736    5.5495667   0.56122687 
Loop time of 6.01071e-05 on 1 procs for 1 steps with 18 atoms

Minimization stats:
  Stopping criterion = linesearch alpha is zero
  Energy initial, next-to-last, final = 
        -53.4271838428     -53.4271838428     -53.4271838428
  Force two-norm initial, final = 0.00103343 0.00103343
  Force max component initial, final = 0.000261182 0.000261182
  Final line search alpha, max atom move = 0.0078125 2.04048e-06
  Iterations, force evaluations = 1 8

Pair  time (%) = 3.78297e-05 (62.9372)
Neigh time (%) = 0 (0)
Comm  time (%) = 5.94999e-06 (9.89898)
Outpt time (%) = 0 (0)
Other time (%) = 1.63274e-05 (27.1638)

Nlocal:    18 ave 18 max 18 min
Histogram: 1 0 0 0 0 0 0 0 0 0
Nghost:    65 ave 65 max 65 min
Histogram: 1 0 0 0 0 0 0 0 0 0
Neighs:    162 ave 162 max 162 min
Histogram: 1 0 0 0 0 0 0 0 0 0

Total # of neighbors = 162
Ave neighs/atom = 9
Neighbor list builds = 0
Dangerous builds = 0
        next i
jump SELF loop1
	read_dump orig.dump 0 x y
  orthogonal box = (0 0 -0.280613) to (3.36736 5.83244 0.280613)
  18 atoms before read
  18 atoms in snapshot
  0 atoms purged
  18 atoms replaced
  0 atoms trimmed
  0 atoms added
  18 atoms after read
        variable stretch equal 1+$i*${strainstep}
        variable stretch equal 1+98*${strainstep}
        variable stretch equal 1+98*-0.0005
        change_box all ${direction} scale ${stretch} remap
        change_box all y scale ${stretch} remap
        change_box all y scale 0.951 remap
  orthogonal box = (0 0.142895 -0.280613) to (3.36736 5.68955 0.280613)
        min_style ${style}
        min_style cg
        minimize ${etol} ${ftol} ${maxiter} ${maxeval}
        minimize 1e-12 ${ftol} ${maxiter} ${maxeval}
        minimize 1e-12 1e-08 ${maxiter} ${maxeval}
        minimize 1e-12 1e-08 10000 ${maxeval}
        minimize 1e-12 1e-08 10000 20000
WARNING: Resetting reneighboring criteria during minimization (../min.cpp:168)
Memory usage per processor = 3.35099 Mbytes
Step PotEng Pxx Pyy Pxy Lx Ly Lz 
       0   -53.416455   0.70012336    1.0981963 1.0578919e-16      3.36736    5.5466504   0.56122687 
       1   -53.416455   0.70012302    1.0981954 5.665161e-16      3.36736    5.5466504   0.56122687 
       2   -53.416455   0.70012302    1.0981954 5.665161e-16      3.36736    5.5466504   0.56122687 
Loop time of 0.000142085 on 1 procs for 2 steps with 18 atoms

Minimization stats:
  Stopping criterion = linesearch alpha is zero
  Energy initial, next-to-last, final = 
        -53.4164548023     -53.4164550003     -53.4164550003
  Force two-norm initial, final = 0.00103161 0.0345939
  Force max component initial, final = 0.000260635 0.00892599
  Final line search alpha, max atom move = 7.62939e-06 6.80999e-08
  Iterations, force evaluations = 2 21

Pair  time (%) = 9.25903e-05 (65.1656)
Neigh time (%) = 0 (0)
Comm  time (%) = 1.92178e-05 (13.5256)
Outpt time (%) = 7.05745e-06 (4.96707)
Other time (%) = 2.3219e-05 (16.3417)

Nlocal:    18 ave 18 max 18 min
Histogram: 1 0 0 0 0 0 0 0 0 0
Nghost:    65 ave 65 max 65 min
Histogram: 1 0 0 0 0 0 0 0 0 0
Neighs:    162 ave 162 max 162 min
Histogram: 1 0 0 0 0 0 0 0 0 0

Total # of neighbors = 162
Ave neighs/atom = 9
Neighbor list builds = 0
Dangerous builds = 0
        next i
jump SELF loop1
	read_dump orig.dump 0 x y
  orthogonal box = (0 0 -0.280613) to (3.36736 5.83244 0.280613)
  18 atoms before read
  18 atoms in snapshot
  0 atoms purged
  18 atoms replaced
  0 atoms trimmed
  0 atoms added
  18 atoms after read
        variable stretch equal 1+$i*${strainstep}
        variable stretch equal 1+99*${strainstep}
        variable stretch equal 1+99*-0.0005
        change_box all ${direction} scale ${stretch} remap
        change_box all y scale ${stretch} remap
        change_box all y scale 0.9505 remap
  orthogonal box = (0 0.144353 -0.280613) to (3.36736 5.68809 0.280613)
        min_style ${style}
        min_style cg
        minimize ${etol} ${ftol} ${maxiter} ${maxeval}
        minimize 1e-12 ${ftol} ${maxiter} ${maxeval}
        minimize 1e-12 1e-08 ${maxiter} ${maxeval}
        minimize 1e-12 1e-08 10000 ${maxeval}
        minimize 1e-12 1e-08 10000 20000
WARNING: Resetting reneighboring criteria during minimization (../min.cpp:168)
Memory usage per processor = 3.35099 Mbytes
Step PotEng Pxx Pyy Pxy Lx Ly Lz 
       0   -53.405582   0.70942179    1.1104397 -4.5298755e-16      3.36736    5.5437342   0.56122687 
       1   -53.405584   0.70942145    1.1104387 -2.8909803e-16      3.36736    5.5437342   0.56122687 
       2   -53.405584   0.70942145    1.1104387 -2.8909803e-16      3.36736    5.5437342   0.56122687 
Loop time of 0.000138929 on 1 procs for 2 steps with 18 atoms

Minimization stats:
  Stopping criterion = linesearch alpha is zero
  Energy initial, next-to-last, final = 
        -53.4055824956     -53.4055840869     -53.4055840869
  Force two-norm initial, final = 0.00103767 0.0350327
  Force max component initial, final = 0.000262402 0.00905427
  Final line search alpha, max atom move = 7.62939e-06 6.90786e-08
  Iterations, force evaluations = 2 21

Pair  time (%) = 9.21572e-05 (66.3341)
Neigh time (%) = 0 (0)
Comm  time (%) = 1.83978e-05 (13.2426)
Outpt time (%) = 6.09364e-06 (4.38616)
Other time (%) = 2.22801e-05 (16.0371)

Nlocal:    18 ave 18 max 18 min
Histogram: 1 0 0 0 0 0 0 0 0 0
Nghost:    65 ave 65 max 65 min
Histogram: 1 0 0 0 0 0 0 0 0 0
Neighs:    162 ave 162 max 162 min
Histogram: 1 0 0 0 0 0 0 0 0 0

Total # of neighbors = 162
Ave neighs/atom = 9
Neighbor list builds = 0
Dangerous builds = 0
        next i
jump SELF loop1
	read_dump orig.dump 0 x y
  orthogonal box = (0 0 -0.280613) to (3.36736 5.83244 0.280613)
  18 atoms before read
  18 atoms in snapshot
  0 atoms purged
  18 atoms replaced
  0 atoms trimmed
  0 atoms added
  18 atoms after read
        variable stretch equal 1+$i*${strainstep}
        variable stretch equal 1+100*${strainstep}
        variable stretch equal 1+100*-0.0005
        change_box all ${direction} scale ${stretch} remap
        change_box all y scale ${stretch} remap
        change_box all y scale 0.95 remap
  orthogonal box = (0 0.145811 -0.280613) to (3.36736 5.68663 0.280613)
        min_style ${style}
        min_style cg
        minimize ${etol} ${ftol} ${maxiter} ${maxeval}
        minimize 1e-12 ${ftol} ${maxiter} ${maxeval}
        minimize 1e-12 1e-08 ${maxiter} ${maxeval}
        minimize 1e-12 1e-08 10000 ${maxeval}
        minimize 1e-12 1e-08 10000 20000
WARNING: Resetting reneighboring criteria during minimization (../min.cpp:168)
Memory usage per processor = 3.35099 Mbytes
Step PotEng Pxx Pyy Pxy Lx Ly Lz 
       0   -53.394648   0.71875987    1.1227619 -3.6206723e-16      3.36736     5.540818   0.56122687 
       1   -53.394648   0.71875987    1.1227619 -3.6206723e-16      3.36736     5.540818   0.56122687 
Loop time of 5.80224e-05 on 1 procs for 1 steps with 18 atoms

Minimization stats:
  Stopping criterion = linesearch alpha is zero
  Energy initial, next-to-last, final = 
        -53.3946475571     -53.3946475571     -53.3946475571
  Force two-norm initial, final = 0.00104376 0.00104376
  Force max component initial, final = 0.000264176 0.000264176
  Final line search alpha, max atom move = 0.0078125 2.06388e-06
  Iterations, force evaluations = 1 8

Pair  time (%) = 3.795e-05 (65.4057)
Neigh time (%) = 0 (0)
Comm  time (%) = 6.71356e-06 (11.5706)
Outpt time (%) = 0 (0)
Other time (%) = 1.33589e-05 (23.0237)

Nlocal:    18 ave 18 max 18 min
Histogram: 1 0 0 0 0 0 0 0 0 0
Nghost:    65 ave 65 max 65 min
Histogram: 1 0 0 0 0 0 0 0 0 0
Neighs:    162 ave 162 max 162 min
Histogram: 1 0 0 0 0 0 0 0 0 0

Total # of neighbors = 162
Ave neighs/atom = 9
Neighbor list builds = 0
Dangerous builds = 0
        next i
jump SELF loop1

