LAMMPS (28 Jun 2014)
# attempt at getting tensile strain-stress curve for infinite slab

#file prefix
variable prefix string compression_V_brittle_twin
variable dumpfile string ${prefix}.*.dump
variable dumpfile string compression_V_brittle_twin.*.dump
variable restartfile string ${prefix}.*.equil
variable restartfile string compression_V_brittle_twin.*.equil

#Mass (g/mol)
variable m equal 1

# lattice constant (in Angstroms) and orientation of axes (given by lattice vectors)
variable rho equal 1.0
variable x1 equal 1
variable x2 equal 0
variable x3 equal 1
variable y1 equal 0
variable y2 equal 1
variable y3 equal 0
variable z1 equal -1
variable z2 equal 0
variable z3 equal 1
# length of lattice in different directions (using orientation of lattice vectors)
variable ax equal sqrt(${x1}*${x1}+${x2}*${x2}+${x3}*${x3})
variable ax equal sqrt(1*${x1}+${x2}*${x2}+${x3}*${x3})
variable ax equal sqrt(1*1+${x2}*${x2}+${x3}*${x3})
variable ax equal sqrt(1*1+0*${x2}+${x3}*${x3})
variable ax equal sqrt(1*1+0*0+${x3}*${x3})
variable ax equal sqrt(1*1+0*0+1*${x3})
variable ax equal sqrt(1*1+0*0+1*1)
variable ay equal sqrt(${y1}*${y1}+${y2}*${y2}+${y3}*${y3})
variable ay equal sqrt(0*${y1}+${y2}*${y2}+${y3}*${y3})
variable ay equal sqrt(0*0+${y2}*${y2}+${y3}*${y3})
variable ay equal sqrt(0*0+1*${y2}+${y3}*${y3})
variable ay equal sqrt(0*0+1*1+${y3}*${y3})
variable ay equal sqrt(0*0+1*1+0*${y3})
variable ay equal sqrt(0*0+1*1+0*0)
variable az equal sqrt(${z1}*${z1}+${z2}*${z2}+${z3}*${z3})
variable az equal sqrt(-1*${z1}+${z2}*${z2}+${z3}*${z3})
variable az equal sqrt(-1*-1+${z2}*${z2}+${z3}*${z3})
variable az equal sqrt(-1*-1+0*${z2}+${z3}*${z3})
variable az equal sqrt(-1*-1+0*0+${z3}*${z3})
variable az equal sqrt(-1*-1+0*0+1*${z3})
variable az equal sqrt(-1*-1+0*0+1*1)

# size of box in lattice units
variable lxpos equal 2
variable lxneg equal 0
variable lypos equal 10
variable lyneg equal 0
variable lzpos equal 2
variable lzneg equal 0

# Define minimization parameters and damping
variable etol equal 1.0e-12
variable ftol equal 1.0e-8
variable maxiter equal 10000
variable maxeval equal 20000
variable style string hftn

# boundary conditions
dimension	3
boundary	p s p
atom_style	atomic

# create geometry
units		lj
lattice         fcc ${rho} orient x 1 1 -2 orient y 1 1 1 orient z 1 -1 0 spacing ${ax} ${ay} ${az}
lattice         fcc 1 orient x 1 1 -2 orient y 1 1 1 orient z 1 -1 0 spacing ${ax} ${ay} ${az}
lattice         fcc 1 orient x 1 1 -2 orient y 1 1 1 orient z 1 -1 0 spacing 1.4142135623731 ${ay} ${az}
lattice         fcc 1 orient x 1 1 -2 orient y 1 1 1 orient z 1 -1 0 spacing 1.4142135623731 1 ${az}
lattice         fcc 1 orient x 1 1 -2 orient y 1 1 1 orient z 1 -1 0 spacing 1.4142135623731 1 1.4142135623731
Lattice spacing in x,y,z = 2.24492 1.5874 2.24492
region		myregion block ${lxneg} ${lxpos} ${lyneg} ${lypos} ${lzneg} ${lzpos} units lattice
region		myregion block 0 ${lxpos} ${lyneg} ${lypos} ${lzneg} ${lzpos} units lattice
region		myregion block 0 2 ${lyneg} ${lypos} ${lzneg} ${lzpos} units lattice
region		myregion block 0 2 0 ${lypos} ${lzneg} ${lzpos} units lattice
region		myregion block 0 2 0 10 ${lzneg} ${lzpos} units lattice
region		myregion block 0 2 0 10 0 ${lzpos} units lattice
region		myregion block 0 2 0 10 0 2 units lattice
create_box	1 myregion
Created orthogonal box = (0 0 0) to (4.48985 15.874 4.48985)
  1 by 1 by 1 MPI processor grid

region		upper block INF INF 0.01 INF INF INF
create_atoms	1 region upper
Created 316 atoms

region		lower block INF INF INF 0.01 INF INF
lattice         fcc ${rho} orient x 1 1 -2 orient y -1 -1 -1 orient z -1 1 0 spacing ${ax} ${ay} ${az}
lattice         fcc 1 orient x 1 1 -2 orient y -1 -1 -1 orient z -1 1 0 spacing ${ax} ${ay} ${az}
lattice         fcc 1 orient x 1 1 -2 orient y -1 -1 -1 orient z -1 1 0 spacing 1.4142135623731 ${ay} ${az}
lattice         fcc 1 orient x 1 1 -2 orient y -1 -1 -1 orient z -1 1 0 spacing 1.4142135623731 1 ${az}
lattice         fcc 1 orient x 1 1 -2 orient y -1 -1 -1 orient z -1 1 0 spacing 1.4142135623731 1 1.4142135623731
Lattice spacing in x,y,z = 2.24492 1.5874 2.24492
create_atoms	1 region lower
Created 20 atoms

# define masses
mass * $m
mass * 1

# my fake/morse potential
pair_style      table linear 3001
pair_coeff      * * vpotential_inter43d dummy
neighbor	0.3 bin
neigh_modify	delay 5

# Setup output
thermo 1
thermo_style custom step pe pxx pyy pxy lx ly lz
thermo_modify norm no

# Compute initial state by relaxing box
min_style ${style}
min_style hftn
minimize ${etol} ${ftol} ${maxiter} ${maxeval}
minimize 1e-12 ${ftol} ${maxiter} ${maxeval}
minimize 1e-12 1e-08 ${maxiter} ${maxeval}
minimize 1e-12 1e-08 10000 ${maxeval}
minimize 1e-12 1e-08 10000 20000
WARNING: Resetting reneighboring criteria during minimization (../min.cpp:168)
Memory usage per processor = 4.90059 Mbytes
Step PotEng Pxx Pyy Pxy Lx Ly Lz 
       0    37279.503    1007.5624   0.11564565  0.034956612    4.4898482    15.583444    4.4898482 
       1    12164.038    416.24403    0.6360151   0.22674121    4.4898482    15.583444    4.4898482 
       2    3233.9545    174.96649    1.4093471   0.49765742    4.4898482    15.583444    4.4898482 
       3    109.39271    79.045534    2.4063746   0.84290997    4.4898482    15.583444    4.4898482 
       4    109.39271    79.044258    2.4063358   0.84289636    4.4898482    15.583696    4.4898482 
       5   -877.95815    44.079771    3.3557863    1.0920776    4.4898482    15.583696    4.4898482 
       6   -1366.8132    26.221612    3.8457293   0.76225838    4.4898482    15.583696    4.4898482 
       7   -1494.0834    20.310992    5.1391321  -0.67291709    4.4898482     15.86028    4.4898482 
       8   -1533.4791    18.525916    3.9345001  -0.59454851    4.4898482     15.86028    4.4898482 
       9    -1542.769    18.068368     3.983187  -0.58703674    4.4898482     15.86028    4.4898482 
      10   -1555.8153    16.593111    3.7673294  -0.81635491    4.4898482    16.183268    4.4898482 
      11   -1564.6137    16.182688    3.7711948  -0.75503665    4.4898482    16.183268    4.4898482 
      12   -1575.5631    15.017623    3.6663244  -0.93311119    4.4898482    16.183268    4.4898482 
      13   -1582.5289    14.676338    3.5868631  -0.86313407    4.4898482    16.183268    4.4898482 
      14   -1590.4288    13.370618    3.4083446  -0.92291942    4.4898482    16.543607    4.4898482 
      15   -1607.6836    11.467484    2.8632084  -0.71984587    4.4898482    16.543607    4.4898482 
      16   -1614.2081    10.699971    2.7848467  -0.79724788    4.4898482    16.543607    4.4898482 
      17   -1622.9078    9.5682807    2.8001669  -0.31220022    4.4898482    16.543607    4.4898482 
      18   -1644.6726    7.2612247     3.256495   0.24070692    4.4898482    16.825805    4.4898482 
      19   -1687.2403    5.4872447    3.5534945    1.3169596    4.4898482    16.869029    4.4898482 
      20   -1760.8563    3.4661197    2.4197885   0.72933607    4.4898482    16.869029    4.4898482 
      21   -1778.0357      2.99289    2.1626537   0.66476322    4.4898482    16.869029    4.4898482 
      22   -1805.8365    2.4245064    1.7956687   0.45467224    4.4898482    16.869029    4.4898482 
      23   -1839.3557    1.6764724   0.86316081 0.0021878574    4.4898482    16.885062    4.4898482 
      24   -1849.0312    1.5527131   0.42829963 -0.047054367    4.4898482    16.885062    4.4898482 
      25   -1857.8783    1.7268086   0.19593597  -0.21169753    4.4898482    16.885062    4.4898482 
      26   -1866.3025     1.377559  0.066286932  -0.37139694    4.4898482    16.885062    4.4898482 
      27   -1873.6388    1.5807022   0.24901225  -0.34854911    4.4898482    16.757637    4.4898482 
      28   -1875.3798    1.4102126 -0.035504643  -0.16596905    4.4898482    16.757637    4.4898482 
      29   -1875.8994    1.4816411  0.030984152 -0.055423339    4.4898482    16.757637    4.4898482 
      30   -1875.9395    1.4759045 -0.0031907158 0.0030203375    4.4898482    16.757637    4.4898482 
      31   -1875.9413     1.478075 4.6672397e-05 -3.1521515e-05    4.4898482    16.757637    4.4898482 
      32   -1875.9413    1.4780541 5.8743121e-08 8.7923252e-09    4.4898482    16.757637    4.4898482 
      33   -1875.9413    1.4780541 2.7409495e-12 -4.5633771e-12    4.4898482    16.757637    4.4898482 
Loop time of 0.207428 on 1 procs for 32 steps with 336 atoms

Minimization stats:
  Stopping criterion = force tolerance
  Energy initial, next-to-last, final = 
         37279.5026124     -1875.94125721     -1875.94126345
  Force two-norm initial, final = 107410 1.27259e-09
  Force max component initial, final = 10962.8 2.57687e-10
  Final line search alpha, max atom move = 0 0
  Iterations, force evaluations = 32 664

Pair  time (%) = 0.174264 (84.0118)
Neigh time (%) = 0.00366805 (1.76835)
Comm  time (%) = 0.0136081 (6.56041)
Outpt time (%) = 0.00180951 (0.872358)
Other time (%) = 0.0140783 (6.78706)

Nlocal:    336 ave 336 max 336 min
Histogram: 1 0 0 0 0 0 0 0 0 0
Nghost:    1092 ave 1092 max 1092 min
Histogram: 1 0 0 0 0 0 0 0 0 0
Neighs:    8504 ave 8504 max 8504 min
Histogram: 1 0 0 0 0 0 0 0 0 0

Total # of neighbors = 8504
Ave neighs/atom = 25.3095
Neighbor list builds = 9
Dangerous builds = 1
reset_timestep 0
write_dump all atom orig.dump

# Energy curve will have nstep steps
variable strainmax equal -0.05
variable strainstep equal -0.0005
variable nsteps equal round(${strainmax}/${strainstep})
variable nsteps equal round(-0.05/${strainstep})
variable nsteps equal round(-0.05/-0.0005)
variable direction string y

variable i loop ${nsteps}
variable i loop 100
label loop1
        read_dump orig.dump 0 x y z
  orthogonal box = (0 -0.599871 0) to (4.48985 16.1802 4.48985)
  336 atoms before read
  336 atoms in snapshot
  0 atoms purged
  336 atoms replaced
  0 atoms trimmed
  0 atoms added
  336 atoms after read
        variable stretch equal 1+$i*${strainstep}
        variable stretch equal 1+1*${strainstep}
        variable stretch equal 1+1*-0.0005
        change_box all ${direction} scale ${stretch} remap
        change_box all y scale ${stretch} remap
        change_box all y scale 0.9995 remap
  orthogonal box = (0 -0.597353 0) to (4.48985 16.1777 4.48985)
        min_style ${style}
        min_style hftn
        minimize ${etol} ${ftol} ${maxiter} ${maxeval}
        minimize 1e-12 ${ftol} ${maxiter} ${maxeval}
        minimize 1e-12 1e-08 ${maxiter} ${maxeval}
        minimize 1e-12 1e-08 10000 ${maxeval}
        minimize 1e-12 1e-08 10000 20000
WARNING: Resetting reneighboring criteria during minimization (../min.cpp:168)
Memory usage per processor = 4.9009 Mbytes
Step PotEng Pxx Pyy Pxy Lx Ly Lz 
       0   -1875.9396    1.4894651  0.039829588 -0.0015682158      4.48985    16.775066      4.48985 
       1   -1875.9415    1.4765363 0.00017113502 0.00033051857      4.48985    16.775066      4.48985 
       2   -1875.9415    1.4765363 0.00017113502 0.00033051857      4.48985    16.775066      4.48985 
       3   -1875.9415    1.4765363 0.00017113502 0.00033051857      4.48985    16.775066      4.48985 
       4   -1875.9415    1.4765363 0.00017113502 0.00033051857      4.48985    16.775066      4.48985 
       5   -1875.9415    1.4765363 0.00017113502 0.00033051857      4.48985    16.775066      4.48985 
       6   -1875.9415    1.4765363 0.00017113502 0.00033051857      4.48985    16.775066      4.48985 
       7   -1875.9415    1.4765363 0.00017113502 0.00033051857      4.48985    16.775066      4.48985 
       8   -1875.9415    1.4765363 0.00017113502 0.00033051857      4.48985    16.775066      4.48985 
       9   -1875.9415    1.4765363 0.00017113502 0.00033051857      4.48985    16.775066      4.48985 
      10   -1875.9415    1.4765363 0.00017113465 0.00033051863      4.48985    16.775066      4.48985 
Loop time of 0.04978 on 1 procs for 9 steps with 336 atoms

Minimization stats:
  Stopping criterion = energy tolerance
  Energy initial, next-to-last, final = 
        -1875.93956929     -1875.93956929     -1875.94150647
  Force two-norm initial, final = 0.318263 0.0217271
  Force max component initial, final = 0.0470301 0.00228434
  Final line search alpha, max atom move = 0 0
  Iterations, force evaluations = 9 178

Pair  time (%) = 0.0444399 (89.2726)
Neigh time (%) = 0 (0)
Comm  time (%) = 0.00124414 (2.49927)
Outpt time (%) = 0.000437229 (0.878322)
Other time (%) = 0.00365875 (7.34984)

Nlocal:    336 ave 336 max 336 min
Histogram: 1 0 0 0 0 0 0 0 0 0
Nghost:    1110 ave 1110 max 1110 min
Histogram: 1 0 0 0 0 0 0 0 0 0
Neighs:    8504 ave 8504 max 8504 min
Histogram: 1 0 0 0 0 0 0 0 0 0

Total # of neighbors = 8504
Ave neighs/atom = 25.3095
Neighbor list builds = 0
Dangerous builds = 0
        next i
jump SELF loop1
        read_dump orig.dump 0 x y z
  orthogonal box = (0 -0.599871 0) to (4.48985 16.1802 4.48985)
  336 atoms before read
  336 atoms in snapshot
  0 atoms purged
  336 atoms replaced
  0 atoms trimmed
  0 atoms added
  336 atoms after read
        variable stretch equal 1+$i*${strainstep}
        variable stretch equal 1+2*${strainstep}
        variable stretch equal 1+2*-0.0005
        change_box all ${direction} scale ${stretch} remap
        change_box all y scale ${stretch} remap
        change_box all y scale 0.999 remap
  orthogonal box = (0 -0.593157 0) to (4.48985 16.1735 4.48985)
        min_style ${style}
        min_style hftn
        minimize ${etol} ${ftol} ${maxiter} ${maxeval}
        minimize 1e-12 ${ftol} ${maxiter} ${maxeval}
        minimize 1e-12 1e-08 ${maxiter} ${maxeval}
        minimize 1e-12 1e-08 10000 ${maxeval}
        minimize 1e-12 1e-08 10000 20000
WARNING: Resetting reneighboring criteria during minimization (../min.cpp:168)
Memory usage per processor = 4.9009 Mbytes
Step PotEng Pxx Pyy Pxy Lx Ly Lz 
       0   -1875.9271    1.5122899   0.10743767 -0.0041747861      4.48985    16.766675      4.48985 
       1   -1875.9415    1.4775149 0.00071966458 0.00087857651      4.48985    16.766675      4.48985 
       2   -1875.9415    1.4775149 0.00071966458 0.00087857651      4.48985    16.766675      4.48985 
       3   -1875.9415    1.4775149 0.00071966458 0.00087857651      4.48985    16.766675      4.48985 
       4   -1875.9415    1.4775149 0.00071966458 0.00087857651      4.48985    16.766675      4.48985 
       5   -1875.9415    1.4775149 0.00071966458 0.00087857651      4.48985    16.766675      4.48985 
       6   -1875.9415    1.4775149 0.00071966458 0.00087857651      4.48985    16.766675      4.48985 
       7   -1875.9415    1.4775149 0.00071966458 0.00087857651      4.48985    16.766675      4.48985 
       8   -1875.9415    1.4775149 0.00071966458 0.00087857651      4.48985    16.766675      4.48985 
       9   -1875.9415    1.4775149 0.00071966458 0.00087857651      4.48985    16.766675      4.48985 
      10   -1875.9415    1.4775149 0.0007196625 0.00087857685      4.48985    16.766675      4.48985 
Loop time of 0.04817 on 1 procs for 9 steps with 336 atoms

Minimization stats:
  Stopping criterion = energy tolerance
  Energy initial, next-to-last, final = 
        -1875.92707947     -1875.92707947     -1875.94150563
  Force two-norm initial, final = 0.859803 0.0531066
  Force max component initial, final = 0.126085 0.00470546
  Final line search alpha, max atom move = 0 0
  Iterations, force evaluations = 9 174

Pair  time (%) = 0.0432735 (89.8349)
Neigh time (%) = 0 (0)
Comm  time (%) = 0.00161506 (3.35283)
Outpt time (%) = 0.000535926 (1.11257)
Other time (%) = 0.00274556 (5.69972)

Nlocal:    336 ave 336 max 336 min
Histogram: 1 0 0 0 0 0 0 0 0 0
Nghost:    1110 ave 1110 max 1110 min
Histogram: 1 0 0 0 0 0 0 0 0 0
Neighs:    8504 ave 8504 max 8504 min
Histogram: 1 0 0 0 0 0 0 0 0 0

Total # of neighbors = 8504
Ave neighs/atom = 25.3095
Neighbor list builds = 0
Dangerous builds = 0
        next i
jump SELF loop1
        read_dump orig.dump 0 x y z
  orthogonal box = (0 -0.599871 0) to (4.48985 16.1802 4.48985)
  336 atoms before read
  336 atoms in snapshot
  0 atoms purged
  336 atoms replaced
  0 atoms trimmed
  0 atoms added
  336 atoms after read
        variable stretch equal 1+$i*${strainstep}
        variable stretch equal 1+3*${strainstep}
        variable stretch equal 1+3*-0.0005
        change_box all ${direction} scale ${stretch} remap
        change_box all y scale ${stretch} remap
        change_box all y scale 0.9985 remap
  orthogonal box = (0 -0.588961 0) to (4.48985 16.1693 4.48985)
        min_style ${style}
        min_style hftn
        minimize ${etol} ${ftol} ${maxiter} ${maxeval}
        minimize 1e-12 ${ftol} ${maxiter} ${maxeval}
        minimize 1e-12 1e-08 ${maxiter} ${maxeval}
        minimize 1e-12 1e-08 10000 ${maxeval}
        minimize 1e-12 1e-08 10000 20000
WARNING: Resetting reneighboring criteria during minimization (../min.cpp:168)
Memory usage per processor = 4.9009 Mbytes
Step PotEng Pxx Pyy Pxy Lx Ly Lz 
       0   -1875.9034    1.5352537   0.17551117 -0.0067361838      4.48985    16.758283      4.48985 
       1   -1875.9415    1.4786273 0.0019231095 0.0012858908      4.48985    16.758283      4.48985 
       2   -1875.9415    1.4779049 -0.00014054999 2.5833585e-05      4.48985    16.758283      4.48985 
       3   -1875.9415    1.4779049 -0.00014054999 2.5833585e-05      4.48985    16.758283      4.48985 
       4   -1875.9415    1.4779049 -0.00014054999 2.5833585e-05      4.48985    16.758283      4.48985 
       5   -1875.9415    1.4779049 -0.00014054999 2.5833585e-05      4.48985    16.758283      4.48985 
       6   -1875.9415    1.4779049 -0.00014054999 2.5833585e-05      4.48985    16.758283      4.48985 
       7   -1875.9415    1.4779049 -0.00014054999 2.5833585e-05      4.48985    16.758283      4.48985 
       8   -1875.9415    1.4779049 -0.00014054999 2.5833585e-05      4.48985    16.758283      4.48985 
       9   -1875.9415    1.4779049 -0.00014054779 2.5835417e-05      4.48985    16.758283      4.48985 
Loop time of 0.0717591 on 1 procs for 8 steps with 336 atoms

Minimization stats:
  Stopping criterion = energy tolerance
  Energy initial, next-to-last, final = 
        -1875.90344492     -1875.94148489     -1875.94148691
  Force two-norm initial, final = 1.40682 0.00623984
  Force max component initial, final = 0.205797 0.00149748
  Final line search alpha, max atom move = 0 0
  Iterations, force evaluations = 8 239

Pair  time (%) = 0.0593504 (82.7079)
Neigh time (%) = 0 (0)
Comm  time (%) = 0.00514053 (7.16359)
Outpt time (%) = 0.00347673 (4.84501)
Other time (%) = 0.00379142 (5.28354)

Nlocal:    336 ave 336 max 336 min
Histogram: 1 0 0 0 0 0 0 0 0 0
Nghost:    1110 ave 1110 max 1110 min
Histogram: 1 0 0 0 0 0 0 0 0 0
Neighs:    8504 ave 8504 max 8504 min
Histogram: 1 0 0 0 0 0 0 0 0 0

Total # of neighbors = 8504
Ave neighs/atom = 25.3095
Neighbor list builds = 0
Dangerous builds = 0
        next i
jump SELF loop1
        read_dump orig.dump 0 x y z
  orthogonal box = (0 -0.599871 0) to (4.48985 16.1802 4.48985)
  336 atoms before read
  336 atoms in snapshot
  0 atoms purged
  336 atoms replaced
  0 atoms trimmed
  0 atoms added
  336 atoms after read
        variable stretch equal 1+$i*${strainstep}
        variable stretch equal 1+4*${strainstep}
        variable stretch equal 1+4*-0.0005
        change_box all ${direction} scale ${stretch} remap
        change_box all y scale ${stretch} remap
        change_box all y scale 0.998 remap
  orthogonal box = (0 -0.584765 0) to (4.48985 16.1651 4.48985)
        min_style ${style}
        min_style hftn
        minimize ${etol} ${ftol} ${maxiter} ${maxeval}
        minimize 1e-12 ${ftol} ${maxiter} ${maxeval}
        minimize 1e-12 1e-08 ${maxiter} ${maxeval}
        minimize 1e-12 1e-08 10000 ${maxeval}
        minimize 1e-12 1e-08 10000 20000
WARNING: Resetting reneighboring criteria during minimization (../min.cpp:168)
Memory usage per processor = 4.9009 Mbytes
Step PotEng Pxx Pyy Pxy Lx Ly Lz 
       0   -1875.8676    1.5583843   0.24411098 -0.0092824664      4.48985    16.749891      4.48985 
       1   -1875.9415    1.4799428 0.0032878496 0.0019478092      4.48985    16.749891      4.48985 
       2   -1875.9415    1.4799428 0.0032878496 0.0019478092      4.48985    16.749891      4.48985 
       3   -1875.9415    1.4799428 0.0032878496 0.0019478092      4.48985    16.749891      4.48985 
       4   -1875.9415    1.4799428 0.0032878496 0.0019478092      4.48985    16.749891      4.48985 
       5   -1875.9415    1.4799428 0.0032878496 0.0019478092      4.48985    16.749891      4.48985 
       6   -1875.9415    1.4799428 0.0032878496 0.0019478092      4.48985    16.749891      4.48985 
       7   -1875.9415    1.4799428 0.0032878496 0.0019478092      4.48985    16.749891      4.48985 
       8   -1875.9415    1.4799428 0.0032878496 0.0019478092      4.48985    16.749891      4.48985 
       9   -1875.9415    1.4799428 0.0032878496 0.0019478092      4.48985    16.749891      4.48985 
      10   -1875.9415    1.4799428 0.0032878496 0.0019478092      4.48985    16.749891      4.48985 
      11   -1875.9415    1.4799428 0.0032878329 0.0019478076      4.48985    16.749891      4.48985 
Loop time of 0.049574 on 1 procs for 10 steps with 336 atoms

Minimization stats:
  Stopping criterion = energy tolerance
  Energy initial, next-to-last, final = 
        -1875.86762804     -1875.86762804     -1875.94149578
  Force two-norm initial, final = 1.95739 0.126929
  Force max component initial, final = 0.285996 0.0138143
  Final line search alpha, max atom move = 0 0
  Iterations, force evaluations = 10 181

Pair  time (%) = 0.0414819 (83.6767)
Neigh time (%) = 0 (0)
Comm  time (%) = 0.00131537 (2.65336)
Outpt time (%) = 0.000991735 (2.00051)
Other time (%) = 0.005785 (11.6694)

Nlocal:    336 ave 336 max 336 min
Histogram: 1 0 0 0 0 0 0 0 0 0
Nghost:    1110 ave 1110 max 1110 min
Histogram: 1 0 0 0 0 0 0 0 0 0
Neighs:    8504 ave 8504 max 8504 min
Histogram: 1 0 0 0 0 0 0 0 0 0

Total # of neighbors = 8504
Ave neighs/atom = 25.3095
Neighbor list builds = 0
Dangerous builds = 0
        next i
jump SELF loop1
        read_dump orig.dump 0 x y z
  orthogonal box = (0 -0.599871 0) to (4.48985 16.1802 4.48985)
  336 atoms before read
  336 atoms in snapshot
  0 atoms purged
  336 atoms replaced
  0 atoms trimmed
  0 atoms added
  336 atoms after read
        variable stretch equal 1+$i*${strainstep}
        variable stretch equal 1+5*${strainstep}
        variable stretch equal 1+5*-0.0005
        change_box all ${direction} scale ${stretch} remap
        change_box all y scale ${stretch} remap
        change_box all y scale 0.9975 remap
  orthogonal box = (0 -0.580569 0) to (4.48985 16.1609 4.48985)
        min_style ${style}
        min_style hftn
        minimize ${etol} ${ftol} ${maxiter} ${maxeval}
        minimize 1e-12 ${ftol} ${maxiter} ${maxeval}
        minimize 1e-12 1e-08 ${maxiter} ${maxeval}
        minimize 1e-12 1e-08 10000 ${maxeval}
        minimize 1e-12 1e-08 10000 20000
WARNING: Resetting reneighboring criteria during minimization (../min.cpp:168)
Memory usage per processor = 4.9009 Mbytes
Step PotEng Pxx Pyy Pxy Lx Ly Lz 
       0   -1875.8209    1.5816136   0.31311226 -0.011724988      4.48985    16.741499      4.48985 
       1   -1875.9413    1.4803733 0.0041834147 0.0018978553      4.48985    16.741499      4.48985 
       2   -1875.9415    1.4793162 -0.00035594748 7.6743721e-05      4.48985    16.741499      4.48985 
       3   -1875.9415    1.4794156 5.5653217e-07 1.5193656e-07      4.48985    16.741499      4.48985 
       4   -1875.9415    1.4794153 -7.5336087e-12 9.7965362e-12      4.48985    16.741499      4.48985 
Loop time of 0.0862951 on 1 procs for 3 steps with 336 atoms

Minimization stats:
  Stopping criterion = force tolerance
  Energy initial, next-to-last, final = 
        -1875.82089549     -1875.94148185     -1875.94148515
  Force two-norm initial, final = 2.51244 4.24197e-09
  Force max component initial, final = 0.366825 7.49456e-10
  Final line search alpha, max atom move = 0 0
  Iterations, force evaluations = 3 306

Pair  time (%) = 0.074228 (86.0166)
Neigh time (%) = 0 (0)
Comm  time (%) = 0.00561582 (6.50769)
Outpt time (%) = 0.000185042 (0.214429)
Other time (%) = 0.00626615 (7.26131)

Nlocal:    336 ave 336 max 336 min
Histogram: 1 0 0 0 0 0 0 0 0 0
Nghost:    1110 ave 1110 max 1110 min
Histogram: 1 0 0 0 0 0 0 0 0 0
Neighs:    8504 ave 8504 max 8504 min
Histogram: 1 0 0 0 0 0 0 0 0 0

Total # of neighbors = 8504
Ave neighs/atom = 25.3095
Neighbor list builds = 0
Dangerous builds = 0
        next i
jump SELF loop1
        read_dump orig.dump 0 x y z
  orthogonal box = (0 -0.599871 0) to (4.48985 16.1802 4.48985)
  336 atoms before read
  336 atoms in snapshot
  0 atoms purged
  336 atoms replaced
  0 atoms trimmed
  0 atoms added
  336 atoms after read
        variable stretch equal 1+$i*${strainstep}
        variable stretch equal 1+6*${strainstep}
        variable stretch equal 1+6*-0.0005
        change_box all ${direction} scale ${stretch} remap
        change_box all y scale ${stretch} remap
        change_box all y scale 0.997 remap
  orthogonal box = (0 -0.576373 0) to (4.48985 16.1567 4.48985)
        min_style ${style}
        min_style hftn
        minimize ${etol} ${ftol} ${maxiter} ${maxeval}
        minimize 1e-12 ${ftol} ${maxiter} ${maxeval}
        minimize 1e-12 1e-08 ${maxiter} ${maxeval}
        minimize 1e-12 1e-08 10000 ${maxeval}
        minimize 1e-12 1e-08 10000 20000
WARNING: Resetting reneighboring criteria during minimization (../min.cpp:168)
Memory usage per processor = 4.9009 Mbytes
Step PotEng Pxx Pyy Pxy Lx Ly Lz 
       0   -1875.7618    1.6048539   0.38238537   -0.0139579      4.48985    16.733108      4.48985 
       1   -1875.9412    1.4818992 0.0064752643 0.0023123031      4.48985    16.733108      4.48985 
       2   -1875.9415     1.480138 -0.0001662233 3.6749399e-05      4.48985    16.733108      4.48985 
       3   -1875.9415     1.480138 -0.0001662233 3.6749399e-05      4.48985    16.733108      4.48985 
       4   -1875.9415     1.480138 -0.0001662233 3.6749399e-05      4.48985    16.733108      4.48985 
       5   -1875.9415     1.480138 -0.0001662233 3.6749399e-05      4.48985    16.733108      4.48985 
       6   -1875.9415     1.480138 -0.0001662233 3.6749399e-05      4.48985    16.733108      4.48985 
       7   -1875.9415     1.480138 -0.0001662233 3.6749399e-05      4.48985    16.733108      4.48985 
       8   -1875.9415     1.480138 -0.0001662233 3.6749399e-05      4.48985    16.733108      4.48985 
       9   -1875.9415     1.480138 -0.00016621983 3.6752112e-05      4.48985    16.733108      4.48985 
Loop time of 0.063988 on 1 procs for 8 steps with 336 atoms

Minimization stats:
  Stopping criterion = energy tolerance
  Energy initial, next-to-last, final = 
        -1875.76178231     -1875.94124106     -1875.94149079
  Force two-norm initial, final = 3.07267 0.0126552
  Force max component initial, final = 0.448289 0.00129039
  Final line search alpha, max atom move = 0 0
  Iterations, force evaluations = 8 235

Pair  time (%) = 0.0578707 (90.4399)
Neigh time (%) = 0 (0)
Comm  time (%) = 0.00136006 (2.12549)
Outpt time (%) = 0.000440144 (0.687854)
Other time (%) = 0.00431715 (6.7468)

Nlocal:    336 ave 336 max 336 min
Histogram: 1 0 0 0 0 0 0 0 0 0
Nghost:    1110 ave 1110 max 1110 min
Histogram: 1 0 0 0 0 0 0 0 0 0
Neighs:    8504 ave 8504 max 8504 min
Histogram: 1 0 0 0 0 0 0 0 0 0

Total # of neighbors = 8504
Ave neighs/atom = 25.3095
Neighbor list builds = 0
Dangerous builds = 0
        next i
jump SELF loop1
        read_dump orig.dump 0 x y z
  orthogonal box = (0 -0.599871 0) to (4.48985 16.1802 4.48985)
  336 atoms before read
  336 atoms in snapshot
  0 atoms purged
  336 atoms replaced
  0 atoms trimmed
  0 atoms added
  336 atoms after read
        variable stretch equal 1+$i*${strainstep}
        variable stretch equal 1+7*${strainstep}
        variable stretch equal 1+7*-0.0005
        change_box all ${direction} scale ${stretch} remap
        change_box all y scale ${stretch} remap
        change_box all y scale 0.9965 remap
  orthogonal box = (0 -0.572178 0) to (4.48985 16.1525 4.48985)
        min_style ${style}
        min_style hftn
        minimize ${etol} ${ftol} ${maxiter} ${maxeval}
        minimize 1e-12 ${ftol} ${maxiter} ${maxeval}
        minimize 1e-12 1e-08 ${maxiter} ${maxeval}
        minimize 1e-12 1e-08 10000 ${maxeval}
        minimize 1e-12 1e-08 10000 20000
WARNING: Resetting reneighboring criteria during minimization (../min.cpp:168)
Memory usage per processor = 4.9009 Mbytes
Step PotEng Pxx Pyy Pxy Lx Ly Lz 
       0   -1875.6916    1.6279397   0.45166914 -0.015762128      4.48985    16.724716      4.48985 
       1   -1875.9397    1.4790444 0.0022427405 0.0015020634      4.48985    16.724716      4.48985 
       2   -1875.9415    1.4813021 -0.00017845635 0.0026007949      4.48985    16.724716      4.48985 
       3   -1875.9415    1.4809074 1.8412481e-05 -3.2017386e-07      4.48985    16.724716      4.48985 
       4   -1875.9415    1.4808999 3.3839764e-09 4.1423166e-08      4.48985    16.724716      4.48985 
       5   -1875.9415    1.4808999 -4.6490171e-13 3.463215e-13      4.48985    16.724716      4.48985 
Loop time of 0.091921 on 1 procs for 4 steps with 336 atoms

Minimization stats:
  Stopping criterion = force tolerance
  Energy initial, next-to-last, final = 
        -1875.69155302     -1875.94148514     -1875.94148515
  Force two-norm initial, final = 3.64062 3.67959e-10
  Force max component initial, final = 0.530373 7.57563e-11
  Final line search alpha, max atom move = 0 0
  Iterations, force evaluations = 4 328

Pair  time (%) = 0.0799772 (87.0064)
Neigh time (%) = 0 (0)
Comm  time (%) = 0.0044883 (4.88278)
Outpt time (%) = 0.000247102 (0.26882)
Other time (%) = 0.00720847 (7.84202)

Nlocal:    336 ave 336 max 336 min
Histogram: 1 0 0 0 0 0 0 0 0 0
Nghost:    1110 ave 1110 max 1110 min
Histogram: 1 0 0 0 0 0 0 0 0 0
Neighs:    8504 ave 8504 max 8504 min
Histogram: 1 0 0 0 0 0 0 0 0 0

Total # of neighbors = 8504
Ave neighs/atom = 25.3095
Neighbor list builds = 0
Dangerous builds = 0
        next i
jump SELF loop1
        read_dump orig.dump 0 x y z
  orthogonal box = (0 -0.599871 0) to (4.48985 16.1802 4.48985)
  336 atoms before read
  336 atoms in snapshot
  0 atoms purged
  336 atoms replaced
  0 atoms trimmed
  0 atoms added
  336 atoms after read
        variable stretch equal 1+$i*${strainstep}
        variable stretch equal 1+8*${strainstep}
        variable stretch equal 1+8*-0.0005
        change_box all ${direction} scale ${stretch} remap
        change_box all y scale ${stretch} remap
        change_box all y scale 0.996 remap
  orthogonal box = (0 -0.567982 0) to (4.48985 16.1483 4.48985)
        min_style ${style}
        min_style hftn
        minimize ${etol} ${ftol} ${maxiter} ${maxeval}
        minimize 1e-12 ${ftol} ${maxiter} ${maxeval}
        minimize 1e-12 1e-08 ${maxiter} ${maxeval}
        minimize 1e-12 1e-08 10000 ${maxeval}
        minimize 1e-12 1e-08 10000 20000
WARNING: Resetting reneighboring criteria during minimization (../min.cpp:168)
Memory usage per processor = 4.9009 Mbytes
Step PotEng Pxx Pyy Pxy Lx Ly Lz 
       0    -1875.609    1.6509955   0.52116255 -0.017302205      4.48985    16.716324      4.48985 
       1   -1875.9361    1.4776556 0.00065696618 0.00033392038      4.48985    16.716324      4.48985 
       2   -1875.9413    1.4820431 -0.00062378036  0.005545596      4.48985    16.716324      4.48985 
       3   -1875.9415    1.4816468 2.5099396e-05 -4.9988911e-07      4.48985    16.716324      4.48985 
       4   -1875.9415    1.4816434 -2.1920249e-08 5.8950899e-09      4.48985    16.716324      4.48985 
       5   -1875.9415    1.4816434 4.8169717e-11 -8.3329765e-12      4.48985    16.716324      4.48985 
Loop time of 0.116722 on 1 procs for 4 steps with 336 atoms

Minimization stats:
  Stopping criterion = force tolerance
  Energy initial, next-to-last, final = 
        -1875.60900142     -1875.94148505     -1875.94148515
  Force two-norm initial, final = 4.21739 2.2986e-09
  Force max component initial, final = 0.613027 4.40174e-10
  Final line search alpha, max atom move = 0 0
  Iterations, force evaluations = 4 322

Pair  time (%) = 0.0907235 (77.7261)
Neigh time (%) = 0 (0)
Comm  time (%) = 0.0160731 (13.7704)
Outpt time (%) = 0.000260096 (0.222833)
Other time (%) = 0.00966538 (8.28068)

Nlocal:    336 ave 336 max 336 min
Histogram: 1 0 0 0 0 0 0 0 0 0
Nghost:    1110 ave 1110 max 1110 min
Histogram: 1 0 0 0 0 0 0 0 0 0
Neighs:    8504 ave 8504 max 8504 min
Histogram: 1 0 0 0 0 0 0 0 0 0

Total # of neighbors = 8504
Ave neighs/atom = 25.3095
Neighbor list builds = 0
Dangerous builds = 0
        next i
jump SELF loop1
        read_dump orig.dump 0 x y z
  orthogonal box = (0 -0.599871 0) to (4.48985 16.1802 4.48985)
  336 atoms before read
  336 atoms in snapshot
  0 atoms purged
  336 atoms replaced
  0 atoms trimmed
  0 atoms added
  336 atoms after read
        variable stretch equal 1+$i*${strainstep}
        variable stretch equal 1+9*${strainstep}
        variable stretch equal 1+9*-0.0005
        change_box all ${direction} scale ${stretch} remap
        change_box all y scale ${stretch} remap
        change_box all y scale 0.9955 remap
  orthogonal box = (0 -0.563786 0) to (4.48985 16.1441 4.48985)
        min_style ${style}
        min_style hftn
        minimize ${etol} ${ftol} ${maxiter} ${maxeval}
        minimize 1e-12 ${ftol} ${maxiter} ${maxeval}
        minimize 1e-12 1e-08 ${maxiter} ${maxeval}
        minimize 1e-12 1e-08 10000 ${maxeval}
        minimize 1e-12 1e-08 10000 20000
WARNING: Resetting reneighboring criteria during minimization (../min.cpp:168)
Memory usage per processor = 4.9009 Mbytes
Step PotEng Pxx Pyy Pxy Lx Ly Lz 
       0   -1875.5153     1.673901   0.59067521 -0.018415579      4.48985    16.707933      4.48985 
       1   -1875.9327    1.4761329 -0.00012506273 -0.0009681298      4.48985    16.707933      4.48985 
       2   -1875.9413    1.4826327 -0.0012804704 0.0063594182      4.48985    16.707933      4.48985 
       3   -1875.9415    1.4823906 8.1212412e-06 3.8267847e-07      4.48985    16.707933      4.48985 
       4   -1875.9415    1.4823906 8.1212412e-06 3.8267847e-07      4.48985    16.707933      4.48985 
       5   -1875.9415    1.4823908 8.8762159e-06 1.6467357e-07      4.48985    16.707933      4.48985 
       6   -1875.9415    1.4823908 8.8762159e-06 1.6467357e-07      4.48985    16.707933      4.48985 
       7   -1875.9415    1.4823908 8.8762159e-06 1.6467357e-07      4.48985    16.707933      4.48985 
       8   -1875.9415    1.4823908 8.8762159e-06 1.6467357e-07      4.48985    16.707933      4.48985 
       9   -1875.9415    1.4823908 8.8762159e-06 1.6467357e-07      4.48985    16.707933      4.48985 
      10   -1875.9415    1.4823908 8.876512e-06 1.6100564e-07      4.48985    16.707933      4.48985 
Loop time of 0.097877 on 1 procs for 9 steps with 336 atoms

Minimization stats:
  Stopping criterion = energy tolerance
  Energy initial, next-to-last, final = 
        -1875.51527639     -1875.94148544      -1875.9414858
  Force two-norm initial, final = 4.80648 0.00158031
  Force max component initial, final = 0.696251 0.000276095
  Final line search alpha, max atom move = 0 0
  Iterations, force evaluations = 9 264

Pair  time (%) = 0.0777547 (79.4412)
Neigh time (%) = 0 (0)
Comm  time (%) = 0.00623143 (6.36659)
Outpt time (%) = 0.00735178 (7.51124)
Other time (%) = 0.00653911 (6.68094)

Nlocal:    336 ave 336 max 336 min
Histogram: 1 0 0 0 0 0 0 0 0 0
Nghost:    1110 ave 1110 max 1110 min
Histogram: 1 0 0 0 0 0 0 0 0 0
Neighs:    8504 ave 8504 max 8504 min
Histogram: 1 0 0 0 0 0 0 0 0 0

Total # of neighbors = 8504
Ave neighs/atom = 25.3095
Neighbor list builds = 0
Dangerous builds = 0
        next i
jump SELF loop1
        read_dump orig.dump 0 x y z
  orthogonal box = (0 -0.599871 0) to (4.48985 16.1802 4.48985)
  336 atoms before read
  336 atoms in snapshot
  0 atoms purged
  336 atoms replaced
  0 atoms trimmed
  0 atoms added
  336 atoms after read
        variable stretch equal 1+$i*${strainstep}
        variable stretch equal 1+10*${strainstep}
        variable stretch equal 1+10*-0.0005
        change_box all ${direction} scale ${stretch} remap
        change_box all y scale ${stretch} remap
        change_box all y scale 0.995 remap
  orthogonal box = (0 -0.55959 0) to (4.48985 16.1399 4.48985)
        min_style ${style}
        min_style hftn
        minimize ${etol} ${ftol} ${maxiter} ${maxeval}
        minimize 1e-12 ${ftol} ${maxiter} ${maxeval}
        minimize 1e-12 1e-08 ${maxiter} ${maxeval}
        minimize 1e-12 1e-08 10000 ${maxeval}
        minimize 1e-12 1e-08 10000 20000
WARNING: Resetting reneighboring criteria during minimization (../min.cpp:168)
Memory usage per processor = 4.9009 Mbytes
Step PotEng Pxx Pyy Pxy Lx Ly Lz 
       0   -1875.4092    1.6969468   0.66068406 -0.019478115      4.48985    16.699541      4.48985 
       1   -1875.9317    1.4776367 0.0035063384 -0.0015702937      4.48985    16.699541      4.48985 
       2   -1875.9413    1.4842374 0.0012935135 0.0061589083      4.48985    16.699541      4.48985 
       3   -1875.9415    1.4831262 -1.6298133e-05 4.6698513e-06      4.48985    16.699541      4.48985 
       4   -1875.9415    1.4831262 -1.6298133e-05 4.6698513e-06      4.48985    16.699541      4.48985 
       5   -1875.9415    1.4831262 -1.6298133e-05 4.6698513e-06      4.48985    16.699541      4.48985 
       6   -1875.9415    1.4831262 -1.6298133e-05 4.6698513e-06      4.48985    16.699541      4.48985 
       7   -1875.9415    1.4831262 -1.6298133e-05 4.6698513e-06      4.48985    16.699541      4.48985 
       8   -1875.9415    1.4831262 -1.6298133e-05 4.6698513e-06      4.48985    16.699541      4.48985 
       9   -1875.9415    1.4831262 -1.629819e-05 4.6695301e-06      4.48985    16.699541      4.48985 
Loop time of 0.0650099 on 1 procs for 8 steps with 336 atoms

Minimization stats:
  Stopping criterion = energy tolerance
  Energy initial, next-to-last, final = 
        -1875.40915282     -1875.94126894     -1875.94148581
  Force two-norm initial, final = 5.40329 0.00279295
  Force max component initial, final = 0.780092 0.000502753
  Final line search alpha, max atom move = 0 0
  Iterations, force evaluations = 8 233

Pair  time (%) = 0.0552742 (85.0242)
Neigh time (%) = 0 (0)
Comm  time (%) = 0.00513639 (7.90093)
Outpt time (%) = 0.000610984 (0.939832)
Other time (%) = 0.00398838 (6.13504)

Nlocal:    336 ave 336 max 336 min
Histogram: 1 0 0 0 0 0 0 0 0 0
Nghost:    1110 ave 1110 max 1110 min
Histogram: 1 0 0 0 0 0 0 0 0 0
Neighs:    8504 ave 8504 max 8504 min
Histogram: 1 0 0 0 0 0 0 0 0 0

Total # of neighbors = 8504
Ave neighs/atom = 25.3095
Neighbor list builds = 0
Dangerous builds = 0
        next i
jump SELF loop1
        read_dump orig.dump 0 x y z
  orthogonal box = (0 -0.599871 0) to (4.48985 16.1802 4.48985)
  336 atoms before read
  336 atoms in snapshot
  0 atoms purged
  336 atoms replaced
  0 atoms trimmed
  0 atoms added
  336 atoms after read
        variable stretch equal 1+$i*${strainstep}
        variable stretch equal 1+11*${strainstep}
        variable stretch equal 1+11*-0.0005
        change_box all ${direction} scale ${stretch} remap
        change_box all y scale ${stretch} remap
        change_box all y scale 0.9945 remap
  orthogonal box = (0 -0.555394 0) to (4.48985 16.1358 4.48985)
        min_style ${style}
        min_style hftn
        minimize ${etol} ${ftol} ${maxiter} ${maxeval}
        minimize 1e-12 ${ftol} ${maxiter} ${maxeval}
        minimize 1e-12 1e-08 ${maxiter} ${maxeval}
        minimize 1e-12 1e-08 10000 ${maxeval}
        minimize 1e-12 1e-08 10000 20000
WARNING: Resetting reneighboring criteria during minimization (../min.cpp:168)
Memory usage per processor = 4.9009 Mbytes
Step PotEng Pxx Pyy Pxy Lx Ly Lz 
       0   -1875.2919      1.72012   0.73114894 -0.020470026      4.48985    16.691149      4.48985 
       1   -1875.9317    1.4798193 0.0079559075 -0.0018013112      4.48985    16.691149      4.48985 
       2   -1875.9413    1.4861016 0.0046060296 0.0059249269      4.48985    16.691149      4.48985 
       3   -1875.9415    1.4838776 7.7872147e-07 5.8170461e-06      4.48985    16.691149      4.48985 
       4   -1875.9415    1.4838776 7.7872147e-07 5.8170461e-06      4.48985    16.691149      4.48985 
       5   -1875.9415    1.4838776 7.7872147e-07 5.8170461e-06      4.48985    16.691149      4.48985 
       6   -1875.9415    1.4838776 7.7872147e-07 5.8170461e-06      4.48985    16.691149      4.48985 
       7   -1875.9415    1.4838776 7.7872147e-07 5.8170461e-06      4.48985    16.691149      4.48985 
       8   -1875.9415    1.4838776 7.7872147e-07 5.8170461e-06      4.48985    16.691149      4.48985 
       9   -1875.9415    1.4838776  7.80483e-07 5.8164501e-06      4.48985    16.691149      4.48985 
Loop time of 0.121409 on 1 procs for 8 steps with 336 atoms

Minimization stats:
  Stopping criterion = energy tolerance
  Energy initial, next-to-last, final = 
        -1875.29186535     -1875.94125373     -1875.94148606
  Force two-norm initial, final = 6.00627 0.00258857
  Force max component initial, final = 0.86448 0.000337368
  Final line search alpha, max atom move = 0 0
  Iterations, force evaluations = 8 257

Pair  time (%) = 0.0775486 (63.8738)
Neigh time (%) = 0 (0)
Comm  time (%) = 0.0291194 (23.9845)
Outpt time (%) = 0.0005578 (0.459439)
Other time (%) = 0.0141832 (11.6822)

Nlocal:    336 ave 336 max 336 min
Histogram: 1 0 0 0 0 0 0 0 0 0
Nghost:    1110 ave 1110 max 1110 min
Histogram: 1 0 0 0 0 0 0 0 0 0
Neighs:    8520 ave 8520 max 8520 min
Histogram: 1 0 0 0 0 0 0 0 0 0

Total # of neighbors = 8520
Ave neighs/atom = 25.3571
Neighbor list builds = 0
Dangerous builds = 0
        next i
jump SELF loop1
        read_dump orig.dump 0 x y z
  orthogonal box = (0 -0.599871 0) to (4.48985 16.1802 4.48985)
  336 atoms before read
  336 atoms in snapshot
  0 atoms purged
  336 atoms replaced
  0 atoms trimmed
  0 atoms added
  336 atoms after read
        variable stretch equal 1+$i*${strainstep}
        variable stretch equal 1+12*${strainstep}
        variable stretch equal 1+12*-0.0005
        change_box all ${direction} scale ${stretch} remap
        change_box all y scale ${stretch} remap
        change_box all y scale 0.994 remap
  orthogonal box = (0 -0.551198 0) to (4.48985 16.1316 4.48985)
        min_style ${style}
        min_style hftn
        minimize ${etol} ${ftol} ${maxiter} ${maxeval}
        minimize 1e-12 ${ftol} ${maxiter} ${maxeval}
        minimize 1e-12 1e-08 ${maxiter} ${maxeval}
        minimize 1e-12 1e-08 10000 ${maxeval}
        minimize 1e-12 1e-08 10000 20000
WARNING: Resetting reneighboring criteria during minimization (../min.cpp:168)
Memory usage per processor = 4.9009 Mbytes
Step PotEng Pxx Pyy Pxy Lx Ly Lz 
       0   -1875.1622    1.7434487   0.80213704 -0.021424737      4.48985    16.682757      4.48985 
       1   -1875.9315    1.4825251   0.01379372 -0.0022858489      4.48985    16.682757      4.48985 
       2   -1875.9412    1.4883506 0.0090302534 0.0055835537      4.48985    16.682757      4.48985 
       3   -1875.9415    1.4846229 3.9088447e-07 7.086607e-06      4.48985    16.682757      4.48985 
       4   -1875.9415    1.4846229 3.9088447e-07 7.086607e-06      4.48985    16.682757      4.48985 
       5   -1875.9415    1.4846229 3.9088447e-07 7.086607e-06      4.48985    16.682757      4.48985 
       6   -1875.9415    1.4846229 3.9088447e-07 7.086607e-06      4.48985    16.682757      4.48985 
       7   -1875.9415    1.4846229 3.9088447e-07 7.086607e-06      4.48985    16.682757      4.48985 
       8   -1875.9415    1.4846229 3.9088447e-07 7.086607e-06      4.48985    16.682757      4.48985 
       9   -1875.9415    1.4846229 3.9613745e-07 7.0856431e-06      4.48985    16.682757      4.48985 
Loop time of 0.073115 on 1 procs for 8 steps with 336 atoms

Minimization stats:
  Stopping criterion = energy tolerance
  Energy initial, next-to-last, final = 
        -1875.16219689     -1875.94116975     -1875.94148651
  Force two-norm initial, final = 6.6152 0.00259061
  Force max component initial, final = 0.949661 0.000349848
  Final line search alpha, max atom move = 0 0
  Iterations, force evaluations = 8 255

Pair  time (%) = 0.0605002 (82.7466)
Neigh time (%) = 0 (0)
Comm  time (%) = 0.00654557 (8.95244)
Outpt time (%) = 0.00122701 (1.6782)
Other time (%) = 0.00484222 (6.62275)

Nlocal:    336 ave 336 max 336 min
Histogram: 1 0 0 0 0 0 0 0 0 0
Nghost:    1110 ave 1110 max 1110 min
Histogram: 1 0 0 0 0 0 0 0 0 0
Neighs:    8520 ave 8520 max 8520 min
Histogram: 1 0 0 0 0 0 0 0 0 0

Total # of neighbors = 8520
Ave neighs/atom = 25.3571
Neighbor list builds = 0
Dangerous builds = 0
        next i
jump SELF loop1
        read_dump orig.dump 0 x y z
  orthogonal box = (0 -0.599871 0) to (4.48985 16.1802 4.48985)
  336 atoms before read
  336 atoms in snapshot
  0 atoms purged
  336 atoms replaced
  0 atoms trimmed
  0 atoms added
  336 atoms after read
        variable stretch equal 1+$i*${strainstep}
        variable stretch equal 1+13*${strainstep}
        variable stretch equal 1+13*-0.0005
        change_box all ${direction} scale ${stretch} remap
        change_box all y scale ${stretch} remap
        change_box all y scale 0.9935 remap
  orthogonal box = (0 -0.547002 0) to (4.48985 16.1274 4.48985)
        min_style ${style}
        min_style hftn
        minimize ${etol} ${ftol} ${maxiter} ${maxeval}
        minimize 1e-12 ${ftol} ${maxiter} ${maxeval}
        minimize 1e-12 1e-08 ${maxiter} ${maxeval}
        minimize 1e-12 1e-08 10000 ${maxeval}
        minimize 1e-12 1e-08 10000 20000
WARNING: Resetting reneighboring criteria during minimization (../min.cpp:168)
Memory usage per processor = 4.9009 Mbytes
Step PotEng Pxx Pyy Pxy Lx Ly Lz 
       0   -1875.0206    1.7669284   0.87363152 -0.022322268      4.48985    16.674366      4.48985 
       1   -1875.9316    1.4851748  0.019168935 -0.0025208885      4.48985    16.674366      4.48985 
       2   -1875.9414    1.4862775 0.0011183078 0.0038248684      4.48985    16.674366      4.48985 
       3   -1875.9415    1.4853704 3.2826775e-06 -9.5799401e-07      4.48985    16.674366      4.48985 
       4   -1875.9415    1.4853717 1.2237166e-08 1.3616173e-08      4.48985    16.674366      4.48985 
       5   -1875.9415    1.4853717 -1.5085611e-10 2.2002936e-11      4.48985    16.674366      4.48985 
Loop time of 0.096329 on 1 procs for 4 steps with 336 atoms

Minimization stats:
  Stopping criterion = force tolerance
  Energy initial, next-to-last, final = 
        -1875.02060103     -1875.94148511     -1875.94148515
  Force two-norm initial, final = 7.22948 5.24467e-09
  Force max component initial, final = 1.03535 8.66641e-10
  Final line search alpha, max atom move = 0 0
  Iterations, force evaluations = 4 344

Pair  time (%) = 0.0842261 (87.4358)
Neigh time (%) = 0 (0)
Comm  time (%) = 0.00529612 (5.49795)
Outpt time (%) = 0.000286012 (0.296911)
Other time (%) = 0.00652083 (6.76933)

Nlocal:    336 ave 336 max 336 min
Histogram: 1 0 0 0 0 0 0 0 0 0
Nghost:    1110 ave 1110 max 1110 min
Histogram: 1 0 0 0 0 0 0 0 0 0
Neighs:    8520 ave 8520 max 8520 min
Histogram: 1 0 0 0 0 0 0 0 0 0

Total # of neighbors = 8520
Ave neighs/atom = 25.3571
Neighbor list builds = 0
Dangerous builds = 0
        next i
jump SELF loop1
        read_dump orig.dump 0 x y z
  orthogonal box = (0 -0.599871 0) to (4.48985 16.1802 4.48985)
  336 atoms before read
  336 atoms in snapshot
  0 atoms purged
  336 atoms replaced
  0 atoms trimmed
  0 atoms added
  336 atoms after read
        variable stretch equal 1+$i*${strainstep}
        variable stretch equal 1+14*${strainstep}
        variable stretch equal 1+14*-0.0005
        change_box all ${direction} scale ${stretch} remap
        change_box all y scale ${stretch} remap
        change_box all y scale 0.993 remap
  orthogonal box = (0 -0.542807 0) to (4.48985 16.1232 4.48985)
        min_style ${style}
        min_style hftn
        minimize ${etol} ${ftol} ${maxiter} ${maxeval}
        minimize 1e-12 ${ftol} ${maxiter} ${maxeval}
        minimize 1e-12 1e-08 ${maxiter} ${maxeval}
        minimize 1e-12 1e-08 10000 ${maxeval}
        minimize 1e-12 1e-08 10000 20000
WARNING: Resetting reneighboring criteria during minimization (../min.cpp:168)
Memory usage per processor = 4.9009 Mbytes
Step PotEng Pxx Pyy Pxy Lx Ly Lz 
       0   -1874.8666    1.7905644    0.9456504 -0.023177646      4.48985    16.665974      4.48985 
       1   -1875.9312    1.4881033    0.0262941 -0.0028822677      4.48985    16.665974      4.48985 
       2   -1875.9414    1.4869891  0.001131235 0.0036507421      4.48985    16.665974      4.48985 
       3   -1875.9415    1.4861153 -4.4247789e-06 -2.659477e-06      4.48985    16.665974      4.48985 
       4   -1875.9415    1.4861153 -4.4247789e-06 -2.659477e-06      4.48985    16.665974      4.48985 
       5   -1875.9415    1.4861163 -5.5250034e-06 -3.064831e-06      4.48985    16.665974      4.48985 
       6   -1875.9415    1.4861163 -5.5250034e-06 -3.064831e-06      4.48985    16.665974      4.48985 
       7   -1875.9415    1.4861166 -6.0894897e-06 -2.7394972e-06      4.48985    16.665974      4.48985 
       8   -1875.9415    1.4861166 -6.0894897e-06 -2.7394972e-06      4.48985    16.665974      4.48985 
       9   -1875.9415    1.4861166 -6.0894897e-06 -2.7394972e-06      4.48985    16.665974      4.48985 
      10   -1875.9415    1.4861166 -6.0894897e-06 -2.7394972e-06      4.48985    16.665974      4.48985 
      11   -1875.9415    1.4861166 -6.0894897e-06 -2.7394972e-06      4.48985    16.665974      4.48985 
      12   -1875.9415    1.4861166 -6.0904856e-06 -2.7383504e-06      4.48985    16.665974      4.48985 
Loop time of 0.0830441 on 1 procs for 11 steps with 336 atoms

Minimization stats:
  Stopping criterion = energy tolerance
  Energy initial, next-to-last, final = 
         -1874.8666057     -1875.94148577     -1875.94148578
  Force two-norm initial, final = 7.8486 0.00105593
  Force max component initial, final = 1.12175 0.000135291
  Final line search alpha, max atom move = 0 0
  Iterations, force evaluations = 11 282

Pair  time (%) = 0.0678939 (81.7564)
Neigh time (%) = 0 (0)
Comm  time (%) = 0.00639135 (7.69634)
Outpt time (%) = 0.000827805 (0.996827)
Other time (%) = 0.00793104 (9.55039)

Nlocal:    336 ave 336 max 336 min
Histogram: 1 0 0 0 0 0 0 0 0 0
Nghost:    1110 ave 1110 max 1110 min
Histogram: 1 0 0 0 0 0 0 0 0 0
Neighs:    8536 ave 8536 max 8536 min
Histogram: 1 0 0 0 0 0 0 0 0 0

Total # of neighbors = 8536
Ave neighs/atom = 25.4048
Neighbor list builds = 0
Dangerous builds = 0
        next i
jump SELF loop1
        read_dump orig.dump 0 x y z
  orthogonal box = (0 -0.599871 0) to (4.48985 16.1802 4.48985)
  336 atoms before read
  336 atoms in snapshot
  0 atoms purged
  336 atoms replaced
  0 atoms trimmed
  0 atoms added
  336 atoms after read
        variable stretch equal 1+$i*${strainstep}
        variable stretch equal 1+15*${strainstep}
        variable stretch equal 1+15*-0.0005
        change_box all ${direction} scale ${stretch} remap
        change_box all y scale ${stretch} remap
        change_box all y scale 0.9925 remap
  orthogonal box = (0 -0.538611 0) to (4.48985 16.119 4.48985)
        min_style ${style}
        min_style hftn
        minimize ${etol} ${ftol} ${maxiter} ${maxeval}
        minimize 1e-12 ${ftol} ${maxiter} ${maxeval}
        minimize 1e-12 1e-08 ${maxiter} ${maxeval}
        minimize 1e-12 1e-08 10000 ${maxeval}
        minimize 1e-12 1e-08 10000 20000
WARNING: Resetting reneighboring criteria during minimization (../min.cpp:168)
Memory usage per processor = 4.9009 Mbytes
Step PotEng Pxx Pyy Pxy Lx Ly Lz 
       0   -1874.7008    1.8143529     1.018164 -0.023987395      4.48985    16.657582      4.48985 
       1   -1875.9314    1.4912759  0.033278568 -0.0029315848      4.48985    16.657582      4.48985 
       2   -1875.9414     1.487721 0.0012433849 0.0034183359      4.48985    16.657582      4.48985 
       3   -1875.9415    1.4868599 -1.2173378e-05 -3.8614167e-06      4.48985    16.657582      4.48985 
       4   -1875.9415    1.4868683 1.4826103e-08 2.3246218e-09      4.48985    16.657582      4.48985 
       5   -1875.9415    1.4868683 -4.3488065e-12 7.4336457e-13      4.48985    16.657582      4.48985 
Loop time of 0.092676 on 1 procs for 4 steps with 336 atoms

Minimization stats:
  Stopping criterion = force tolerance
  Energy initial, next-to-last, final = 
        -1874.70079178      -1875.9414851     -1875.94148515
  Force two-norm initial, final = 8.47218 1.43032e-09
  Force max component initial, final = 1.20862 3.79337e-10
  Final line search alpha, max atom move = 0 0
  Iterations, force evaluations = 4 332

Pair  time (%) = 0.0781119 (84.285)
Neigh time (%) = 0 (0)
Comm  time (%) = 0.00873564 (9.426)
Outpt time (%) = 0.000264736 (0.285657)
Other time (%) = 0.00556369 (6.00338)

Nlocal:    336 ave 336 max 336 min
Histogram: 1 0 0 0 0 0 0 0 0 0
Nghost:    1110 ave 1110 max 1110 min
Histogram: 1 0 0 0 0 0 0 0 0 0
Neighs:    8568 ave 8568 max 8568 min
Histogram: 1 0 0 0 0 0 0 0 0 0

Total # of neighbors = 8568
Ave neighs/atom = 25.5
Neighbor list builds = 0
Dangerous builds = 0
        next i
jump SELF loop1
        read_dump orig.dump 0 x y z
  orthogonal box = (0 -0.599871 0) to (4.48985 16.1802 4.48985)
  336 atoms before read
  336 atoms in snapshot
  0 atoms purged
  336 atoms replaced
  0 atoms trimmed
  0 atoms added
  336 atoms after read
        variable stretch equal 1+$i*${strainstep}
        variable stretch equal 1+16*${strainstep}
        variable stretch equal 1+16*-0.0005
        change_box all ${direction} scale ${stretch} remap
        change_box all y scale ${stretch} remap
        change_box all y scale 0.992 remap
  orthogonal box = (0 -0.534415 0) to (4.48985 16.1148 4.48985)
        min_style ${style}
        min_style hftn
        minimize ${etol} ${ftol} ${maxiter} ${maxeval}
        minimize 1e-12 ${ftol} ${maxiter} ${maxeval}
        minimize 1e-12 1e-08 ${maxiter} ${maxeval}
        minimize 1e-12 1e-08 10000 ${maxeval}
        minimize 1e-12 1e-08 10000 20000
WARNING: Resetting reneighboring criteria during minimization (../min.cpp:168)
Memory usage per processor = 4.9009 Mbytes
Step PotEng Pxx Pyy Pxy Lx Ly Lz 
       0   -1874.5225    1.8383028    1.0912012 -0.024754697      4.48985     16.64919      4.48985 
       1    -1875.931    1.4946463  0.041005201 -0.0033104684      4.48985     16.64919      4.48985 
       2   -1875.9414    1.4883948 0.0011502577 0.0032430753      4.48985     16.64919      4.48985 
       3   -1875.9415    1.4875981 -2.4870899e-05 -7.084911e-06      4.48985     16.64919      4.48985 
       4   -1875.9415    1.4876177 9.6316769e-09 -1.1531939e-08      4.48985     16.64919      4.48985 
       5   -1875.9415    1.4876177 -1.4444348e-12 4.5374707e-12      4.48985     16.64919      4.48985 
Loop time of 0.0971699 on 1 procs for 4 steps with 336 atoms

Minimization stats:
  Stopping criterion = force tolerance
  Energy initial, next-to-last, final = 
        -1874.52247786     -1875.94148489     -1875.94148515
  Force two-norm initial, final = 9.10047 4.62957e-09
  Force max component initial, final = 1.29626 1.04032e-09
  Final line search alpha, max atom move = 0 0
  Iterations, force evaluations = 4 336

Pair  time (%) = 0.0826425 (85.0494)
Neigh time (%) = 0 (0)
Comm  time (%) = 0.00471257 (4.84982)
Outpt time (%) = 0.000280024 (0.28818)
Other time (%) = 0.00953486 (9.81256)

Nlocal:    336 ave 336 max 336 min
Histogram: 1 0 0 0 0 0 0 0 0 0
Nghost:    1110 ave 1110 max 1110 min
Histogram: 1 0 0 0 0 0 0 0 0 0
Neighs:    8568 ave 8568 max 8568 min
Histogram: 1 0 0 0 0 0 0 0 0 0

Total # of neighbors = 8568
Ave neighs/atom = 25.5
Neighbor list builds = 0
Dangerous builds = 0
        next i
jump SELF loop1
        read_dump orig.dump 0 x y z
  orthogonal box = (0 -0.599871 0) to (4.48985 16.1802 4.48985)
  336 atoms before read
  336 atoms in snapshot
  0 atoms purged
  336 atoms replaced
  0 atoms trimmed
  0 atoms added
  336 atoms after read
        variable stretch equal 1+$i*${strainstep}
        variable stretch equal 1+17*${strainstep}
        variable stretch equal 1+17*-0.0005
        change_box all ${direction} scale ${stretch} remap
        change_box all y scale ${stretch} remap
        change_box all y scale 0.9915 remap
  orthogonal box = (0 -0.530219 0) to (4.48985 16.1106 4.48985)
        min_style ${style}
        min_style hftn
        minimize ${etol} ${ftol} ${maxiter} ${maxeval}
        minimize 1e-12 ${ftol} ${maxiter} ${maxeval}
        minimize 1e-12 1e-08 ${maxiter} ${maxeval}
        minimize 1e-12 1e-08 10000 ${maxeval}
        minimize 1e-12 1e-08 10000 20000
WARNING: Resetting reneighboring criteria during minimization (../min.cpp:168)
Memory usage per processor = 4.9009 Mbytes
Step PotEng Pxx Pyy Pxy Lx Ly Lz 
       0   -1874.3318    1.8624053     1.164761 -0.025463857      4.48985    16.640799      4.48985 
       1   -1875.9304    1.4974049  0.047066962 -0.0036486232      4.48985    16.640799      4.48985 
       2   -1875.9414    1.4890606   0.00112716 0.0030608896      4.48985    16.640799      4.48985 
       3   -1875.9415     1.488362 -1.5287817e-05 -1.0919435e-06      4.48985    16.640799      4.48985 
       4   -1875.9415    1.4883679 1.7102649e-08 -9.9929041e-09      4.48985    16.640799      4.48985 
       5   -1875.9415    1.4883679 -3.5189524e-11 -4.2735508e-13      4.48985    16.640799      4.48985 
Loop time of 0.0980749 on 1 procs for 4 steps with 336 atoms

Minimization stats:
  Stopping criterion = force tolerance
  Energy initial, next-to-last, final = 
         -1874.3318128     -1875.94148502     -1875.94148515
  Force two-norm initial, final = 9.73295 3.61863e-09
  Force max component initial, final = 1.3844 6.91317e-10
  Final line search alpha, max atom move = 0 0
  Iterations, force evaluations = 4 344

Pair  time (%) = 0.0852246 (86.8975)
Neigh time (%) = 0 (0)
Comm  time (%) = 0.00347659 (3.54483)
Outpt time (%) = 0.000257111 (0.262158)
Other time (%) = 0.0091166 (9.29555)

Nlocal:    336 ave 336 max 336 min
Histogram: 1 0 0 0 0 0 0 0 0 0
Nghost:    1110 ave 1110 max 1110 min
Histogram: 1 0 0 0 0 0 0 0 0 0
Neighs:    8568 ave 8568 max 8568 min
Histogram: 1 0 0 0 0 0 0 0 0 0

Total # of neighbors = 8568
Ave neighs/atom = 25.5
Neighbor list builds = 0
Dangerous builds = 0
        next i
jump SELF loop1
        read_dump orig.dump 0 x y z
  orthogonal box = (0 -0.599871 0) to (4.48985 16.1802 4.48985)
  336 atoms before read
  336 atoms in snapshot
  0 atoms purged
  336 atoms replaced
  0 atoms trimmed
  0 atoms added
  336 atoms after read
        variable stretch equal 1+$i*${strainstep}
        variable stretch equal 1+18*${strainstep}
        variable stretch equal 1+18*-0.0005
        change_box all ${direction} scale ${stretch} remap
        change_box all y scale ${stretch} remap
        change_box all y scale 0.991 remap
  orthogonal box = (0 -0.526023 0) to (4.48985 16.1064 4.48985)
        min_style ${style}
        min_style hftn
        minimize ${etol} ${ftol} ${maxiter} ${maxeval}
        minimize 1e-12 ${ftol} ${maxiter} ${maxeval}
        minimize 1e-12 1e-08 ${maxiter} ${maxeval}
        minimize 1e-12 1e-08 10000 ${maxeval}
        minimize 1e-12 1e-08 10000 20000
WARNING: Resetting reneighboring criteria during minimization (../min.cpp:168)
Memory usage per processor = 4.9009 Mbytes
Step PotEng Pxx Pyy Pxy Lx Ly Lz 
       0   -1874.1281    1.8866755    1.2388693 -0.026125087      4.48985    16.632407      4.48985 
       1   -1875.9279    1.5007936  0.056505361 -0.0050539106      4.48985    16.632407      4.48985 
       2   -1875.9414    1.4898407  0.001422011 0.0028690556      4.48985    16.632407      4.48985 
       3   -1875.9415    1.4891127 -9.9779266e-06 1.9602576e-06      4.48985    16.632407      4.48985 
       4   -1875.9415    1.4891189 4.0517797e-08 -8.4399636e-10      4.48985    16.632407      4.48985 
       5   -1875.9415    1.4891189 -6.347125e-10 1.1996783e-10      4.48985    16.632407      4.48985 
       6   -1875.9415    1.4891189 1.6858364e-12 7.5983326e-15      4.48985    16.632407      4.48985 
Loop time of 0.12235 on 1 procs for 5 steps with 336 atoms

Minimization stats:
  Stopping criterion = force tolerance
  Energy initial, next-to-last, final = 
        -1874.12812303     -1875.94145843     -1875.94148515
  Force two-norm initial, final = 10.3703 1.06164e-10
  Force max component initial, final = 1.47344 1.86571e-11
  Final line search alpha, max atom move = 0 0
  Iterations, force evaluations = 5 436

Pair  time (%) = 0.102269 (83.5873)
Neigh time (%) = 0 (0)
Comm  time (%) = 0.00968278 (7.914)
Outpt time (%) = 0.000427114 (0.349092)
Other time (%) = 0.00997104 (8.1496)

Nlocal:    336 ave 336 max 336 min
Histogram: 1 0 0 0 0 0 0 0 0 0
Nghost:    1110 ave 1110 max 1110 min
Histogram: 1 0 0 0 0 0 0 0 0 0
Neighs:    8568 ave 8568 max 8568 min
Histogram: 1 0 0 0 0 0 0 0 0 0

Total # of neighbors = 8568
Ave neighs/atom = 25.5
Neighbor list builds = 0
Dangerous builds = 0
        next i
jump SELF loop1
        read_dump orig.dump 0 x y z
  orthogonal box = (0 -0.599871 0) to (4.48985 16.1802 4.48985)
  336 atoms before read
  336 atoms in snapshot
  0 atoms purged
  336 atoms replaced
  0 atoms trimmed
  0 atoms added
  336 atoms after read
        variable stretch equal 1+$i*${strainstep}
        variable stretch equal 1+19*${strainstep}
        variable stretch equal 1+19*-0.0005
        change_box all ${direction} scale ${stretch} remap
        change_box all y scale ${stretch} remap
        change_box all y scale 0.9905 remap
  orthogonal box = (0 -0.521827 0) to (4.48985 16.1022 4.48985)
        min_style ${style}
        min_style hftn
        minimize ${etol} ${ftol} ${maxiter} ${maxeval}
        minimize 1e-12 ${ftol} ${maxiter} ${maxeval}
        minimize 1e-12 1e-08 ${maxiter} ${maxeval}
        minimize 1e-12 1e-08 10000 ${maxeval}
        minimize 1e-12 1e-08 10000 20000
WARNING: Resetting reneighboring criteria during minimization (../min.cpp:168)
Memory usage per processor = 4.9009 Mbytes
Step PotEng Pxx Pyy Pxy Lx Ly Lz 
       0   -1873.9124    1.9110957    1.3134817 -0.026733827      4.48985    16.624015      4.48985 
       1   -1875.9267    1.5045707  0.065969962 -0.0052612137      4.48985    16.624015      4.48985 
       2   -1875.9413    1.4906885 0.0018328804 0.0026776092      4.48985    16.624015      4.48985 
       3   -1875.9415    1.4898684 -3.0196438e-06 1.3852038e-06      4.48985    16.624015      4.48985 
       4   -1875.9415    1.4898706 -1.4838004e-08 5.4345844e-08      4.48985    16.624015      4.48985 
       5   -1875.9415    1.4898706 -1.563801e-12 8.6286744e-13      4.48985    16.624015      4.48985 
Loop time of 0.147343 on 1 procs for 4 steps with 336 atoms

Minimization stats:
  Stopping criterion = force tolerance
  Energy initial, next-to-last, final = 
        -1873.91235811       -1875.941484     -1875.94148515
  Force two-norm initial, final = 11.0115 2.65043e-09
  Force max component initial, final = 1.56287 1.03979e-09
  Final line search alpha, max atom move = 0 0
  Iterations, force evaluations = 4 330

Pair  time (%) = 0.124928 (84.7872)
Neigh time (%) = 0 (0)
Comm  time (%) = 0.00595942 (4.04459)
Outpt time (%) = 0.00904005 (6.13538)
Other time (%) = 0.00741549 (5.03281)

Nlocal:    336 ave 336 max 336 min
Histogram: 1 0 0 0 0 0 0 0 0 0
Nghost:    1110 ave 1110 max 1110 min
Histogram: 1 0 0 0 0 0 0 0 0 0
Neighs:    8568 ave 8568 max 8568 min
Histogram: 1 0 0 0 0 0 0 0 0 0

Total # of neighbors = 8568
Ave neighs/atom = 25.5
Neighbor list builds = 0
Dangerous builds = 0
        next i
jump SELF loop1
        read_dump orig.dump 0 x y z
  orthogonal box = (0 -0.599871 0) to (4.48985 16.1802 4.48985)
  336 atoms before read
  336 atoms in snapshot
  0 atoms purged
  336 atoms replaced
  0 atoms trimmed
  0 atoms added
  336 atoms after read
        variable stretch equal 1+$i*${strainstep}
        variable stretch equal 1+20*${strainstep}
        variable stretch equal 1+20*-0.0005
        change_box all ${direction} scale ${stretch} remap
        change_box all y scale ${stretch} remap
        change_box all y scale 0.99 remap
  orthogonal box = (0 -0.517631 0) to (4.48985 16.098 4.48985)
        min_style ${style}
        min_style hftn
        minimize ${etol} ${ftol} ${maxiter} ${maxeval}
        minimize 1e-12 ${ftol} ${maxiter} ${maxeval}
        minimize 1e-12 1e-08 ${maxiter} ${maxeval}
        minimize 1e-12 1e-08 10000 ${maxeval}
        minimize 1e-12 1e-08 10000 20000
WARNING: Resetting reneighboring criteria during minimization (../min.cpp:168)
Memory usage per processor = 4.9009 Mbytes
Step PotEng Pxx Pyy Pxy Lx Ly Lz 
       0   -1873.6838    1.9356794    1.3886265 -0.027300855      4.48985    16.615624      4.48985 
       1    -1875.925    1.5083014  0.075241865 -0.005786177      4.48985    16.615624      4.48985 
       2   -1875.9413    1.4913594 0.0017688619 0.0025291297      4.48985    16.615624      4.48985 
       3   -1875.9415    1.4906148 -9.8871659e-06 2.4972204e-06      4.48985    16.615624      4.48985 
       4   -1875.9415     1.490623 3.0495834e-08 1.3672377e-09      4.48985    16.615624      4.48985 
       5   -1875.9415     1.490623 1.0126377e-11 7.9492619e-12      4.48985    16.615624      4.48985 
Loop time of 0.08841 on 1 procs for 4 steps with 336 atoms

Minimization stats:
  Stopping criterion = force tolerance
  Energy initial, next-to-last, final = 
        -1873.68382822     -1875.94148358     -1875.94148515
  Force two-norm initial, final = 11.6573 6.53121e-09
  Force max component initial, final = 1.65317 1.56439e-09
  Final line search alpha, max atom move = 0 0
  Iterations, force evaluations = 4 324

Pair  time (%) = 0.0745715 (84.3473)
Neigh time (%) = 0 (0)
Comm  time (%) = 0.00729456 (8.25083)
Outpt time (%) = 0.000232716 (0.263223)
Other time (%) = 0.00631124 (7.1386)

Nlocal:    336 ave 336 max 336 min
Histogram: 1 0 0 0 0 0 0 0 0 0
Nghost:    1110 ave 1110 max 1110 min
Histogram: 1 0 0 0 0 0 0 0 0 0
Neighs:    8568 ave 8568 max 8568 min
Histogram: 1 0 0 0 0 0 0 0 0 0

Total # of neighbors = 8568
Ave neighs/atom = 25.5
Neighbor list builds = 0
Dangerous builds = 0
        next i
jump SELF loop1
        read_dump orig.dump 0 x y z
  orthogonal box = (0 -0.599871 0) to (4.48985 16.1802 4.48985)
  336 atoms before read
  336 atoms in snapshot
  0 atoms purged
  336 atoms replaced
  0 atoms trimmed
  0 atoms added
  336 atoms after read
        variable stretch equal 1+$i*${strainstep}
        variable stretch equal 1+21*${strainstep}
        variable stretch equal 1+21*-0.0005
        change_box all ${direction} scale ${stretch} remap
        change_box all y scale ${stretch} remap
        change_box all y scale 0.9895 remap
  orthogonal box = (0 -0.513435 0) to (4.48985 16.0938 4.48985)
        min_style ${style}
        min_style hftn
        minimize ${etol} ${ftol} ${maxiter} ${maxeval}
        minimize 1e-12 ${ftol} ${maxiter} ${maxeval}
        minimize 1e-12 1e-08 ${maxiter} ${maxeval}
        minimize 1e-12 1e-08 10000 ${maxeval}
        minimize 1e-12 1e-08 10000 20000
WARNING: Resetting reneighboring criteria during minimization (../min.cpp:168)
Memory usage per processor = 4.9009 Mbytes
Step PotEng Pxx Pyy Pxy Lx Ly Lz 
       0   -1873.4426    1.9604237    1.4643052 -0.027813717      4.48985    16.607232      4.48985 
       1   -1875.9233    1.5119765  0.084455687 -0.0060160697      4.48985    16.607232      4.48985 
       2   -1875.9413    1.4921452 0.0021005626 0.0023038589      4.48985    16.607232      4.48985 
       3   -1875.9415    1.4913659 -1.4046515e-05 1.4142332e-06      4.48985    16.607232      4.48985 
       4   -1875.9415    1.4913762 2.4311316e-08 -7.6067785e-09      4.48985    16.607232      4.48985 
       5   -1875.9415    1.4913762 -5.0029649e-10 8.8124004e-11      4.48985    16.607232      4.48985 
       6   -1875.9415    1.4913762 1.8011755e-13 -1.8655498e-13      4.48985    16.607232      4.48985 
Loop time of 0.121375 on 1 procs for 5 steps with 336 atoms

Minimization stats:
  Stopping criterion = force tolerance
  Energy initial, next-to-last, final = 
         -1873.4425655     -1875.94148384     -1875.94148515
  Force two-norm initial, final = 12.3068 3.35085e-11
  Force max component initial, final = 1.74388 7.784e-12
  Final line search alpha, max atom move = 0 0
  Iterations, force evaluations = 5 428

Pair  time (%) = 0.105541 (86.9548)
Neigh time (%) = 0 (0)
Comm  time (%) = 0.00650626 (5.36046)
Outpt time (%) = 0.000738751 (0.608652)
Other time (%) = 0.00858858 (7.07607)

Nlocal:    336 ave 336 max 336 min
Histogram: 1 0 0 0 0 0 0 0 0 0
Nghost:    1110 ave 1110 max 1110 min
Histogram: 1 0 0 0 0 0 0 0 0 0
Neighs:    8568 ave 8568 max 8568 min
Histogram: 1 0 0 0 0 0 0 0 0 0

Total # of neighbors = 8568
Ave neighs/atom = 25.5
Neighbor list builds = 0
Dangerous builds = 0
        next i
jump SELF loop1
        read_dump orig.dump 0 x y z
  orthogonal box = (0 -0.599871 0) to (4.48985 16.1802 4.48985)
  336 atoms before read
  336 atoms in snapshot
  0 atoms purged
  336 atoms replaced
  0 atoms trimmed
  0 atoms added
  336 atoms after read
        variable stretch equal 1+$i*${strainstep}
        variable stretch equal 1+22*${strainstep}
        variable stretch equal 1+22*-0.0005
        change_box all ${direction} scale ${stretch} remap
        change_box all y scale ${stretch} remap
        change_box all y scale 0.989 remap
  orthogonal box = (0 -0.50924 0) to (4.48985 16.0896 4.48985)
        min_style ${style}
        min_style hftn
        minimize ${etol} ${ftol} ${maxiter} ${maxeval}
        minimize 1e-12 ${ftol} ${maxiter} ${maxeval}
        minimize 1e-12 1e-08 ${maxiter} ${maxeval}
        minimize 1e-12 1e-08 10000 ${maxeval}
        minimize 1e-12 1e-08 10000 20000
WARNING: Resetting reneighboring criteria during minimization (../min.cpp:168)
Memory usage per processor = 4.9009 Mbytes
Step PotEng Pxx Pyy Pxy Lx Ly Lz 
       0   -1873.1884    1.9853274    1.5405228  -0.02827279      4.48985     16.59884      4.48985 
       1   -1875.9208    1.5154408  0.092956044 -0.0069851652      4.48985     16.59884      4.48985 
       2   -1875.9413    1.4929959 0.0020734814 0.0022148981      4.48985     16.59884      4.48985 
       3   -1875.9415    1.4921311 -1.6622277e-05 6.5557773e-06      4.48985     16.59884      4.48985 
       4   -1875.9415    1.4921311 -1.6622277e-05 6.5557773e-06      4.48985     16.59884      4.48985 
       5   -1875.9415    1.4921292 -1.6658961e-05 6.1749229e-06      4.48985     16.59884      4.48985 
       6   -1875.9415    1.4921272 -1.3705187e-05 5.2239899e-06      4.48985     16.59884      4.48985 
       7   -1875.9415    1.4921272 -1.3705187e-05 5.2239899e-06      4.48985     16.59884      4.48985 
       8   -1875.9415    1.4921283 -1.1190079e-05 4.098254e-06      4.48985     16.59884      4.48985 
       9   -1875.9415    1.4921283 -1.1190079e-05 4.098254e-06      4.48985     16.59884      4.48985 
      10   -1875.9415    1.4921283 -1.1190079e-05 4.098254e-06      4.48985     16.59884      4.48985 
      11   -1875.9415    1.4921283 -1.1190079e-05 4.098254e-06      4.48985     16.59884      4.48985 
      12   -1875.9415    1.4921283 -1.1190079e-05 4.098254e-06      4.48985     16.59884      4.48985 
      13   -1875.9415    1.4921283 -1.1181178e-05 4.0974281e-06      4.48985     16.59884      4.48985 
Loop time of 0.106557 on 1 procs for 12 steps with 336 atoms

Minimization stats:
  Stopping criterion = energy tolerance
  Energy initial, next-to-last, final = 
        -1873.18840857     -1875.94148555     -1875.94148565
  Force two-norm initial, final = 12.9611 0.000645058
  Force max component initial, final = 1.8354 9.2276e-05
  Final line search alpha, max atom move = 0 0
  Iterations, force evaluations = 12 385

Pair  time (%) = 0.0916821 (86.0404)
Neigh time (%) = 0 (0)
Comm  time (%) = 0.00811973 (7.62008)
Outpt time (%) = 0.000546093 (0.512489)
Other time (%) = 0.00620916 (5.82708)

Nlocal:    336 ave 336 max 336 min
Histogram: 1 0 0 0 0 0 0 0 0 0
Nghost:    1110 ave 1110 max 1110 min
Histogram: 1 0 0 0 0 0 0 0 0 0
Neighs:    8568 ave 8568 max 8568 min
Histogram: 1 0 0 0 0 0 0 0 0 0

Total # of neighbors = 8568
Ave neighs/atom = 25.5
Neighbor list builds = 0
Dangerous builds = 0
        next i
jump SELF loop1
        read_dump orig.dump 0 x y z
  orthogonal box = (0 -0.599871 0) to (4.48985 16.1802 4.48985)
  336 atoms before read
  336 atoms in snapshot
  0 atoms purged
  336 atoms replaced
  0 atoms trimmed
  0 atoms added
  336 atoms after read
        variable stretch equal 1+$i*${strainstep}
        variable stretch equal 1+23*${strainstep}
        variable stretch equal 1+23*-0.0005
        change_box all ${direction} scale ${stretch} remap
        change_box all y scale ${stretch} remap
        change_box all y scale 0.9885 remap
  orthogonal box = (0 -0.505044 0) to (4.48985 16.0854 4.48985)
        min_style ${style}
        min_style hftn
        minimize ${etol} ${ftol} ${maxiter} ${maxeval}
        minimize 1e-12 ${ftol} ${maxiter} ${maxeval}
        minimize 1e-12 1e-08 ${maxiter} ${maxeval}
        minimize 1e-12 1e-08 10000 ${maxeval}
        minimize 1e-12 1e-08 10000 20000
WARNING: Resetting reneighboring criteria during minimization (../min.cpp:168)
Memory usage per processor = 4.9009 Mbytes
Step PotEng Pxx Pyy Pxy Lx Ly Lz 
       0   -1872.9211    2.0103995    1.6172932 -0.028676259      4.48985    16.590448      4.48985 
       1   -1875.9189    1.5199663   0.10373725 -0.0070675171      4.48985    16.590448      4.48985 
       2   -1875.9413    1.4937815  0.002257324 0.0020796361      4.48985    16.590448      4.48985 
       3   -1875.9415    1.4928826 -4.1900089e-07 3.7305754e-06      4.48985    16.590448      4.48985 
       4   -1875.9415     1.492885 -2.9294785e-08 5.2201707e-09      4.48985    16.590448      4.48985 
       5   -1875.9415     1.492885 3.287884e-13 1.3726507e-11      4.48985    16.590448      4.48985 
Loop time of 0.0963601 on 1 procs for 4 steps with 336 atoms

Minimization stats:
  Stopping criterion = force tolerance
  Energy initial, next-to-last, final = 
        -1872.92108632     -1875.94148477     -1875.94148515
  Force two-norm initial, final = 13.6194 4.28458e-09
  Force max component initial, final = 1.92752 7.03087e-10
  Final line search alpha, max atom move = 0 0
  Iterations, force evaluations = 4 326

Pair  time (%) = 0.0788804 (81.86)
Neigh time (%) = 0 (0)
Comm  time (%) = 0.00789759 (8.19591)
Outpt time (%) = 0.000327969 (0.340358)
Other time (%) = 0.00925414 (9.60371)

Nlocal:    336 ave 336 max 336 min
Histogram: 1 0 0 0 0 0 0 0 0 0
Nghost:    1110 ave 1110 max 1110 min
Histogram: 1 0 0 0 0 0 0 0 0 0
Neighs:    8568 ave 8568 max 8568 min
Histogram: 1 0 0 0 0 0 0 0 0 0

Total # of neighbors = 8568
Ave neighs/atom = 25.5
Neighbor list builds = 0
Dangerous builds = 0
        next i
jump SELF loop1
        read_dump orig.dump 0 x y z
  orthogonal box = (0 -0.599871 0) to (4.48985 16.1802 4.48985)
  336 atoms before read
  336 atoms in snapshot
  0 atoms purged
  336 atoms replaced
  0 atoms trimmed
  0 atoms added
  336 atoms after read
        variable stretch equal 1+$i*${strainstep}
        variable stretch equal 1+24*${strainstep}
        variable stretch equal 1+24*-0.0005
        change_box all ${direction} scale ${stretch} remap
        change_box all y scale ${stretch} remap
        change_box all y scale 0.988 remap
  orthogonal box = (0 -0.500848 0) to (4.48985 16.0812 4.48985)
        min_style ${style}
        min_style hftn
        minimize ${etol} ${ftol} ${maxiter} ${maxeval}
        minimize 1e-12 ${ftol} ${maxiter} ${maxeval}
        minimize 1e-12 1e-08 ${maxiter} ${maxeval}
        minimize 1e-12 1e-08 10000 ${maxeval}
        minimize 1e-12 1e-08 10000 20000
WARNING: Resetting reneighboring criteria during minimization (../min.cpp:168)
Memory usage per processor = 4.9009 Mbytes
Step PotEng Pxx Pyy Pxy Lx Ly Lz 
       0   -1872.6409    2.0356266    1.6945991 -0.029030708      4.48985    16.582057      4.48985 
       1   -1875.9158    1.5246754   0.11551252 -0.0073034356      4.48985    16.582057      4.48985 
       2   -1875.9415      1.49481 0.0019796858 0.0029443674      4.48985    16.582057      4.48985 
       3   -1875.9415    1.4936375 -1.2284931e-05 3.144928e-06      4.48985    16.582057      4.48985 
       4   -1875.9415    1.4936375 -1.2284931e-05 3.144928e-06      4.48985    16.582057      4.48985 
       5   -1875.9415    1.4936375 -1.2284931e-05 3.144928e-06      4.48985    16.582057      4.48985 
       6   -1875.9415    1.4936375 -1.2284931e-05 3.144928e-06      4.48985    16.582057      4.48985 
       7   -1875.9415    1.4936375 -1.2284931e-05 3.144928e-06      4.48985    16.582057      4.48985 
       8   -1875.9415    1.4936375 -1.2283702e-05 3.1387645e-06      4.48985    16.582057      4.48985 
Loop time of 0.07543 on 1 procs for 7 steps with 336 atoms

Minimization stats:
  Stopping criterion = energy tolerance
  Energy initial, next-to-last, final = 
        -1872.64094926     -1875.94147606     -1875.94148524
  Force two-norm initial, final = 14.282 0.00220525
  Force max component initial, final = 2.02044 0.000345101
  Final line search alpha, max atom move = 0 0
  Iterations, force evaluations = 7 272

Pair  time (%) = 0.0689127 (91.3599)
Neigh time (%) = 0 (0)
Comm  time (%) = 0.00178466 (2.36598)
Outpt time (%) = 0.000533839 (0.707728)
Other time (%) = 0.00419873 (5.5664)

Nlocal:    336 ave 336 max 336 min
Histogram: 1 0 0 0 0 0 0 0 0 0
Nghost:    1110 ave 1110 max 1110 min
Histogram: 1 0 0 0 0 0 0 0 0 0
Neighs:    8568 ave 8568 max 8568 min
Histogram: 1 0 0 0 0 0 0 0 0 0

Total # of neighbors = 8568
Ave neighs/atom = 25.5
Neighbor list builds = 0
Dangerous builds = 0
        next i
jump SELF loop1
        read_dump orig.dump 0 x y z
  orthogonal box = (0 -0.599871 0) to (4.48985 16.1802 4.48985)
  336 atoms before read
  336 atoms in snapshot
  0 atoms purged
  336 atoms replaced
  0 atoms trimmed
  0 atoms added
  336 atoms after read
        variable stretch equal 1+$i*${strainstep}
        variable stretch equal 1+25*${strainstep}
        variable stretch equal 1+25*-0.0005
        change_box all ${direction} scale ${stretch} remap
        change_box all y scale ${stretch} remap
        change_box all y scale 0.9875 remap
  orthogonal box = (0 -0.496652 0) to (4.48985 16.077 4.48985)
        min_style ${style}
        min_style hftn
        minimize ${etol} ${ftol} ${maxiter} ${maxeval}
        minimize 1e-12 ${ftol} ${maxiter} ${maxeval}
        minimize 1e-12 1e-08 ${maxiter} ${maxeval}
        minimize 1e-12 1e-08 10000 ${maxeval}
        minimize 1e-12 1e-08 10000 20000
WARNING: Resetting reneighboring criteria during minimization (../min.cpp:168)
Memory usage per processor = 4.9009 Mbytes
Step PotEng Pxx Pyy Pxy Lx Ly Lz 
       0    -1872.348    2.0610143     1.772437 -0.029329305      4.48985    16.573665      4.48985 
       1   -1875.9127    1.5289819    0.1265235 -0.0076764351      4.48985    16.573665      4.48985 
       2   -1875.9413    1.4955682 0.0026086626 0.0024528916      4.48985    16.573665      4.48985 
       3   -1875.9415    1.4944013 -4.0496087e-06 3.0313756e-06      4.48985    16.573665      4.48985 
       4   -1875.9415    1.4943967 -9.0565814e-10 -9.9896854e-09      4.48985    16.573665      4.48985 
       5   -1875.9415    1.4943967 -2.7430742e-10 4.6216931e-11      4.48985    16.573665      4.48985 
Loop time of 0.09745 on 1 procs for 4 steps with 336 atoms

Minimization stats:
[...]
       2   -1849.9287    3.0110481    4.6528083  0.067392998      4.48985     16.32506      4.48985 
       3   -1862.2164    2.4994175    3.1426559  0.034071369      4.48985     16.32506      4.48985 
       4   -1871.3825    1.9978788    1.5089732  0.032372499      4.48985     16.32506      4.48985 
       5   -1875.8824    1.5246085   0.13969921 0.0023334823      4.48985    16.763017      4.48985 
       6   -1875.9392    1.4754156 -0.002413282 0.00036729671      4.48985    16.763017      4.48985 
       7   -1875.9415    1.4780289  0.001314612 0.00039458517      4.48985    16.763017      4.48985 
       8   -1875.9415    1.4780289  0.001314612 0.00039458517      4.48985    16.763017      4.48985 
       9   -1875.9415    1.4780289  0.001314612 0.00039458517      4.48985    16.763017      4.48985 
      10   -1875.9415    1.4780289  0.001314612 0.00039458517      4.48985    16.763017      4.48985 
      11   -1875.9415    1.4780289  0.001314612 0.00039458517      4.48985    16.763017      4.48985 
      12   -1875.9415    1.4780289  0.001314612 0.00039458517      4.48985    16.763017      4.48985 
      13   -1875.9415    1.4780289  0.001314612 0.00039458517      4.48985    16.763017      4.48985 
      14   -1875.9415    1.4780289  0.001314612 0.00039458517      4.48985    16.763017      4.48985 
      15   -1875.9415    1.4780289  0.001314609 0.00039458308      4.48985    16.763017      4.48985 
Loop time of 0.104265 on 1 procs for 14 steps with 336 atoms

Minimization stats:
  Stopping criterion = energy tolerance
  Energy initial, next-to-last, final = 
        -1813.58539961     -1875.93922018     -1875.94150589
  Force two-norm initial, final = 73.851 0.0162161
  Force max component initial, final = 10.5915 0.00429051
  Final line search alpha, max atom move = 0 0
  Iterations, force evaluations = 14 339

Pair  time (%) = 0.0894876 (85.827)
Neigh time (%) = 0.000813962 (0.780666)
Comm  time (%) = 0.00458549 (4.39792)
Outpt time (%) = 0.00396135 (3.7993)
Other time (%) = 0.00541665 (5.19507)

Nlocal:    336 ave 336 max 336 min
Histogram: 1 0 0 0 0 0 0 0 0 0
Nghost:    1110 ave 1110 max 1110 min
Histogram: 1 0 0 0 0 0 0 0 0 0
Neighs:    8504 ave 8504 max 8504 min
Histogram: 1 0 0 0 0 0 0 0 0 0

Total # of neighbors = 8504
Ave neighs/atom = 25.3095
Neighbor list builds = 2
Dangerous builds = 0
        next i
jump SELF loop1
        read_dump orig.dump 0 x y z
  orthogonal box = (0 -0.599871 0) to (4.48985 16.1802 4.48985)
  336 atoms before read
  336 atoms in snapshot
  0 atoms purged
  336 atoms replaced
  0 atoms trimmed
  0 atoms added
  336 atoms after read
        variable stretch equal 1+$i*${strainstep}
        variable stretch equal 1+96*${strainstep}
        variable stretch equal 1+96*-0.0005
        change_box all ${direction} scale ${stretch} remap
        change_box all y scale ${stretch} remap
        change_box all y scale 0.952 remap
  orthogonal box = (0 -0.198746 0) to (4.48985 15.7791 4.48985)
        min_style ${style}
        min_style hftn
        minimize ${etol} ${ftol} ${maxiter} ${maxeval}
        minimize 1e-12 ${ftol} ${maxiter} ${maxeval}
        minimize 1e-12 1e-08 ${maxiter} ${maxeval}
        minimize 1e-12 1e-08 10000 ${maxeval}
        minimize 1e-12 1e-08 10000 20000
WARNING: Resetting reneighboring criteria during minimization (../min.cpp:168)
Memory usage per processor = 4.9009 Mbytes
Step PotEng Pxx Pyy Pxy Lx Ly Lz 
       0   -1812.1041    4.3166284    8.8197349  0.081772775      4.48985    15.977852      4.48985 
       1    -1830.459     3.742039    6.5424704  0.054498793      4.48985    15.977852      4.48985 
       2   -1849.3316     3.030688    4.7138055  0.069399516      4.48985    16.320306      4.48985 
       3   -1861.9079    2.5117742    3.1810893  0.034341037      4.48985    16.320306      4.48985 
       4   -1871.3331    1.9987171    1.5165936  0.031706039      4.48985    16.320306      4.48985 
       5   -1875.8823    1.5248969   0.14085573 0.0018522417      4.48985    16.762994      4.48985 
       6   -1875.9392    1.4753985 -0.0024136234 0.00026743893      4.48985    16.762994      4.48985 
       7   -1875.9415    1.4780224 0.0012650968 0.00041450961      4.48985    16.762994      4.48985 
       8   -1875.9415    1.4780224 0.0012650968 0.00041450961      4.48985    16.762994      4.48985 
       9   -1875.9415    1.4780224 0.0012650968 0.00041450961      4.48985    16.762994      4.48985 
      10   -1875.9415    1.4780066  0.001257274 0.00041926472      4.48985    16.762994      4.48985 
      11   -1875.9415    1.4780066  0.001257274 0.00041926472      4.48985    16.762994      4.48985 
      12   -1875.9415    1.4780066  0.001257274 0.00041926472      4.48985    16.762994      4.48985 
      13   -1875.9415    1.4780066  0.001257274 0.00041926472      4.48985    16.762994      4.48985 
      14   -1875.9415    1.4780066  0.001257274 0.00041926472      4.48985    16.762994      4.48985 
      15   -1875.9415    1.4780066  0.001257274 0.00041926472      4.48985    16.762994      4.48985 
      16   -1875.9415    1.4780066  0.001257274 0.00041926472      4.48985    16.762994      4.48985 
      17   -1875.9415    1.4780066  0.001257274 0.00041926472      4.48985    16.762994      4.48985 
      18   -1875.9415    1.4780066 0.0012572732 0.00041926462      4.48985    16.762994      4.48985 
Loop time of 0.107174 on 1 procs for 17 steps with 336 atoms

Minimization stats:
  Stopping criterion = energy tolerance
  Energy initial, next-to-last, final = 
        -1812.10405441     -1875.94150353     -1875.94150716
  Force two-norm initial, final = 74.9184 0.00876856
  Force max component initial, final = 10.7445 0.00104052
  Final line search alpha, max atom move = 0 0
  Iterations, force evaluations = 17 358

Pair  time (%) = 0.0965736 (90.1091)
Neigh time (%) = 0.000785951 (0.733341)
Comm  time (%) = 0.00335361 (3.12913)
Outpt time (%) = 0.000902002 (0.841623)
Other time (%) = 0.00555895 (5.18684)

Nlocal:    336 ave 336 max 336 min
Histogram: 1 0 0 0 0 0 0 0 0 0
Nghost:    1110 ave 1110 max 1110 min
Histogram: 1 0 0 0 0 0 0 0 0 0
Neighs:    8504 ave 8504 max 8504 min
Histogram: 1 0 0 0 0 0 0 0 0 0

Total # of neighbors = 8504
Ave neighs/atom = 25.3095
Neighbor list builds = 2
Dangerous builds = 0
        next i
jump SELF loop1
        read_dump orig.dump 0 x y z
  orthogonal box = (0 -0.599871 0) to (4.48985 16.1802 4.48985)
  336 atoms before read
  336 atoms in snapshot
  0 atoms purged
  336 atoms replaced
  0 atoms trimmed
  0 atoms added
  336 atoms after read
        variable stretch equal 1+$i*${strainstep}
        variable stretch equal 1+97*${strainstep}
        variable stretch equal 1+97*-0.0005
        change_box all ${direction} scale ${stretch} remap
        change_box all y scale ${stretch} remap
        change_box all y scale 0.9515 remap
  orthogonal box = (0 -0.19455 0) to (4.48985 15.7749 4.48985)
        min_style ${style}
        min_style hftn
        minimize ${etol} ${ftol} ${maxiter} ${maxeval}
        minimize 1e-12 ${ftol} ${maxiter} ${maxeval}
        minimize 1e-12 1e-08 ${maxiter} ${maxeval}
        minimize 1e-12 1e-08 10000 ${maxeval}
        minimize 1e-12 1e-08 10000 20000
WARNING: Resetting reneighboring criteria during minimization (../min.cpp:168)
Memory usage per processor = 4.9009 Mbytes
Step PotEng Pxx Pyy Pxy Lx Ly Lz 
       0   -1810.6013    4.3562669    8.9449696  0.086765733      4.48985     15.96946      4.48985 
       1   -1829.3992    3.7743375    6.6348648  0.056543842      4.48985     15.96946      4.48985 
       2   -1839.1719    3.4487859    6.0445034  0.069058925      4.48985     15.96946      4.48985 
       3   -1853.3036    2.8804265    3.7342718 -0.028407188      4.48985    16.382026      4.48985 
       4   -1862.6011    2.5923156    3.3058231 -0.0036281245      4.48985    16.382026      4.48985 
       5   -1868.8373    2.1988309    2.0722441 -0.0056863861      4.48985    16.382026      4.48985 
       6   -1874.9437    1.6668293   0.59616295 -0.029789039      4.48985    16.699673      4.48985 
       7   -1875.9352    1.4879942  0.022177303 -0.00069535947      4.48985    16.699673      4.48985 
       8   -1875.9415    1.4831682 0.00015564015 -1.2039974e-06      4.48985    16.699673      4.48985 
       9   -1875.9415    1.4831207 -6.0545827e-06 1.6255524e-05      4.48985    16.699673      4.48985 
      10   -1875.9415    1.4831207 -6.0545827e-06 1.6255524e-05      4.48985    16.699673      4.48985 
      11   -1875.9415    1.4831215 -3.0553687e-06 1.3463995e-05      4.48985    16.699673      4.48985 
      12   -1875.9415    1.4831215 -3.0553687e-06 1.3463995e-05      4.48985    16.699673      4.48985 
      13   -1875.9415    1.4831216 -2.0465111e-06 1.2347816e-05      4.48985    16.699673      4.48985 
      14   -1875.9415    1.4831216 -2.0465111e-06 1.2347816e-05      4.48985    16.699673      4.48985 
      15   -1875.9415    1.4831216 -2.0465111e-06 1.2347816e-05      4.48985    16.699673      4.48985 
      16   -1875.9415    1.4831216 -2.0465111e-06 1.2347816e-05      4.48985    16.699673      4.48985 
      17   -1875.9415    1.4831216 -2.0465111e-06 1.2347816e-05      4.48985    16.699673      4.48985 
      18   -1875.9415    1.4831216 -2.0437901e-06 1.2347575e-05      4.48985    16.699673      4.48985 
Loop time of 0.150795 on 1 procs for 17 steps with 336 atoms

Minimization stats:
  Stopping criterion = energy tolerance
  Energy initial, next-to-last, final = 
        -1810.60129824     -1875.94148522     -1875.94148525
  Force two-norm initial, final = 75.9939 8.29059e-05
  Force max component initial, final = 10.8987 1.2558e-05
  Final line search alpha, max atom move = 0 0
  Iterations, force evaluations = 17 488

Pair  time (%) = 0.122504 (81.2385)
Neigh time (%) = 0.000843052 (0.559072)
Comm  time (%) = 0.00984295 (6.52737)
Outpt time (%) = 0.00405009 (2.68582)
Other time (%) = 0.0135553 (8.98919)

Nlocal:    336 ave 336 max 336 min
Histogram: 1 0 0 0 0 0 0 0 0 0
Nghost:    1110 ave 1110 max 1110 min
Histogram: 1 0 0 0 0 0 0 0 0 0
Neighs:    8520 ave 8520 max 8520 min
Histogram: 1 0 0 0 0 0 0 0 0 0

Total # of neighbors = 8520
Ave neighs/atom = 25.3571
Neighbor list builds = 2
Dangerous builds = 0
        next i
jump SELF loop1
        read_dump orig.dump 0 x y z
  orthogonal box = (0 -0.599871 0) to (4.48985 16.1802 4.48985)
  336 atoms before read
  336 atoms in snapshot
  0 atoms purged
  336 atoms replaced
  0 atoms trimmed
  0 atoms added
  336 atoms after read
        variable stretch equal 1+$i*${strainstep}
        variable stretch equal 1+98*${strainstep}
        variable stretch equal 1+98*-0.0005
        change_box all ${direction} scale ${stretch} remap
        change_box all y scale ${stretch} remap
        change_box all y scale 0.951 remap
  orthogonal box = (0 -0.190354 0) to (4.48985 15.7707 4.48985)
        min_style ${style}
        min_style hftn
        minimize ${etol} ${ftol} ${maxiter} ${maxeval}
        minimize 1e-12 ${ftol} ${maxiter} ${maxeval}
        minimize 1e-12 1e-08 ${maxiter} ${maxeval}
        minimize 1e-12 1e-08 10000 ${maxeval}
        minimize 1e-12 1e-08 10000 20000
WARNING: Resetting reneighboring criteria during minimization (../min.cpp:168)
Memory usage per processor = 4.9009 Mbytes
Step PotEng Pxx Pyy Pxy Lx Ly Lz 
       0   -1809.0776    4.3961666    9.0710154   0.09187994      4.48985    15.961069      4.48985 
       1   -1828.3288    3.8065471    6.7278922  0.058121401      4.48985    15.961069      4.48985 
       2   -1838.3643    3.4734279    6.1205714  0.071517572      4.48985    15.961069      4.48985 
       3    -1852.758    2.9023981    3.7937982 -0.027719468      4.48985    16.376737      4.48985 
       4   -1862.2725    2.6084817    3.3495243 -0.0040110198      4.48985    16.376737      4.48985 
       5   -1868.6681    2.2083189     2.098034 -0.0040434819      4.48985    16.376737      4.48985 
       6    -1875.003    1.6620828   0.59604119  -0.03195398      4.48985    16.700102      4.48985 
       7   -1875.9355    1.4883862  0.022981093 -0.00057989012      4.48985    16.700102      4.48985 
       8   -1875.9415    1.4831402 0.00022416293 -2.3166722e-05      4.48985    16.700102      4.48985 
       9   -1875.9415    1.4830826 -5.6986116e-07 5.1674665e-07      4.48985    16.700102      4.48985 
      10   -1875.9415    1.4830826 -5.6986116e-07 5.1674665e-07      4.48985    16.700102      4.48985 
      11   -1875.9415    1.4830826 -5.6986116e-07 5.1674665e-07      4.48985    16.700102      4.48985 
      12   -1875.9415    1.4830826 -5.6986116e-07 5.1674665e-07      4.48985    16.700102      4.48985 
      13   -1875.9415    1.4830826 -5.6617214e-07 5.1912267e-07      4.48985    16.700102      4.48985 
Loop time of 0.187312 on 1 procs for 12 steps with 336 atoms

Minimization stats:
  Stopping criterion = energy tolerance
  Energy initial, next-to-last, final = 
        -1809.07762808     -1875.94148519     -1875.94148521
  Force two-norm initial, final = 77.0765 0.000143935
  Force max component initial, final = 11.0537 2.16638e-05
  Final line search alpha, max atom move = 0 0
  Iterations, force evaluations = 12 453

Pair  time (%) = 0.141448 (75.5146)
Neigh time (%) = 0.00089205 (0.476237)
Comm  time (%) = 0.0142296 (7.59673)
Outpt time (%) = 0.000715634 (0.382055)
Other time (%) = 0.0300268 (16.0304)

Nlocal:    336 ave 336 max 336 min
Histogram: 1 0 0 0 0 0 0 0 0 0
Nghost:    1110 ave 1110 max 1110 min
Histogram: 1 0 0 0 0 0 0 0 0 0
Neighs:    8520 ave 8520 max 8520 min
Histogram: 1 0 0 0 0 0 0 0 0 0

Total # of neighbors = 8520
Ave neighs/atom = 25.3571
Neighbor list builds = 2
Dangerous builds = 0
        next i
jump SELF loop1
        read_dump orig.dump 0 x y z
  orthogonal box = (0 -0.599871 0) to (4.48985 16.1802 4.48985)
  336 atoms before read
  336 atoms in snapshot
  0 atoms purged
  336 atoms replaced
  0 atoms trimmed
  0 atoms added
  336 atoms after read
        variable stretch equal 1+$i*${strainstep}
        variable stretch equal 1+99*${strainstep}
        variable stretch equal 1+99*-0.0005
        change_box all ${direction} scale ${stretch} remap
        change_box all y scale ${stretch} remap
        change_box all y scale 0.9505 remap
  orthogonal box = (0 -0.186158 0) to (4.48985 15.7665 4.48985)
        min_style ${style}
        min_style hftn
        minimize ${etol} ${ftol} ${maxiter} ${maxeval}
        minimize 1e-12 ${ftol} ${maxiter} ${maxeval}
        minimize 1e-12 1e-08 ${maxiter} ${maxeval}
        minimize 1e-12 1e-08 10000 ${maxeval}
        minimize 1e-12 1e-08 10000 20000
WARNING: Resetting reneighboring criteria during minimization (../min.cpp:168)
Memory usage per processor = 4.9009 Mbytes
Step PotEng Pxx Pyy Pxy Lx Ly Lz 
       0   -1807.5323    4.4363143    9.1979051  0.097115727      4.48985    15.952677      4.48985 
       1    -1827.242    3.8382001    6.8201592  0.059187242      4.48985    15.952677      4.48985 
       2    -1837.495    3.5015022    6.2026584  0.073805335      4.48985    15.952677      4.48985 
       3   -1852.2387    2.9211236    3.8398688 -0.030928365      4.48985    16.373117      4.48985 
       4   -1861.9547    2.6244561    3.3964069 -0.0034910867      4.48985    16.373117      4.48985 
       5   -1868.5313    2.2168958    2.1183077 -0.0021966938      4.48985    16.373117      4.48985 
       6   -1874.9922    1.6651953   0.59657193 -0.031273093      4.48985    16.698825      4.48985 
       7   -1875.9358    1.4882972  0.022080919 -0.00044179826      4.48985    16.698825      4.48985 
       8   -1875.9415    1.4832325 0.00019548112 -3.5780273e-05      4.48985    16.698825      4.48985 
       9   -1875.9415    1.4831965 -1.4143515e-06 7.9669003e-06      4.48985    16.698825      4.48985 
      10   -1875.9415    1.4831961 1.3181341e-11 -4.1576752e-12      4.48985    16.698825      4.48985 
Loop time of 0.12162 on 1 procs for 9 steps with 336 atoms

Minimization stats:
  Stopping criterion = force tolerance
  Energy initial, next-to-last, final = 
        -1807.53228175     -1875.94148245     -1875.94148515
  Force two-norm initial, final = 78.1663 5.66573e-09
  Force max component initial, final = 11.2099 1.08888e-09
  Final line search alpha, max atom move = 0 0
  Iterations, force evaluations = 9 390

Pair  time (%) = 0.105533 (86.7728)
Neigh time (%) = 0.000883982 (0.726839)
Comm  time (%) = 0.00525308 (4.31925)
Outpt time (%) = 0.000736071 (0.605222)
Other time (%) = 0.00921382 (7.5759)

Nlocal:    336 ave 336 max 336 min
Histogram: 1 0 0 0 0 0 0 0 0 0
Nghost:    1110 ave 1110 max 1110 min
Histogram: 1 0 0 0 0 0 0 0 0 0
Neighs:    8520 ave 8520 max 8520 min
Histogram: 1 0 0 0 0 0 0 0 0 0

Total # of neighbors = 8520
Ave neighs/atom = 25.3571
Neighbor list builds = 2
Dangerous builds = 0
        next i
jump SELF loop1
        read_dump orig.dump 0 x y z
  orthogonal box = (0 -0.599871 0) to (4.48985 16.1802 4.48985)
  336 atoms before read
  336 atoms in snapshot
  0 atoms purged
  336 atoms replaced
  0 atoms trimmed
  0 atoms added
  336 atoms after read
        variable stretch equal 1+$i*${strainstep}
        variable stretch equal 1+100*${strainstep}
        variable stretch equal 1+100*-0.0005
        change_box all ${direction} scale ${stretch} remap
        change_box all y scale ${stretch} remap
        change_box all y scale 0.95 remap
  orthogonal box = (0 -0.181962 0) to (4.48985 15.7623 4.48985)
        min_style ${style}
        min_style hftn
        minimize ${etol} ${ftol} ${maxiter} ${maxeval}
        minimize 1e-12 ${ftol} ${maxiter} ${maxeval}
        minimize 1e-12 1e-08 ${maxiter} ${maxeval}
        minimize 1e-12 1e-08 10000 ${maxeval}
        minimize 1e-12 1e-08 10000 20000
WARNING: Resetting reneighboring criteria during minimization (../min.cpp:168)
Memory usage per processor = 4.9009 Mbytes
Step PotEng Pxx Pyy Pxy Lx Ly Lz 
       0   -1805.9661    4.4767107    9.3256087   0.10249205      4.48985    15.944285      4.48985 
       1   -1826.1477    3.8706914      6.91497   0.06080246      4.48985    15.944285      4.48985 
       2   -1836.6471    3.5262685    6.2795465  0.076288441      4.48985    15.944285      4.48985 
       3    -1851.573      2.95079    3.9098758  -0.03053485      4.48985    16.366297      4.48985 
       4   -1861.5752    2.6408999    3.4427098 -0.0026783814      4.48985    16.366297      4.48985 
       5   -1868.3288    2.2297243    2.1512233 -0.0019553148      4.48985    16.366297      4.48985 
       6   -1874.9128    1.6620435   0.61373899 -0.036651757      4.48985    16.699192      4.48985 
       7   -1875.9354    1.4895425  0.025848613 -0.00030788874      4.48985    16.699192      4.48985 
       8   -1875.9415    1.4832228 0.00025656587 -2.1676907e-06      4.48985    16.699192      4.48985 
       9   -1875.9415    1.4831634 -4.5625117e-07 1.1319298e-06      4.48985    16.699192      4.48985 
      10   -1875.9415    1.4831634 -1.6813447e-11 1.3712514e-11      4.48985    16.699192      4.48985 
Loop time of 0.125945 on 1 procs for 9 steps with 336 atoms

Minimization stats:
  Stopping criterion = force tolerance
  Energy initial, next-to-last, final = 
        -1805.96610526     -1875.94148097     -1875.94148515
  Force two-norm initial, final = 79.2632 8.76776e-09
  Force max component initial, final = 11.3672 1.33754e-09
  Final line search alpha, max atom move = 0 0
  Iterations, force evaluations = 9 412

Pair  time (%) = 0.109008 (86.5522)
Neigh time (%) = 0.000981996 (0.779702)
Comm  time (%) = 0.00758546 (6.02284)
Outpt time (%) = 0.000452984 (0.359668)
Other time (%) = 0.00791636 (6.28557)

Nlocal:    336 ave 336 max 336 min
Histogram: 1 0 0 0 0 0 0 0 0 0
Nghost:    1110 ave 1110 max 1110 min
Histogram: 1 0 0 0 0 0 0 0 0 0
Neighs:    8520 ave 8520 max 8520 min
Histogram: 1 0 0 0 0 0 0 0 0 0

Total # of neighbors = 8520
Ave neighs/atom = 25.3571
Neighbor list builds = 2
Dangerous builds = 0
        next i
jump SELF loop1

