LAMMPS (28 Jun 2014)
# attempt at getting tensile strain-stress curve for infinite slab

#file prefix
variable prefix string compression_Warner_brittle
variable dumpfile string ${prefix}.*.dump
variable dumpfile string compression_Warner_brittle.*.dump
variable restartfile string ${prefix}.*.equil
variable restartfile string compression_Warner_brittle.*.equil

#Mass (g/mol)
variable m equal 1

# lattice constant (in Angstroms) and orientation of axes (given by lattice vectors)
variable rho equal 0.918
variable x1 equal 1
variable x2 equal 0
variable x3 equal 0
variable y1 equal 0
variable y2 equal 1
variable y3 equal 0
# length of lattice in different directions (using orientation of lattice vectors)
variable ax equal sqrt(${x1}*${x1}+${x2}*${x2}+${x3}*${x3})
variable ax equal sqrt(1*${x1}+${x2}*${x2}+${x3}*${x3})
variable ax equal sqrt(1*1+${x2}*${x2}+${x3}*${x3})
variable ax equal sqrt(1*1+0*${x2}+${x3}*${x3})
variable ax equal sqrt(1*1+0*0+${x3}*${x3})
variable ax equal sqrt(1*1+0*0+0*${x3})
variable ax equal sqrt(1*1+0*0+0*0)
variable ay equal sqrt(${y1}*${y1}+${y2}*${y2}+${y3}*${y3})
variable ay equal sqrt(0*${y1}+${y2}*${y2}+${y3}*${y3})
variable ay equal sqrt(0*0+${y2}*${y2}+${y3}*${y3})
variable ay equal sqrt(0*0+1*${y2}+${y3}*${y3})
variable ay equal sqrt(0*0+1*1+${y3}*${y3})
variable ay equal sqrt(0*0+1*1+0*${y3})
variable ay equal sqrt(0*0+1*1+0*0)
variable az equal 1

# size of box in lattice units
variable lxpos equal 3
variable lxneg equal 0
variable lypos equal 3
variable lyneg equal 0
variable lzpos equal 0.25
variable lzneg equal -0.25

# Define minimization parameters and damping
variable etol equal 1.0e-12
variable ftol equal 1.0e-8
variable maxiter equal 10000
variable maxeval equal 20000
variable style string cg

# boundary conditions
dimension	2
boundary	p p p
atom_style	atomic

# create geometry
units		lj
lattice         hex ${rho}
lattice         hex 0.918
Lattice spacing in x,y,z = 1.12154 1.94256 1.12154
region		myregion block ${lxneg} ${lxpos} ${lyneg} ${lypos} ${lzneg} ${lzpos} units lattice
region		myregion block 0 ${lxpos} ${lyneg} ${lypos} ${lzneg} ${lzpos} units lattice
region		myregion block 0 3 ${lyneg} ${lypos} ${lzneg} ${lzpos} units lattice
region		myregion block 0 3 0 ${lypos} ${lzneg} ${lzpos} units lattice
region		myregion block 0 3 0 3 ${lzneg} ${lzpos} units lattice
region		myregion block 0 3 0 3 -0.25 ${lzpos} units lattice
region		myregion block 0 3 0 3 -0.25 0.25 units lattice
create_box	1 myregion
Created orthogonal box = (0 0 -0.280384) to (3.36461 5.82767 0.280384)
  1 by 1 by 1 MPI processor grid
create_atoms	1 box
Created 18 atoms

# define masses
mass * $m
mass * 1

# my fake/morse potential
pair_style      table linear 1000
pair_coeff      * * da_potential_brittle dummy
neighbor	0.3 bin
neigh_modify	delay 5

# Setup output
thermo 1
thermo_style custom step pe pxx pyy pxy lx ly lz
thermo_modify norm no

# Compute initial state by relaxing box
min_style ${style}
min_style cg
minimize ${etol} ${ftol} ${maxiter} ${maxeval}
minimize 1e-12 ${ftol} ${maxiter} ${maxeval}
minimize 1e-12 1e-08 ${maxiter} ${maxeval}
minimize 1e-12 1e-08 10000 ${maxeval}
minimize 1e-12 1e-08 10000 20000
WARNING: Resetting reneighboring criteria during minimization (../min.cpp:168)
Memory usage per processor = 3.35096 Mbytes
Step PotEng Pxx Pyy Pxy Lx Ly Lz 
       0   -53.998794 0.0031519848 0.0031519848 1.5592564e-19     3.364609    5.8276737   0.56076816 
       1   -53.998794 0.0031519848 0.0031519848 1.5592564e-19     3.364609    5.8276737   0.56076816 
Loop time of 7.1092e-05 on 1 procs for 1 steps with 18 atoms

Minimization stats:
  Stopping criterion = linesearch alpha is zero
  Energy initial, next-to-last, final = 
        -53.9987944629     -53.9987944629     -53.9987944629
  Force two-norm initial, final = 9.48926e-14 9.48926e-14
  Force max component initial, final = 3.32906e-14 3.32906e-14
  Final line search alpha, max atom move = 0.5 1.66453e-14
  Iterations, force evaluations = 1 2

Pair  time (%) = 1.78376e-05 (25.0909)
Neigh time (%) = 0 (0)
Comm  time (%) = 3.17791e-06 (4.47013)
Outpt time (%) = 0 (0)
Other time (%) = 5.00765e-05 (70.439)

Nlocal:    18 ave 18 max 18 min
Histogram: 1 0 0 0 0 0 0 0 0 0
Nghost:    65 ave 65 max 65 min
Histogram: 1 0 0 0 0 0 0 0 0 0
Neighs:    162 ave 162 max 162 min
Histogram: 1 0 0 0 0 0 0 0 0 0

Total # of neighbors = 162
Ave neighs/atom = 9
Neighbor list builds = 0
Dangerous builds = 0
reset_timestep 0
write_dump all atom orig.dump

# Energy curve will have nstep steps
variable strainmax equal -0.04
variable strainstep equal -0.0005
variable nsteps equal round(${strainmax}/${strainstep})
variable nsteps equal round(-0.04/${strainstep})
variable nsteps equal round(-0.04/-0.0005)
variable direction string y

variable i loop ${nsteps}
variable i loop 80
label loop1
	read_dump orig.dump 0 x y
  orthogonal box = (0 0 -0.280384) to (3.36461 5.82767 0.280384)
  18 atoms before read
  18 atoms in snapshot
  0 atoms purged
  18 atoms replaced
  0 atoms trimmed
  0 atoms added
  18 atoms after read
        variable stretch equal 1+$i*${strainstep}
        variable stretch equal 1+1*${strainstep}
        variable stretch equal 1+1*-0.0005
        change_box all ${direction} scale ${stretch} remap
        change_box all y scale ${stretch} remap
        change_box all y scale 0.9995 remap
  orthogonal box = (0 0.00145692 -0.280384) to (3.36461 5.82621 0.280384)
        min_style ${style}
        min_style cg
        minimize ${etol} ${ftol} ${maxiter} ${maxeval}
        minimize 1e-12 ${ftol} ${maxiter} ${maxeval}
        minimize 1e-12 1e-08 ${maxiter} ${maxeval}
        minimize 1e-12 1e-08 10000 ${maxeval}
        minimize 1e-12 1e-08 10000 20000
WARNING: Resetting reneighboring criteria during minimization (../min.cpp:168)
Memory usage per processor = 3.35096 Mbytes
Step PotEng Pxx Pyy Pxy Lx Ly Lz 
       0   -53.998738 0.0084070441  0.018920814 -4.9392164e-19      3.36461    5.8247562   0.56076816 
       1   -53.998738 0.0084070441  0.018920814 -4.9392164e-19      3.36461    5.8247562   0.56076816 
Loop time of 0.000101108 on 1 procs for 1 steps with 18 atoms

Minimization stats:
  Stopping criterion = linesearch alpha is zero
  Energy initial, next-to-last, final = 
          -53.99873774       -53.99873774       -53.99873774
  Force two-norm initial, final = 0.000847243 0.000847243
  Force max component initial, final = 0.000211734 0.000211734
  Final line search alpha, max atom move = 0.015625 3.30834e-06
  Iterations, force evaluations = 1 7

Pair  time (%) = 4.68234e-05 (46.3102)
Neigh time (%) = 0 (0)
Comm  time (%) = 8.87737e-06 (8.78007)
Outpt time (%) = 0 (0)
Other time (%) = 4.54073e-05 (44.9097)

Nlocal:    18 ave 18 max 18 min
Histogram: 1 0 0 0 0 0 0 0 0 0
Nghost:    65 ave 65 max 65 min
Histogram: 1 0 0 0 0 0 0 0 0 0
Neighs:    162 ave 162 max 162 min
Histogram: 1 0 0 0 0 0 0 0 0 0

Total # of neighbors = 162
Ave neighs/atom = 9
Neighbor list builds = 0
Dangerous builds = 0
        next i
jump SELF loop1
	read_dump orig.dump 0 x y
  orthogonal box = (0 0 -0.280384) to (3.36461 5.82767 0.280384)
  18 atoms before read
  18 atoms in snapshot
  0 atoms purged
  18 atoms replaced
  0 atoms trimmed
  0 atoms added
  18 atoms after read
        variable stretch equal 1+$i*${strainstep}
        variable stretch equal 1+2*${strainstep}
        variable stretch equal 1+2*-0.0005
        change_box all ${direction} scale ${stretch} remap
        change_box all y scale ${stretch} remap
        change_box all y scale 0.999 remap
  orthogonal box = (0 0.00291384 -0.280384) to (3.36461 5.82476 0.280384)
        min_style ${style}
        min_style cg
        minimize ${etol} ${ftol} ${maxiter} ${maxeval}
        minimize 1e-12 ${ftol} ${maxiter} ${maxeval}
        minimize 1e-12 1e-08 ${maxiter} ${maxeval}
        minimize 1e-12 1e-08 10000 ${maxeval}
        minimize 1e-12 1e-08 10000 20000
WARNING: Resetting reneighboring criteria during minimization (../min.cpp:168)
Memory usage per processor = 3.35096 Mbytes
Step PotEng Pxx Pyy Pxy Lx Ly Lz 
       0   -53.997856  0.013821682  0.035110162 -4.1896247e-18      3.36461    5.8218423   0.56076816 
       1   -53.997856  0.013821682  0.035110162 -4.1896247e-18      3.36461    5.8218423   0.56076816 
Loop time of 0.000100971 on 1 procs for 1 steps with 18 atoms

Minimization stats:
  Stopping criterion = linesearch alpha is zero
  Energy initial, next-to-last, final = 
        -53.9978562063     -53.9978562063     -53.9978562063
  Force two-norm initial, final = 0.000869477 0.000869477
  Force max component initial, final = 0.000218383 0.000218383
  Final line search alpha, max atom move = 0.015625 3.41224e-06
  Iterations, force evaluations = 1 7

Pair  time (%) = 4.81124e-05 (47.6496)
Neigh time (%) = 0 (0)
Comm  time (%) = 5.83206e-06 (5.77596)
Outpt time (%) = 0 (0)
Other time (%) = 4.70268e-05 (46.5745)

Nlocal:    18 ave 18 max 18 min
Histogram: 1 0 0 0 0 0 0 0 0 0
Nghost:    65 ave 65 max 65 min
Histogram: 1 0 0 0 0 0 0 0 0 0
Neighs:    162 ave 162 max 162 min
Histogram: 1 0 0 0 0 0 0 0 0 0

Total # of neighbors = 162
Ave neighs/atom = 9
Neighbor list builds = 0
Dangerous builds = 0
        next i
jump SELF loop1
	read_dump orig.dump 0 x y
  orthogonal box = (0 0 -0.280384) to (3.36461 5.82767 0.280384)
  18 atoms before read
  18 atoms in snapshot
  0 atoms purged
  18 atoms replaced
  0 atoms trimmed
  0 atoms added
  18 atoms after read
        variable stretch equal 1+$i*${strainstep}
        variable stretch equal 1+3*${strainstep}
        variable stretch equal 1+3*-0.0005
        change_box all ${direction} scale ${stretch} remap
        change_box all y scale ${stretch} remap
        change_box all y scale 0.9985 remap
  orthogonal box = (0 0.00437075 -0.280384) to (3.36461 5.8233 0.280384)
        min_style ${style}
        min_style cg
        minimize ${etol} ${ftol} ${maxiter} ${maxeval}
        minimize 1e-12 ${ftol} ${maxiter} ${maxeval}
        minimize 1e-12 1e-08 ${maxiter} ${maxeval}
        minimize 1e-12 1e-08 10000 ${maxeval}
        minimize 1e-12 1e-08 10000 20000
WARNING: Resetting reneighboring criteria during minimization (../min.cpp:168)
Memory usage per processor = 3.35096 Mbytes
Step PotEng Pxx Pyy Pxy Lx Ly Lz 
       0   -53.996858  0.019260947  0.051340737 -4.1079644e-18      3.36461    5.8189285   0.56076816 
       1   -53.996858  0.019260947  0.051340737 -4.1079644e-18      3.36461    5.8189285   0.56076816 
Loop time of 7.10253e-05 on 1 procs for 1 steps with 18 atoms

Minimization stats:
  Stopping criterion = linesearch alpha is zero
  Energy initial, next-to-last, final = 
        -53.9968577391     -53.9968577391     -53.9968577391
  Force two-norm initial, final = 0.000868052 0.000868052
  Force max component initial, final = 0.000217946 0.000217946
  Final line search alpha, max atom move = 0.015625 3.40541e-06
  Iterations, force evaluations = 1 7

Pair  time (%) = 4.9016e-05 (69.012)
Neigh time (%) = 0 (0)
Comm  time (%) = 6.92438e-06 (9.74917)
Outpt time (%) = 0 (0)
Other time (%) = 1.5085e-05 (21.2389)

Nlocal:    18 ave 18 max 18 min
Histogram: 1 0 0 0 0 0 0 0 0 0
Nghost:    65 ave 65 max 65 min
Histogram: 1 0 0 0 0 0 0 0 0 0
Neighs:    162 ave 162 max 162 min
Histogram: 1 0 0 0 0 0 0 0 0 0

Total # of neighbors = 162
Ave neighs/atom = 9
Neighbor list builds = 0
Dangerous builds = 0
        next i
jump SELF loop1
	read_dump orig.dump 0 x y
  orthogonal box = (0 0 -0.280384) to (3.36461 5.82767 0.280384)
  18 atoms before read
  18 atoms in snapshot
  0 atoms purged
  18 atoms replaced
  0 atoms trimmed
  0 atoms added
  18 atoms after read
        variable stretch equal 1+$i*${strainstep}
        variable stretch equal 1+4*${strainstep}
        variable stretch equal 1+4*-0.0005
        change_box all ${direction} scale ${stretch} remap
        change_box all y scale ${stretch} remap
        change_box all y scale 0.998 remap
  orthogonal box = (0 0.00582767 -0.280384) to (3.36461 5.82184 0.280384)
        min_style ${style}
        min_style cg
        minimize ${etol} ${ftol} ${maxiter} ${maxeval}
        minimize 1e-12 ${ftol} ${maxiter} ${maxeval}
        minimize 1e-12 1e-08 ${maxiter} ${maxeval}
        minimize 1e-12 1e-08 10000 ${maxeval}
        minimize 1e-12 1e-08 10000 20000
WARNING: Resetting reneighboring criteria during minimization (../min.cpp:168)
Memory usage per processor = 3.35096 Mbytes
Step PotEng Pxx Pyy Pxy Lx Ly Lz 
       0    -53.99586  0.024702942  0.067546909 2.2868471e-18      3.36461    5.8160147   0.56076816 
       1    -53.99586  0.024702942  0.067546909 2.2868471e-18      3.36461    5.8160147   0.56076816 
Loop time of 6.99825e-05 on 1 procs for 1 steps with 18 atoms

Minimization stats:
  Stopping criterion = linesearch alpha is zero
  Energy initial, next-to-last, final = 
        -53.9958597718     -53.9958597718     -53.9958597718
  Force two-norm initial, final = 0.000866628 0.000866628
  Force max component initial, final = 0.000217509 0.000217509
  Final line search alpha, max atom move = 0.015625 3.39858e-06
  Iterations, force evaluations = 1 7

Pair  time (%) = 4.80642e-05 (68.6803)
Neigh time (%) = 0 (0)
Comm  time (%) = 4.97466e-06 (7.10843)
Outpt time (%) = 0 (0)
Other time (%) = 1.69437e-05 (24.2113)

Nlocal:    18 ave 18 max 18 min
Histogram: 1 0 0 0 0 0 0 0 0 0
Nghost:    65 ave 65 max 65 min
Histogram: 1 0 0 0 0 0 0 0 0 0
Neighs:    162 ave 162 max 162 min
Histogram: 1 0 0 0 0 0 0 0 0 0

Total # of neighbors = 162
Ave neighs/atom = 9
Neighbor list builds = 0
Dangerous builds = 0
        next i
jump SELF loop1
	read_dump orig.dump 0 x y
  orthogonal box = (0 0 -0.280384) to (3.36461 5.82767 0.280384)
  18 atoms before read
  18 atoms in snapshot
  0 atoms purged
  18 atoms replaced
  0 atoms trimmed
  0 atoms added
  18 atoms after read
        variable stretch equal 1+$i*${strainstep}
        variable stretch equal 1+5*${strainstep}
        variable stretch equal 1+5*-0.0005
        change_box all ${direction} scale ${stretch} remap
        change_box all y scale ${stretch} remap
        change_box all y scale 0.9975 remap
  orthogonal box = (0 0.00728459 -0.280384) to (3.36461 5.82039 0.280384)
        min_style ${style}
        min_style cg
        minimize ${etol} ${ftol} ${maxiter} ${maxeval}
        minimize 1e-12 ${ftol} ${maxiter} ${maxeval}
        minimize 1e-12 1e-08 ${maxiter} ${maxeval}
        minimize 1e-12 1e-08 10000 ${maxeval}
        minimize 1e-12 1e-08 10000 20000
WARNING: Resetting reneighboring criteria during minimization (../min.cpp:168)
Memory usage per processor = 3.35096 Mbytes
Step PotEng Pxx Pyy Pxy Lx Ly Lz 
       0   -53.994862   0.03014767  0.083728691 -2.9961488e-18      3.36461    5.8131008   0.56076816 
       1   -53.994862   0.03014767  0.083728691 -2.9961488e-18      3.36461    5.8131008   0.56076816 
Loop time of 7.00582e-05 on 1 procs for 1 steps with 18 atoms

Minimization stats:
  Stopping criterion = linesearch alpha is zero
  Energy initial, next-to-last, final = 
        -53.9948623043     -53.9948623043     -53.9948623043
  Force two-norm initial, final = 0.000865206 0.000865206
  Force max component initial, final = 0.000217073 0.000217073
  Final line search alpha, max atom move = 0.015625 3.39176e-06
  Iterations, force evaluations = 1 7

Pair  time (%) = 4.79543e-05 (68.4492)
Neigh time (%) = 0 (0)
Comm  time (%) = 4.75463e-06 (6.7867)
Outpt time (%) = 0 (0)
Other time (%) = 1.73493e-05 (24.7641)

Nlocal:    18 ave 18 max 18 min
Histogram: 1 0 0 0 0 0 0 0 0 0
Nghost:    65 ave 65 max 65 min
Histogram: 1 0 0 0 0 0 0 0 0 0
Neighs:    162 ave 162 max 162 min
Histogram: 1 0 0 0 0 0 0 0 0 0

Total # of neighbors = 162
Ave neighs/atom = 9
Neighbor list builds = 0
Dangerous builds = 0
        next i
jump SELF loop1
	read_dump orig.dump 0 x y
  orthogonal box = (0 0 -0.280384) to (3.36461 5.82767 0.280384)
  18 atoms before read
  18 atoms in snapshot
  0 atoms purged
  18 atoms replaced
  0 atoms trimmed
  0 atoms added
  18 atoms after read
        variable stretch equal 1+$i*${strainstep}
        variable stretch equal 1+6*${strainstep}
        variable stretch equal 1+6*-0.0005
        change_box all ${direction} scale ${stretch} remap
        change_box all y scale ${stretch} remap
        change_box all y scale 0.997 remap
  orthogonal box = (0 0.00874151 -0.280384) to (3.36461 5.81893 0.280384)
        min_style ${style}
        min_style cg
        minimize ${etol} ${ftol} ${maxiter} ${maxeval}
        minimize 1e-12 ${ftol} ${maxiter} ${maxeval}
        minimize 1e-12 1e-08 ${maxiter} ${maxeval}
        minimize 1e-12 1e-08 10000 ${maxeval}
        minimize 1e-12 1e-08 10000 20000
WARNING: Resetting reneighboring criteria during minimization (../min.cpp:168)
Memory usage per processor = 3.35096 Mbytes
Step PotEng Pxx Pyy Pxy Lx Ly Lz 
       0   -53.993865  0.035595135  0.099886094 2.7057894e-18      3.36461     5.810187   0.56076816 
       1   -53.993865  0.035595135  0.099886094 2.7057894e-18      3.36461     5.810187   0.56076816 
Loop time of 6.99894e-05 on 1 procs for 1 steps with 18 atoms

Minimization stats:
  Stopping criterion = linesearch alpha is zero
  Energy initial, next-to-last, final = 
        -53.9938653367     -53.9938653367     -53.9938653367
  Force two-norm initial, final = 0.000863786 0.000863786
  Force max component initial, final = 0.000216637 0.000216637
  Final line search alpha, max atom move = 0.015625 3.38495e-06
  Iterations, force evaluations = 1 7

Pair  time (%) = 4.69733e-05 (67.115)
Neigh time (%) = 0 (0)
Comm  time (%) = 5.89248e-06 (8.41911)
Outpt time (%) = 0 (0)
Other time (%) = 1.71235e-05 (24.4659)

Nlocal:    18 ave 18 max 18 min
Histogram: 1 0 0 0 0 0 0 0 0 0
Nghost:    65 ave 65 max 65 min
Histogram: 1 0 0 0 0 0 0 0 0 0
Neighs:    162 ave 162 max 162 min
Histogram: 1 0 0 0 0 0 0 0 0 0

Total # of neighbors = 162
Ave neighs/atom = 9
Neighbor list builds = 0
Dangerous builds = 0
        next i
jump SELF loop1
	read_dump orig.dump 0 x y
  orthogonal box = (0 0 -0.280384) to (3.36461 5.82767 0.280384)
  18 atoms before read
  18 atoms in snapshot
  0 atoms purged
  18 atoms replaced
  0 atoms trimmed
  0 atoms added
  18 atoms after read
        variable stretch equal 1+$i*${strainstep}
        variable stretch equal 1+7*${strainstep}
        variable stretch equal 1+7*-0.0005
        change_box all ${direction} scale ${stretch} remap
        change_box all y scale ${stretch} remap
        change_box all y scale 0.9965 remap
  orthogonal box = (0 0.0101984 -0.280384) to (3.36461 5.81747 0.280384)
        min_style ${style}
        min_style cg
        minimize ${etol} ${ftol} ${maxiter} ${maxeval}
        minimize 1e-12 ${ftol} ${maxiter} ${maxeval}
        minimize 1e-12 1e-08 ${maxiter} ${maxeval}
        minimize 1e-12 1e-08 10000 ${maxeval}
        minimize 1e-12 1e-08 10000 20000
WARNING: Resetting reneighboring criteria during minimization (../min.cpp:168)
Memory usage per processor = 3.35096 Mbytes
Step PotEng Pxx Pyy Pxy Lx Ly Lz 
       0   -53.992869  0.041045342   0.11601913 -1.1520808e-18      3.36461    5.8072732   0.56076816 
       1   -53.992869  0.041045342   0.11601913 -1.1520808e-18      3.36461    5.8072732   0.56076816 
Loop time of 6.89274e-05 on 1 procs for 1 steps with 18 atoms

Minimization stats:
  Stopping criterion = linesearch alpha is zero
  Energy initial, next-to-last, final = 
         -53.992868869      -53.992868869      -53.992868869
  Force two-norm initial, final = 0.000862367 0.000862367
  Force max component initial, final = 0.000216202 0.000216202
  Final line search alpha, max atom move = 0.015625 3.37815e-06
  Iterations, force evaluations = 1 7

Pair  time (%) = 4.60604e-05 (66.8245)
Neigh time (%) = 0 (0)
Comm  time (%) = 9.02032e-06 (13.0867)
Outpt time (%) = 0 (0)
Other time (%) = 1.38467e-05 (20.0888)

Nlocal:    18 ave 18 max 18 min
Histogram: 1 0 0 0 0 0 0 0 0 0
Nghost:    65 ave 65 max 65 min
Histogram: 1 0 0 0 0 0 0 0 0 0
Neighs:    162 ave 162 max 162 min
Histogram: 1 0 0 0 0 0 0 0 0 0

Total # of neighbors = 162
Ave neighs/atom = 9
Neighbor list builds = 0
Dangerous builds = 0
        next i
jump SELF loop1
	read_dump orig.dump 0 x y
  orthogonal box = (0 0 -0.280384) to (3.36461 5.82767 0.280384)
  18 atoms before read
  18 atoms in snapshot
  0 atoms purged
  18 atoms replaced
  0 atoms trimmed
  0 atoms added
  18 atoms after read
        variable stretch equal 1+$i*${strainstep}
        variable stretch equal 1+8*${strainstep}
        variable stretch equal 1+8*-0.0005
        change_box all ${direction} scale ${stretch} remap
        change_box all y scale ${stretch} remap
        change_box all y scale 0.996 remap
  orthogonal box = (0 0.0116553 -0.280384) to (3.36461 5.81601 0.280384)
        min_style ${style}
        min_style cg
        minimize ${etol} ${ftol} ${maxiter} ${maxeval}
        minimize 1e-12 ${ftol} ${maxiter} ${maxeval}
        minimize 1e-12 1e-08 ${maxiter} ${maxeval}
        minimize 1e-12 1e-08 10000 ${maxeval}
        minimize 1e-12 1e-08 10000 20000
WARNING: Resetting reneighboring criteria during minimization (../min.cpp:168)
Memory usage per processor = 3.35096 Mbytes
Step PotEng Pxx Pyy Pxy Lx Ly Lz 
       0    -53.99098  0.046664778   0.13262328 3.0450742e-18      3.36461    5.8043593   0.56076816 
       1    -53.99098  0.046664778   0.13262328 3.0450742e-18      3.36461    5.8043593   0.56076816 
Loop time of 7.00451e-05 on 1 procs for 1 steps with 18 atoms

Minimization stats:
  Stopping criterion = linesearch alpha is zero
  Energy initial, next-to-last, final = 
        -53.9909802428     -53.9909802428     -53.9909802428
  Force two-norm initial, final = 0.000885109 0.000885109
  Force max component initial, final = 0.000222984 0.000222984
  Final line search alpha, max atom move = 0.015625 3.48413e-06
  Iterations, force evaluations = 1 7

Pair  time (%) = 4.78495e-05 (68.3124)
Neigh time (%) = 0 (0)
Comm  time (%) = 5.78375e-06 (8.25717)
Outpt time (%) = 0 (0)
Other time (%) = 1.64119e-05 (23.4304)

Nlocal:    18 ave 18 max 18 min
Histogram: 1 0 0 0 0 0 0 0 0 0
Nghost:    65 ave 65 max 65 min
Histogram: 1 0 0 0 0 0 0 0 0 0
Neighs:    162 ave 162 max 162 min
Histogram: 1 0 0 0 0 0 0 0 0 0

Total # of neighbors = 162
Ave neighs/atom = 9
Neighbor list builds = 0
Dangerous builds = 0
        next i
jump SELF loop1
	read_dump orig.dump 0 x y
  orthogonal box = (0 0 -0.280384) to (3.36461 5.82767 0.280384)
  18 atoms before read
  18 atoms in snapshot
  0 atoms purged
  18 atoms replaced
  0 atoms trimmed
  0 atoms added
  18 atoms after read
        variable stretch equal 1+$i*${strainstep}
        variable stretch equal 1+9*${strainstep}
        variable stretch equal 1+9*-0.0005
        change_box all ${direction} scale ${stretch} remap
        change_box all y scale ${stretch} remap
        change_box all y scale 0.9955 remap
  orthogonal box = (0 0.0131123 -0.280384) to (3.36461 5.81456 0.280384)
        min_style ${style}
        min_style cg
        minimize ${etol} ${ftol} ${maxiter} ${maxeval}
        minimize 1e-12 ${ftol} ${maxiter} ${maxeval}
        minimize 1e-12 1e-08 ${maxiter} ${maxeval}
        minimize 1e-12 1e-08 10000 ${maxeval}
        minimize 1e-12 1e-08 10000 20000
WARNING: Resetting reneighboring criteria during minimization (../min.cpp:168)
Memory usage per processor = 3.35096 Mbytes
Step PotEng Pxx Pyy Pxy Lx Ly Lz 
       0   -53.989014  0.052301615   0.14924564 2.2217711e-19      3.36461    5.8014455   0.56076816 
       1   -53.989014  0.052301615   0.14924564 2.2217711e-19      3.36461    5.8014455   0.56076816 
Loop time of 8.00173e-05 on 1 procs for 1 steps with 18 atoms

Minimization stats:
  Stopping criterion = linesearch alpha is zero
  Energy initial, next-to-last, final = 
        -53.9890144961     -53.9890144961     -53.9890144961
  Force two-norm initial, final = 0.000883642 0.000883642
  Force max component initial, final = 0.000222535 0.000222535
  Final line search alpha, max atom move = 0.015625 3.47712e-06
  Iterations, force evaluations = 1 7

Pair  time (%) = 5.11541e-05 (63.9288)
Neigh time (%) = 0 (0)
Comm  time (%) = 9.20077e-06 (11.4985)
Outpt time (%) = 0 (0)
Other time (%) = 1.96624e-05 (24.5727)

Nlocal:    18 ave 18 max 18 min
Histogram: 1 0 0 0 0 0 0 0 0 0
Nghost:    65 ave 65 max 65 min
Histogram: 1 0 0 0 0 0 0 0 0 0
Neighs:    162 ave 162 max 162 min
Histogram: 1 0 0 0 0 0 0 0 0 0

Total # of neighbors = 162
Ave neighs/atom = 9
Neighbor list builds = 0
Dangerous builds = 0
        next i
jump SELF loop1
	read_dump orig.dump 0 x y
  orthogonal box = (0 0 -0.280384) to (3.36461 5.82767 0.280384)
  18 atoms before read
  18 atoms in snapshot
  0 atoms purged
  18 atoms replaced
  0 atoms trimmed
  0 atoms added
  18 atoms after read
        variable stretch equal 1+$i*${strainstep}
        variable stretch equal 1+10*${strainstep}
        variable stretch equal 1+10*-0.0005
        change_box all ${direction} scale ${stretch} remap
        change_box all y scale ${stretch} remap
        change_box all y scale 0.995 remap
  orthogonal box = (0 0.0145692 -0.280384) to (3.36461 5.8131 0.280384)
        min_style ${style}
        min_style cg
        minimize ${etol} ${ftol} ${maxiter} ${maxeval}
        minimize 1e-12 ${ftol} ${maxiter} ${maxeval}
        minimize 1e-12 1e-08 ${maxiter} ${maxeval}
        minimize 1e-12 1e-08 10000 ${maxeval}
        minimize 1e-12 1e-08 10000 20000
WARNING: Resetting reneighboring criteria during minimization (../min.cpp:168)
Memory usage per processor = 3.35096 Mbytes
Step PotEng Pxx Pyy Pxy Lx Ly Lz 
       0    -53.98705  0.057941297   0.16584287 -5.5224864e-18      3.36461    5.7985317   0.56076816 
       1    -53.98705  0.057941297   0.16584287 -5.5224864e-18      3.36461    5.7985317   0.56076816 
Loop time of 6.99651e-05 on 1 procs for 1 steps with 18 atoms

Minimization stats:
  Stopping criterion = linesearch alpha is zero
  Energy initial, next-to-last, final = 
        -53.9870497364     -53.9870497364     -53.9870497364
  Force two-norm initial, final = 0.000882177 0.000882177
  Force max component initial, final = 0.000222087 0.000222087
  Final line search alpha, max atom move = 0.015625 3.47011e-06
  Iterations, force evaluations = 1 7

Pair  time (%) = 4.70711e-05 (67.278)
Neigh time (%) = 0 (0)
Comm  time (%) = 7.84965e-06 (11.2194)
Outpt time (%) = 0 (0)
Other time (%) = 1.50444e-05 (21.5026)

Nlocal:    18 ave 18 max 18 min
Histogram: 1 0 0 0 0 0 0 0 0 0
Nghost:    65 ave 65 max 65 min
Histogram: 1 0 0 0 0 0 0 0 0 0
Neighs:    162 ave 162 max 162 min
Histogram: 1 0 0 0 0 0 0 0 0 0

Total # of neighbors = 162
Ave neighs/atom = 9
Neighbor list builds = 0
Dangerous builds = 0
        next i
jump SELF loop1
	read_dump orig.dump 0 x y
  orthogonal box = (0 0 -0.280384) to (3.36461 5.82767 0.280384)
  18 atoms before read
  18 atoms in snapshot
  0 atoms purged
  18 atoms replaced
  0 atoms trimmed
  0 atoms added
  18 atoms after read
        variable stretch equal 1+$i*${strainstep}
        variable stretch equal 1+11*${strainstep}
        variable stretch equal 1+11*-0.0005
        change_box all ${direction} scale ${stretch} remap
        change_box all y scale ${stretch} remap
        change_box all y scale 0.9945 remap
  orthogonal box = (0 0.0160261 -0.280384) to (3.36461 5.81164 0.280384)
        min_style ${style}
        min_style cg
        minimize ${etol} ${ftol} ${maxiter} ${maxeval}
        minimize 1e-12 ${ftol} ${maxiter} ${maxeval}
        minimize 1e-12 1e-08 ${maxiter} ${maxeval}
        minimize 1e-12 1e-08 10000 ${maxeval}
        minimize 1e-12 1e-08 10000 20000
WARNING: Resetting reneighboring criteria during minimization (../min.cpp:168)
Memory usage per processor = 3.35096 Mbytes
Step PotEng Pxx Pyy Pxy Lx Ly Lz 
       0   -53.985086  0.063583828   0.18241497 -1.5056515e-17      3.36461    5.7956178   0.56076816 
       1   -53.985086  0.063583828   0.18241497 -1.5056515e-17      3.36461    5.7956178   0.56076816 
Loop time of 6.9944e-05 on 1 procs for 1 steps with 18 atoms

Minimization stats:
  Stopping criterion = linesearch alpha is zero
  Energy initial, next-to-last, final = 
        -53.9850859638     -53.9850859638     -53.9850859638
  Force two-norm initial, final = 0.000880714 0.000880714
  Force max component initial, final = 0.000221639 0.000221639
  Final line search alpha, max atom move = 0.015625 3.46311e-06
  Iterations, force evaluations = 1 7

Pair  time (%) = 4.79938e-05 (68.6176)
Neigh time (%) = 0 (0)
Comm  time (%) = 6.02612e-06 (8.61564)
Outpt time (%) = 0 (0)
Other time (%) = 1.5924e-05 (22.7668)

Nlocal:    18 ave 18 max 18 min
Histogram: 1 0 0 0 0 0 0 0 0 0
Nghost:    65 ave 65 max 65 min
Histogram: 1 0 0 0 0 0 0 0 0 0
Neighs:    162 ave 162 max 162 min
Histogram: 1 0 0 0 0 0 0 0 0 0

Total # of neighbors = 162
Ave neighs/atom = 9
Neighbor list builds = 0
Dangerous builds = 0
        next i
jump SELF loop1
	read_dump orig.dump 0 x y
  orthogonal box = (0 0 -0.280384) to (3.36461 5.82767 0.280384)
  18 atoms before read
  18 atoms in snapshot
  0 atoms purged
  18 atoms replaced
  0 atoms trimmed
  0 atoms added
  18 atoms after read
        variable stretch equal 1+$i*${strainstep}
        variable stretch equal 1+12*${strainstep}
        variable stretch equal 1+12*-0.0005
        change_box all ${direction} scale ${stretch} remap
        change_box all y scale ${stretch} remap
        change_box all y scale 0.994 remap
  orthogonal box = (0 0.017483 -0.280384) to (3.36461 5.81019 0.280384)
        min_style ${style}
        min_style cg
        minimize ${etol} ${ftol} ${maxiter} ${maxeval}
        minimize 1e-12 ${ftol} ${maxiter} ${maxeval}
        minimize 1e-12 1e-08 ${maxiter} ${maxeval}
        minimize 1e-12 1e-08 10000 ${maxeval}
        minimize 1e-12 1e-08 10000 20000
WARNING: Resetting reneighboring criteria during minimization (../min.cpp:168)
Memory usage per processor = 3.35096 Mbytes
Step PotEng Pxx Pyy Pxy Lx Ly Lz 
       0   -53.983123  0.069229213   0.19896195 1.5603681e-18      3.36461     5.792704   0.56076816 
       1   -53.983123  0.069229213   0.19896195 1.5603681e-18      3.36461     5.792704   0.56076816 
Loop time of 6.90209e-05 on 1 procs for 1 steps with 18 atoms

Minimization stats:
  Stopping criterion = linesearch alpha is zero
  Energy initial, next-to-last, final = 
        -53.9831231782     -53.9831231782     -53.9831231782
  Force two-norm initial, final = 0.000879253 0.000879253
  Force max component initial, final = 0.000221192 0.000221192
  Final line search alpha, max atom move = 0.015625 3.45612e-06
  Iterations, force evaluations = 1 7

Pair  time (%) = 4.82787e-05 (69.948)
Neigh time (%) = 0 (0)
Comm  time (%) = 5.11843e-06 (7.41577)
Outpt time (%) = 0 (0)
Other time (%) = 1.56238e-05 (22.6363)

Nlocal:    18 ave 18 max 18 min
Histogram: 1 0 0 0 0 0 0 0 0 0
Nghost:    65 ave 65 max 65 min
Histogram: 1 0 0 0 0 0 0 0 0 0
Neighs:    162 ave 162 max 162 min
Histogram: 1 0 0 0 0 0 0 0 0 0

Total # of neighbors = 162
Ave neighs/atom = 9
Neighbor list builds = 0
Dangerous builds = 0
        next i
jump SELF loop1
	read_dump orig.dump 0 x y
  orthogonal box = (0 0 -0.280384) to (3.36461 5.82767 0.280384)
  18 atoms before read
  18 atoms in snapshot
  0 atoms purged
  18 atoms replaced
  0 atoms trimmed
  0 atoms added
  18 atoms after read
        variable stretch equal 1+$i*${strainstep}
        variable stretch equal 1+13*${strainstep}
        variable stretch equal 1+13*-0.0005
        change_box all ${direction} scale ${stretch} remap
        change_box all y scale ${stretch} remap
        change_box all y scale 0.9935 remap
  orthogonal box = (0 0.0189399 -0.280384) to (3.36461 5.80873 0.280384)
        min_style ${style}
        min_style cg
        minimize ${etol} ${ftol} ${maxiter} ${maxeval}
        minimize 1e-12 ${ftol} ${maxiter} ${maxeval}
        minimize 1e-12 1e-08 ${maxiter} ${maxeval}
        minimize 1e-12 1e-08 10000 ${maxeval}
        minimize 1e-12 1e-08 10000 20000
WARNING: Resetting reneighboring criteria during minimization (../min.cpp:168)
Memory usage per processor = 3.35096 Mbytes
Step PotEng Pxx Pyy Pxy Lx Ly Lz 
       0   -53.981161  0.074877456   0.21548384 1.5295686e-17      3.36461    5.7897901   0.56076816 
       1   -53.981161  0.074877456   0.21548384 1.5295686e-17      3.36461    5.7897901   0.56076816 
Loop time of 6.90065e-05 on 1 procs for 1 steps with 18 atoms

Minimization stats:
  Stopping criterion = linesearch alpha is zero
  Energy initial, next-to-last, final = 
        -53.9811613798     -53.9811613798     -53.9811613798
  Force two-norm initial, final = 0.000877794 0.000877794
  Force max component initial, final = 0.000220745 0.000220745
  Final line search alpha, max atom move = 0.015625 3.44914e-06
  Iterations, force evaluations = 1 7

Pair  time (%) = 4.80702e-05 (69.6605)
Neigh time (%) = 0 (0)
Comm  time (%) = 8.70205e-06 (12.6105)
Outpt time (%) = 0 (0)
Other time (%) = 1.22342e-05 (17.7291)

Nlocal:    18 ave 18 max 18 min
Histogram: 1 0 0 0 0 0 0 0 0 0
Nghost:    65 ave 65 max 65 min
Histogram: 1 0 0 0 0 0 0 0 0 0
Neighs:    162 ave 162 max 162 min
Histogram: 1 0 0 0 0 0 0 0 0 0

Total # of neighbors = 162
Ave neighs/atom = 9
Neighbor list builds = 0
Dangerous builds = 0
        next i
jump SELF loop1
	read_dump orig.dump 0 x y
  orthogonal box = (0 0 -0.280384) to (3.36461 5.82767 0.280384)
  18 atoms before read
  18 atoms in snapshot
  0 atoms purged
  18 atoms replaced
  0 atoms trimmed
  0 atoms added
  18 atoms after read
        variable stretch equal 1+$i*${strainstep}
        variable stretch equal 1+14*${strainstep}
        variable stretch equal 1+14*-0.0005
        change_box all ${direction} scale ${stretch} remap
        change_box all y scale ${stretch} remap
        change_box all y scale 0.993 remap
  orthogonal box = (0 0.0203968 -0.280384) to (3.36461 5.80727 0.280384)
        min_style ${style}
        min_style cg
        minimize ${etol} ${ftol} ${maxiter} ${maxeval}
        minimize 1e-12 ${ftol} ${maxiter} ${maxeval}
        minimize 1e-12 1e-08 ${maxiter} ${maxeval}
        minimize 1e-12 1e-08 10000 ${maxeval}
        minimize 1e-12 1e-08 10000 20000
WARNING: Resetting reneighboring criteria during minimization (../min.cpp:168)
Memory usage per processor = 3.35096 Mbytes
Step PotEng Pxx Pyy Pxy Lx Ly Lz 
       0   -53.978255  0.080704889   0.23250223 3.9118093e-19      3.36461    5.7868763   0.56076816 
       1   -53.978255  0.080704889   0.23250223 3.9118093e-19      3.36461    5.7868763   0.56076816 
Loop time of 9.22126e-07 on 1 procs for 1 steps with 18 atoms

Minimization stats:
  Stopping criterion = linesearch alpha is zero
  Energy initial, next-to-last, final = 
        -53.9782547311     -53.9782547311     -53.9782547311
  Force two-norm initial, final = 0.000901052 0.000901052
  Force max component initial, final = 0.000227663 0.000227663
  Final line search alpha, max atom move = 0.0078125 1.77862e-06
  Iterations, force evaluations = 1 8

Pair  time (%) = -3.3027e-07 (-35.8162)
Neigh time (%) = 0 (0)
Comm  time (%) = 3.39467e-07 (36.8135)
Outpt time (%) = 0 (0)
Other time (%) = 9.12929e-07 (99.0027)

Nlocal:    18 ave 18 max 18 min
Histogram: 1 0 0 0 0 0 0 0 0 0
Nghost:    65 ave 65 max 65 min
Histogram: 1 0 0 0 0 0 0 0 0 0
Neighs:    162 ave 162 max 162 min
Histogram: 1 0 0 0 0 0 0 0 0 0

Total # of neighbors = 162
Ave neighs/atom = 9
Neighbor list builds = 0
Dangerous builds = 0
        next i
jump SELF loop1
	read_dump orig.dump 0 x y
  orthogonal box = (0 0 -0.280384) to (3.36461 5.82767 0.280384)
  18 atoms before read
  18 atoms in snapshot
  0 atoms purged
  18 atoms replaced
  0 atoms trimmed
  0 atoms added
  18 atoms after read
        variable stretch equal 1+$i*${strainstep}
        variable stretch equal 1+15*${strainstep}
        variable stretch equal 1+15*-0.0005
        change_box all ${direction} scale ${stretch} remap
        change_box all y scale ${stretch} remap
        change_box all y scale 0.9925 remap
  orthogonal box = (0 0.0218538 -0.280384) to (3.36461 5.80582 0.280384)
        min_style ${style}
        min_style cg
        minimize ${etol} ${ftol} ${maxiter} ${maxeval}
        minimize 1e-12 ${ftol} ${maxiter} ${maxeval}
        minimize 1e-12 1e-08 ${maxiter} ${maxeval}
        minimize 1e-12 1e-08 10000 ${maxeval}
        minimize 1e-12 1e-08 10000 20000
WARNING: Resetting reneighboring criteria during minimization (../min.cpp:168)
Memory usage per processor = 3.35096 Mbytes
Step PotEng Pxx Pyy Pxy Lx Ly Lz 
       0   -53.975295  0.086545372   0.24952459 2.0432438e-18      3.36461    5.7839625   0.56076816 
       1   -53.975296  0.086542048   0.24951476 -5.2258016e-18      3.36461    5.7839625   0.56076816 
       2   -53.975296  0.086542048   0.24951476 -5.2258016e-18      3.36461    5.7839625   0.56076816 
Loop time of 0.000193029 on 1 procs for 2 steps with 18 atoms

Minimization stats:
  Stopping criterion = linesearch alpha is zero
  Energy initial, next-to-last, final = 
        -53.9752954212     -53.9752958409     -53.9752958409
  Force two-norm initial, final = 0.000899544 0.10395
  Force max component initial, final = 0.000227203 0.0265578
  Final line search alpha, max atom move = 9.53674e-07 2.53275e-08
  Iterations, force evaluations = 2 22

Pair  time (%) = 0.000140896 (72.9922)
Neigh time (%) = 0 (0)
Comm  time (%) = 1.81453e-05 (9.40032)
Outpt time (%) = 8.01508e-06 (4.15227)
Other time (%) = 2.59724e-05 (13.4552)

Nlocal:    18 ave 18 max 18 min
Histogram: 1 0 0 0 0 0 0 0 0 0
Nghost:    65 ave 65 max 65 min
Histogram: 1 0 0 0 0 0 0 0 0 0
Neighs:    162 ave 162 max 162 min
Histogram: 1 0 0 0 0 0 0 0 0 0

Total # of neighbors = 162
Ave neighs/atom = 9
Neighbor list builds = 0
Dangerous builds = 0
        next i
jump SELF loop1
	read_dump orig.dump 0 x y
  orthogonal box = (0 0 -0.280384) to (3.36461 5.82767 0.280384)
  18 atoms before read
  18 atoms in snapshot
  0 atoms purged
  18 atoms replaced
  0 atoms trimmed
  0 atoms added
  18 atoms after read
        variable stretch equal 1+$i*${strainstep}
        variable stretch equal 1+16*${strainstep}
        variable stretch equal 1+16*-0.0005
        change_box all ${direction} scale ${stretch} remap
        change_box all y scale ${stretch} remap
        change_box all y scale 0.992 remap
  orthogonal box = (0 0.0233107 -0.280384) to (3.36461 5.80436 0.280384)
        min_style ${style}
        min_style cg
        minimize ${etol} ${ftol} ${maxiter} ${maxeval}
        minimize 1e-12 ${ftol} ${maxiter} ${maxeval}
        minimize 1e-12 1e-08 ${maxiter} ${maxeval}
        minimize 1e-12 1e-08 10000 ${maxeval}
        minimize 1e-12 1e-08 10000 20000
WARNING: Resetting reneighboring criteria during minimization (../min.cpp:168)
Memory usage per processor = 3.35096 Mbytes
Step PotEng Pxx Pyy Pxy Lx Ly Lz 
       0   -53.972338  0.092388821   0.26652106 5.1364641e-18      3.36461    5.7810486   0.56076816 
       1   -53.972338    0.0923855   0.26651127 -1.1472737e-16      3.36461    5.7810486   0.56076816 
       2   -53.972338    0.0923855   0.26651127 -1.1472737e-16      3.36461    5.7810486   0.56076816 
Loop time of 0.000245082 on 1 procs for 2 steps with 18 atoms

Minimization stats:
  Stopping criterion = linesearch alpha is zero
  Energy initial, next-to-last, final = 
        -53.9723376017       -53.97233802       -53.97233802
  Force two-norm initial, final = 0.000898037 0.103636
  Force max component initial, final = 0.000226743 0.0264633
  Final line search alpha, max atom move = 9.53674e-07 2.52374e-08
  Iterations, force evaluations = 2 22

Pair  time (%) = 0.000137978 (56.2988)
Neigh time (%) = 0 (0)
Comm  time (%) = 1.82228e-05 (7.43542)
Outpt time (%) = 3.79223e-05 (15.4733)
Other time (%) = 5.09586e-05 (20.7925)

Nlocal:    18 ave 18 max 18 min
Histogram: 1 0 0 0 0 0 0 0 0 0
Nghost:    65 ave 65 max 65 min
Histogram: 1 0 0 0 0 0 0 0 0 0
Neighs:    162 ave 162 max 162 min
Histogram: 1 0 0 0 0 0 0 0 0 0

Total # of neighbors = 162
Ave neighs/atom = 9
Neighbor list builds = 0
Dangerous builds = 0
        next i
jump SELF loop1
	read_dump orig.dump 0 x y
  orthogonal box = (0 0 -0.280384) to (3.36461 5.82767 0.280384)
  18 atoms before read
  18 atoms in snapshot
  0 atoms purged
  18 atoms replaced
  0 atoms trimmed
  0 atoms added
  18 atoms after read
        variable stretch equal 1+$i*${strainstep}
        variable stretch equal 1+17*${strainstep}
        variable stretch equal 1+17*-0.0005
        change_box all ${direction} scale ${stretch} remap
        change_box all y scale ${stretch} remap
        change_box all y scale 0.9915 remap
  orthogonal box = (0 0.0247676 -0.280384) to (3.36461 5.8029 0.280384)
        min_style ${style}
        min_style cg
        minimize ${etol} ${ftol} ${maxiter} ${maxeval}
        minimize 1e-12 ${ftol} ${maxiter} ${maxeval}
        minimize 1e-12 1e-08 ${maxiter} ${maxeval}
        minimize 1e-12 1e-08 10000 ${maxeval}
        minimize 1e-12 1e-08 10000 20000
WARNING: Resetting reneighboring criteria during minimization (../min.cpp:168)
Memory usage per processor = 3.35096 Mbytes
Step PotEng Pxx Pyy Pxy Lx Ly Lz 
       0   -53.969381  0.098235239   0.28349164 -1.3376041e-17      3.36461    5.7781348   0.56076816 
       1   -53.969382  0.098231923    0.2834819 -1.843702e-17      3.36461    5.7781348   0.56076816 
       2   -53.969382  0.098231923    0.2834819 -1.843702e-17      3.36461    5.7781348   0.56076816 
Loop time of 0.000193065 on 1 procs for 2 steps with 18 atoms

Minimization stats:
  Stopping criterion = linesearch alpha is zero
  Energy initial, next-to-last, final = 
        -53.9693812726     -53.9693816896     -53.9693816896
  Force two-norm initial, final = 0.000896532 0.103324
  Force max component initial, final = 0.000226283 0.0263691
  Final line search alpha, max atom move = 9.53674e-07 2.51475e-08
  Iterations, force evaluations = 2 22

Pair  time (%) = 0.000137857 (71.4045)
Neigh time (%) = 0 (0)
Comm  time (%) = 1.96449e-05 (10.1752)
Outpt time (%) = 8.05198e-06 (4.1706)
Other time (%) = 2.75113e-05 (14.2497)

Nlocal:    18 ave 18 max 18 min
Histogram: 1 0 0 0 0 0 0 0 0 0
Nghost:    65 ave 65 max 65 min
Histogram: 1 0 0 0 0 0 0 0 0 0
Neighs:    162 ave 162 max 162 min
Histogram: 1 0 0 0 0 0 0 0 0 0

Total # of neighbors = 162
Ave neighs/atom = 9
Neighbor list builds = 0
Dangerous builds = 0
        next i
jump SELF loop1
	read_dump orig.dump 0 x y
  orthogonal box = (0 0 -0.280384) to (3.36461 5.82767 0.280384)
  18 atoms before read
  18 atoms in snapshot
  0 atoms purged
  18 atoms replaced
  0 atoms trimmed
  0 atoms added
  18 atoms after read
        variable stretch equal 1+$i*${strainstep}
        variable stretch equal 1+18*${strainstep}
        variable stretch equal 1+18*-0.0005
        change_box all ${direction} scale ${stretch} remap
        change_box all y scale ${stretch} remap
        change_box all y scale 0.991 remap
  orthogonal box = (0 0.0262245 -0.280384) to (3.36461 5.80145 0.280384)
        min_style ${style}
        min_style cg
        minimize ${etol} ${ftol} ${maxiter} ${maxeval}
        minimize 1e-12 ${ftol} ${maxiter} ${maxeval}
        minimize 1e-12 1e-08 ${maxiter} ${maxeval}
        minimize 1e-12 1e-08 10000 ${maxeval}
        minimize 1e-12 1e-08 10000 20000
WARNING: Resetting reneighboring criteria during minimization (../min.cpp:168)
Memory usage per processor = 3.35096 Mbytes
Step PotEng Pxx Pyy Pxy Lx Ly Lz 
       0   -53.966426   0.10408463   0.30043635 2.3861372e-17      3.36461     5.775221   0.56076816 
       1   -53.966427   0.10408132   0.30042665 -5.0049458e-17      3.36461     5.775221   0.56076816 
       2   -53.966427   0.10408132   0.30042665 -5.0049458e-17      3.36461     5.775221   0.56076816 
Loop time of 0.000191973 on 1 procs for 2 steps with 18 atoms

Minimization stats:
  Stopping criterion = linesearch alpha is zero
  Energy initial, next-to-last, final = 
        -53.9664264341     -53.9664268496     -53.9664268496
  Force two-norm initial, final = 0.000895029 0.103012
  Force max component initial, final = 0.000225824 0.0262751
  Final line search alpha, max atom move = 9.53674e-07 2.50579e-08
  Iterations, force evaluations = 2 22

Pair  time (%) = 0.000136783 (71.2514)
Neigh time (%) = 0 (0)
Comm  time (%) = 1.97813e-05 (10.3042)
Outpt time (%) = 7.9592e-06 (4.14601)
Other time (%) = 2.7449e-05 (14.2984)

Nlocal:    18 ave 18 max 18 min
Histogram: 1 0 0 0 0 0 0 0 0 0
Nghost:    65 ave 65 max 65 min
Histogram: 1 0 0 0 0 0 0 0 0 0
Neighs:    162 ave 162 max 162 min
Histogram: 1 0 0 0 0 0 0 0 0 0

Total # of neighbors = 162
Ave neighs/atom = 9
Neighbor list builds = 0
Dangerous builds = 0
        next i
jump SELF loop1
	read_dump orig.dump 0 x y
  orthogonal box = (0 0 -0.280384) to (3.36461 5.82767 0.280384)
  18 atoms before read
  18 atoms in snapshot
  0 atoms purged
  18 atoms replaced
  0 atoms trimmed
  0 atoms added
  18 atoms after read
        variable stretch equal 1+$i*${strainstep}
        variable stretch equal 1+19*${strainstep}
        variable stretch equal 1+19*-0.0005
        change_box all ${direction} scale ${stretch} remap
        change_box all y scale ${stretch} remap
        change_box all y scale 0.9905 remap
  orthogonal box = (0 0.0276814 -0.280384) to (3.36461 5.79999 0.280384)
        min_style ${style}
        min_style cg
        minimize ${etol} ${ftol} ${maxiter} ${maxeval}
        minimize 1e-12 ${ftol} ${maxiter} ${maxeval}
        minimize 1e-12 1e-08 ${maxiter} ${maxeval}
        minimize 1e-12 1e-08 10000 ${maxeval}
        minimize 1e-12 1e-08 10000 20000
WARNING: Resetting reneighboring criteria during minimization (../min.cpp:168)
Memory usage per processor = 3.35096 Mbytes
Step PotEng Pxx Pyy Pxy Lx Ly Lz 
       0   -53.963473     0.109937    0.3173552 -3.5923171e-17      3.36461    5.7723071   0.56076816 
       1   -53.963473     0.109937    0.3173552 -3.5923171e-17      3.36461    5.7723071   0.56076816 
Loop time of 6.98868e-05 on 1 procs for 1 steps with 18 atoms

Minimization stats:
  Stopping criterion = linesearch alpha is zero
  Energy initial, next-to-last, final = 
         -53.963473086      -53.963473086      -53.963473086
  Force two-norm initial, final = 0.000893528 0.000893528
  Force max component initial, final = 0.000225365 0.000225365
  Final line search alpha, max atom move = 0.015625 3.52133e-06
  Iterations, force evaluations = 1 7

Pair  time (%) = 4.81061e-05 (68.8343)
Neigh time (%) = 0 (0)
Comm  time (%) = 8.25059e-06 (11.8056)
Outpt time (%) = 0 (0)
Other time (%) = 1.35301e-05 (19.3601)

Nlocal:    18 ave 18 max 18 min
Histogram: 1 0 0 0 0 0 0 0 0 0
Nghost:    65 ave 65 max 65 min
Histogram: 1 0 0 0 0 0 0 0 0 0
Neighs:    162 ave 162 max 162 min
Histogram: 1 0 0 0 0 0 0 0 0 0

Total # of neighbors = 162
Ave neighs/atom = 9
Neighbor list builds = 0
Dangerous builds = 0
        next i
jump SELF loop1
	read_dump orig.dump 0 x y
  orthogonal box = (0 0 -0.280384) to (3.36461 5.82767 0.280384)
  18 atoms before read
  18 atoms in snapshot
  0 atoms purged
  18 atoms replaced
  0 atoms trimmed
  0 atoms added
  18 atoms after read
        variable stretch equal 1+$i*${strainstep}
        variable stretch equal 1+20*${strainstep}
        variable stretch equal 1+20*-0.0005
        change_box all ${direction} scale ${stretch} remap
        change_box all y scale ${stretch} remap
        change_box all y scale 0.99 remap
  orthogonal box = (0 0.0291384 -0.280384) to (3.36461 5.79853 0.280384)
        min_style ${style}
        min_style cg
        minimize ${etol} ${ftol} ${maxiter} ${maxeval}
        minimize 1e-12 ${ftol} ${maxiter} ${maxeval}
        minimize 1e-12 1e-08 ${maxiter} ${maxeval}
        minimize 1e-12 1e-08 10000 ${maxeval}
        minimize 1e-12 1e-08 10000 20000
WARNING: Resetting reneighboring criteria during minimization (../min.cpp:168)
Memory usage per processor = 3.35096 Mbytes
Step PotEng Pxx Pyy Pxy Lx Ly Lz 
       0   -53.959539   0.11597551   0.33478674 1.4248064e-17      3.36461    5.7693933   0.56076816 
       1   -53.959539   0.11597551   0.33478674 1.4248064e-17      3.36461    5.7693933   0.56076816 
Loop time of 7.70236e-05 on 1 procs for 1 steps with 18 atoms

Minimization stats:
  Stopping criterion = linesearch alpha is zero
  Energy initial, next-to-last, final = 
        -53.9595385134     -53.9595385134     -53.9595385134
  Force two-norm initial, final = 0.000917314 0.000917314
  Force max component initial, final = 0.000232422 0.000232422
  Final line search alpha, max atom move = 0.0078125 1.8158e-06
  Iterations, force evaluations = 1 8

Pair  time (%) = 5.40045e-05 (70.1142)
Neigh time (%) = 0 (0)
Comm  time (%) = 7.84849e-06 (10.1897)
Outpt time (%) = 0 (0)
Other time (%) = 1.51707e-05 (19.6961)

Nlocal:    18 ave 18 max 18 min
Histogram: 1 0 0 0 0 0 0 0 0 0
Nghost:    65 ave 65 max 65 min
Histogram: 1 0 0 0 0 0 0 0 0 0
Neighs:    162 ave 162 max 162 min
Histogram: 1 0 0 0 0 0 0 0 0 0

Total # of neighbors = 162
Ave neighs/atom = 9
Neighbor list builds = 0
Dangerous builds = 0
        next i
jump SELF loop1
	read_dump orig.dump 0 x y
  orthogonal box = (0 0 -0.280384) to (3.36461 5.82767 0.280384)
  18 atoms before read
  18 atoms in snapshot
  0 atoms purged
  18 atoms replaced
  0 atoms trimmed
  0 atoms added
  18 atoms after read
        variable stretch equal 1+$i*${strainstep}
        variable stretch equal 1+21*${strainstep}
        variable stretch equal 1+21*-0.0005
        change_box all ${direction} scale ${stretch} remap
        change_box all y scale ${stretch} remap
        change_box all y scale 0.9895 remap
  orthogonal box = (0 0.0305953 -0.280384) to (3.36461 5.79707 0.280384)
        min_style ${style}
        min_style cg
        minimize ${etol} ${ftol} ${maxiter} ${maxeval}
        minimize 1e-12 ${ftol} ${maxiter} ${maxeval}
        minimize 1e-12 1e-08 ${maxiter} ${maxeval}
        minimize 1e-12 1e-08 10000 ${maxeval}
        minimize 1e-12 1e-08 10000 20000
WARNING: Resetting reneighboring criteria during minimization (../min.cpp:168)
Memory usage per processor = 3.35096 Mbytes
Step PotEng Pxx Pyy Pxy Lx Ly Lz 
       0   -53.955559   0.12202591    0.3522175 -1.924265e-17      3.36461    5.7664795   0.56076816 
       1   -53.955559   0.12202245   0.35220697 8.9937804e-17      3.36461    5.7664795   0.56076816 
       2   -53.955559   0.12202245   0.35220697 8.9937804e-17      3.36461    5.7664795   0.56076816 
Loop time of 0.000191101 on 1 procs for 2 steps with 18 atoms

Minimization stats:
  Stopping criterion = linesearch alpha is zero
  Energy initial, next-to-last, final = 
        -53.9555587148     -53.9555593015     -53.9555593015
  Force two-norm initial, final = 0.000915762 0.108062
  Force max component initial, final = 0.000231949 0.0277688
  Final line search alpha, max atom move = 9.53674e-07 2.64824e-08
  Iterations, force evaluations = 2 22

Pair  time (%) = 0.000136083 (71.2102)
Neigh time (%) = 0 (0)
Comm  time (%) = 2.03406e-05 (10.6439)
Outpt time (%) = 7.08702e-06 (3.70853)
Other time (%) = 2.759e-05 (14.4374)

Nlocal:    18 ave 18 max 18 min
Histogram: 1 0 0 0 0 0 0 0 0 0
Nghost:    65 ave 65 max 65 min
Histogram: 1 0 0 0 0 0 0 0 0 0
Neighs:    162 ave 162 max 162 min
Histogram: 1 0 0 0 0 0 0 0 0 0

Total # of neighbors = 162
Ave neighs/atom = 9
Neighbor list builds = 0
Dangerous builds = 0
        next i
jump SELF loop1
	read_dump orig.dump 0 x y
  orthogonal box = (0 0 -0.280384) to (3.36461 5.82767 0.280384)
  18 atoms before read
  18 atoms in snapshot
  0 atoms purged
  18 atoms replaced
  0 atoms trimmed
  0 atoms added
  18 atoms after read
        variable stretch equal 1+$i*${strainstep}
        variable stretch equal 1+22*${strainstep}
        variable stretch equal 1+22*-0.0005
        change_box all ${direction} scale ${stretch} remap
        change_box all y scale ${stretch} remap
        change_box all y scale 0.989 remap
  orthogonal box = (0 0.0320522 -0.280384) to (3.36461 5.79562 0.280384)
        min_style ${style}
        min_style cg
        minimize ${etol} ${ftol} ${maxiter} ${maxeval}
        minimize 1e-12 ${ftol} ${maxiter} ${maxeval}
        minimize 1e-12 1e-08 ${maxiter} ${maxeval}
        minimize 1e-12 1e-08 10000 ${maxeval}
        minimize 1e-12 1e-08 10000 20000
WARNING: Resetting reneighboring criteria during minimization (../min.cpp:168)
Memory usage per processor = 3.35096 Mbytes
Step PotEng Pxx Pyy Pxy Lx Ly Lz 
       0   -53.951581   0.12807939   0.36962158 -3.17565e-18      3.36461    5.7635656   0.56076816 
       1   -53.951582   0.12807593    0.3696111 8.3391563e-17      3.36461    5.7635656   0.56076816 
       2   -53.951582   0.12807593    0.3696111 8.3391563e-17      3.36461    5.7635656   0.56076816 
Loop time of 0.000760081 on 1 procs for 2 steps with 18 atoms

Minimization stats:
  Stopping criterion = linesearch alpha is zero
  Energy initial, next-to-last, final = 
        -53.9515809268     -53.9515815115     -53.9515815115
  Force two-norm initial, final = 0.000914213 0.107731
  Force max component initial, final = 0.000231477 0.0276695
  Final line search alpha, max atom move = 9.53674e-07 2.63877e-08
  Iterations, force evaluations = 2 22

Pair  time (%) = 0.000137137 (18.0424)
Neigh time (%) = 0 (0)
Comm  time (%) = 2.20193e-05 (2.89696)
Outpt time (%) = 7.06781e-06 (0.929875)
Other time (%) = 0.000593857 (78.1307)

Nlocal:    18 ave 18 max 18 min
Histogram: 1 0 0 0 0 0 0 0 0 0
Nghost:    65 ave 65 max 65 min
Histogram: 1 0 0 0 0 0 0 0 0 0
Neighs:    162 ave 162 max 162 min
Histogram: 1 0 0 0 0 0 0 0 0 0

Total # of neighbors = 162
Ave neighs/atom = 9
Neighbor list builds = 0
Dangerous builds = 0
        next i
jump SELF loop1
	read_dump orig.dump 0 x y
  orthogonal box = (0 0 -0.280384) to (3.36461 5.82767 0.280384)
  18 atoms before read
  18 atoms in snapshot
  0 atoms purged
  18 atoms replaced
  0 atoms trimmed
  0 atoms added
  18 atoms after read
        variable stretch equal 1+$i*${strainstep}
        variable stretch equal 1+23*${strainstep}
        variable stretch equal 1+23*-0.0005
        change_box all ${direction} scale ${stretch} remap
        change_box all y scale ${stretch} remap
        change_box all y scale 0.9885 remap
  orthogonal box = (0 0.0335091 -0.280384) to (3.36461 5.79416 0.280384)
        min_style ${style}
        min_style cg
        minimize ${etol} ${ftol} ${maxiter} ${maxeval}
        minimize 1e-12 ${ftol} ${maxiter} ${maxeval}
        minimize 1e-12 1e-08 ${maxiter} ${maxeval}
        minimize 1e-12 1e-08 10000 ${maxeval}
        minimize 1e-12 1e-08 10000 20000
WARNING: Resetting reneighboring criteria during minimization (../min.cpp:168)
Memory usage per processor = 3.35096 Mbytes
Step PotEng Pxx Pyy Pxy Lx Ly Lz 
       0   -53.947605   0.13413597     0.386999 -3.2024282e-18      3.36461    5.7606518   0.56076816 
       1   -53.947606   0.13413252   0.38698857 5.9886807e-17      3.36461    5.7606518   0.56076816 
       2   -53.947606   0.13413252   0.38698857 5.9886807e-17      3.36461    5.7606518   0.56076816 
Loop time of 0.00018496 on 1 procs for 2 steps with 18 atoms

Minimization stats:
  Stopping criterion = linesearch alpha is zero
  Energy initial, next-to-last, final = 
        -53.9476051493      -53.947605732      -53.947605732
  Force two-norm initial, final = 0.000912665 0.107401
  Force max component initial, final = 0.000231006 0.0275705
  Final line search alpha, max atom move = 9.53674e-07 2.62932e-08
  Iterations, force evaluations = 2 22

Pair  time (%) = 0.000125192 (67.6863)
Neigh time (%) = 0 (0)
Comm  time (%) = 1.77119e-05 (9.57608)
Outpt time (%) = 1.49925e-05 (8.10584)
Other time (%) = 2.7063e-05 (14.6318)

Nlocal:    18 ave 18 max 18 min
Histogram: 1 0 0 0 0 0 0 0 0 0
Nghost:    65 ave 65 max 65 min
Histogram: 1 0 0 0 0 0 0 0 0 0
Neighs:    162 ave 162 max 162 min
Histogram: 1 0 0 0 0 0 0 0 0 0

Total # of neighbors = 162
Ave neighs/atom = 9
Neighbor list builds = 0
Dangerous builds = 0
        next i
jump SELF loop1
	read_dump orig.dump 0 x y
  orthogonal box = (0 0 -0.280384) to (3.36461 5.82767 0.280384)
  18 atoms before read
  18 atoms in snapshot
  0 atoms purged
  18 atoms replaced
  0 atoms trimmed
  0 atoms added
  18 atoms after read
        variable stretch equal 1+$i*${strainstep}
        variable stretch equal 1+24*${strainstep}
        variable stretch equal 1+24*-0.0005
        change_box all ${direction} scale ${stretch} remap
        change_box all y scale ${stretch} remap
        change_box all y scale 0.988 remap
  orthogonal box = (0 0.034966 -0.280384) to (3.36461 5.7927 0.280384)
        min_style ${style}
        min_style cg
        minimize ${etol} ${ftol} ${maxiter} ${maxeval}
        minimize 1e-12 ${ftol} ${maxiter} ${maxeval}
        minimize 1e-12 1e-08 ${maxiter} ${maxeval}
        minimize 1e-12 1e-08 10000 ${maxeval}
        minimize 1e-12 1e-08 10000 20000
WARNING: Resetting reneighboring criteria during minimization (../min.cpp:168)
Memory usage per processor = 3.35096 Mbytes
Step PotEng Pxx Pyy Pxy Lx Ly Lz 
       0   -53.943631   0.14019564   0.40434978 1.0932942e-17      3.36461     5.757738   0.56076816 
       1   -53.943632    0.1401922   0.40433939 1.0697326e-16      3.36461     5.757738   0.56076816 
       2   -53.943632    0.1401922   0.40433939 1.0697326e-16      3.36461     5.757738   0.56076816 
Loop time of 0.000172968 on 1 procs for 2 steps with 18 atoms

Minimization stats:
  Stopping criterion = linesearch alpha is zero
  Energy initial, next-to-last, final = 
        -53.9436313823      -53.943631963      -53.943631963
  Force two-norm initial, final = 0.000911119 0.107073
  Force max component initial, final = 0.000230535 0.0274717
  Final line search alpha, max atom move = 9.53674e-07 2.6199e-08
  Iterations, force evaluations = 2 22

Pair  time (%) = 0.000121111 (70.0192)
Neigh time (%) = 0 (0)
Comm  time (%) = 2.00324e-05 (11.5816)
Outpt time (%) = 6.90774e-06 (3.99366)
Other time (%) = 2.4917e-05 (14.4056)

Nlocal:    18 ave 18 max 18 min
Histogram: 1 0 0 0 0 0 0 0 0 0
Nghost:    65 ave 65 max 65 min
Histogram: 1 0 0 0 0 0 0 0 0 0
Neighs:    162 ave 162 max 162 min
Histogram: 1 0 0 0 0 0 0 0 0 0

Total # of neighbors = 162
Ave neighs/atom = 9
Neighbor list builds = 0
Dangerous builds = 0
        next i
jump SELF loop1
	read_dump orig.dump 0 x y
  orthogonal box = (0 0 -0.280384) to (3.36461 5.82767 0.280384)
  18 atoms before read
  18 atoms in snapshot
  0 atoms purged
  18 atoms replaced
  0 atoms trimmed
  0 atoms added
  18 atoms after read
        variable stretch equal 1+$i*${strainstep}
        variable stretch equal 1+25*${strainstep}
        variable stretch equal 1+25*-0.0005
        change_box all ${direction} scale ${stretch} remap
        change_box all y scale ${stretch} remap
        change_box all y scale 0.9875 remap
  orthogonal box = (0 0.0364229 -0.280384) to (3.36461 5.79125 0.280384)
        min_style ${style}
        min_style cg
        minimize ${etol} ${ftol} ${maxiter} ${maxeval}
        minimize 1e-12 ${ftol} ${maxiter} ${maxeval}
        minimize 1e-12 1e-08 ${maxiter} ${maxeval}
        minimize 1e-12 1e-08 10000 ${maxeval}
        minimize 1e-12 1e-08 10000 20000
WARNING: Resetting reneighboring criteria during minimization (../min.cpp:168)
Memory usage per processor = 3.35096 Mbytes
Step PotEng Pxx Pyy Pxy Lx Ly Lz 
       0    -53.93966   0.14625842   0.42167392 3.2037114e-17      3.36461    5.7548241   0.56076816 
       1    -53.93966   0.14625842   0.42167392 3.2037114e-17      3.36461    5.7548241   0.56076816 
Loop time of 6.89632e-05 on 1 procs for 1 steps with 18 atoms

Minimization stats:
  Stopping criterion = linesearch alpha is zero
  Energy initial, next-to-last, final = 
        -53.9396596258     -53.9396596258     -53.9396596258
  Force two-norm initial, final = 0.000909576 0.000909576
  Force max component initial, final = 0.000230064 0.000230064
  Final line search alpha, max atom move = 0.0078125 1.79738e-06
  Iterations, force evaluations = 1 8

Pair  time (%) = 4.88779e-05 (70.8754)
Neigh time (%) = 0 (0)
Comm  time (%) = 9.07888e-06 (13.1648)
Outpt time (%) = 0 (0)
Other time (%) = 1.10064e-05 (15.9598)

Nlocal:    18 ave 18 max 18 min
Histogram: 1 0 0 0 0 0 0 0 0 0
Nghost:    65 ave 65 max 65 min
Histogram: 1 0 0 0 0 0 0 0 0 0
Neighs:    162 ave 162 max 162 min
Histogram: 1 0 0 0 0 0 0 0 0 0

Total # of neighbors = 162
Ave neighs/atom = 9
Neighbor list builds = 0
Dangerous builds = 0
        next i
jump SELF loop1
	read_dump orig.dump 0 x y
  orthogonal box = (0 0 -0.280384) to (3.36461 5.82767 0.280384)
  18 atoms before read
  18 atoms in snapshot
  0 atoms purged
  18 atoms replaced
  0 atoms trimmed
  0 atoms added
  18 atoms after read
        variable stretch equal 1+$i*${strainstep}
        variable stretch equal 1+26*${strainstep}
        variable stretch equal 1+26*-0.0005
        change_box all ${direction} scale ${stretch} remap
        change_box all y scale ${stretch} remap
        change_box all y scale 0.987 remap
  orthogonal box = (0 0.0378799 -0.280384) to (3.36461 5.78979 0.280384)
        min_style ${style}
        min_style cg
        minimize ${etol} ${ftol} ${maxiter} ${maxeval}
        minimize 1e-12 ${ftol} ${maxiter} ${maxeval}
        minimize 1e-12 1e-08 ${maxiter} ${maxeval}
        minimize 1e-12 1e-08 10000 ${maxeval}
        minimize 1e-12 1e-08 10000 20000
WARNING: Resetting reneighboring criteria during minimization (../min.cpp:168)
Memory usage per processor = 3.35096 Mbytes
Step PotEng Pxx Pyy Pxy Lx Ly Lz 
       0   -53.934688   0.15251096   0.43951692 -8.3445697e-18      3.36461    5.7519103   0.56076816 
       1   -53.934689   0.15251007   0.43951414 -1.1701165e-16      3.36461    5.7519103   0.56076816 
       2   -53.934689   0.15251007   0.43951414 -1.1701165e-16      3.36461    5.7519103   0.56076816 
Loop time of 0.000164962 on 1 procs for 2 steps with 18 atoms

Minimization stats:
  Stopping criterion = linesearch alpha is zero
  Energy initial, next-to-last, final = 
        -53.9346883384     -53.9346885284     -53.9346885284
  Force two-norm initial, final = 0.000933899 0.0558786
  Force max component initial, final = 0.000237262 0.014446
  Final line search alpha, max atom move = 3.8147e-06 5.51073e-08
  Iterations, force evaluations = 2 21

Pair  time (%) = 0.000118024 (71.5458)
Neigh time (%) = 0 (0)
Comm  time (%) = 8.90472e-06 (5.39804)
Outpt time (%) = 6.98818e-06 (4.23623)
Other time (%) = 3.10458e-05 (18.8199)

Nlocal:    18 ave 18 max 18 min
Histogram: 1 0 0 0 0 0 0 0 0 0
Nghost:    65 ave 65 max 65 min
Histogram: 1 0 0 0 0 0 0 0 0 0
Neighs:    162 ave 162 max 162 min
Histogram: 1 0 0 0 0 0 0 0 0 0

Total # of neighbors = 162
Ave neighs/atom = 9
Neighbor list builds = 0
Dangerous builds = 0
        next i
jump SELF loop1
	read_dump orig.dump 0 x y
  orthogonal box = (0 0 -0.280384) to (3.36461 5.82767 0.280384)
  18 atoms before read
  18 atoms in snapshot
  0 atoms purged
  18 atoms replaced
  0 atoms trimmed
  0 atoms added
  18 atoms after read
        variable stretch equal 1+$i*${strainstep}
        variable stretch equal 1+27*${strainstep}
        variable stretch equal 1+27*-0.0005
        change_box all ${direction} scale ${stretch} remap
        change_box all y scale ${stretch} remap
        change_box all y scale 0.9865 remap
  orthogonal box = (0 0.0393368 -0.280384) to (3.36461 5.78833 0.280384)
        min_style ${style}
        min_style cg
        minimize ${etol} ${ftol} ${maxiter} ${maxeval}
        minimize 1e-12 ${ftol} ${maxiter} ${maxeval}
        minimize 1e-12 1e-08 ${maxiter} ${maxeval}
        minimize 1e-12 1e-08 10000 ${maxeval}
        minimize 1e-12 1e-08 10000 20000
WARNING: Resetting reneighboring criteria during minimization (../min.cpp:168)
Memory usage per processor = 3.35096 Mbytes
Step PotEng Pxx Pyy Pxy Lx Ly Lz 
       0    -53.92966   0.15877772   0.45736467 2.5144486e-17      3.36461    5.7489965   0.56076816 
       1   -53.929661   0.15877412   0.45735339 -1.3923073e-17      3.36461    5.7489965   0.56076816 
       2   -53.929661   0.15877412   0.45735339 -1.3923073e-17      3.36461    5.7489965   0.56076816 
Loop time of 0.000173044 on 1 procs for 2 steps with 18 atoms

Minimization stats:
  Stopping criterion = linesearch alpha is zero
  Energy initial, next-to-last, final = 
        -53.9296604601     -53.9296612306     -53.9296612306
  Force two-norm initial, final = 0.000932304 0.112358
  Force max component initial, final = 0.000236777 0.0290308
  Final line search alpha, max atom move = 9.53674e-07 2.76859e-08
  Iterations, force evaluations = 2 22

Pair  time (%) = 0.000123189 (71.1896)
Neigh time (%) = 0 (0)
Comm  time (%) = 1.70897e-05 (9.87592)
Outpt time (%) = 6.98376e-06 (4.03584)
Other time (%) = 2.57811e-05 (14.8986)

Nlocal:    18 ave 18 max 18 min
Histogram: 1 0 0 0 0 0 0 0 0 0
Nghost:    65 ave 65 max 65 min
Histogram: 1 0 0 0 0 0 0 0 0 0
Neighs:    162 ave 162 max 162 min
Histogram: 1 0 0 0 0 0 0 0 0 0

Total # of neighbors = 162
Ave neighs/atom = 9
Neighbor list builds = 0
Dangerous builds = 0
        next i
jump SELF loop1
	read_dump orig.dump 0 x y
  orthogonal box = (0 0 -0.280384) to (3.36461 5.82767 0.280384)
  18 atoms before read
  18 atoms in snapshot
  0 atoms purged
  18 atoms replaced
  0 atoms trimmed
  0 atoms added
  18 atoms after read
        variable stretch equal 1+$i*${strainstep}
        variable stretch equal 1+28*${strainstep}
        variable stretch equal 1+28*-0.0005
        change_box all ${direction} scale ${stretch} remap
        change_box all y scale ${stretch} remap
        change_box all y scale 0.986 remap
  orthogonal box = (0 0.0407937 -0.280384) to (3.36461 5.78688 0.280384)
        min_style ${style}
        min_style cg
        minimize ${etol} ${ftol} ${maxiter} ${maxeval}
        minimize 1e-12 ${ftol} ${maxiter} ${maxeval}
        minimize 1e-12 1e-08 ${maxiter} ${maxeval}
        minimize 1e-12 1e-08 10000 ${maxeval}
        minimize 1e-12 1e-08 10000 20000
WARNING: Resetting reneighboring criteria during minimization (../min.cpp:168)
Memory usage per processor = 3.35096 Mbytes
Step PotEng Pxx Pyy Pxy Lx Ly Lz 
       0   -53.924635    0.1650477   0.47518494 -1.3481498e-17      3.36461    5.7460826   0.56076816 
       1   -53.924636    0.1650441   0.47517372 -1.9227117e-16      3.36461    5.7460826   0.56076816 
       2   -53.924636    0.1650441   0.47517372 -1.9227117e-16      3.36461    5.7460826   0.56076816 
Loop time of 0.000172092 on 1 procs for 2 steps with 18 atoms

Minimization stats:
  Stopping criterion = linesearch alpha is zero
  Energy initial, next-to-last, final = 
        -53.9246351296     -53.9246358975     -53.9246358975
  Force two-norm initial, final = 0.000930711 0.11201
  Force max component initial, final = 0.000236293 0.0289264
  Final line search alpha, max atom move = 9.53674e-07 2.75864e-08
  Iterations, force evaluations = 2 22

Pair  time (%) = 0.000121944 (70.8594)
Neigh time (%) = 0 (0)
Comm  time (%) = 1.82673e-05 (10.6148)
Outpt time (%) = 6.03229e-06 (3.50527)
Other time (%) = 2.58491e-05 (15.0205)

Nlocal:    18 ave 18 max 18 min
Histogram: 1 0 0 0 0 0 0 0 0 0
Nghost:    65 ave 65 max 65 min
Histogram: 1 0 0 0 0 0 0 0 0 0
Neighs:    162 ave 162 max 162 min
Histogram: 1 0 0 0 0 0 0 0 0 0

Total # of neighbors = 162
Ave neighs/atom = 9
Neighbor list builds = 0
Dangerous builds = 0
        next i
jump SELF loop1
	read_dump orig.dump 0 x y
  orthogonal box = (0 0 -0.280384) to (3.36461 5.82767 0.280384)
  18 atoms before read
  18 atoms in snapshot
  0 atoms purged
  18 atoms replaced
  0 atoms trimmed
  0 atoms added
  18 atoms after read
        variable stretch equal 1+$i*${strainstep}
        variable stretch equal 1+29*${strainstep}
        variable stretch equal 1+29*-0.0005
        change_box all ${direction} scale ${stretch} remap
        change_box all y scale ${stretch} remap
        change_box all y scale 0.9855 remap
  orthogonal box = (0 0.0422506 -0.280384) to (3.36461 5.78542 0.280384)
        min_style ${style}
        min_style cg
        minimize ${etol} ${ftol} ${maxiter} ${maxeval}
        minimize 1e-12 ${ftol} ${maxiter} ${maxeval}
        minimize 1e-12 1e-08 ${maxiter} ${maxeval}
        minimize 1e-12 1e-08 10000 ${maxeval}
        minimize 1e-12 1e-08 10000 20000
WARNING: Resetting reneighboring criteria during minimization (../min.cpp:168)
Memory usage per processor = 3.35096 Mbytes
Step PotEng Pxx Pyy Pxy Lx Ly Lz 
       0   -53.919612   0.17132091   0.49297776 4.5152827e-17      3.36461    5.7431688   0.56076816 
       1   -53.919613   0.17131731   0.49296659 -3.96262e-17      3.36461    5.7431688   0.56076816 
       2   -53.919613   0.17131731   0.49296659 -3.96262e-17      3.36461    5.7431688   0.56076816 
Loop time of 0.000176045 on 1 procs for 2 steps with 18 atoms

Minimization stats:
  Stopping criterion = linesearch alpha is zero
  Energy initial, next-to-last, final = 
        -53.9196123468      -53.919613112      -53.919613112
  Force two-norm initial, final = 0.000929119 0.111662
  Force max component initial, final = 0.000235809 0.0288223
  Final line search alpha, max atom move = 9.53674e-07 2.74871e-08
  Iterations, force evaluations = 2 22

Pair  time (%) = 0.000123935 (70.3997)
Neigh time (%) = 0 (0)
Comm  time (%) = 1.76285e-05 (10.0136)
Outpt time (%) = 8.03149e-06 (4.56218)
Other time (%) = 2.64498e-05 (15.0244)

Nlocal:    18 ave 18 max 18 min
Histogram: 1 0 0 0 0 0 0 0 0 0
Nghost:    65 ave 65 max 65 min
Histogram: 1 0 0 0 0 0 0 0 0 0
Neighs:    162 ave 162 max 162 min
Histogram: 1 0 0 0 0 0 0 0 0 0

Total # of neighbors = 162
Ave neighs/atom = 9
Neighbor list builds = 0
Dangerous builds = 0
        next i
jump SELF loop1
	read_dump orig.dump 0 x y
  orthogonal box = (0 0 -0.280384) to (3.36461 5.82767 0.280384)
  18 atoms before read
  18 atoms in snapshot
  0 atoms purged
  18 atoms replaced
  0 atoms trimmed
  0 atoms added
  18 atoms after read
        variable stretch equal 1+$i*${strainstep}
        variable stretch equal 1+30*${strainstep}
        variable stretch equal 1+30*-0.0005
        change_box all ${direction} scale ${stretch} remap
        change_box all y scale ${stretch} remap
        change_box all y scale 0.985 remap
  orthogonal box = (0 0.0437075 -0.280384) to (3.36461 5.78396 0.280384)
        min_style ${style}
        min_style cg
        minimize ${etol} ${ftol} ${maxiter} ${maxeval}
        minimize 1e-12 ${ftol} ${maxiter} ${maxeval}
        minimize 1e-12 1e-08 ${maxiter} ${maxeval}
        minimize 1e-12 1e-08 10000 ${maxeval}
        minimize 1e-12 1e-08 10000 20000
WARNING: Resetting reneighboring criteria during minimization (../min.cpp:168)
Memory usage per processor = 3.35096 Mbytes
Step PotEng Pxx Pyy Pxy Lx Ly Lz 
       0   -53.914592   0.17759734   0.51074314 -5.8971261e-18      3.36461    5.7402549   0.56076816 
       1   -53.914593   0.17759375   0.51073202 2.3549209e-17      3.36461    5.7402549   0.56076816 
       2   -53.914593   0.17759375   0.51073202 2.3549209e-17      3.36461    5.7402549   0.56076816 
Loop time of 0.000172052 on 1 procs for 2 steps with 18 atoms

Minimization stats:
  Stopping criterion = linesearch alpha is zero
  Energy initial, next-to-last, final = 
        -53.9145921116     -53.9145928742     -53.9145928742
  Force two-norm initial, final = 0.00092753 0.111316
  Force max component initial, final = 0.000235325 0.0287185
  Final line search alpha, max atom move = 9.53674e-07 2.73881e-08
  Iterations, force evaluations = 2 22

Pair  time (%) = 0.00012087 (70.2517)
Neigh time (%) = 0 (0)
Comm  time (%) = 1.77423e-05 (10.3121)
Outpt time (%) = 6.99225e-06 (4.06403)
Other time (%) = 2.6448e-05 (15.3721)

Nlocal:    18 ave 18 max 18 min
Histogram: 1 0 0 0 0 0 0 0 0 0
Nghost:    65 ave 65 max 65 min
Histogram: 1 0 0 0 0 0 0 0 0 0
Neighs:    162 ave 162 max 162 min
Histogram: 1 0 0 0 0 0 0 0 0 0

Total # of neighbors = 162
Ave neighs/atom = 9
Neighbor list builds = 0
Dangerous builds = 0
        next i
jump SELF loop1
	read_dump orig.dump 0 x y
  orthogonal box = (0 0 -0.280384) to (3.36461 5.82767 0.280384)
  18 atoms before read
  18 atoms in snapshot
  0 atoms purged
  18 atoms replaced
  0 atoms trimmed
  0 atoms added
  18 atoms after read
        variable stretch equal 1+$i*${strainstep}
        variable stretch equal 1+31*${strainstep}
        variable stretch equal 1+31*-0.0005
        change_box all ${direction} scale ${stretch} remap
        change_box all y scale ${stretch} remap
        change_box all y scale 0.9845 remap
  orthogonal box = (0 0.0451644 -0.280384) to (3.36461 5.78251 0.280384)
        min_style ${style}
        min_style cg
        minimize ${etol} ${ftol} ${maxiter} ${maxeval}
        minimize 1e-12 ${ftol} ${maxiter} ${maxeval}
        minimize 1e-12 1e-08 ${maxiter} ${maxeval}
        minimize 1e-12 1e-08 10000 ${maxeval}
        minimize 1e-12 1e-08 10000 20000
WARNING: Resetting reneighboring criteria during minimization (../min.cpp:168)
Memory usage per processor = 3.35096 Mbytes
Step PotEng Pxx Pyy Pxy Lx Ly Lz 
       0   -53.909574     0.183877   0.52848109 -1.9601545e-18      3.36461    5.7373411   0.56076816 
       1   -53.909574     0.183877   0.52848109 -1.9601545e-18      3.36461    5.7373411   0.56076816 
Loop time of 7.00804e-05 on 1 procs for 1 steps with 18 atoms

Minimization stats:
  Stopping criterion = linesearch alpha is zero
  Energy initial, next-to-last, final = 
        -53.9095744242     -53.9095744242     -53.9095744242
  Force two-norm initial, final = 0.000925943 0.000925943
  Force max component initial, final = 0.000234843 0.000234843
  Final line search alpha, max atom move = 0.0078125 1.83471e-06
  Iterations, force evaluations = 1 8

Pair  time (%) = 4.7973e-05 (68.4542)
Neigh time (%) = 0 (0)
Comm  time (%) = 7.22276e-06 (10.3064)
Outpt time (%) = 0 (0)
Other time (%) = 1.48846e-05 (21.2394)

Nlocal:    18 ave 18 max 18 min
Histogram: 1 0 0 0 0 0 0 0 0 0
Nghost:    65 ave 65 max 65 min
Histogram: 1 0 0 0 0 0 0 0 0 0
Neighs:    162 ave 162 max 162 min
Histogram: 1 0 0 0 0 0 0 0 0 0

Total # of neighbors = 162
Ave neighs/atom = 9
Neighbor list builds = 0
Dangerous builds = 0
        next i
jump SELF loop1
	read_dump orig.dump 0 x y
  orthogonal box = (0 0 -0.280384) to (3.36461 5.82767 0.280384)
  18 atoms before read
  18 atoms in snapshot
  0 atoms purged
  18 atoms replaced
  0 atoms trimmed
  0 atoms added
  18 atoms after read
        variable stretch equal 1+$i*${strainstep}
        variable stretch equal 1+32*${strainstep}
        variable stretch equal 1+32*-0.0005
        change_box all ${direction} scale ${stretch} remap
        change_box all y scale ${stretch} remap
        change_box all y scale 0.984 remap
  orthogonal box = (0 0.0466214 -0.280384) to (3.36461 5.78105 0.280384)
        min_style ${style}
        min_style cg
        minimize ${etol} ${ftol} ${maxiter} ${maxeval}
        minimize 1e-12 ${ftol} ${maxiter} ${maxeval}
        minimize 1e-12 1e-08 ${maxiter} ${maxeval}
        minimize 1e-12 1e-08 10000 ${maxeval}
        minimize 1e-12 1e-08 10000 20000
WARNING: Resetting reneighboring criteria during minimization (../min.cpp:168)
Memory usage per processor = 3.35096 Mbytes
Step PotEng Pxx Pyy Pxy Lx Ly Lz 
       0   -53.903559   0.19034636   0.54673324 -1.2531133e-18      3.36461    5.7344273   0.56076816 
       1   -53.903559   0.19034544   0.54673025 -9.1634616e-17      3.36461    5.7344273   0.56076816 
       2   -53.903559   0.19034544   0.54673025 -9.1634616e-17      3.36461    5.7344273   0.56076816 
Loop time of 0.000173039 on 1 procs for 2 steps with 18 atoms

Minimization stats:
  Stopping criterion = linesearch alpha is zero
  Energy initial, next-to-last, final = 
        -53.9035587929     -53.9035590329     -53.9035590329
  Force two-norm initial, final = 0.000950815 0.0581233
  Force max component initial, final = 0.000242185 0.0151035
  Final line search alpha, max atom move = 1.90735e-06 2.88077e-08
  Iterations, force evaluations = 2 22

Pair  time (%) = 0.000124217 (71.7857)
Neigh time (%) = 0 (0)
Comm  time (%) = 1.88082e-05 (10.8693)
Outpt time (%) = 6.11111e-06 (3.53164)
Other time (%) = 2.39024e-05 (13.8133)

Nlocal:    18 ave 18 max 18 min
Histogram: 1 0 0 0 0 0 0 0 0 0
Nghost:    65 ave 65 max 65 min
Histogram: 1 0 0 0 0 0 0 0 0 0
Neighs:    162 ave 162 max 162 min
Histogram: 1 0 0 0 0 0 0 0 0 0

Total # of neighbors = 162
Ave neighs/atom = 9
Neighbor list builds = 0
Dangerous builds = 0
        next i
jump SELF loop1
	read_dump orig.dump 0 x y
  orthogonal box = (0 0 -0.280384) to (3.36461 5.82767 0.280384)
  18 atoms before read
  18 atoms in snapshot
  0 atoms purged
  18 atoms replaced
  0 atoms trimmed
  0 atoms added
  18 atoms after read
        variable stretch equal 1+$i*${strainstep}
        variable stretch equal 1+33*${strainstep}
        variable stretch equal 1+33*-0.0005
        change_box all ${direction} scale ${stretch} remap
        change_box all y scale ${stretch} remap
        change_box all y scale 0.9835 remap
  orthogonal box = (0 0.0480783 -0.280384) to (3.36461 5.77959 0.280384)
        min_style ${style}
        min_style cg
        minimize ${etol} ${ftol} ${maxiter} ${maxeval}
        minimize 1e-12 ${ftol} ${maxiter} ${maxeval}
        minimize 1e-12 1e-08 ${maxiter} ${maxeval}
        minimize 1e-12 1e-08 10000 ${maxeval}
        minimize 1e-12 1e-08 10000 20000
WARNING: Resetting reneighboring criteria during minimization (../min.cpp:168)
Memory usage per processor = 3.35096 Mbytes
Step PotEng Pxx Pyy Pxy Lx Ly Lz 
       0   -53.897455   0.19683616   0.56500678 -5.2826183e-17      3.36461    5.7315134   0.56076816 
       1   -53.897455    0.1968324    0.5649947 -1.1192112e-16      3.36461    5.7315134   0.56076816 
       2   -53.897455    0.1968324    0.5649947 -1.1192112e-16      3.36461    5.7315134   0.56076816 
Loop time of 0.000177889 on 1 procs for 2 steps with 18 atoms

Minimization stats:
  Stopping criterion = linesearch alpha is zero
  Energy initial, next-to-last, final = 
        -53.8974545207     -53.8974554934     -53.8974554934
  Force two-norm initial, final = 0.000949175 0.116847
  Force max component initial, final = 0.000241688 0.0303458
  Final line search alpha, max atom move = 4.76837e-07 1.447e-08
  Iterations, force evaluations = 2 23

Pair  time (%) = 0.00012883 (72.4217)
Neigh time (%) = 0 (0)
Comm  time (%) = 1.8888e-05 (10.6179)
Outpt time (%) = 6.0671e-06 (3.41062)
Other time (%) = 2.41034e-05 (13.5497)

Nlocal:    18 ave 18 max 18 min
Histogram: 1 0 0 0 0 0 0 0 0 0
Nghost:    65 ave 65 max 65 min
Histogram: 1 0 0 0 0 0 0 0 0 0
Neighs:    162 ave 162 max 162 min
Histogram: 1 0 0 0 0 0 0 0 0 0

Total # of neighbors = 162
Ave neighs/atom = 9
Neighbor list builds = 0
Dangerous builds = 0
        next i
jump SELF loop1
	read_dump orig.dump 0 x y
  orthogonal box = (0 0 -0.280384) to (3.36461 5.82767 0.280384)
  18 atoms before read
  18 atoms in snapshot
  0 atoms purged
  18 atoms replaced
  0 atoms trimmed
  0 atoms added
  18 atoms after read
        variable stretch equal 1+$i*${strainstep}
        variable stretch equal 1+34*${strainstep}
        variable stretch equal 1+34*-0.0005
        change_box all ${direction} scale ${stretch} remap
        change_box all y scale ${stretch} remap
        change_box all y scale 0.983 remap
  orthogonal box = (0 0.0495352 -0.280384) to (3.36461 5.77813 0.280384)
        min_style ${style}
        min_style cg
        minimize ${etol} ${ftol} ${maxiter} ${maxeval}
        minimize 1e-12 ${ftol} ${maxiter} ${maxeval}
        minimize 1e-12 1e-08 ${maxiter} ${maxeval}
        minimize 1e-12 1e-08 10000 ${maxeval}
        minimize 1e-12 1e-08 10000 20000
WARNING: Resetting reneighboring criteria during minimization (../min.cpp:168)
Memory usage per processor = 3.35096 Mbytes
Step PotEng Pxx Pyy Pxy Lx Ly Lz 
[...]
  orthogonal box = (0 0.104898 -0.280384) to (3.36461 5.72277 0.280384)
        min_style ${style}
        min_style cg
        minimize ${etol} ${ftol} ${maxiter} ${maxeval}
        minimize 1e-12 ${ftol} ${maxiter} ${maxeval}
        minimize 1e-12 1e-08 ${maxiter} ${maxeval}
        minimize 1e-12 1e-08 10000 ${maxeval}
        minimize 1e-12 1e-08 10000 20000
WARNING: Resetting reneighboring criteria during minimization (../min.cpp:168)
Memory usage per processor = 3.35096 Mbytes
Step PotEng Pxx Pyy Pxy Lx Ly Lz 
       0   -53.523742   0.47867912    1.3284491 2.7417727e-17      3.36461    5.6178739   0.56076816 
       1   -53.523745   0.47867426    1.3284312 1.4382261e-16      3.36461    5.6178739   0.56076816 
       2   -53.523745   0.47867426    1.3284312 1.4382261e-16      3.36461    5.6178739   0.56076816 
Loop time of 0.000178891 on 1 procs for 2 steps with 18 atoms

Minimization stats:
  Stopping criterion = linesearch alpha is zero
  Energy initial, next-to-last, final = 
        -53.5237418913     -53.5237445257     -53.5237445257
  Force two-norm initial, final = 0.00105192 0.146785
  Force max component initial, final = 0.000271254 0.0390398
  Final line search alpha, max atom move = 4.76837e-07 1.86156e-08
  Iterations, force evaluations = 2 23

Pair  time (%) = 0.000129878 (72.6019)
Neigh time (%) = 0 (0)
Comm  time (%) = 1.68383e-05 (9.41263)
Outpt time (%) = 6.06908e-06 (3.39262)
Other time (%) = 2.61052e-05 (14.5928)

Nlocal:    18 ave 18 max 18 min
Histogram: 1 0 0 0 0 0 0 0 0 0
Nghost:    65 ave 65 max 65 min
Histogram: 1 0 0 0 0 0 0 0 0 0
Neighs:    162 ave 162 max 162 min
Histogram: 1 0 0 0 0 0 0 0 0 0

Total # of neighbors = 162
Ave neighs/atom = 9
Neighbor list builds = 0
Dangerous builds = 0
        next i
jump SELF loop1
	read_dump orig.dump 0 x y
  orthogonal box = (0 0 -0.280384) to (3.36461 5.82767 0.280384)
  18 atoms before read
  18 atoms in snapshot
  0 atoms purged
  18 atoms replaced
  0 atoms trimmed
  0 atoms added
  18 atoms after read
        variable stretch equal 1+$i*${strainstep}
        variable stretch equal 1+73*${strainstep}
        variable stretch equal 1+73*-0.0005
        change_box all ${direction} scale ${stretch} remap
        change_box all y scale ${stretch} remap
        change_box all y scale 0.9635 remap
  orthogonal box = (0 0.106355 -0.280384) to (3.36461 5.72132 0.280384)
        min_style ${style}
        min_style cg
        minimize ${etol} ${ftol} ${maxiter} ${maxeval}
        minimize 1e-12 ${ftol} ${maxiter} ${maxeval}
        minimize 1e-12 1e-08 ${maxiter} ${maxeval}
        minimize 1e-12 1e-08 10000 ${maxeval}
        minimize 1e-12 1e-08 10000 20000
WARNING: Resetting reneighboring criteria during minimization (../min.cpp:168)
Memory usage per processor = 3.35096 Mbytes
Step PotEng Pxx Pyy Pxy Lx Ly Lz 
       0   -53.510571   0.48667617      1.34934 -8.8884127e-17      3.36461      5.61496   0.56076816 
       1   -53.510574   0.48667132    1.3493222 1.0664029e-16      3.36461      5.61496   0.56076816 
       2   -53.510574   0.48667132    1.3493222 1.0664029e-16      3.36461      5.61496   0.56076816 
Loop time of 0.000179032 on 1 procs for 2 steps with 18 atoms

Minimization stats:
  Stopping criterion = linesearch alpha is zero
  Energy initial, next-to-last, final = 
        -53.5105710453     -53.5105736701     -53.5105736701
  Force two-norm initial, final = 0.00105 0.146291
  Force max component initial, final = 0.000270678 0.0388938
  Final line search alpha, max atom move = 4.76837e-07 1.8546e-08
  Iterations, force evaluations = 2 23

Pair  time (%) = 0.000126884 (70.8725)
Neigh time (%) = 0 (0)
Comm  time (%) = 2.20959e-05 (12.3419)
Outpt time (%) = 5.97187e-06 (3.33565)
Other time (%) = 2.40798e-05 (13.45)

Nlocal:    18 ave 18 max 18 min
Histogram: 1 0 0 0 0 0 0 0 0 0
Nghost:    65 ave 65 max 65 min
Histogram: 1 0 0 0 0 0 0 0 0 0
Neighs:    162 ave 162 max 162 min
Histogram: 1 0 0 0 0 0 0 0 0 0

Total # of neighbors = 162
Ave neighs/atom = 9
Neighbor list builds = 0
Dangerous builds = 0
        next i
jump SELF loop1
	read_dump orig.dump 0 x y
  orthogonal box = (0 0 -0.280384) to (3.36461 5.82767 0.280384)
  18 atoms before read
  18 atoms in snapshot
  0 atoms purged
  18 atoms replaced
  0 atoms trimmed
  0 atoms added
  18 atoms after read
        variable stretch equal 1+$i*${strainstep}
        variable stretch equal 1+74*${strainstep}
        variable stretch equal 1+74*-0.0005
        change_box all ${direction} scale ${stretch} remap
        change_box all y scale ${stretch} remap
        change_box all y scale 0.963 remap
  orthogonal box = (0 0.107812 -0.280384) to (3.36461 5.71986 0.280384)
        min_style ${style}
        min_style cg
        minimize ${etol} ${ftol} ${maxiter} ${maxeval}
        minimize 1e-12 ${ftol} ${maxiter} ${maxeval}
        minimize 1e-12 1e-08 ${maxiter} ${maxeval}
        minimize 1e-12 1e-08 10000 ${maxeval}
        minimize 1e-12 1e-08 10000 20000
WARNING: Resetting reneighboring criteria during minimization (../min.cpp:168)
Memory usage per processor = 3.35096 Mbytes
Step PotEng Pxx Pyy Pxy Lx Ly Lz 
       0   -53.497153   0.49472509    1.3703297 8.2258209e-17      3.36461    5.6120462   0.56076816 
       1   -53.497153   0.49472509    1.3703297 8.2258209e-17      3.36461    5.6120462   0.56076816 
Loop time of 6.99279e-05 on 1 procs for 1 steps with 18 atoms

Minimization stats:
  Stopping criterion = linesearch alpha is zero
  Energy initial, next-to-last, final = 
        -53.4971527331     -53.4971527331     -53.4971527331
  Force two-norm initial, final = 0.00107904 0.00107904
  Force max component initial, final = 0.000279122 0.000279122
  Final line search alpha, max atom move = 0.0078125 2.18064e-06
  Iterations, force evaluations = 1 8

Pair  time (%) = 4.7792e-05 (68.3447)
Neigh time (%) = 0 (0)
Comm  time (%) = 4.86057e-06 (6.95084)
Outpt time (%) = 0 (0)
Other time (%) = 1.72753e-05 (24.7045)

Nlocal:    18 ave 18 max 18 min
Histogram: 1 0 0 0 0 0 0 0 0 0
Nghost:    65 ave 65 max 65 min
Histogram: 1 0 0 0 0 0 0 0 0 0
Neighs:    162 ave 162 max 162 min
Histogram: 1 0 0 0 0 0 0 0 0 0

Total # of neighbors = 162
Ave neighs/atom = 9
Neighbor list builds = 0
Dangerous builds = 0
        next i
jump SELF loop1
	read_dump orig.dump 0 x y
  orthogonal box = (0 0 -0.280384) to (3.36461 5.82767 0.280384)
  18 atoms before read
  18 atoms in snapshot
  0 atoms purged
  18 atoms replaced
  0 atoms trimmed
  0 atoms added
  18 atoms after read
        variable stretch equal 1+$i*${strainstep}
        variable stretch equal 1+75*${strainstep}
        variable stretch equal 1+75*-0.0005
        change_box all ${direction} scale ${stretch} remap
        change_box all y scale ${stretch} remap
        change_box all y scale 0.9625 remap
  orthogonal box = (0 0.109269 -0.280384) to (3.36461 5.7184 0.280384)
        min_style ${style}
        min_style cg
        minimize ${etol} ${ftol} ${maxiter} ${maxeval}
        minimize 1e-12 ${ftol} ${maxiter} ${maxeval}
        minimize 1e-12 1e-08 ${maxiter} ${maxeval}
        minimize 1e-12 1e-08 10000 ${maxeval}
        minimize 1e-12 1e-08 10000 20000
WARNING: Resetting reneighboring criteria during minimization (../min.cpp:168)
Memory usage per processor = 3.35096 Mbytes
Step PotEng Pxx Pyy Pxy Lx Ly Lz 
       0   -53.482659   0.50298097    1.3918488 3.369938e-17      3.36461    5.6091324   0.56076816 
       1    -53.48266   0.50297971     1.391844 -1.8737453e-16      3.36461    5.6091324   0.56076816 
       2    -53.48266   0.50297971     1.391844 -1.8737453e-16      3.36461    5.6091324   0.56076816 
Loop time of 0.000172066 on 1 procs for 2 steps with 18 atoms

Minimization stats:
  Stopping criterion = linesearch alpha is zero
  Energy initial, next-to-last, final = 
        -53.4826589853     -53.4826597354     -53.4826597354
  Force two-norm initial, final = 0.00107706 0.0766216
  Force max component initial, final = 0.000278528 0.0204726
  Final line search alpha, max atom move = 1.90735e-06 3.90483e-08
  Iterations, force evaluations = 2 22

Pair  time (%) = 0.000125961 (73.2054)
Neigh time (%) = 0 (0)
Comm  time (%) = 1.61043e-05 (9.35939)
Outpt time (%) = 6.0919e-06 (3.54044)
Other time (%) = 2.39082e-05 (13.8948)

Nlocal:    18 ave 18 max 18 min
Histogram: 1 0 0 0 0 0 0 0 0 0
Nghost:    65 ave 65 max 65 min
Histogram: 1 0 0 0 0 0 0 0 0 0
Neighs:    162 ave 162 max 162 min
Histogram: 1 0 0 0 0 0 0 0 0 0

Total # of neighbors = 162
Ave neighs/atom = 9
Neighbor list builds = 0
Dangerous builds = 0
        next i
jump SELF loop1
	read_dump orig.dump 0 x y
  orthogonal box = (0 0 -0.280384) to (3.36461 5.82767 0.280384)
  18 atoms before read
  18 atoms in snapshot
  0 atoms purged
  18 atoms replaced
  0 atoms trimmed
  0 atoms added
  18 atoms after read
        variable stretch equal 1+$i*${strainstep}
        variable stretch equal 1+76*${strainstep}
        variable stretch equal 1+76*-0.0005
        change_box all ${direction} scale ${stretch} remap
        change_box all y scale ${stretch} remap
        change_box all y scale 0.962 remap
  orthogonal box = (0 0.110726 -0.280384) to (3.36461 5.71694 0.280384)
        min_style ${style}
        min_style cg
        minimize ${etol} ${ftol} ${maxiter} ${maxeval}
        minimize 1e-12 ${ftol} ${maxiter} ${maxeval}
        minimize 1e-12 1e-08 ${maxiter} ${maxeval}
        minimize 1e-12 1e-08 10000 ${maxeval}
        minimize 1e-12 1e-08 10000 20000
WARNING: Resetting reneighboring criteria during minimization (../min.cpp:168)
Memory usage per processor = 3.35096 Mbytes
Step PotEng Pxx Pyy Pxy Lx Ly Lz 
       0   -53.468173   0.51124127    1.4133332 1.1077259e-16      3.36461    5.6062185   0.56076816 
       1   -53.468176   0.51123617    1.4133139 -1.628941e-17      3.36461    5.6062185   0.56076816 
       2   -53.468176   0.51123617    1.4133139 -1.628941e-17      3.36461    5.6062185   0.56076816 
Loop time of 0.000182001 on 1 procs for 2 steps with 18 atoms

Minimization stats:
  Stopping criterion = linesearch alpha is zero
  Energy initial, next-to-last, final = 
        -53.4681727648     -53.4681757969     -53.4681757969
  Force two-norm initial, final = 0.00107508 0.153825
  Force max component initial, final = 0.000277935 0.0410797
  Final line search alpha, max atom move = 4.76837e-07 1.95883e-08
  Iterations, force evaluations = 2 23

Pair  time (%) = 0.000130665 (71.7936)
Neigh time (%) = 0 (0)
Comm  time (%) = 1.51745e-05 (8.33758)
Outpt time (%) = 6.98771e-06 (3.83938)
Other time (%) = 2.91738e-05 (16.0294)

Nlocal:    18 ave 18 max 18 min
Histogram: 1 0 0 0 0 0 0 0 0 0
Nghost:    65 ave 65 max 65 min
Histogram: 1 0 0 0 0 0 0 0 0 0
Neighs:    162 ave 162 max 162 min
Histogram: 1 0 0 0 0 0 0 0 0 0

Total # of neighbors = 162
Ave neighs/atom = 9
Neighbor list builds = 0
Dangerous builds = 0
        next i
jump SELF loop1
	read_dump orig.dump 0 x y
  orthogonal box = (0 0 -0.280384) to (3.36461 5.82767 0.280384)
  18 atoms before read
  18 atoms in snapshot
  0 atoms purged
  18 atoms replaced
  0 atoms trimmed
  0 atoms added
  18 atoms after read
        variable stretch equal 1+$i*${strainstep}
        variable stretch equal 1+77*${strainstep}
        variable stretch equal 1+77*-0.0005
        change_box all ${direction} scale ${stretch} remap
        change_box all y scale ${stretch} remap
        change_box all y scale 0.9615 remap
  orthogonal box = (0 0.112183 -0.280384) to (3.36461 5.71549 0.280384)
        min_style ${style}
        min_style cg
        minimize ${etol} ${ftol} ${maxiter} ${maxeval}
        minimize 1e-12 ${ftol} ${maxiter} ${maxeval}
        minimize 1e-12 1e-08 ${maxiter} ${maxeval}
        minimize 1e-12 1e-08 10000 ${maxeval}
        minimize 1e-12 1e-08 10000 20000
WARNING: Resetting reneighboring criteria during minimization (../min.cpp:168)
Memory usage per processor = 3.35096 Mbytes
Step PotEng Pxx Pyy Pxy Lx Ly Lz 
       0   -53.453694   0.51950601    1.4347831 1.5297235e-17      3.36461    5.6033047   0.56076816 
       1   -53.453697   0.51950091    1.4347638 1.0317007e-16      3.36461    5.6033047   0.56076816 
       2   -53.453697   0.51950091    1.4347638 1.0317007e-16      3.36461    5.6033047   0.56076816 
Loop time of 0.000187095 on 1 procs for 2 steps with 18 atoms

Minimization stats:
  Stopping criterion = linesearch alpha is zero
  Energy initial, next-to-last, final = 
        -53.4536940715     -53.4536970924     -53.4536970924
  Force two-norm initial, final = 0.00107311 0.153302
  Force max component initial, final = 0.000277343 0.0409256
  Final line search alpha, max atom move = 4.76837e-07 1.95148e-08
  Iterations, force evaluations = 2 23

Pair  time (%) = 0.000134216 (71.737)
Neigh time (%) = 0 (0)
Comm  time (%) = 1.79852e-05 (9.61289)
Outpt time (%) = 9.9357e-06 (5.31051)
Other time (%) = 2.49577e-05 (13.3396)

Nlocal:    18 ave 18 max 18 min
Histogram: 1 0 0 0 0 0 0 0 0 0
Nghost:    65 ave 65 max 65 min
Histogram: 1 0 0 0 0 0 0 0 0 0
Neighs:    162 ave 162 max 162 min
Histogram: 1 0 0 0 0 0 0 0 0 0

Total # of neighbors = 162
Ave neighs/atom = 9
Neighbor list builds = 0
Dangerous builds = 0
        next i
jump SELF loop1
	read_dump orig.dump 0 x y
  orthogonal box = (0 0 -0.280384) to (3.36461 5.82767 0.280384)
  18 atoms before read
  18 atoms in snapshot
  0 atoms purged
  18 atoms replaced
  0 atoms trimmed
  0 atoms added
  18 atoms after read
        variable stretch equal 1+$i*${strainstep}
        variable stretch equal 1+78*${strainstep}
        variable stretch equal 1+78*-0.0005
        change_box all ${direction} scale ${stretch} remap
        change_box all y scale ${stretch} remap
        change_box all y scale 0.961 remap
  orthogonal box = (0 0.11364 -0.280384) to (3.36461 5.71403 0.280384)
        min_style ${style}
        min_style cg
        minimize ${etol} ${ftol} ${maxiter} ${maxeval}
        minimize 1e-12 ${ftol} ${maxiter} ${maxeval}
        minimize 1e-12 1e-08 ${maxiter} ${maxeval}
        minimize 1e-12 1e-08 10000 ${maxeval}
        minimize 1e-12 1e-08 10000 20000
WARNING: Resetting reneighboring criteria during minimization (../min.cpp:168)
Memory usage per processor = 3.35096 Mbytes
Step PotEng Pxx Pyy Pxy Lx Ly Lz 
       0   -53.439223   0.52777518    1.4561983 -4.0449441e-17      3.36461    5.6003909   0.56076816 
       1   -53.439226   0.52777009    1.4561792 1.9766716e-16      3.36461    5.6003909   0.56076816 
       2   -53.439226   0.52777009    1.4561792 1.9766716e-16      3.36461    5.6003909   0.56076816 
Loop time of 0.000180069 on 1 procs for 2 steps with 18 atoms

Minimization stats:
  Stopping criterion = linesearch alpha is zero
  Energy initial, next-to-last, final = 
        -53.4392229055     -53.4392259153     -53.4392259153
  Force two-norm initial, final = 0.00107113 0.152781
  Force max component initial, final = 0.000276751 0.0407719
  Final line search alpha, max atom move = 4.76837e-07 1.94416e-08
  Iterations, force evaluations = 2 23

Pair  time (%) = 0.000129755 (72.0585)
Neigh time (%) = 0 (0)
Comm  time (%) = 1.70688e-05 (9.47905)
Outpt time (%) = 7.00902e-06 (3.89241)
Other time (%) = 2.62362e-05 (14.5701)

Nlocal:    18 ave 18 max 18 min
Histogram: 1 0 0 0 0 0 0 0 0 0
Nghost:    65 ave 65 max 65 min
Histogram: 1 0 0 0 0 0 0 0 0 0
Neighs:    162 ave 162 max 162 min
Histogram: 1 0 0 0 0 0 0 0 0 0

Total # of neighbors = 162
Ave neighs/atom = 9
Neighbor list builds = 0
Dangerous builds = 0
        next i
jump SELF loop1
	read_dump orig.dump 0 x y
  orthogonal box = (0 0 -0.280384) to (3.36461 5.82767 0.280384)
  18 atoms before read
  18 atoms in snapshot
  0 atoms purged
  18 atoms replaced
  0 atoms trimmed
  0 atoms added
  18 atoms after read
        variable stretch equal 1+$i*${strainstep}
        variable stretch equal 1+79*${strainstep}
        variable stretch equal 1+79*-0.0005
        change_box all ${direction} scale ${stretch} remap
        change_box all y scale ${stretch} remap
        change_box all y scale 0.9605 remap
  orthogonal box = (0 0.115096 -0.280384) to (3.36461 5.71257 0.280384)
        min_style ${style}
        min_style cg
        minimize ${etol} ${ftol} ${maxiter} ${maxeval}
        minimize 1e-12 ${ftol} ${maxiter} ${maxeval}
        minimize 1e-12 1e-08 ${maxiter} ${maxeval}
        minimize 1e-12 1e-08 10000 ${maxeval}
        minimize 1e-12 1e-08 10000 20000
WARNING: Resetting reneighboring criteria during minimization (../min.cpp:168)
Memory usage per processor = 3.35096 Mbytes
Step PotEng Pxx Pyy Pxy Lx Ly Lz 
       0   -53.424759    0.5360488     1.477579 2.4639222e-17      3.36461     5.597477   0.56076816 
       1   -53.424762   0.53604372    1.4775599 -2.4201703e-17      3.36461     5.597477   0.56076816 
       2   -53.424762   0.53604372    1.4775599 -2.4201703e-17      3.36461     5.597477   0.56076816 
Loop time of 0.000169051 on 1 procs for 2 steps with 18 atoms

Minimization stats:
  Stopping criterion = linesearch alpha is zero
  Energy initial, next-to-last, final = 
        -53.4247592667     -53.4247622654     -53.4247622654
  Force two-norm initial, final = 0.00106916 0.152261
  Force max component initial, final = 0.00027616 0.0406186
  Final line search alpha, max atom move = 4.76837e-07 1.93685e-08
  Iterations, force evaluations = 2 23

Pair  time (%) = 0.000120017 (70.9945)
Neigh time (%) = 0 (0)
Comm  time (%) = 1.39837e-05 (8.27188)
Outpt time (%) = 5.99097e-06 (3.54388)
Other time (%) = 2.90595e-05 (17.1898)

Nlocal:    18 ave 18 max 18 min
Histogram: 1 0 0 0 0 0 0 0 0 0
Nghost:    65 ave 65 max 65 min
Histogram: 1 0 0 0 0 0 0 0 0 0
Neighs:    162 ave 162 max 162 min
Histogram: 1 0 0 0 0 0 0 0 0 0

Total # of neighbors = 162
Ave neighs/atom = 9
Neighbor list builds = 0
Dangerous builds = 0
        next i
jump SELF loop1
	read_dump orig.dump 0 x y
  orthogonal box = (0 0 -0.280384) to (3.36461 5.82767 0.280384)
  18 atoms before read
  18 atoms in snapshot
  0 atoms purged
  18 atoms replaced
  0 atoms trimmed
  0 atoms added
  18 atoms after read
        variable stretch equal 1+$i*${strainstep}
        variable stretch equal 1+80*${strainstep}
        variable stretch equal 1+80*-0.0005
        change_box all ${direction} scale ${stretch} remap
        change_box all y scale ${stretch} remap
        change_box all y scale 0.96 remap
  orthogonal box = (0 0.116553 -0.280384) to (3.36461 5.71112 0.280384)
        min_style ${style}
        min_style cg
        minimize ${etol} ${ftol} ${maxiter} ${maxeval}
        minimize 1e-12 ${ftol} ${maxiter} ${maxeval}
        minimize 1e-12 1e-08 ${maxiter} ${maxeval}
        minimize 1e-12 1e-08 10000 ${maxeval}
        minimize 1e-12 1e-08 10000 20000
WARNING: Resetting reneighboring criteria during minimization (../min.cpp:168)
Memory usage per processor = 3.35096 Mbytes
Step PotEng Pxx Pyy Pxy Lx Ly Lz 
       0   -53.410291   0.54432917    1.4989314 -2.9190798e-17      3.36461    5.5945632   0.56076816 
       1   -53.410291   0.54432917    1.4989314 -2.9190798e-17      3.36461    5.5945632   0.56076816 
Loop time of 6.99401e-05 on 1 procs for 1 steps with 18 atoms

Minimization stats:
  Stopping criterion = linesearch alpha is zero
  Energy initial, next-to-last, final = 
        -53.4102909075     -53.4102909075     -53.4102909075
  Force two-norm initial, final = 0.00109885 0.00109885
  Force max component initial, final = 0.000284775 0.000284775
  Final line search alpha, max atom move = 0.0078125 2.2248e-06
  Iterations, force evaluations = 1 8

Pair  time (%) = 4.71339e-05 (67.3918)
Neigh time (%) = 0 (0)
Comm  time (%) = 1.02133e-05 (14.603)
Outpt time (%) = 0 (0)
Other time (%) = 1.25929e-05 (18.0052)

Nlocal:    18 ave 18 max 18 min
Histogram: 1 0 0 0 0 0 0 0 0 0
Nghost:    79 ave 79 max 79 min
Histogram: 1 0 0 0 0 0 0 0 0 0
Neighs:    162 ave 162 max 162 min
Histogram: 1 0 0 0 0 0 0 0 0 0

Total # of neighbors = 162
Ave neighs/atom = 9
Neighbor list builds = 0
Dangerous builds = 0
        next i
jump SELF loop1

