LAMMPS (28 Jun 2014)
# attempt at getting tensile strain-stress curve for infinite slab

#file prefix
variable prefix string compression_V_brittle
variable dumpfile string ${prefix}.*.dump
variable dumpfile string compression_V_brittle.*.dump
variable restartfile string ${prefix}.*.equil
variable restartfile string compression_V_brittle.*.equil

#Mass (g/mol)
variable m equal 1

# lattice constant (in Angstroms) and orientation of axes (given by lattice vectors)
variable rho equal 0.9165
variable x1 equal 1
variable x2 equal 0
variable x3 equal 0
variable y1 equal 0
variable y2 equal 1
variable y3 equal 0
# length of lattice in different directions (using orientation of lattice vectors)
variable ax equal sqrt(${x1}*${x1}+${x2}*${x2}+${x3}*${x3})
variable ax equal sqrt(1*${x1}+${x2}*${x2}+${x3}*${x3})
variable ax equal sqrt(1*1+${x2}*${x2}+${x3}*${x3})
variable ax equal sqrt(1*1+0*${x2}+${x3}*${x3})
variable ax equal sqrt(1*1+0*0+${x3}*${x3})
variable ax equal sqrt(1*1+0*0+0*${x3})
variable ax equal sqrt(1*1+0*0+0*0)
variable ay equal sqrt(${y1}*${y1}+${y2}*${y2}+${y3}*${y3})
variable ay equal sqrt(0*${y1}+${y2}*${y2}+${y3}*${y3})
variable ay equal sqrt(0*0+${y2}*${y2}+${y3}*${y3})
variable ay equal sqrt(0*0+1*${y2}+${y3}*${y3})
variable ay equal sqrt(0*0+1*1+${y3}*${y3})
variable ay equal sqrt(0*0+1*1+0*${y3})
variable ay equal sqrt(0*0+1*1+0*0)
variable az equal 1

# size of box in lattice units
variable lxpos equal 3
variable lxneg equal 0
variable lypos equal 3
variable lyneg equal 0
variable lzpos equal 0.25
variable lzneg equal -0.25

# Define minimization parameters and damping
variable etol equal 1.0e-12
variable ftol equal 1.0e-8
variable maxiter equal 10000
variable maxeval equal 20000
variable style string hftn

# boundary conditions
dimension	2
boundary	p p p
atom_style	atomic

# create geometry
units		lj
lattice         hex ${rho}
lattice         hex 0.9165
Lattice spacing in x,y,z = 1.12245 1.94415 1.12245
region		myregion block ${lxneg} ${lxpos} ${lyneg} ${lypos} ${lzneg} ${lzpos} units lattice
region		myregion block 0 ${lxpos} ${lyneg} ${lypos} ${lzneg} ${lzpos} units lattice
region		myregion block 0 3 ${lyneg} ${lypos} ${lzneg} ${lzpos} units lattice
region		myregion block 0 3 0 ${lypos} ${lzneg} ${lzpos} units lattice
region		myregion block 0 3 0 3 ${lzneg} ${lzpos} units lattice
region		myregion block 0 3 0 3 -0.25 ${lzpos} units lattice
region		myregion block 0 3 0 3 -0.25 0.25 units lattice
create_box	1 myregion
Created orthogonal box = (0 0 -0.280613) to (3.36736 5.83244 0.280613)
  1 by 1 by 1 MPI processor grid
create_atoms	1 box
Created 18 atoms

# define masses
mass * $m
mass * 1

# my fake/morse potential
pair_style      table linear 3001
pair_coeff      * * vpotential_brittle dummy
neighbor	0.3 bin
neigh_modify	delay 5

# Setup output
thermo 1
thermo_style custom step pe pxx pyy pxy lx ly lz
thermo_modify norm no

# Compute initial state by relaxing box
min_style ${style}
min_style hftn
minimize ${etol} ${ftol} ${maxiter} ${maxeval}
minimize 1e-12 ${ftol} ${maxiter} ${maxeval}
minimize 1e-12 1e-08 ${maxiter} ${maxeval}
minimize 1e-12 1e-08 10000 ${maxeval}
minimize 1e-12 1e-08 10000 20000
WARNING: Resetting reneighboring criteria during minimization (../min.cpp:168)
Memory usage per processor = 4.85099 Mbytes
Step PotEng Pxx Pyy Pxy Lx Ly Lz 
       0   -53.999984 0.0003469208 0.0003469208 1.4825282e-22    3.3673612    5.8324407   0.56122687 
Loop time of 1.29283e-05 on 1 procs for 0 steps with 18 atoms

Minimization stats:
  Stopping criterion = force tolerance
  Energy initial, next-to-last, final = 
         -53.999983866      -53.999983866      -53.999983866
  Force two-norm initial, final = 1.11801e-13 1.11801e-13
  Force max component initial, final = 5.05401e-14 5.05401e-14
  Final line search alpha, max atom move = 0 0
  Iterations, force evaluations = 0 0

Pair  time (%) = 4.92146e-06 (38.0674)
Neigh time (%) = 0 (0)
Comm  time (%) = 2.02819e-06 (15.688)
Outpt time (%) = 0 (0)
Other time (%) = 5.97863e-06 (46.2446)

Nlocal:    18 ave 18 max 18 min
Histogram: 1 0 0 0 0 0 0 0 0 0
Nghost:    65 ave 65 max 65 min
Histogram: 1 0 0 0 0 0 0 0 0 0
Neighs:    162 ave 162 max 162 min
Histogram: 1 0 0 0 0 0 0 0 0 0

Total # of neighbors = 162
Ave neighs/atom = 9
Neighbor list builds = 0
Dangerous builds = 0
reset_timestep 0
write_dump all atom orig.dump

# Energy curve will have nstep steps
variable strainmax equal -0.05
variable strainstep equal -0.0005
variable nsteps equal round(${strainmax}/${strainstep})
variable nsteps equal round(-0.05/${strainstep})
variable nsteps equal round(-0.05/-0.0005)
variable direction string y

variable i loop ${nsteps}
variable i loop 100
label loop1
	read_dump orig.dump 0 x y
  orthogonal box = (0 0 -0.280613) to (3.36736 5.83244 0.280613)
  18 atoms before read
  18 atoms in snapshot
  0 atoms purged
  18 atoms replaced
  0 atoms trimmed
  0 atoms added
  18 atoms after read
        variable stretch equal 1+$i*${strainstep}
        variable stretch equal 1+1*${strainstep}
        variable stretch equal 1+1*-0.0005
        change_box all ${direction} scale ${stretch} remap
        change_box all y scale ${stretch} remap
        change_box all y scale 0.9995 remap
  orthogonal box = (0 0.00145811 -0.280613) to (3.36736 5.83098 0.280613)
        min_style ${style}
        min_style hftn
        minimize ${etol} ${ftol} ${maxiter} ${maxeval}
        minimize 1e-12 ${ftol} ${maxiter} ${maxeval}
        minimize 1e-12 1e-08 ${maxiter} ${maxeval}
        minimize 1e-12 1e-08 10000 ${maxeval}
        minimize 1e-12 1e-08 10000 20000
WARNING: Resetting reneighboring criteria during minimization (../min.cpp:168)
Memory usage per processor = 4.85099 Mbytes
Step PotEng Pxx Pyy Pxy Lx Ly Lz 
       0   -53.999886 0.0056837775  0.016310321 -1.541911e-18      3.36736    5.8295238   0.56122687 
       1   -53.999886 0.0056837777  0.016310321 -1.1877021e-16      3.36736    5.8295238   0.56122687 
Loop time of 0.000100007 on 1 procs for 0 steps with 18 atoms

Minimization stats:
  Stopping criterion = force tolerance
  Energy initial, next-to-last, final = 
        -53.9998864007     -53.9998864007     -53.9998864007
  Force two-norm initial, final = 0.000858906 2.05608e-09
  Force max component initial, final = 0.000214646 6.29249e-10
  Final line search alpha, max atom move = 0 0
  Iterations, force evaluations = 0 7

Pair  time (%) = 3.51467e-05 (35.1443)
Neigh time (%) = 0 (0)
Comm  time (%) = 5.15988e-06 (5.15952)
Outpt time (%) = 0 (0)
Other time (%) = 5.97003e-05 (59.6962)

Nlocal:    18 ave 18 max 18 min
Histogram: 1 0 0 0 0 0 0 0 0 0
Nghost:    65 ave 65 max 65 min
Histogram: 1 0 0 0 0 0 0 0 0 0
Neighs:    162 ave 162 max 162 min
Histogram: 1 0 0 0 0 0 0 0 0 0

Total # of neighbors = 162
Ave neighs/atom = 9
Neighbor list builds = 0
Dangerous builds = 0
        next i
jump SELF loop1
	read_dump orig.dump 0 x y
  orthogonal box = (0 0 -0.280613) to (3.36736 5.83244 0.280613)
  18 atoms before read
  18 atoms in snapshot
  0 atoms purged
  18 atoms replaced
  0 atoms trimmed
  0 atoms added
  18 atoms after read
        variable stretch equal 1+$i*${strainstep}
        variable stretch equal 1+2*${strainstep}
        variable stretch equal 1+2*-0.0005
        change_box all ${direction} scale ${stretch} remap
        change_box all y scale ${stretch} remap
        change_box all y scale 0.999 remap
  orthogonal box = (0 0.00291622 -0.280613) to (3.36736 5.82952 0.280613)
        min_style ${style}
        min_style hftn
        minimize ${etol} ${ftol} ${maxiter} ${maxeval}
        minimize 1e-12 ${ftol} ${maxiter} ${maxeval}
        minimize 1e-12 1e-08 ${maxiter} ${maxeval}
        minimize 1e-12 1e-08 10000 ${maxeval}
        minimize 1e-12 1e-08 10000 20000
WARNING: Resetting reneighboring criteria during minimization (../min.cpp:168)
Memory usage per processor = 4.85099 Mbytes
Step PotEng Pxx Pyy Pxy Lx Ly Lz 
       0   -53.999635  0.011039582  0.032328946 1.2113276e-16      3.36736    5.8266076   0.56122687 
       1   -53.999635  0.011039582  0.032328946 -1.8122218e-16      3.36736    5.8266076   0.56122687 
Loop time of 9.39467e-05 on 1 procs for 0 steps with 18 atoms

Minimization stats:
  Stopping criterion = force tolerance
  Energy initial, next-to-last, final = 
        -53.9996354394     -53.9996354394     -53.9996354394
  Force two-norm initial, final = 0.000863132 2.06876e-09
  Force max component initial, final = 0.000215903 6.33489e-10
  Final line search alpha, max atom move = 0 0
  Iterations, force evaluations = 0 7

Pair  time (%) = 3.54205e-05 (37.7028)
Neigh time (%) = 0 (0)
Comm  time (%) = 1.34691e-05 (14.337)
Outpt time (%) = 0 (0)
Other time (%) = 4.5057e-05 (47.9602)

Nlocal:    18 ave 18 max 18 min
Histogram: 1 0 0 0 0 0 0 0 0 0
Nghost:    65 ave 65 max 65 min
Histogram: 1 0 0 0 0 0 0 0 0 0
Neighs:    162 ave 162 max 162 min
Histogram: 1 0 0 0 0 0 0 0 0 0

Total # of neighbors = 162
Ave neighs/atom = 9
Neighbor list builds = 0
Dangerous builds = 0
        next i
jump SELF loop1
	read_dump orig.dump 0 x y
  orthogonal box = (0 0 -0.280613) to (3.36736 5.83244 0.280613)
  18 atoms before read
  18 atoms in snapshot
  0 atoms purged
  18 atoms replaced
  0 atoms trimmed
  0 atoms added
  18 atoms after read
        variable stretch equal 1+$i*${strainstep}
        variable stretch equal 1+3*${strainstep}
        variable stretch equal 1+3*-0.0005
        change_box all ${direction} scale ${stretch} remap
        change_box all y scale ${stretch} remap
        change_box all y scale 0.9985 remap
  orthogonal box = (0 0.00437433 -0.280613) to (3.36736 5.82807 0.280613)
        min_style ${style}
        min_style hftn
        minimize ${etol} ${ftol} ${maxiter} ${maxeval}
        minimize 1e-12 ${ftol} ${maxiter} ${maxeval}
        minimize 1e-12 1e-08 ${maxiter} ${maxeval}
        minimize 1e-12 1e-08 10000 ${maxeval}
        minimize 1e-12 1e-08 10000 20000
WARNING: Resetting reneighboring criteria during minimization (../min.cpp:168)
Memory usage per processor = 4.85099 Mbytes
Step PotEng Pxx Pyy Pxy Lx Ly Lz 
       0   -53.999254  0.016422703   0.04839719 1.2310012e-16      3.36736    5.8236913   0.56122687 
       1   -53.999254  0.016422703   0.04839719 6.5425501e-17      3.36736    5.8236913   0.56122687 
Loop time of 6.19657e-05 on 1 procs for 0 steps with 18 atoms

Minimization stats:
  Stopping criterion = force tolerance
  Energy initial, next-to-last, final = 
        -53.9992537611     -53.9992537611     -53.9992537611
  Force two-norm initial, final = 0.000867359 2.081e-09
  Force max component initial, final = 0.000217159 6.37372e-10
  Final line search alpha, max atom move = 0 0
  Iterations, force evaluations = 0 7

Pair  time (%) = 3.42012e-05 (55.1938)
Neigh time (%) = 0 (0)
Comm  time (%) = 1.12228e-05 (18.1113)
Outpt time (%) = 0 (0)
Other time (%) = 1.65417e-05 (26.6949)

Nlocal:    18 ave 18 max 18 min
Histogram: 1 0 0 0 0 0 0 0 0 0
Nghost:    65 ave 65 max 65 min
Histogram: 1 0 0 0 0 0 0 0 0 0
Neighs:    162 ave 162 max 162 min
Histogram: 1 0 0 0 0 0 0 0 0 0

Total # of neighbors = 162
Ave neighs/atom = 9
Neighbor list builds = 0
Dangerous builds = 0
        next i
jump SELF loop1
	read_dump orig.dump 0 x y
  orthogonal box = (0 0 -0.280613) to (3.36736 5.83244 0.280613)
  18 atoms before read
  18 atoms in snapshot
  0 atoms purged
  18 atoms replaced
  0 atoms trimmed
  0 atoms added
  18 atoms after read
        variable stretch equal 1+$i*${strainstep}
        variable stretch equal 1+4*${strainstep}
        variable stretch equal 1+4*-0.0005
        change_box all ${direction} scale ${stretch} remap
        change_box all y scale ${stretch} remap
        change_box all y scale 0.998 remap
  orthogonal box = (0 0.00583244 -0.280613) to (3.36736 5.82661 0.280613)
        min_style ${style}
        min_style hftn
        minimize ${etol} ${ftol} ${maxiter} ${maxeval}
        minimize 1e-12 ${ftol} ${maxiter} ${maxeval}
        minimize 1e-12 1e-08 ${maxiter} ${maxeval}
        minimize 1e-12 1e-08 10000 ${maxeval}
        minimize 1e-12 1e-08 10000 20000
WARNING: Resetting reneighboring criteria during minimization (../min.cpp:168)
Memory usage per processor = 4.85099 Mbytes
Step PotEng Pxx Pyy Pxy Lx Ly Lz 
       0   -53.998711  0.021838761  0.064531626 5.5021794e-17      3.36736    5.8207751   0.56122687 
       1   -53.998711  0.021838762  0.064531627 -1.2688516e-16      3.36736    5.8207751   0.56122687 
Loop time of 6.19499e-05 on 1 procs for 0 steps with 18 atoms

Minimization stats:
  Stopping criterion = force tolerance
  Energy initial, next-to-last, final = 
        -53.9987112769     -53.9987112769     -53.9987112769
  Force two-norm initial, final = 0.000865943 2.07841e-09
  Force max component initial, final = 0.000216723 6.36616e-10
  Final line search alpha, max atom move = 0 0
  Iterations, force evaluations = 0 7

Pair  time (%) = 3.59301e-05 (57.9986)
Neigh time (%) = 0 (0)
Comm  time (%) = 8.01159e-06 (12.9324)
Outpt time (%) = 0 (0)
Other time (%) = 1.80083e-05 (29.0691)

Nlocal:    18 ave 18 max 18 min
Histogram: 1 0 0 0 0 0 0 0 0 0
Nghost:    65 ave 65 max 65 min
Histogram: 1 0 0 0 0 0 0 0 0 0
Neighs:    162 ave 162 max 162 min
Histogram: 1 0 0 0 0 0 0 0 0 0

Total # of neighbors = 162
Ave neighs/atom = 9
Neighbor list builds = 0
Dangerous builds = 0
        next i
jump SELF loop1
	read_dump orig.dump 0 x y
  orthogonal box = (0 0 -0.280613) to (3.36736 5.83244 0.280613)
  18 atoms before read
  18 atoms in snapshot
  0 atoms purged
  18 atoms replaced
  0 atoms trimmed
  0 atoms added
  18 atoms after read
        variable stretch equal 1+$i*${strainstep}
        variable stretch equal 1+5*${strainstep}
        variable stretch equal 1+5*-0.0005
        change_box all ${direction} scale ${stretch} remap
        change_box all y scale ${stretch} remap
        change_box all y scale 0.9975 remap
  orthogonal box = (0 0.00729055 -0.280613) to (3.36736 5.82515 0.280613)
        min_style ${style}
        min_style hftn
        minimize ${etol} ${ftol} ${maxiter} ${maxeval}
        minimize 1e-12 ${ftol} ${maxiter} ${maxeval}
        minimize 1e-12 1e-08 ${maxiter} ${maxeval}
        minimize 1e-12 1e-08 10000 ${maxeval}
        minimize 1e-12 1e-08 10000 20000
WARNING: Resetting reneighboring criteria during minimization (../min.cpp:168)
Memory usage per processor = 4.85099 Mbytes
Step PotEng Pxx Pyy Pxy Lx Ly Lz 
       0   -53.997974  0.027294317  0.080751563 5.7507612e-17      3.36736    5.8178589   0.56122687 
       1   -53.997974  0.027294317  0.080751564 -1.8061181e-16      3.36736    5.8178589   0.56122687 
Loop time of 6.20869e-05 on 1 procs for 0 steps with 18 atoms

Minimization stats:
  Stopping criterion = force tolerance
  Energy initial, next-to-last, final = 
        -53.9979740887     -53.9979740887     -53.9979740887
  Force two-norm initial, final = 0.000870209 2.09068e-09
  Force max component initial, final = 0.00021799 6.40626e-10
  Final line search alpha, max atom move = 0 0
  Iterations, force evaluations = 0 7

Pair  time (%) = 3.37404e-05 (54.3439)
Neigh time (%) = 0 (0)
Comm  time (%) = 7.97014e-06 (12.8371)
Outpt time (%) = 0 (0)
Other time (%) = 2.03763e-05 (32.819)

Nlocal:    18 ave 18 max 18 min
Histogram: 1 0 0 0 0 0 0 0 0 0
Nghost:    65 ave 65 max 65 min
Histogram: 1 0 0 0 0 0 0 0 0 0
Neighs:    162 ave 162 max 162 min
Histogram: 1 0 0 0 0 0 0 0 0 0

Total # of neighbors = 162
Ave neighs/atom = 9
Neighbor list builds = 0
Dangerous builds = 0
        next i
jump SELF loop1
	read_dump orig.dump 0 x y
  orthogonal box = (0 0 -0.280613) to (3.36736 5.83244 0.280613)
  18 atoms before read
  18 atoms in snapshot
  0 atoms purged
  18 atoms replaced
  0 atoms trimmed
  0 atoms added
  18 atoms after read
        variable stretch equal 1+$i*${strainstep}
        variable stretch equal 1+6*${strainstep}
        variable stretch equal 1+6*-0.0005
        change_box all ${direction} scale ${stretch} remap
        change_box all y scale ${stretch} remap
        change_box all y scale 0.997 remap
  orthogonal box = (0 0.00874866 -0.280613) to (3.36736 5.82369 0.280613)
        min_style ${style}
        min_style hftn
        minimize ${etol} ${ftol} ${maxiter} ${maxeval}
        minimize 1e-12 ${ftol} ${maxiter} ${maxeval}
        minimize 1e-12 1e-08 ${maxiter} ${maxeval}
        minimize 1e-12 1e-08 10000 ${maxeval}
        minimize 1e-12 1e-08 10000 20000
WARNING: Resetting reneighboring criteria during minimization (../min.cpp:168)
Memory usage per processor = 4.85099 Mbytes
Step PotEng Pxx Pyy Pxy Lx Ly Lz 
       0   -53.997105   0.03277753  0.097021365 1.3147284e-16      3.36736    5.8149427   0.56122687 
       1   -53.997105  0.032777531  0.097021366 1.3466492e-16      3.36736    5.8149427   0.56122687 
Loop time of 1.89852e-05 on 1 procs for 0 steps with 18 atoms

Minimization stats:
  Stopping criterion = force tolerance
  Energy initial, next-to-last, final = 
        -53.9971047551     -53.9971047551     -53.9971047551
  Force two-norm initial, final = 0.000874478 2.10346e-09
  Force max component initial, final = 0.000219257 6.44914e-10
  Final line search alpha, max atom move = 0 0
  Iterations, force evaluations = 0 7

Pair  time (%) = 9.81172e-06 (51.6807)
Neigh time (%) = 0 (0)
Comm  time (%) = 3.18629e-06 (16.783)
Outpt time (%) = 0 (0)
Other time (%) = 5.98724e-06 (31.5363)

Nlocal:    18 ave 18 max 18 min
Histogram: 1 0 0 0 0 0 0 0 0 0
Nghost:    65 ave 65 max 65 min
Histogram: 1 0 0 0 0 0 0 0 0 0
Neighs:    162 ave 162 max 162 min
Histogram: 1 0 0 0 0 0 0 0 0 0

Total # of neighbors = 162
Ave neighs/atom = 9
Neighbor list builds = 0
Dangerous builds = 0
        next i
jump SELF loop1
	read_dump orig.dump 0 x y
  orthogonal box = (0 0 -0.280613) to (3.36736 5.83244 0.280613)
  18 atoms before read
  18 atoms in snapshot
  0 atoms purged
  18 atoms replaced
  0 atoms trimmed
  0 atoms added
  18 atoms after read
        variable stretch equal 1+$i*${strainstep}
        variable stretch equal 1+7*${strainstep}
        variable stretch equal 1+7*-0.0005
        change_box all ${direction} scale ${stretch} remap
        change_box all y scale ${stretch} remap
        change_box all y scale 0.9965 remap
  orthogonal box = (0 0.0102068 -0.280613) to (3.36736 5.82223 0.280613)
        min_style ${style}
        min_style hftn
        minimize ${etol} ${ftol} ${maxiter} ${maxeval}
        minimize 1e-12 ${ftol} ${maxiter} ${maxeval}
        minimize 1e-12 1e-08 ${maxiter} ${maxeval}
        minimize 1e-12 1e-08 10000 ${maxeval}
        minimize 1e-12 1e-08 10000 20000
WARNING: Resetting reneighboring criteria during minimization (../min.cpp:168)
Memory usage per processor = 4.85099 Mbytes
Step PotEng Pxx Pyy Pxy Lx Ly Lz 
       0   -53.996103  0.038288412   0.11334084 2.5486141e-16      3.36736    5.8120265   0.56122687 
       1   -53.996103  0.038288412   0.11334084 -3.1406789e-16      3.36736    5.8120265   0.56122687 
Loop time of 6.20579e-05 on 1 procs for 0 steps with 18 atoms

Minimization stats:
  Stopping criterion = force tolerance
  Energy initial, next-to-last, final = 
        -53.9961033099     -53.9961033099     -53.9961033099
  Force two-norm initial, final = 0.000878791 2.11578e-09
  Force max component initial, final = 0.000220536 6.48948e-10
  Final line search alpha, max atom move = 0 0
  Iterations, force evaluations = 0 7

Pair  time (%) = 3.50254e-05 (56.4399)
Neigh time (%) = 0 (0)
Comm  time (%) = 4.48688e-06 (7.23015)
Outpt time (%) = 0 (0)
Other time (%) = 2.25456e-05 (36.3299)

Nlocal:    18 ave 18 max 18 min
Histogram: 1 0 0 0 0 0 0 0 0 0
Nghost:    65 ave 65 max 65 min
Histogram: 1 0 0 0 0 0 0 0 0 0
Neighs:    162 ave 162 max 162 min
Histogram: 1 0 0 0 0 0 0 0 0 0

Total # of neighbors = 162
Ave neighs/atom = 9
Neighbor list builds = 0
Dangerous builds = 0
        next i
jump SELF loop1
	read_dump orig.dump 0 x y
  orthogonal box = (0 0 -0.280613) to (3.36736 5.83244 0.280613)
  18 atoms before read
  18 atoms in snapshot
  0 atoms purged
  18 atoms replaced
  0 atoms trimmed
  0 atoms added
  18 atoms after read
        variable stretch equal 1+$i*${strainstep}
        variable stretch equal 1+8*${strainstep}
        variable stretch equal 1+8*-0.0005
        change_box all ${direction} scale ${stretch} remap
        change_box all y scale ${stretch} remap
        change_box all y scale 0.996 remap
  orthogonal box = (0 0.0116649 -0.280613) to (3.36736 5.82078 0.280613)
        min_style ${style}
        min_style hftn
        minimize ${etol} ${ftol} ${maxiter} ${maxeval}
        minimize 1e-12 ${ftol} ${maxiter} ${maxeval}
        minimize 1e-12 1e-08 ${maxiter} ${maxeval}
        minimize 1e-12 1e-08 10000 ${maxeval}
        minimize 1e-12 1e-08 10000 20000
WARNING: Resetting reneighboring criteria during minimization (../min.cpp:168)
Memory usage per processor = 4.85099 Mbytes
Step PotEng Pxx Pyy Pxy Lx Ly Lz 
       0   -53.994882  0.043843507   0.12975901 5.7224946e-17      3.36736    5.8091102   0.56122687 
       1   -53.994882  0.043843507   0.12975901 -7.7604279e-17      3.36736    5.8091102   0.56122687 
Loop time of 6.30805e-05 on 1 procs for 0 steps with 18 atoms

Minimization stats:
  Stopping criterion = force tolerance
  Energy initial, next-to-last, final = 
        -53.9948823254     -53.9948823254     -53.9948823254
  Force two-norm initial, final = 0.000877345 2.113e-09
  Force max component initial, final = 0.000220092 6.48093e-10
  Final line search alpha, max atom move = 0 0
  Iterations, force evaluations = 0 7

Pair  time (%) = 3.59679e-05 (57.0191)
Neigh time (%) = 0 (0)
Comm  time (%) = 2.6566e-06 (4.21144)
Outpt time (%) = 0 (0)
Other time (%) = 2.44559e-05 (38.7695)

Nlocal:    18 ave 18 max 18 min
Histogram: 1 0 0 0 0 0 0 0 0 0
Nghost:    65 ave 65 max 65 min
Histogram: 1 0 0 0 0 0 0 0 0 0
Neighs:    162 ave 162 max 162 min
Histogram: 1 0 0 0 0 0 0 0 0 0

Total # of neighbors = 162
Ave neighs/atom = 9
Neighbor list builds = 0
Dangerous builds = 0
        next i
jump SELF loop1
	read_dump orig.dump 0 x y
  orthogonal box = (0 0 -0.280613) to (3.36736 5.83244 0.280613)
  18 atoms before read
  18 atoms in snapshot
  0 atoms purged
  18 atoms replaced
  0 atoms trimmed
  0 atoms added
  18 atoms after read
        variable stretch equal 1+$i*${strainstep}
        variable stretch equal 1+9*${strainstep}
        variable stretch equal 1+9*-0.0005
        change_box all ${direction} scale ${stretch} remap
        change_box all y scale ${stretch} remap
        change_box all y scale 0.9955 remap
  orthogonal box = (0 0.013123 -0.280613) to (3.36736 5.81932 0.280613)
        min_style ${style}
        min_style hftn
        minimize ${etol} ${ftol} ${maxiter} ${maxeval}
        minimize 1e-12 ${ftol} ${maxiter} ${maxeval}
        minimize 1e-12 1e-08 ${maxiter} ${maxeval}
        minimize 1e-12 1e-08 10000 ${maxeval}
        minimize 1e-12 1e-08 10000 20000
WARNING: Resetting reneighboring criteria during minimization (../min.cpp:168)
Memory usage per processor = 4.85099 Mbytes
Step PotEng Pxx Pyy Pxy Lx Ly Lz 
       0   -53.993519  0.049428252   0.14623219 1.2185913e-16      3.36736     5.806194   0.56122687 
       1   -53.993519  0.049428252   0.14623219 -5.8826489e-17      3.36736     5.806194   0.56122687 
Loop time of 6.20445e-05 on 1 procs for 0 steps with 18 atoms

Minimization stats:
  Stopping criterion = force tolerance
  Energy initial, next-to-last, final = 
        -53.9935192651     -53.9935192651     -53.9935192651
  Force two-norm initial, final = 0.000881674 2.12539e-09
  Force max component initial, final = 0.000221375 6.52179e-10
  Final line search alpha, max atom move = 0 0
  Iterations, force evaluations = 0 7

Pair  time (%) = 3.38784e-05 (54.6034)
Neigh time (%) = 0 (0)
Comm  time (%) = 6.29248e-06 (10.1419)
Outpt time (%) = 0 (0)
Other time (%) = 2.18736e-05 (35.2547)

Nlocal:    18 ave 18 max 18 min
Histogram: 1 0 0 0 0 0 0 0 0 0
Nghost:    65 ave 65 max 65 min
Histogram: 1 0 0 0 0 0 0 0 0 0
Neighs:    162 ave 162 max 162 min
Histogram: 1 0 0 0 0 0 0 0 0 0

Total # of neighbors = 162
Ave neighs/atom = 9
Neighbor list builds = 0
Dangerous builds = 0
        next i
jump SELF loop1
	read_dump orig.dump 0 x y
  orthogonal box = (0 0 -0.280613) to (3.36736 5.83244 0.280613)
  18 atoms before read
  18 atoms in snapshot
  0 atoms purged
  18 atoms replaced
  0 atoms trimmed
  0 atoms added
  18 atoms after read
        variable stretch equal 1+$i*${strainstep}
        variable stretch equal 1+10*${strainstep}
        variable stretch equal 1+10*-0.0005
        change_box all ${direction} scale ${stretch} remap
        change_box all y scale ${stretch} remap
        change_box all y scale 0.995 remap
  orthogonal box = (0 0.0145811 -0.280613) to (3.36736 5.81786 0.280613)
        min_style ${style}
        min_style hftn
        minimize ${etol} ${ftol} ${maxiter} ${maxeval}
        minimize 1e-12 ${ftol} ${maxiter} ${maxeval}
        minimize 1e-12 1e-08 ${maxiter} ${maxeval}
        minimize 1e-12 1e-08 10000 ${maxeval}
        minimize 1e-12 1e-08 10000 20000
WARNING: Resetting reneighboring criteria during minimization (../min.cpp:168)
Memory usage per processor = 4.85099 Mbytes
Step PotEng Pxx Pyy Pxy Lx Ly Lz 
       0   -53.992023  0.055041075   0.16275549 1.0706522e-17      3.36736    5.8032778   0.56122687 
       1   -53.992023  0.055041075   0.16275549 6.0053061e-17      3.36736    5.8032778   0.56122687 
Loop time of 6.20288e-05 on 1 procs for 0 steps with 18 atoms

Minimization stats:
  Stopping criterion = force tolerance
  Energy initial, next-to-last, final = 
        -53.9920225932     -53.9920225932     -53.9920225932
  Force two-norm initial, final = 0.000886008 2.1383e-09
  Force max component initial, final = 0.000222658 6.56382e-10
  Final line search alpha, max atom move = 0 0
  Iterations, force evaluations = 0 7

Pair  time (%) = 3.36469e-05 (54.2441)
Neigh time (%) = 0 (0)
Comm  time (%) = 5.02134e-06 (8.09518)
Outpt time (%) = 0 (0)
Other time (%) = 2.33605e-05 (37.6607)

Nlocal:    18 ave 18 max 18 min
Histogram: 1 0 0 0 0 0 0 0 0 0
Nghost:    65 ave 65 max 65 min
Histogram: 1 0 0 0 0 0 0 0 0 0
Neighs:    162 ave 162 max 162 min
Histogram: 1 0 0 0 0 0 0 0 0 0

Total # of neighbors = 162
Ave neighs/atom = 9
Neighbor list builds = 0
Dangerous builds = 0
        next i
jump SELF loop1
	read_dump orig.dump 0 x y
  orthogonal box = (0 0 -0.280613) to (3.36736 5.83244 0.280613)
  18 atoms before read
  18 atoms in snapshot
  0 atoms purged
  18 atoms replaced
  0 atoms trimmed
  0 atoms added
  18 atoms after read
        variable stretch equal 1+$i*${strainstep}
        variable stretch equal 1+11*${strainstep}
        variable stretch equal 1+11*-0.0005
        change_box all ${direction} scale ${stretch} remap
        change_box all y scale ${stretch} remap
        change_box all y scale 0.9945 remap
  orthogonal box = (0 0.0160392 -0.280613) to (3.36736 5.8164 0.280613)
        min_style ${style}
        min_style hftn
        minimize ${etol} ${ftol} ${maxiter} ${maxeval}
        minimize 1e-12 ${ftol} ${maxiter} ${maxeval}
        minimize 1e-12 1e-08 ${maxiter} ${maxeval}
        minimize 1e-12 1e-08 10000 ${maxeval}
        minimize 1e-12 1e-08 10000 20000
WARNING: Resetting reneighboring criteria during minimization (../min.cpp:168)
Memory usage per processor = 4.85099 Mbytes
Step PotEng Pxx Pyy Pxy Lx Ly Lz 
       0   -53.990342  0.060691397   0.17935662 7.3723273e-17      3.36736    5.8003616   0.56122687 
       1   -53.990342  0.060691397   0.17935662 1.4278377e-17      3.36736    5.8003616   0.56122687 
Loop time of 6.18988e-05 on 1 procs for 0 steps with 18 atoms

Minimization stats:
  Stopping criterion = force tolerance
  Energy initial, next-to-last, final = 
         -53.990342188      -53.990342188      -53.990342188
  Force two-norm initial, final = 0.000884543 2.13567e-09
  Force max component initial, final = 0.000222209 6.55504e-10
  Final line search alpha, max atom move = 0 0
  Iterations, force evaluations = 0 7

Pair  time (%) = 3.79987e-05 (61.3883)
Neigh time (%) = 0 (0)
Comm  time (%) = 4.85696e-06 (7.84661)
Outpt time (%) = 0 (0)
Other time (%) = 1.90432e-05 (30.7651)

Nlocal:    18 ave 18 max 18 min
Histogram: 1 0 0 0 0 0 0 0 0 0
Nghost:    65 ave 65 max 65 min
Histogram: 1 0 0 0 0 0 0 0 0 0
Neighs:    162 ave 162 max 162 min
Histogram: 1 0 0 0 0 0 0 0 0 0

Total # of neighbors = 162
Ave neighs/atom = 9
Neighbor list builds = 0
Dangerous builds = 0
        next i
jump SELF loop1
	read_dump orig.dump 0 x y
  orthogonal box = (0 0 -0.280613) to (3.36736 5.83244 0.280613)
  18 atoms before read
  18 atoms in snapshot
  0 atoms purged
  18 atoms replaced
  0 atoms trimmed
  0 atoms added
  18 atoms after read
        variable stretch equal 1+$i*${strainstep}
        variable stretch equal 1+12*${strainstep}
        variable stretch equal 1+12*-0.0005
        change_box all ${direction} scale ${stretch} remap
        change_box all y scale ${stretch} remap
        change_box all y scale 0.994 remap
  orthogonal box = (0 0.0174973 -0.280613) to (3.36736 5.81494 0.280613)
        min_style ${style}
        min_style hftn
        minimize ${etol} ${ftol} ${maxiter} ${maxeval}
        minimize 1e-12 ${ftol} ${maxiter} ${maxeval}
        minimize 1e-12 1e-08 ${maxiter} ${maxeval}
        minimize 1e-12 1e-08 10000 ${maxeval}
        minimize 1e-12 1e-08 10000 20000
WARNING: Resetting reneighboring criteria during minimization (../min.cpp:168)
Memory usage per processor = 4.85099 Mbytes
Step PotEng Pxx Pyy Pxy Lx Ly Lz 
       0    -53.98848  0.066378992   0.19603461 -1.9139928e-16      3.36736    5.7974454   0.56122687 
       1    -53.98848  0.066378993   0.19603461 -6.7724851e-17      3.36736    5.7974454   0.56122687 
Loop time of 6.19431e-05 on 1 procs for 0 steps with 18 atoms

Minimization stats:
  Stopping criterion = force tolerance
  Energy initial, next-to-last, final = 
        -53.9884797318     -53.9884797318     -53.9884797318
  Force two-norm initial, final = 0.000888912 2.1486e-09
  Force max component initial, final = 0.000223502 6.59893e-10
  Final line search alpha, max atom move = 0 0
  Iterations, force evaluations = 0 7

Pair  time (%) = 3.71141e-05 (59.9165)
Neigh time (%) = 0 (0)
Comm  time (%) = 6.04161e-06 (9.75348)
Outpt time (%) = 0 (0)
Other time (%) = 1.87873e-05 (30.33)

Nlocal:    18 ave 18 max 18 min
Histogram: 1 0 0 0 0 0 0 0 0 0
Nghost:    65 ave 65 max 65 min
Histogram: 1 0 0 0 0 0 0 0 0 0
Neighs:    162 ave 162 max 162 min
Histogram: 1 0 0 0 0 0 0 0 0 0

Total # of neighbors = 162
Ave neighs/atom = 9
Neighbor list builds = 0
Dangerous builds = 0
        next i
jump SELF loop1
	read_dump orig.dump 0 x y
  orthogonal box = (0 0 -0.280613) to (3.36736 5.83244 0.280613)
  18 atoms before read
  18 atoms in snapshot
  0 atoms purged
  18 atoms replaced
  0 atoms trimmed
  0 atoms added
  18 atoms after read
        variable stretch equal 1+$i*${strainstep}
        variable stretch equal 1+13*${strainstep}
        variable stretch equal 1+13*-0.0005
        change_box all ${direction} scale ${stretch} remap
        change_box all y scale ${stretch} remap
        change_box all y scale 0.9935 remap
  orthogonal box = (0 0.0189554 -0.280613) to (3.36736 5.81348 0.280613)
        min_style ${style}
        min_style hftn
        minimize ${etol} ${ftol} ${maxiter} ${maxeval}
        minimize 1e-12 ${ftol} ${maxiter} ${maxeval}
        minimize 1e-12 1e-08 ${maxiter} ${maxeval}
        minimize 1e-12 1e-08 10000 ${maxeval}
        minimize 1e-12 1e-08 10000 20000
WARNING: Resetting reneighboring criteria during minimization (../min.cpp:168)
Memory usage per processor = 4.85099 Mbytes
Step PotEng Pxx Pyy Pxy Lx Ly Lz 
       0   -53.986482  0.072095044   0.21276304 -1.7208113e-16      3.36736    5.7945291   0.56122687 
       1   -53.986482  0.072095044   0.21276304 -1.314255e-17      3.36736    5.7945291   0.56122687 
Loop time of 6.19761e-05 on 1 procs for 0 steps with 18 atoms

Minimization stats:
  Stopping criterion = force tolerance
  Energy initial, next-to-last, final = 
        -53.9864822051     -53.9864822051     -53.9864822051
  Force two-norm initial, final = 0.0008933 2.16124e-09
  Force max component initial, final = 0.000224799 6.64011e-10
  Final line search alpha, max atom move = 0 0
  Iterations, force evaluations = 0 7

Pair  time (%) = 3.81866e-05 (61.6149)
Neigh time (%) = 0 (0)
Comm  time (%) = 2.56393e-06 (4.13696)
Outpt time (%) = 0 (0)
Other time (%) = 2.12257e-05 (34.2481)

Nlocal:    18 ave 18 max 18 min
Histogram: 1 0 0 0 0 0 0 0 0 0
Nghost:    65 ave 65 max 65 min
Histogram: 1 0 0 0 0 0 0 0 0 0
Neighs:    162 ave 162 max 162 min
Histogram: 1 0 0 0 0 0 0 0 0 0

Total # of neighbors = 162
Ave neighs/atom = 9
Neighbor list builds = 0
Dangerous builds = 0
        next i
jump SELF loop1
	read_dump orig.dump 0 x y
  orthogonal box = (0 0 -0.280613) to (3.36736 5.83244 0.280613)
  18 atoms before read
  18 atoms in snapshot
  0 atoms purged
  18 atoms replaced
  0 atoms trimmed
  0 atoms added
  18 atoms after read
        variable stretch equal 1+$i*${strainstep}
        variable stretch equal 1+14*${strainstep}
        variable stretch equal 1+14*-0.0005
        change_box all ${direction} scale ${stretch} remap
        change_box all y scale ${stretch} remap
        change_box all y scale 0.993 remap
  orthogonal box = (0 0.0204135 -0.280613) to (3.36736 5.81203 0.280613)
        min_style ${style}
        min_style hftn
        minimize ${etol} ${ftol} ${maxiter} ${maxeval}
        minimize 1e-12 ${ftol} ${maxiter} ${maxeval}
        minimize 1e-12 1e-08 ${maxiter} ${maxeval}
        minimize 1e-12 1e-08 10000 ${maxeval}
        minimize 1e-12 1e-08 10000 20000
WARNING: Resetting reneighboring criteria during minimization (../min.cpp:168)
Memory usage per processor = 4.85099 Mbytes
Step PotEng Pxx Pyy Pxy Lx Ly Lz 
       0   -53.984336  0.077842057   0.22954909 2.3513118e-17      3.36736    5.7916129   0.56122687 
       1   -53.984336  0.077842057   0.22954909 -1.2980025e-16      3.36736    5.7916129   0.56122687 
Loop time of 3.90137e-05 on 1 procs for 0 steps with 18 atoms

Minimization stats:
  Stopping criterion = force tolerance
  Energy initial, next-to-last, final = 
        -53.9843364171     -53.9843364171     -53.9843364171
  Force two-norm initial, final = 0.000891816 2.15823e-09
  Force max component initial, final = 0.000224345 6.63004e-10
  Final line search alpha, max atom move = 0 0
  Iterations, force evaluations = 0 7

Pair  time (%) = 2.6745e-05 (68.5529)
Neigh time (%) = 0 (0)
Comm  time (%) = 7.40867e-07 (1.89899)
Outpt time (%) = 0 (0)
Other time (%) = 1.15278e-05 (29.5481)

Nlocal:    18 ave 18 max 18 min
Histogram: 1 0 0 0 0 0 0 0 0 0
Nghost:    65 ave 65 max 65 min
Histogram: 1 0 0 0 0 0 0 0 0 0
Neighs:    162 ave 162 max 162 min
Histogram: 1 0 0 0 0 0 0 0 0 0

Total # of neighbors = 162
Ave neighs/atom = 9
Neighbor list builds = 0
Dangerous builds = 0
        next i
jump SELF loop1
	read_dump orig.dump 0 x y
  orthogonal box = (0 0 -0.280613) to (3.36736 5.83244 0.280613)
  18 atoms before read
  18 atoms in snapshot
  0 atoms purged
  18 atoms replaced
  0 atoms trimmed
  0 atoms added
  18 atoms after read
        variable stretch equal 1+$i*${strainstep}
        variable stretch equal 1+15*${strainstep}
        variable stretch equal 1+15*-0.0005
        change_box all ${direction} scale ${stretch} remap
        change_box all y scale ${stretch} remap
        change_box all y scale 0.9925 remap
  orthogonal box = (0 0.0218716 -0.280613) to (3.36736 5.81057 0.280613)
        min_style ${style}
        min_style hftn
        minimize ${etol} ${ftol} ${maxiter} ${maxeval}
        minimize 1e-12 ${ftol} ${maxiter} ${maxeval}
        minimize 1e-12 1e-08 ${maxiter} ${maxeval}
        minimize 1e-12 1e-08 10000 ${maxeval}
        minimize 1e-12 1e-08 10000 20000
WARNING: Resetting reneighboring criteria during minimization (../min.cpp:168)
Memory usage per processor = 4.85099 Mbytes
Step PotEng Pxx Pyy Pxy Lx Ly Lz 
       0   -53.981969  0.083633958   0.24643368 -1.8304919e-17      3.36736    5.7886967   0.56122687 
       1   -53.981969  0.083633958   0.24643368 -1.1760257e-16      3.36736    5.7886967   0.56122687 
Loop time of 7.60988e-05 on 1 procs for 0 steps with 18 atoms

Minimization stats:
  Stopping criterion = force tolerance
  Energy initial, next-to-last, final = 
        -53.9819685392     -53.9819685392     -53.9819685392
  Force two-norm initial, final = 0.00089622 2.17147e-09
  Force max component initial, final = 0.000225646 6.67332e-10
  Final line search alpha, max atom move = 0 0
  Iterations, force evaluations = 0 7

Pair  time (%) = 4.22796e-05 (55.5588)
Neigh time (%) = 0 (0)
Comm  time (%) = 1.79652e-06 (2.36077)
Outpt time (%) = 0 (0)
Other time (%) = 3.20227e-05 (42.0804)

Nlocal:    18 ave 18 max 18 min
Histogram: 1 0 0 0 0 0 0 0 0 0
Nghost:    65 ave 65 max 65 min
Histogram: 1 0 0 0 0 0 0 0 0 0
Neighs:    162 ave 162 max 162 min
Histogram: 1 0 0 0 0 0 0 0 0 0

Total # of neighbors = 162
Ave neighs/atom = 9
Neighbor list builds = 0
Dangerous builds = 0
        next i
jump SELF loop1
	read_dump orig.dump 0 x y
  orthogonal box = (0 0 -0.280613) to (3.36736 5.83244 0.280613)
  18 atoms before read
  18 atoms in snapshot
  0 atoms purged
  18 atoms replaced
  0 atoms trimmed
  0 atoms added
  18 atoms after read
        variable stretch equal 1+$i*${strainstep}
        variable stretch equal 1+16*${strainstep}
        variable stretch equal 1+16*-0.0005
        change_box all ${direction} scale ${stretch} remap
        change_box all y scale ${stretch} remap
        change_box all y scale 0.992 remap
  orthogonal box = (0 0.0233298 -0.280613) to (3.36736 5.80911 0.280613)
        min_style ${style}
        min_style hftn
        minimize ${etol} ${ftol} ${maxiter} ${maxeval}
        minimize 1e-12 ${ftol} ${maxiter} ${maxeval}
        minimize 1e-12 1e-08 ${maxiter} ${maxeval}
        minimize 1e-12 1e-08 10000 ${maxeval}
        minimize 1e-12 1e-08 10000 20000
WARNING: Resetting reneighboring criteria during minimization (../min.cpp:168)
Memory usage per processor = 4.85099 Mbytes
Step PotEng Pxx Pyy Pxy Lx Ly Lz 
       0   -53.979464  0.089454698   0.26336903 -4.9319086e-18      3.36736    5.7857805   0.56122687 
       1   -53.979464  0.089454699   0.26336903 8.6939323e-17      3.36736    5.7857805   0.56122687 
Loop time of 6.19962e-05 on 1 procs for 0 steps with 18 atoms

Minimization stats:
  Stopping criterion = force tolerance
  Energy initial, next-to-last, final = 
        -53.9794641423     -53.9794641423     -53.9794641423
  Force two-norm initial, final = 0.000900655 2.1842e-09
  Force max component initial, final = 0.000226956 6.71552e-10
  Final line search alpha, max atom move = 0 0
  Iterations, force evaluations = 0 7

Pair  time (%) = 3.78691e-05 (61.083)
Neigh time (%) = 0 (0)
Comm  time (%) = 4.40597e-06 (7.10684)
Outpt time (%) = 0 (0)
Other time (%) = 1.97211e-05 (31.8102)

Nlocal:    18 ave 18 max 18 min
Histogram: 1 0 0 0 0 0 0 0 0 0
Nghost:    65 ave 65 max 65 min
Histogram: 1 0 0 0 0 0 0 0 0 0
Neighs:    162 ave 162 max 162 min
Histogram: 1 0 0 0 0 0 0 0 0 0

Total # of neighbors = 162
Ave neighs/atom = 9
Neighbor list builds = 0
Dangerous builds = 0
        next i
jump SELF loop1
	read_dump orig.dump 0 x y
  orthogonal box = (0 0 -0.280613) to (3.36736 5.83244 0.280613)
  18 atoms before read
  18 atoms in snapshot
  0 atoms purged
  18 atoms replaced
  0 atoms trimmed
  0 atoms added
  18 atoms after read
        variable stretch equal 1+$i*${strainstep}
        variable stretch equal 1+17*${strainstep}
        variable stretch equal 1+17*-0.0005
        change_box all ${direction} scale ${stretch} remap
        change_box all y scale ${stretch} remap
        change_box all y scale 0.9915 remap
  orthogonal box = (0 0.0247879 -0.280613) to (3.36736 5.80765 0.280613)
        min_style ${style}
        min_style hftn
        minimize ${etol} ${ftol} ${maxiter} ${maxeval}
        minimize 1e-12 ${ftol} ${maxiter} ${maxeval}
        minimize 1e-12 1e-08 ${maxiter} ${maxeval}
        minimize 1e-12 1e-08 10000 ${maxeval}
        minimize 1e-12 1e-08 10000 20000
WARNING: Resetting reneighboring criteria during minimization (../min.cpp:168)
Memory usage per processor = 4.85099 Mbytes
Step PotEng Pxx Pyy Pxy Lx Ly Lz 
       0   -53.976823  0.095304297   0.28035499 2.5372398e-16      3.36736    5.7828643   0.56122687 
       1   -53.976823  0.095304297   0.28035499 3.4377914e-17      3.36736    5.7828643   0.56122687 
Loop time of 7.90675e-05 on 1 procs for 0 steps with 18 atoms

Minimization stats:
  Stopping criterion = force tolerance
  Energy initial, next-to-last, final = 
        -53.9768233051     -53.9768233051     -53.9768233051
  Force two-norm initial, final = 0.000905109 2.19726e-09
  Force max component initial, final = 0.00022827 6.75924e-10
  Final line search alpha, max atom move = 0 0
  Iterations, force evaluations = 0 7

Pair  time (%) = 5.1631e-05 (65.2999)
Neigh time (%) = 0 (0)
Comm  time (%) = 6.96268e-06 (8.806)
Outpt time (%) = 0 (0)
Other time (%) = 2.04738e-05 (25.8941)

Nlocal:    18 ave 18 max 18 min
Histogram: 1 0 0 0 0 0 0 0 0 0
Nghost:    65 ave 65 max 65 min
Histogram: 1 0 0 0 0 0 0 0 0 0
Neighs:    162 ave 162 max 162 min
Histogram: 1 0 0 0 0 0 0 0 0 0

Total # of neighbors = 162
Ave neighs/atom = 9
Neighbor list builds = 0
Dangerous builds = 0
        next i
jump SELF loop1
	read_dump orig.dump 0 x y
  orthogonal box = (0 0 -0.280613) to (3.36736 5.83244 0.280613)
  18 atoms before read
  18 atoms in snapshot
  0 atoms purged
  18 atoms replaced
  0 atoms trimmed
  0 atoms added
  18 atoms after read
        variable stretch equal 1+$i*${strainstep}
        variable stretch equal 1+18*${strainstep}
        variable stretch equal 1+18*-0.0005
        change_box all ${direction} scale ${stretch} remap
        change_box all y scale ${stretch} remap
        change_box all y scale 0.991 remap
  orthogonal box = (0 0.026246 -0.280613) to (3.36736 5.80619 0.280613)
        min_style ${style}
        min_style hftn
        minimize ${etol} ${ftol} ${maxiter} ${maxeval}
        minimize 1e-12 ${ftol} ${maxiter} ${maxeval}
        minimize 1e-12 1e-08 ${maxiter} ${maxeval}
        minimize 1e-12 1e-08 10000 ${maxeval}
        minimize 1e-12 1e-08 10000 20000
WARNING: Resetting reneighboring criteria during minimization (../min.cpp:168)
Memory usage per processor = 4.85099 Mbytes
Step PotEng Pxx Pyy Pxy Lx Ly Lz 
       0   -53.973968   0.10119743   0.29743456 7.1923943e-17      3.36736     5.779948   0.56122687 
       1   -53.973968   0.10119743   0.29743456 8.9334646e-17      3.36736     5.779948   0.56122687 
Loop time of 6.19116e-05 on 1 procs for 0 steps with 18 atoms

Minimization stats:
  Stopping criterion = force tolerance
  Energy initial, next-to-last, final = 
        -53.9739679813     -53.9739679813     -53.9739679813
  Force two-norm initial, final = 0.000903594 2.19444e-09
  Force max component initial, final = 0.000227807 6.75016e-10
  Final line search alpha, max atom move = 0 0
  Iterations, force evaluations = 0 7

Pair  time (%) = 3.50545e-05 (56.6202)
Neigh time (%) = 0 (0)
Comm  time (%) = 1.00218e-05 (16.1873)
Outpt time (%) = 0 (0)
Other time (%) = 1.68353e-05 (27.1924)

Nlocal:    18 ave 18 max 18 min
Histogram: 1 0 0 0 0 0 0 0 0 0
Nghost:    65 ave 65 max 65 min
Histogram: 1 0 0 0 0 0 0 0 0 0
Neighs:    162 ave 162 max 162 min
Histogram: 1 0 0 0 0 0 0 0 0 0

Total # of neighbors = 162
Ave neighs/atom = 9
Neighbor list builds = 0
Dangerous builds = 0
        next i
jump SELF loop1
	read_dump orig.dump 0 x y
  orthogonal box = (0 0 -0.280613) to (3.36736 5.83244 0.280613)
  18 atoms before read
  18 atoms in snapshot
  0 atoms purged
  18 atoms replaced
  0 atoms trimmed
  0 atoms added
  18 atoms after read
        variable stretch equal 1+$i*${strainstep}
        variable stretch equal 1+19*${strainstep}
        variable stretch equal 1+19*-0.0005
        change_box all ${direction} scale ${stretch} remap
        change_box all y scale ${stretch} remap
        change_box all y scale 0.9905 remap
  orthogonal box = (0 0.0277041 -0.280613) to (3.36736 5.80474 0.280613)
        min_style ${style}
        min_style hftn
        minimize ${etol} ${ftol} ${maxiter} ${maxeval}
        minimize 1e-12 ${ftol} ${maxiter} ${maxeval}
        minimize 1e-12 1e-08 ${maxiter} ${maxeval}
        minimize 1e-12 1e-08 10000 ${maxeval}
        minimize 1e-12 1e-08 10000 20000
WARNING: Resetting reneighboring criteria during minimization (../min.cpp:168)
Memory usage per processor = 4.85099 Mbytes
Step PotEng Pxx Pyy Pxy Lx Ly Lz 
       0   -53.970951   0.10712432   0.31457856 -8.5216452e-17      3.36736    5.7770318   0.56122687 
       1   -53.970951   0.10712432   0.31457857 -1.1464372e-17      3.36736    5.7770318   0.56122687 
Loop time of 6.09818e-05 on 1 procs for 0 steps with 18 atoms

Minimization stats:
  Stopping criterion = force tolerance
  Energy initial, next-to-last, final = 
         -53.970950598      -53.970950598     -53.9709505979
  Force two-norm initial, final = 0.000908076 2.20754e-09
  Force max component initial, final = 0.000229129 6.79337e-10
  Final line search alpha, max atom move = 0 0
  Iterations, force evaluations = 0 7

Pair  time (%) = 3.52386e-05 (57.7854)
Neigh time (%) = 0 (0)
Comm  time (%) = 5.39015e-06 (8.83894)
Outpt time (%) = 0 (0)
Other time (%) = 2.03531e-05 (33.3757)

Nlocal:    18 ave 18 max 18 min
Histogram: 1 0 0 0 0 0 0 0 0 0
Nghost:    65 ave 65 max 65 min
Histogram: 1 0 0 0 0 0 0 0 0 0
Neighs:    162 ave 162 max 162 min
Histogram: 1 0 0 0 0 0 0 0 0 0

Total # of neighbors = 162
Ave neighs/atom = 9
Neighbor list builds = 0
Dangerous builds = 0
        next i
jump SELF loop1
	read_dump orig.dump 0 x y
  orthogonal box = (0 0 -0.280613) to (3.36736 5.83244 0.280613)
  18 atoms before read
  18 atoms in snapshot
  0 atoms purged
  18 atoms replaced
  0 atoms trimmed
  0 atoms added
  18 atoms after read
        variable stretch equal 1+$i*${strainstep}
        variable stretch equal 1+20*${strainstep}
        variable stretch equal 1+20*-0.0005
        change_box all ${direction} scale ${stretch} remap
        change_box all y scale ${stretch} remap
        change_box all y scale 0.99 remap
  orthogonal box = (0 0.0291622 -0.280613) to (3.36736 5.80328 0.280613)
        min_style ${style}
        min_style hftn
        minimize ${etol} ${ftol} ${maxiter} ${maxeval}
        minimize 1e-12 ${ftol} ${maxiter} ${maxeval}
        minimize 1e-12 1e-08 ${maxiter} ${maxeval}
        minimize 1e-12 1e-08 10000 ${maxeval}
        minimize 1e-12 1e-08 10000 20000
WARNING: Resetting reneighboring criteria during minimization (../min.cpp:168)
Memory usage per processor = 4.85099 Mbytes
Step PotEng Pxx Pyy Pxy Lx Ly Lz 
       0   -53.967795   0.11308043   0.33177346 -1.0019524e-16      3.36736    5.7741156   0.56122687 
       1   -53.967795   0.11308043   0.33177346 -5.8410279e-18      3.36736    5.7741156   0.56122687 
Loop time of 6.20453e-05 on 1 procs for 0 steps with 18 atoms

Minimization stats:
  Stopping criterion = force tolerance
  Energy initial, next-to-last, final = 
        -53.9677952481     -53.9677952481     -53.9677952481
  Force two-norm initial, final = 0.000912568 2.22086e-09
  Force max component initial, final = 0.000230453 6.83607e-10
  Final line search alpha, max atom move = 0 0
  Iterations, force evaluations = 0 7

Pair  time (%) = 3.70237e-05 (59.672)
Neigh time (%) = 0 (0)
Comm  time (%) = 5.52996e-06 (8.91278)
Outpt time (%) = 0 (0)
Other time (%) = 1.94917e-05 (31.4152)

Nlocal:    18 ave 18 max 18 min
Histogram: 1 0 0 0 0 0 0 0 0 0
Nghost:    65 ave 65 max 65 min
Histogram: 1 0 0 0 0 0 0 0 0 0
Neighs:    162 ave 162 max 162 min
Histogram: 1 0 0 0 0 0 0 0 0 0

Total # of neighbors = 162
Ave neighs/atom = 9
Neighbor list builds = 0
Dangerous builds = 0
        next i
jump SELF loop1
	read_dump orig.dump 0 x y
  orthogonal box = (0 0 -0.280613) to (3.36736 5.83244 0.280613)
  18 atoms before read
  18 atoms in snapshot
  0 atoms purged
  18 atoms replaced
  0 atoms trimmed
  0 atoms added
  18 atoms after read
        variable stretch equal 1+$i*${strainstep}
        variable stretch equal 1+21*${strainstep}
        variable stretch equal 1+21*-0.0005
        change_box all ${direction} scale ${stretch} remap
        change_box all y scale ${stretch} remap
        change_box all y scale 0.9895 remap
  orthogonal box = (0 0.0306203 -0.280613) to (3.36736 5.80182 0.280613)
        min_style ${style}
        min_style hftn
        minimize ${etol} ${ftol} ${maxiter} ${maxeval}
        minimize 1e-12 ${ftol} ${maxiter} ${maxeval}
        minimize 1e-12 1e-08 ${maxiter} ${maxeval}
        minimize 1e-12 1e-08 10000 ${maxeval}
        minimize 1e-12 1e-08 10000 20000
WARNING: Resetting reneighboring criteria during minimization (../min.cpp:168)
Memory usage per processor = 4.85099 Mbytes
Step PotEng Pxx Pyy Pxy Lx Ly Lz 
       0   -53.964459   0.11907375   0.34904244 -1.3235567e-16      3.36736    5.7711994   0.56122687 
       1   -53.964459   0.11907375   0.34904244 -6.4495775e-17      3.36736    5.7711994   0.56122687 
Loop time of 6.10432e-05 on 1 procs for 0 steps with 18 atoms

Minimization stats:
  Stopping criterion = force tolerance
  Energy initial, next-to-last, final = 
        -53.9644594348     -53.9644594348     -53.9644594348
  Force two-norm initial, final = 0.000911033 2.21782e-09
  Force max component initial, final = 0.000229984 6.8267e-10
  Final line search alpha, max atom move = 0 0
  Iterations, force evaluations = 0 7

Pair  time (%) = 3.47754e-05 (56.9684)
Neigh time (%) = 0 (0)
Comm  time (%) = 5.41739e-06 (8.87468)
Outpt time (%) = 0 (0)
Other time (%) = 2.08504e-05 (34.1569)

Nlocal:    18 ave 18 max 18 min
Histogram: 1 0 0 0 0 0 0 0 0 0
Nghost:    65 ave 65 max 65 min
Histogram: 1 0 0 0 0 0 0 0 0 0
Neighs:    162 ave 162 max 162 min
Histogram: 1 0 0 0 0 0 0 0 0 0

Total # of neighbors = 162
Ave neighs/atom = 9
Neighbor list builds = 0
Dangerous builds = 0
        next i
jump SELF loop1
	read_dump orig.dump 0 x y
  orthogonal box = (0 0 -0.280613) to (3.36736 5.83244 0.280613)
  18 atoms before read
  18 atoms in snapshot
  0 atoms purged
  18 atoms replaced
  0 atoms trimmed
  0 atoms added
  18 atoms after read
        variable stretch equal 1+$i*${strainstep}
        variable stretch equal 1+22*${strainstep}
        variable stretch equal 1+22*-0.0005
        change_box all ${direction} scale ${stretch} remap
        change_box all y scale ${stretch} remap
        change_box all y scale 0.989 remap
  orthogonal box = (0 0.0320784 -0.280613) to (3.36736 5.80036 0.280613)
        min_style ${style}
        min_style hftn
        minimize ${etol} ${ftol} ${maxiter} ${maxeval}
        minimize 1e-12 ${ftol} ${maxiter} ${maxeval}
        minimize 1e-12 1e-08 ${maxiter} ${maxeval}
        minimize 1e-12 1e-08 10000 ${maxeval}
        minimize 1e-12 1e-08 10000 20000
WARNING: Resetting reneighboring criteria during minimization (../min.cpp:168)
Memory usage per processor = 4.85099 Mbytes
Step PotEng Pxx Pyy Pxy Lx Ly Lz 
       0   -53.960923   0.12510824    0.3663968 3.8536737e-16      3.36736    5.7682832   0.56122687 
       1   -53.960923   0.12510824    0.3663968 7.1541911e-17      3.36736    5.7682832   0.56122687 
Loop time of 0.000714926 on 1 procs for 0 steps with 18 atoms

Minimization stats:
  Stopping criterion = force tolerance
  Energy initial, next-to-last, final = 
        -53.9609230205     -53.9609230205     -53.9609230204
  Force two-norm initial, final = 0.000915562 2.23153e-09
  Force max component initial, final = 0.000231318 6.87256e-10
  Final line search alpha, max atom move = 0 0
  Iterations, force evaluations = 0 7

Pair  time (%) = 0.000684891 (95.7988)
Neigh time (%) = 0 (0)
Comm  time (%) = 6.2891e-06 (0.879686)
Outpt time (%) = 0 (0)
Other time (%) = 2.37463e-05 (3.3215)

Nlocal:    18 ave 18 max 18 min
Histogram: 1 0 0 0 0 0 0 0 0 0
Nghost:    65 ave 65 max 65 min
Histogram: 1 0 0 0 0 0 0 0 0 0
Neighs:    162 ave 162 max 162 min
Histogram: 1 0 0 0 0 0 0 0 0 0

Total # of neighbors = 162
Ave neighs/atom = 9
Neighbor list builds = 0
Dangerous builds = 0
        next i
jump SELF loop1
	read_dump orig.dump 0 x y
  orthogonal box = (0 0 -0.280613) to (3.36736 5.83244 0.280613)
  18 atoms before read
  18 atoms in snapshot
  0 atoms purged
  18 atoms replaced
  0 atoms trimmed
  0 atoms added
  18 atoms after read
        variable stretch equal 1+$i*${strainstep}
        variable stretch equal 1+23*${strainstep}
        variable stretch equal 1+23*-0.0005
        change_box all ${direction} scale ${stretch} remap
        change_box all y scale ${stretch} remap
        change_box all y scale 0.9885 remap
  orthogonal box = (0 0.0335365 -0.280613) to (3.36736 5.7989 0.280613)
        min_style ${style}
        min_style hftn
        minimize ${etol} ${ftol} ${maxiter} ${maxeval}
        minimize 1e-12 ${ftol} ${maxiter} ${maxeval}
        minimize 1e-12 1e-08 ${maxiter} ${maxeval}
        minimize 1e-12 1e-08 10000 ${maxeval}
        minimize 1e-12 1e-08 10000 20000
WARNING: Resetting reneighboring criteria during minimization (../min.cpp:168)
Memory usage per processor = 4.85099 Mbytes
Step PotEng Pxx Pyy Pxy Lx Ly Lz 
       0   -53.957247   0.13117232   0.38380229 -6.1095763e-18      3.36736    5.7653669   0.56122687 
       1   -53.957247   0.13117232   0.38380229 2.6427827e-16      3.36736    5.7653669   0.56122687 
Loop time of 5.60551e-05 on 1 procs for 0 steps with 18 atoms

Minimization stats:
  Stopping criterion = force tolerance
  Energy initial, next-to-last, final = 
        -53.9572473246     -53.9572473246     -53.9572473246
  Force two-norm initial, final = 0.000920095 2.24466e-09
  Force max component initial, final = 0.000232653 6.91518e-10
  Final line search alpha, max atom move = 0 0
  Iterations, force evaluations = 0 7

Pair  time (%) = 3.09381e-05 (55.1922)
Neigh time (%) = 0 (0)
Comm  time (%) = 4.55754e-06 (8.13046)
Outpt time (%) = 0 (0)
Other time (%) = 2.05595e-05 (36.6773)

Nlocal:    18 ave 18 max 18 min
Histogram: 1 0 0 0 0 0 0 0 0 0
Nghost:    65 ave 65 max 65 min
Histogram: 1 0 0 0 0 0 0 0 0 0
Neighs:    162 ave 162 max 162 min
Histogram: 1 0 0 0 0 0 0 0 0 0

Total # of neighbors = 162
Ave neighs/atom = 9
Neighbor list builds = 0
Dangerous builds = 0
        next i
jump SELF loop1
	read_dump orig.dump 0 x y
  orthogonal box = (0 0 -0.280613) to (3.36736 5.83244 0.280613)
  18 atoms before read
  18 atoms in snapshot
  0 atoms purged
  18 atoms replaced
  0 atoms trimmed
  0 atoms added
  18 atoms after read
        variable stretch equal 1+$i*${strainstep}
        variable stretch equal 1+24*${strainstep}
        variable stretch equal 1+24*-0.0005
        change_box all ${direction} scale ${stretch} remap
        change_box all y scale ${stretch} remap
        change_box all y scale 0.988 remap
  orthogonal box = (0 0.0349946 -0.280613) to (3.36736 5.79745 0.280613)
        min_style ${style}
        min_style hftn
        minimize ${etol} ${ftol} ${maxiter} ${maxeval}
        minimize 1e-12 ${ftol} ${maxiter} ${maxeval}
        minimize 1e-12 1e-08 ${maxiter} ${maxeval}
        minimize 1e-12 1e-08 10000 ${maxeval}
        minimize 1e-12 1e-08 10000 20000
WARNING: Resetting reneighboring criteria during minimization (../min.cpp:168)
Memory usage per processor = 4.85099 Mbytes
Step PotEng Pxx Pyy Pxy Lx Ly Lz 
       0   -53.953425    0.1372673   0.40126249 2.4822238e-17      3.36736    5.7624507   0.56122687 
       1   -53.953425    0.1372673   0.40126249 -2.746985e-16      3.36736    5.7624507   0.56122687 
Loop time of 5.60938e-05 on 1 procs for 0 steps with 18 atoms

Minimization stats:
  Stopping criterion = force tolerance
  Energy initial, next-to-last, final = 
        -53.9534254236     -53.9534254236     -53.9534254236
  Force two-norm initial, final = 0.00091854 2.24148e-09
  Force max component initial, final = 0.000232178 6.90524e-10
  Final line search alpha, max atom move = 0 0
  Iterations, force evaluations = 0 7

Pair  time (%) = 3.21085e-05 (57.2408)
Neigh time (%) = 0 (0)
Comm  time (%) = 5.56023e-06 (9.91238)
Outpt time (%) = 0 (0)
Other time (%) = 1.84251e-05 (32.8469)

Nlocal:    18 ave 18 max 18 min
Histogram: 1 0 0 0 0 0 0 0 0 0
Nghost:    65 ave 65 max 65 min
Histogram: 1 0 0 0 0 0 0 0 0 0
Neighs:    162 ave 162 max 162 min
Histogram: 1 0 0 0 0 0 0 0 0 0

Total # of neighbors = 162
Ave neighs/atom = 9
Neighbor list builds = 0
Dangerous builds = 0
        next i
jump SELF loop1
	read_dump orig.dump 0 x y
  orthogonal box = (0 0 -0.280613) to (3.36736 5.83244 0.280613)
  18 atoms before read
  18 atoms in snapshot
  0 atoms purged
  18 atoms replaced
  0 atoms trimmed
  0 atoms added
  18 atoms after read
        variable stretch equal 1+$i*${strainstep}
        variable stretch equal 1+25*${strainstep}
        variable stretch equal 1+25*-0.0005
        change_box all ${direction} scale ${stretch} remap
        change_box all y scale ${stretch} remap
        change_box all y scale 0.9875 remap
  orthogonal box = (0 0.0364527 -0.280613) to (3.36736 5.79599 0.280613)
        min_style ${style}
        min_style hftn
        minimize ${etol} ${ftol} ${maxiter} ${maxeval}
        minimize 1e-12 ${ftol} ${maxiter} ${maxeval}
        minimize 1e-12 1e-08 ${maxiter} ${maxeval}
        minimize 1e-12 1e-08 10000 ${maxeval}
        minimize 1e-12 1e-08 10000 20000
WARNING: Resetting reneighboring criteria during minimization (../min.cpp:168)
Memory usage per processor = 4.85099 Mbytes
Step PotEng Pxx Pyy Pxy Lx Ly Lz 
       0   -53.949364   0.14341087   0.41882893 6.0207285e-18      3.36736    5.7595345   0.56122687 
       1   -53.949364   0.14341087   0.41882893 1.5010174e-16      3.36736    5.7595345   0.56122687 
Loop time of 5.60534e-05 on 1 procs for 0 steps with 18 atoms

Minimization stats:
  Stopping criterion = force tolerance
  Energy initial, next-to-last, final = 
        -53.9493639011     -53.9493639011     -53.9493639011
  Force two-norm initial, final = 0.000923114 2.2549e-09
  Force max component initial, final = 0.000233524 6.94966e-10
  Final line search alpha, max atom move = 0 0
  Iterations, force evaluations = 0 7

Pair  time (%) = 3.06924e-05 (54.7557)
Neigh time (%) = 0 (0)
Comm  time (%) = 5.06605e-06 (9.03789)
Outpt time (%) = 0 (0)
Other time (%) = 2.02949e-05 (36.2064)

Nlocal:    18 ave 18 max 18 min
Histogram: 1 0 0 0 0 0 0 0 0 0
Nghost:    65 ave 65 max 65 min
Histogram: 1 0 0 0 0 0 0 0 0 0
Neighs:    162 ave 162 max 162 min
Histogram: 1 0 0 0 0 0 0 0 0 0

Total # of neighbors = 162
Ave neighs/atom = 9
Neighbor list builds = 0
Dangerous builds = 0
        next i
jump SELF loop1
	read_dump orig.dump 0 x y
  orthogonal box = (0 0 -0.280613) to (3.36736 5.83244 0.280613)
  18 atoms before read
  18 atoms in snapshot
  0 atoms purged
  18 atoms replaced
  0 atoms trimmed
  0 atoms added
  18 atoms after read
        variable stretch equal 1+$i*${strainstep}
        variable stretch equal 1+26*${strainstep}
        variable stretch equal 1+26*-0.0005
        change_box all ${direction} scale ${stretch} remap
        change_box all y scale ${stretch} remap
        change_box all y scale 0.987 remap
  orthogonal box = (0 0.0379109 -0.280613) to (3.36736 5.79453 0.280613)
        min_style ${style}
        min_style hftn
        minimize ${etol} ${ftol} ${maxiter} ${maxeval}
        minimize 1e-12 ${ftol} ${maxiter} ${maxeval}
        minimize 1e-12 1e-08 ${maxiter} ${maxeval}
        minimize 1e-12 1e-08 10000 ${maxeval}
        minimize 1e-12 1e-08 10000 20000
WARNING: Resetting reneighboring criteria during minimization (../min.cpp:168)
Memory usage per processor = 4.85099 Mbytes
Step PotEng Pxx Pyy Pxy Lx Ly Lz 
       0   -53.945162   0.14958444   0.43644686 8.9970753e-17      3.36736    5.7566183   0.56122687 
       1   -53.945162   0.14958444   0.43644686 1.4981422e-16      3.36736    5.7566183   0.56122687 
Loop time of 5.50593e-05 on 1 procs for 0 steps with 18 atoms

Minimization stats:
  Stopping criterion = force tolerance
  Energy initial, next-to-last, final = 
        -53.9451615163     -53.9451615163     -53.9451615162
  Force two-norm initial, final = 0.000927703 2.26892e-09
  Force max component initial, final = 0.000234873 6.99573e-10
  Final line search alpha, max atom move = 0 0
  Iterations, force evaluations = 0 7

Pair  time (%) = 3.18323e-05 (57.8145)
Neigh time (%) = 0 (0)
Comm  time (%) = 5.72321e-06 (10.3946)
Outpt time (%) = 0 (0)
Other time (%) = 1.75039e-05 (31.7909)

Nlocal:    18 ave 18 max 18 min
Histogram: 1 0 0 0 0 0 0 0 0 0
Nghost:    65 ave 65 max 65 min
Histogram: 1 0 0 0 0 0 0 0 0 0
Neighs:    162 ave 162 max 162 min
Histogram: 1 0 0 0 0 0 0 0 0 0

Total # of neighbors = 162
Ave neighs/atom = 9
Neighbor list builds = 0
Dangerous builds = 0
        next i
jump SELF loop1
	read_dump orig.dump 0 x y
  orthogonal box = (0 0 -0.280613) to (3.36736 5.83244 0.280613)
  18 atoms before read
  18 atoms in snapshot
  0 atoms purged
  18 atoms replaced
  0 atoms trimmed
  0 atoms added
  18 atoms after read
        variable stretch equal 1+$i*${strainstep}
        variable stretch equal 1+27*${strainstep}
        variable stretch equal 1+27*-0.0005
        change_box all ${direction} scale ${stretch} remap
        change_box all y scale ${stretch} remap
        change_box all y scale 0.9865 remap
  orthogonal box = (0 0.039369 -0.280613) to (3.36736 5.79307 0.280613)
        min_style ${style}
        min_style hftn
        minimize ${etol} ${ftol} ${maxiter} ${maxeval}
        minimize 1e-12 ${ftol} ${maxiter} ${maxeval}
        minimize 1e-12 1e-08 ${maxiter} ${maxeval}
        minimize 1e-12 1e-08 10000 ${maxeval}
        minimize 1e-12 1e-08 10000 20000
WARNING: Resetting reneighboring criteria during minimization (../min.cpp:168)
Memory usage per processor = 4.85099 Mbytes
Step PotEng Pxx Pyy Pxy Lx Ly Lz 
       0   -53.940818   0.15578802   0.45411606 -2.9319948e-17      3.36736    5.7537021   0.56122687 
       1   -53.940818   0.15578802   0.45411606 -8.3844028e-17      3.36736    5.7537021   0.56122687 
Loop time of 0.000111001 on 1 procs for 0 steps with 18 atoms

Minimization stats:
  Stopping criterion = force tolerance
  Energy initial, next-to-last, final = 
        -53.9408183908     -53.9408183908     -53.9408183908
  Force two-norm initial, final = 0.000932306 2.28199e-09
  Force max component initial, final = 0.000236225 7.03821e-10
  Final line search alpha, max atom move = 0 0
  Iterations, force evaluations = 0 7

Pair  time (%) = 6.45501e-05 (58.1525)
Neigh time (%) = 0 (0)
Comm  time (%) = 5.87967e-06 (5.29693)
Outpt time (%) = 0 (0)
Other time (%) = 4.05717e-05 (36.5506)

Nlocal:    18 ave 18 max 18 min
Histogram: 1 0 0 0 0 0 0 0 0 0
Nghost:    65 ave 65 max 65 min
Histogram: 1 0 0 0 0 0 0 0 0 0
Neighs:    162 ave 162 max 162 min
Histogram: 1 0 0 0 0 0 0 0 0 0

Total # of neighbors = 162
Ave neighs/atom = 9
Neighbor list builds = 0
Dangerous builds = 0
        next i
jump SELF loop1
	read_dump orig.dump 0 x y
  orthogonal box = (0 0 -0.280613) to (3.36736 5.83244 0.280613)
  18 atoms before read
  18 atoms in snapshot
  0 atoms purged
  18 atoms replaced
  0 atoms trimmed
  0 atoms added
  18 atoms after read
        variable stretch equal 1+$i*${strainstep}
        variable stretch equal 1+28*${strainstep}
        variable stretch equal 1+28*-0.0005
        change_box all ${direction} scale ${stretch} remap
        change_box all y scale ${stretch} remap
        change_box all y scale 0.986 remap
  orthogonal box = (0 0.0408271 -0.280613) to (3.36736 5.79161 0.280613)
        min_style ${style}
        min_style hftn
        minimize ${etol} ${ftol} ${maxiter} ${maxeval}
        minimize 1e-12 ${ftol} ${maxiter} ${maxeval}
        minimize 1e-12 1e-08 ${maxiter} ${maxeval}
        minimize 1e-12 1e-08 10000 ${maxeval}
        minimize 1e-12 1e-08 10000 20000
WARNING: Resetting reneighboring criteria during minimization (../min.cpp:168)
Memory usage per processor = 4.85099 Mbytes
Step PotEng Pxx Pyy Pxy Lx Ly Lz 
       0   -53.936254   0.16203668   0.47188027 -5.748549e-17      3.36736    5.7507858   0.56122687 
       1   -53.936254   0.16203668   0.47188027 -2.6773374e-17      3.36736    5.7507858   0.56122687 
Loop time of 6.39054e-05 on 1 procs for 0 steps with 18 atoms

Minimization stats:
  Stopping criterion = force tolerance
  Energy initial, next-to-last, final = 
        -53.9362541115     -53.9362541115     -53.9362541114
  Force two-norm initial, final = 0.000930719 2.2791e-09
  Force max component initial, final = 0.000235742 7.0308e-10
  Final line search alpha, max atom move = 0 0
  Iterations, force evaluations = 0 7

Pair  time (%) = 3.68792e-05 (57.7091)
Neigh time (%) = 0 (0)
Comm  time (%) = 7.24057e-06 (11.3301)
Outpt time (%) = 0 (0)
Other time (%) = 1.97856e-05 (30.9608)

Nlocal:    18 ave 18 max 18 min
Histogram: 1 0 0 0 0 0 0 0 0 0
Nghost:    65 ave 65 max 65 min
Histogram: 1 0 0 0 0 0 0 0 0 0
Neighs:    162 ave 162 max 162 min
Histogram: 1 0 0 0 0 0 0 0 0 0

Total # of neighbors = 162
Ave neighs/atom = 9
Neighbor list builds = 0
Dangerous builds = 0
        next i
jump SELF loop1
	read_dump orig.dump 0 x y
  orthogonal box = (0 0 -0.280613) to (3.36736 5.83244 0.280613)
  18 atoms before read
  18 atoms in snapshot
  0 atoms purged
  18 atoms replaced
  0 atoms trimmed
  0 atoms added
  18 atoms after read
        variable stretch equal 1+$i*${strainstep}
        variable stretch equal 1+29*${strainstep}
        variable stretch equal 1+29*-0.0005
        change_box all ${direction} scale ${stretch} remap
        change_box all y scale ${stretch} remap
        change_box all y scale 0.9855 remap
  orthogonal box = (0 0.0422852 -0.280613) to (3.36736 5.79015 0.280613)
        min_style ${style}
        min_style hftn
        minimize ${etol} ${ftol} ${maxiter} ${maxeval}
        minimize 1e-12 ${ftol} ${maxiter} ${maxeval}
        minimize 1e-12 1e-08 ${maxiter} ${maxeval}
        minimize 1e-12 1e-08 10000 ${maxeval}
        minimize 1e-12 1e-08 10000 20000
WARNING: Resetting reneighboring criteria during minimization (../min.cpp:168)
Memory usage per processor = 4.85099 Mbytes
Step PotEng Pxx Pyy Pxy Lx Ly Lz 
       0   -53.931519   0.16832116   0.48971212 3.1328193e-16      3.36736    5.7478696   0.56122687 
       1   -53.931519   0.16832116   0.48971212 5.3890407e-17      3.36736    5.7478696   0.56122687 
Loop time of 5.90137e-05 on 1 procs for 0 steps with 18 atoms

Minimization stats:
  Stopping criterion = force tolerance
  Energy initial, next-to-last, final = 
          -53.93151897       -53.93151897       -53.93151897
  Force two-norm initial, final = 0.000935366 2.29254e-09
  Force max component initial, final = 0.000237106 7.07522e-10
  Final line search alpha, max atom move = 0 0
  Iterations, force evaluations = 0 7

Pair  time (%) = 3.20629e-05 (54.3312)
Neigh time (%) = 0 (0)
Comm  time (%) = 5.09189e-06 (8.62832)
Outpt time (%) = 0 (0)
Other time (%) = 2.1859e-05 (37.0405)

Nlocal:    18 ave 18 max 18 min
Histogram: 1 0 0 0 0 0 0 0 0 0
Nghost:    65 ave 65 max 65 min
Histogram: 1 0 0 0 0 0 0 0 0 0
Neighs:    162 ave 162 max 162 min
Histogram: 1 0 0 0 0 0 0 0 0 0

Total # of neighbors = 162
Ave neighs/atom = 9
Neighbor list builds = 0
Dangerous builds = 0
        next i
jump SELF loop1
	read_dump orig.dump 0 x y
  orthogonal box = (0 0 -0.280613) to (3.36736 5.83244 0.280613)
  18 atoms before read
  18 atoms in snapshot
  0 atoms purged
  18 atoms replaced
  0 atoms trimmed
  0 atoms added
  18 atoms after read
        variable stretch equal 1+$i*${strainstep}
        variable stretch equal 1+30*${strainstep}
        variable stretch equal 1+30*-0.0005
        change_box all ${direction} scale ${stretch} remap
        change_box all y scale ${stretch} remap
        change_box all y scale 0.985 remap
  orthogonal box = (0 0.0437433 -0.280613) to (3.36736 5.7887 0.280613)
        min_style ${style}
        min_style hftn
        minimize ${etol} ${ftol} ${maxiter} ${maxeval}
        minimize 1e-12 ${ftol} ${maxiter} ${maxeval}
        minimize 1e-12 1e-08 ${maxiter} ${maxeval}
        minimize 1e-12 1e-08 10000 ${maxeval}
        minimize 1e-12 1e-08 10000 20000
WARNING: Resetting reneighboring criteria during minimization (../min.cpp:168)
Memory usage per processor = 4.85099 Mbytes
Step PotEng Pxx Pyy Pxy Lx Ly Lz 
       0   -53.926642   0.17463606   0.50759559 -1.4675013e-16      3.36736    5.7449534   0.56122687 
       1   -53.926642   0.17463606   0.50759559 -4.1383375e-17      3.36736    5.7449534   0.56122687 
Loop time of 5.71166e-05 on 1 procs for 0 steps with 18 atoms

Minimization stats:
  Stopping criterion = force tolerance
  Energy initial, next-to-last, final = 
        -53.9266416631     -53.9266416631     -53.9266416631
  Force two-norm initial, final = 0.000940014 2.30673e-09
  Force max component initial, final = 0.00023847 7.12085e-10
  Final line search alpha, max atom move = 0 0
  Iterations, force evaluations = 0 7

Pair  time (%) = 3.29996e-05 (57.7757)
Neigh time (%) = 0 (0)
Comm  time (%) = 7.10401e-06 (12.4377)
Outpt time (%) = 0 (0)
Other time (%) = 1.70131e-05 (29.7865)

Nlocal:    18 ave 18 max 18 min
Histogram: 1 0 0 0 0 0 0 0 0 0
Nghost:    65 ave 65 max 65 min
Histogram: 1 0 0 0 0 0 0 0 0 0
Neighs:    162 ave 162 max 162 min
Histogram: 1 0 0 0 0 0 0 0 0 0

Total # of neighbors = 162
Ave neighs/atom = 9
Neighbor list builds = 0
Dangerous builds = 0
        next i
jump SELF loop1
	read_dump orig.dump 0 x y
  orthogonal box = (0 0 -0.280613) to (3.36736 5.83244 0.280613)
  18 atoms before read
  18 atoms in snapshot
  0 atoms purged
  18 atoms replaced
  0 atoms trimmed
  0 atoms added
  18 atoms after read
        variable stretch equal 1+$i*${strainstep}
        variable stretch equal 1+31*${strainstep}
        variable stretch equal 1+31*-0.0005
        change_box all ${direction} scale ${stretch} remap
        change_box all y scale ${stretch} remap
        change_box all y scale 0.9845 remap
  orthogonal box = (0 0.0452014 -0.280613) to (3.36736 5.78724 0.280613)
        min_style ${style}
        min_style hftn
        minimize ${etol} ${ftol} ${maxiter} ${maxeval}
        minimize 1e-12 ${ftol} ${maxiter} ${maxeval}
        minimize 1e-12 1e-08 ${maxiter} ${maxeval}
        minimize 1e-12 1e-08 10000 ${maxeval}
        minimize 1e-12 1e-08 10000 20000
WARNING: Resetting reneighboring criteria during minimization (../min.cpp:168)
Memory usage per processor = 4.85099 Mbytes
Step PotEng Pxx Pyy Pxy Lx Ly Lz 
       0   -53.921575   0.18099013   0.52555589 1.4270609e-18      3.36736    5.7420372   0.56122687 
       1   -53.921575   0.18099013   0.52555589 -1.1619752e-16      3.36736    5.7420372   0.56122687 
Loop time of 5.71022e-05 on 1 procs for 0 steps with 18 atoms

Minimization stats:
  Stopping criterion = force tolerance
  Energy initial, next-to-last, final = 
        -53.9215754943     -53.9215754943     -53.9215754942
  Force two-norm initial, final = 0.000938407 2.30304e-09
  Force max component initial, final = 0.000237981 7.10825e-10
  Final line search alpha, max atom move = 0 0
  Iterations, force evaluations = 0 7

Pair  time (%) = 3.48374e-05 (61.0089)
Neigh time (%) = 0 (0)
Comm  time (%) = 6.87258e-06 (12.0356)
Outpt time (%) = 0 (0)
Other time (%) = 1.53922e-05 (26.9555)

Nlocal:    18 ave 18 max 18 min
Histogram: 1 0 0 0 0 0 0 0 0 0
Nghost:    65 ave 65 max 65 min
Histogram: 1 0 0 0 0 0 0 0 0 0
Neighs:    162 ave 162 max 162 min
Histogram: 1 0 0 0 0 0 0 0 0 0

Total # of neighbors = 162
Ave neighs/atom = 9
Neighbor list builds = 0
Dangerous builds = 0
        next i
jump SELF loop1
	read_dump orig.dump 0 x y
  orthogonal box = (0 0 -0.280613) to (3.36736 5.83244 0.280613)
  18 atoms before read
  18 atoms in snapshot
  0 atoms purged
  18 atoms replaced
  0 atoms trimmed
  0 atoms added
  18 atoms after read
        variable stretch equal 1+$i*${strainstep}
        variable stretch equal 1+32*${strainstep}
        variable stretch equal 1+32*-0.0005
        change_box all ${direction} scale ${stretch} remap
        change_box all y scale ${stretch} remap
        change_box all y scale 0.984 remap
  orthogonal box = (0 0.0466595 -0.280613) to (3.36736 5.78578 0.280613)
        min_style ${style}
        min_style hftn
        minimize ${etol} ${ftol} ${maxiter} ${maxeval}
        minimize 1e-12 ${ftol} ${maxiter} ${maxeval}
        minimize 1e-12 1e-08 ${maxiter} ${maxeval}
        minimize 1e-12 1e-08 10000 ${maxeval}
        minimize 1e-12 1e-08 10000 20000
WARNING: Resetting reneighboring criteria during minimization (../min.cpp:168)
Memory usage per processor = 4.85099 Mbytes
Step PotEng Pxx Pyy Pxy Lx Ly Lz 
       0   -53.916302   0.18738707   0.54360348 2.909093e-16      3.36736     5.739121   0.56122687 
       1   -53.916302   0.18738707   0.54360348 5.1316145e-17      3.36736     5.739121   0.56122687 
Loop time of 5.70018e-05 on 1 procs for 0 steps with 18 atoms

Minimization stats:
  Stopping criterion = force tolerance
  Energy initial, next-to-last, final = 
        -53.9163016116     -53.9163016116     -53.9163016116
  Force two-norm initial, final = 0.000943095 2.31731e-09
  Force max component initial, final = 0.000239356 7.15549e-10
  Final line search alpha, max atom move = 0 0
  Iterations, force evaluations = 0 7

Pair  time (%) = 3.37965e-05 (59.2903)
Neigh time (%) = 0 (0)
Comm  time (%) = 5.93625e-06 (10.4141)
Outpt time (%) = 0 (0)
Other time (%) = 1.7269e-05 (30.2956)

Nlocal:    18 ave 18 max 18 min
Histogram: 1 0 0 0 0 0 0 0 0 0
Nghost:    65 ave 65 max 65 min
Histogram: 1 0 0 0 0 0 0 0 0 0
Neighs:    162 ave 162 max 162 min
Histogram: 1 0 0 0 0 0 0 0 0 0

Total # of neighbors = 162
Ave neighs/atom = 9
Neighbor list builds = 0
Dangerous builds = 0
        next i
jump SELF loop1
	read_dump orig.dump 0 x y
  orthogonal box = (0 0 -0.280613) to (3.36736 5.83244 0.280613)
  18 atoms before read
  18 atoms in snapshot
  0 atoms purged
  18 atoms replaced
  0 atoms trimmed
  0 atoms added
  18 atoms after read
        variable stretch equal 1+$i*${strainstep}
        variable stretch equal 1+33*${strainstep}
        variable stretch equal 1+33*-0.0005
        change_box all ${direction} scale ${stretch} remap
        change_box all y scale ${stretch} remap
        change_box all y scale 0.9835 remap
  orthogonal box = (0 0.0481176 -0.280613) to (3.36736 5.78432 0.280613)
        min_style ${style}
        min_style hftn
        minimize ${etol} ${ftol} ${maxiter} ${maxeval}
        minimize 1e-12 ${ftol} ${maxiter} ${maxeval}
        minimize 1e-12 1e-08 ${maxiter} ${maxeval}
        minimize 1e-12 1e-08 10000 ${maxeval}
        minimize 1e-12 1e-08 10000 20000
WARNING: Resetting reneighboring criteria during minimization (../min.cpp:168)
Memory usage per processor = 4.85099 Mbytes
Step PotEng Pxx Pyy Pxy Lx Ly Lz 
       0   -53.910884    0.1938148   0.56170291 6.5795743e-17      3.36736    5.7362047   0.56122687 
       1   -53.910884    0.1938148   0.56170291 7.994615e-17      3.36736    5.7362047   0.56122687 
Loop time of 5.71004e-05 on 1 procs for 0 steps with 18 atoms

Minimization stats:
  Stopping criterion = force tolerance
  Energy initial, next-to-last, final = 
        -53.9108840534     -53.9108840534     -53.9108840533
  Force two-norm initial, final = 0.000947791 2.33119e-09
  Force max component initial, final = 0.000240732 7.20164e-10
  Final line search alpha, max atom move = 0 0
  Iterations, force evaluations = 0 7

Pair  time (%) = 3.30085e-05 (57.8078)
Neigh time (%) = 0 (0)
Comm  time (%) = 6.07583e-06 (10.6406)
Outpt time (%) = 0 (0)
Other time (%) = 1.80161e-05 (31.5516)

Nlocal:    18 ave 18 max 18 min
Histogram: 1 0 0 0 0 0 0 0 0 0
Nghost:    65 ave 65 max 65 min
Histogram: 1 0 0 0 0 0 0 0 0 0
Neighs:    162 ave 162 max 162 min
Histogram: 1 0 0 0 0 0 0 0 0 0

Total # of neighbors = 162
Ave neighs/atom = 9
Neighbor list builds = 0
Dangerous builds = 0
        next i
jump SELF loop1
	read_dump orig.dump 0 x y
  orthogonal box = (0 0 -0.280613) to (3.36736 5.83244 0.280613)
  18 atoms before read
  18 atoms in snapshot
  0 atoms purged
  18 atoms replaced
  0 atoms trimmed
  0 atoms added
  18 atoms after read
        variable stretch equal 1+$i*${strainstep}
        variable stretch equal 1+34*${strainstep}
        variable stretch equal 1+34*-0.0005
        change_box all ${direction} scale ${stretch} remap
        change_box all y scale ${stretch} remap
        change_box all y scale 0.983 remap
  orthogonal box = (0 0.0495757 -0.280613) to (3.36736 5.78286 0.280613)
        min_style ${style}
        min_style hftn
        minimize ${etol} ${ftol} ${maxiter} ${maxeval}
        minimize 1e-12 ${ftol} ${maxiter} ${maxeval}
        minimize 1e-12 1e-08 ${maxiter} ${maxeval}
        minimize 1e-12 1e-08 10000 ${maxeval}
        minimize 1e-12 1e-08 10000 20000
WARNING: Resetting reneighboring criteria during minimization (../min.cpp:168)
Memory usage per processor = 4.85099 Mbytes
Step PotEng Pxx Pyy Pxy Lx Ly Lz 
       0    -53.90531   0.20027581   0.57986118 1.4537237e-16      3.36736    5.7332885   0.56122687 
       1    -53.90531   0.20027581   0.57986118 2.4906377e-17      3.36736    5.7332885   0.56122687 
Loop time of 5.79074e-05 on 1 procs for 0 steps with 18 atoms

Minimization stats:
  Stopping criterion = force tolerance
  Energy initial, next-to-last, final = 
         -53.905309557      -53.905309557      -53.905309557
  Force two-norm initial, final = 0.000946163 2.32766e-09
  Force max component initial, final = 0.000240237 7.18968e-10
  Final line search alpha, max atom move = 0 0
  Iterations, force evaluations = 0 7

Pair  time (%) = 3.29879e-05 (56.9666)
Neigh time (%) = 0 (0)
Comm  time (%) = 6.08084e-06 (10.501)
Outpt time (%) = 0 (0)
Other time (%) = 1.88387e-05 (32.5324)

Nlocal:    18 ave 18 max 18 min
Histogram: 1 0 0 0 0 0 0 0 0 0
Nghost:    65 ave 65 max 65 min
Histogram: 1 0 0 0 0 0 0 0 0 0
Neighs:    162 ave 162 max 162 min
Histogram: 1 0 0 0 0 0 0 0 0 0

Total # of neighbors = 162
Ave neighs/atom = 9
Neighbor list builds = 0
Dangerous builds = 0
        next i
jump SELF loop1
	read_dump orig.dump 0 x y
  orthogonal box = (0 0 -0.280613) to (3.36736 5.83244 0.280613)
  18 atoms before read
  18 atoms in snapshot
  0 atoms purged
  18 atoms replaced
  0 atoms trimmed
  0 atoms added
  18 atoms after read
        variable stretch equal 1+$i*${strainstep}
        variable stretch equal 1+35*${strainstep}
        variable stretch equal 1+35*-0.0005
        change_box all ${direction} scale ${stretch} remap
        change_box all y scale ${stretch} remap
        change_box all y scale 0.9825 remap
  orthogonal box = (0 0.0510338 -0.280613) to (3.36736 5.78141 0.280613)
        min_style ${style}
        min_style hftn
        minimize ${etol} ${ftol} ${maxiter} ${maxeval}
        minimize 1e-12 ${ftol} ${maxiter} ${maxeval}
        minimize 1e-12 1e-08 ${maxiter} ${maxeval}
        minimize 1e-12 1e-08 10000 ${maxeval}
        minimize 1e-12 1e-08 10000 20000
WARNING: Resetting reneighboring criteria during minimization (../min.cpp:168)
Memory usage per processor = 4.85099 Mbytes
Step PotEng Pxx Pyy Pxy Lx Ly Lz 
       0    -53.89949   0.20678673   0.59812621 -7.566177e-17      3.36736    5.7303723   0.56122687 
       1    -53.89949   0.20678673   0.59812621 -2.0375188e-16      3.36736    5.7303723   0.56122687 
Loop time of 5.7006e-05 on 1 procs for 0 steps with 18 atoms

Minimization stats:
  Stopping criterion = force tolerance
  Energy initial, next-to-last, final = 
        -53.8994902743     -53.8994902743     -53.8994902742
  Force two-norm initial, final = 0.000950893 2.34152e-09
  Force max component initial, final = 0.000241623 7.23465e-10
[...]

Pair  time (%) = 3.41843e-05 (57.8942)
Neigh time (%) = 0 (0)
Comm  time (%) = 4.23519e-06 (7.17267)
Outpt time (%) = 0 (0)
Other time (%) = 2.06267e-05 (34.9332)

Nlocal:    18 ave 18 max 18 min
Histogram: 1 0 0 0 0 0 0 0 0 0
Nghost:    65 ave 65 max 65 min
Histogram: 1 0 0 0 0 0 0 0 0 0
Neighs:    162 ave 162 max 162 min
Histogram: 1 0 0 0 0 0 0 0 0 0

Total # of neighbors = 162
Ave neighs/atom = 9
Neighbor list builds = 0
Dangerous builds = 0
        next i
jump SELF loop1
	read_dump orig.dump 0 x y
  orthogonal box = (0 0 -0.280613) to (3.36736 5.83244 0.280613)
  18 atoms before read
  18 atoms in snapshot
  0 atoms purged
  18 atoms replaced
  0 atoms trimmed
  0 atoms added
  18 atoms after read
        variable stretch equal 1+$i*${strainstep}
        variable stretch equal 1+92*${strainstep}
        variable stretch equal 1+92*-0.0005
        change_box all ${direction} scale ${stretch} remap
        change_box all y scale ${stretch} remap
        change_box all y scale 0.954 remap
  orthogonal box = (0 0.134146 -0.280613) to (3.36736 5.69829 0.280613)
        min_style ${style}
        min_style hftn
        minimize ${etol} ${ftol} ${maxiter} ${maxeval}
        minimize 1e-12 ${ftol} ${maxiter} ${maxeval}
        minimize 1e-12 1e-08 ${maxiter} ${maxeval}
        minimize 1e-12 1e-08 10000 ${maxeval}
        minimize 1e-12 1e-08 10000 20000
WARNING: Resetting reneighboring criteria during minimization (../min.cpp:168)
Memory usage per processor = 4.85099 Mbytes
Step PotEng Pxx Pyy Pxy Lx Ly Lz 
       0   -53.250746   0.64540838    1.7614993 -5.5170425e-16      3.36736    5.5641478   0.56122687 
       1   -53.250746   0.64540838    1.7614993 2.4967942e-16      3.36736    5.5641478   0.56122687 
Loop time of 5.88928e-05 on 1 procs for 0 steps with 18 atoms

Minimization stats:
  Stopping criterion = force tolerance
  Energy initial, next-to-last, final = 
        -53.2507460953     -53.2507460953     -53.2507460951
  Force two-norm initial, final = 0.00112079 2.88077e-09
  Force max component initial, final = 0.000290422 9.00922e-10
  Final line search alpha, max atom move = 0 0
  Iterations, force evaluations = 0 7

Pair  time (%) = 3.59173e-05 (60.9876)
Neigh time (%) = 0 (0)
Comm  time (%) = 2.6942e-06 (4.57476)
Outpt time (%) = 0 (0)
Other time (%) = 2.02813e-05 (34.4377)

Nlocal:    18 ave 18 max 18 min
Histogram: 1 0 0 0 0 0 0 0 0 0
Nghost:    65 ave 65 max 65 min
Histogram: 1 0 0 0 0 0 0 0 0 0
Neighs:    162 ave 162 max 162 min
Histogram: 1 0 0 0 0 0 0 0 0 0

Total # of neighbors = 162
Ave neighs/atom = 9
Neighbor list builds = 0
Dangerous builds = 0
        next i
jump SELF loop1
	read_dump orig.dump 0 x y
  orthogonal box = (0 0 -0.280613) to (3.36736 5.83244 0.280613)
  18 atoms before read
  18 atoms in snapshot
  0 atoms purged
  18 atoms replaced
  0 atoms trimmed
  0 atoms added
  18 atoms after read
        variable stretch equal 1+$i*${strainstep}
        variable stretch equal 1+93*${strainstep}
        variable stretch equal 1+93*-0.0005
        change_box all ${direction} scale ${stretch} remap
        change_box all y scale ${stretch} remap
        change_box all y scale 0.9535 remap
  orthogonal box = (0 0.135604 -0.280613) to (3.36736 5.69684 0.280613)
        min_style ${style}
        min_style hftn
        minimize ${etol} ${ftol} ${maxiter} ${maxeval}
        minimize 1e-12 ${ftol} ${maxiter} ${maxeval}
        minimize 1e-12 1e-08 ${maxiter} ${maxeval}
        minimize 1e-12 1e-08 10000 ${maxeval}
        minimize 1e-12 1e-08 10000 20000
WARNING: Resetting reneighboring criteria during minimization (../min.cpp:168)
Memory usage per processor = 4.85099 Mbytes
Step PotEng Pxx Pyy Pxy Lx Ly Lz 
       0   -53.233319    0.6544083    1.7842002 -1.9421845e-16      3.36736    5.5612315   0.56122687 
       1   -53.233319    0.6544083    1.7842002 2.6824448e-16      3.36736    5.5612315   0.56122687 
Loop time of 8.29302e-05 on 1 procs for 0 steps with 18 atoms

Minimization stats:
  Stopping criterion = force tolerance
  Energy initial, next-to-last, final = 
        -53.2333188005     -53.2333188005     -53.2333188003
  Force two-norm initial, final = 0.00112655 2.8984e-09
  Force max component initial, final = 0.000292073 9.06766e-10
  Final line search alpha, max atom move = 0 0
  Iterations, force evaluations = 0 7

Pair  time (%) = 3.2176e-05 (38.7989)
Neigh time (%) = 0 (0)
Comm  time (%) = 1.20796e-05 (14.566)
Outpt time (%) = 0 (0)
Other time (%) = 3.86746e-05 (46.6351)

Nlocal:    18 ave 18 max 18 min
Histogram: 1 0 0 0 0 0 0 0 0 0
Nghost:    65 ave 65 max 65 min
Histogram: 1 0 0 0 0 0 0 0 0 0
Neighs:    162 ave 162 max 162 min
Histogram: 1 0 0 0 0 0 0 0 0 0

Total # of neighbors = 162
Ave neighs/atom = 9
Neighbor list builds = 0
Dangerous builds = 0
        next i
jump SELF loop1
	read_dump orig.dump 0 x y
  orthogonal box = (0 0 -0.280613) to (3.36736 5.83244 0.280613)
  18 atoms before read
  18 atoms in snapshot
  0 atoms purged
  18 atoms replaced
  0 atoms trimmed
  0 atoms added
  18 atoms after read
        variable stretch equal 1+$i*${strainstep}
        variable stretch equal 1+94*${strainstep}
        variable stretch equal 1+94*-0.0005
        change_box all ${direction} scale ${stretch} remap
        change_box all y scale ${stretch} remap
        change_box all y scale 0.953 remap
  orthogonal box = (0 0.137062 -0.280613) to (3.36736 5.69538 0.280613)
        min_style ${style}
        min_style hftn
        minimize ${etol} ${ftol} ${maxiter} ${maxeval}
        minimize 1e-12 ${ftol} ${maxiter} ${maxeval}
        minimize 1e-12 1e-08 ${maxiter} ${maxeval}
        minimize 1e-12 1e-08 10000 ${maxeval}
        minimize 1e-12 1e-08 10000 20000
WARNING: Resetting reneighboring criteria during minimization (../min.cpp:168)
Memory usage per processor = 4.85099 Mbytes
Step PotEng Pxx Pyy Pxy Lx Ly Lz 
       0   -53.215722     0.663447    1.8069562 4.4661358e-17      3.36736    5.5583153   0.56122687 
       1   -53.215722     0.663447    1.8069562 -2.0181604e-17      3.36736    5.5583153   0.56122687 
Loop time of 5.79936e-05 on 1 procs for 0 steps with 18 atoms

Minimization stats:
  Stopping criterion = force tolerance
  Energy initial, next-to-last, final = 
        -53.2157218874     -53.2157218874     -53.2157218872
  Force two-norm initial, final = 0.00113231 2.91546e-09
  Force max component initial, final = 0.000293723 9.12258e-10
  Final line search alpha, max atom move = 0 0
  Iterations, force evaluations = 0 7

Pair  time (%) = 3.28156e-05 (56.5849)
Neigh time (%) = 0 (0)
Comm  time (%) = 6.68992e-06 (11.5356)
Outpt time (%) = 0 (0)
Other time (%) = 1.8488e-05 (31.8795)

Nlocal:    18 ave 18 max 18 min
Histogram: 1 0 0 0 0 0 0 0 0 0
Nghost:    65 ave 65 max 65 min
Histogram: 1 0 0 0 0 0 0 0 0 0
Neighs:    162 ave 162 max 162 min
Histogram: 1 0 0 0 0 0 0 0 0 0

Total # of neighbors = 162
Ave neighs/atom = 9
Neighbor list builds = 0
Dangerous builds = 0
        next i
jump SELF loop1
	read_dump orig.dump 0 x y
  orthogonal box = (0 0 -0.280613) to (3.36736 5.83244 0.280613)
  18 atoms before read
  18 atoms in snapshot
  0 atoms purged
  18 atoms replaced
  0 atoms trimmed
  0 atoms added
  18 atoms after read
        variable stretch equal 1+$i*${strainstep}
        variable stretch equal 1+95*${strainstep}
        variable stretch equal 1+95*-0.0005
        change_box all ${direction} scale ${stretch} remap
        change_box all y scale ${stretch} remap
        change_box all y scale 0.9525 remap
  orthogonal box = (0 0.13852 -0.280613) to (3.36736 5.69392 0.280613)
        min_style ${style}
        min_style hftn
        minimize ${etol} ${ftol} ${maxiter} ${maxeval}
        minimize 1e-12 ${ftol} ${maxiter} ${maxeval}
        minimize 1e-12 1e-08 ${maxiter} ${maxeval}
        minimize 1e-12 1e-08 10000 ${maxeval}
        minimize 1e-12 1e-08 10000 20000
WARNING: Resetting reneighboring criteria during minimization (../min.cpp:168)
Memory usage per processor = 4.85099 Mbytes
Step PotEng Pxx Pyy Pxy Lx Ly Lz 
       0   -53.197853   0.67254377    1.8298196 1.2669387e-17      3.36736    5.5553991   0.56122687 
       1   -53.197853   0.67254377    1.8298196 -7.6445206e-17      3.36736    5.5553991   0.56122687 
Loop time of 5.69328e-05 on 1 procs for 0 steps with 18 atoms

Minimization stats:
  Stopping criterion = force tolerance
  Energy initial, next-to-last, final = 
        -53.1978531343     -53.1978531343     -53.1978531341
  Force two-norm initial, final = 0.00113019 2.91088e-09
  Force max component initial, final = 0.000293088 9.10736e-10
  Final line search alpha, max atom move = 0 0
  Iterations, force evaluations = 0 7

Pair  time (%) = 3.41971e-05 (60.0658)
Neigh time (%) = 0 (0)
Comm  time (%) = 5.30714e-06 (9.32177)
Outpt time (%) = 0 (0)
Other time (%) = 1.74285e-05 (30.6125)

Nlocal:    18 ave 18 max 18 min
Histogram: 1 0 0 0 0 0 0 0 0 0
Nghost:    65 ave 65 max 65 min
Histogram: 1 0 0 0 0 0 0 0 0 0
Neighs:    162 ave 162 max 162 min
Histogram: 1 0 0 0 0 0 0 0 0 0

Total # of neighbors = 162
Ave neighs/atom = 9
Neighbor list builds = 0
Dangerous builds = 0
        next i
jump SELF loop1
	read_dump orig.dump 0 x y
  orthogonal box = (0 0 -0.280613) to (3.36736 5.83244 0.280613)
  18 atoms before read
  18 atoms in snapshot
  0 atoms purged
  18 atoms replaced
  0 atoms trimmed
  0 atoms added
  18 atoms after read
        variable stretch equal 1+$i*${strainstep}
        variable stretch equal 1+96*${strainstep}
        variable stretch equal 1+96*-0.0005
        change_box all ${direction} scale ${stretch} remap
        change_box all y scale ${stretch} remap
        change_box all y scale 0.952 remap
  orthogonal box = (0 0.139979 -0.280613) to (3.36736 5.69246 0.280613)
        min_style ${style}
        min_style hftn
        minimize ${etol} ${ftol} ${maxiter} ${maxeval}
        minimize 1e-12 ${ftol} ${maxiter} ${maxeval}
        minimize 1e-12 1e-08 ${maxiter} ${maxeval}
        minimize 1e-12 1e-08 10000 ${maxeval}
        minimize 1e-12 1e-08 10000 20000
WARNING: Resetting reneighboring criteria during minimization (../min.cpp:168)
Memory usage per processor = 4.85099 Mbytes
Step PotEng Pxx Pyy Pxy Lx Ly Lz 
       0   -53.179749     0.681692    1.8527719 -6.6813061e-17      3.36736    5.5524829   0.56122687 
       1   -53.179749     0.681692    1.8527719 -8.6389601e-17      3.36736    5.5524829   0.56122687 
Loop time of 7.60519e-05 on 1 procs for 0 steps with 18 atoms

Minimization stats:
  Stopping criterion = force tolerance
  Energy initial, next-to-last, final = 
        -53.1797488756     -53.1797488756     -53.1797488755
  Force two-norm initial, final = 0.001136 2.92848e-09
  Force max component initial, final = 0.000294753 9.167e-10
  Final line search alpha, max atom move = 0 0
  Iterations, force evaluations = 0 7

Pair  time (%) = 3.40417e-05 (44.7611)
Neigh time (%) = 0 (0)
Comm  time (%) = 1.0195e-05 (13.4053)
Outpt time (%) = 0 (0)
Other time (%) = 3.18153e-05 (41.8336)

Nlocal:    18 ave 18 max 18 min
Histogram: 1 0 0 0 0 0 0 0 0 0
Nghost:    65 ave 65 max 65 min
Histogram: 1 0 0 0 0 0 0 0 0 0
Neighs:    162 ave 162 max 162 min
Histogram: 1 0 0 0 0 0 0 0 0 0

Total # of neighbors = 162
Ave neighs/atom = 9
Neighbor list builds = 0
Dangerous builds = 0
        next i
jump SELF loop1
	read_dump orig.dump 0 x y
  orthogonal box = (0 0 -0.280613) to (3.36736 5.83244 0.280613)
  18 atoms before read
  18 atoms in snapshot
  0 atoms purged
  18 atoms replaced
  0 atoms trimmed
  0 atoms added
  18 atoms after read
        variable stretch equal 1+$i*${strainstep}
        variable stretch equal 1+97*${strainstep}
        variable stretch equal 1+97*-0.0005
        change_box all ${direction} scale ${stretch} remap
        change_box all y scale ${stretch} remap
        change_box all y scale 0.9515 remap
  orthogonal box = (0 0.141437 -0.280613) to (3.36736 5.691 0.280613)
        min_style ${style}
        min_style hftn
        minimize ${etol} ${ftol} ${maxiter} ${maxeval}
        minimize 1e-12 ${ftol} ${maxiter} ${maxeval}
        minimize 1e-12 1e-08 ${maxiter} ${maxeval}
        minimize 1e-12 1e-08 10000 ${maxeval}
        minimize 1e-12 1e-08 10000 20000
WARNING: Resetting reneighboring criteria during minimization (../min.cpp:168)
Memory usage per processor = 4.85099 Mbytes
Step PotEng Pxx Pyy Pxy Lx Ly Lz 
       0   -53.161474   0.69087943    1.8757794 3.467495e-16      3.36736    5.5495667   0.56122687 
       1   -53.161474   0.69087943    1.8757794 -2.8739724e-16      3.36736    5.5495667   0.56122687 
Loop time of 7.10542e-05 on 1 procs for 0 steps with 18 atoms

Minimization stats:
  Stopping criterion = force tolerance
  Energy initial, next-to-last, final = 
        -53.1614737233     -53.1614737233     -53.1614737231
  Force two-norm initial, final = 0.00114182 2.94612e-09
  Force max component initial, final = 0.000296417 9.22313e-10
  Final line search alpha, max atom move = 0 0
  Iterations, force evaluations = 0 7

Pair  time (%) = 4.6042e-05 (64.7985)
Neigh time (%) = 0 (0)
Comm  time (%) = 7.26816e-06 (10.229)
Outpt time (%) = 0 (0)
Other time (%) = 1.7744e-05 (24.9725)

Nlocal:    18 ave 18 max 18 min
Histogram: 1 0 0 0 0 0 0 0 0 0
Nghost:    65 ave 65 max 65 min
Histogram: 1 0 0 0 0 0 0 0 0 0
Neighs:    162 ave 162 max 162 min
Histogram: 1 0 0 0 0 0 0 0 0 0

Total # of neighbors = 162
Ave neighs/atom = 9
Neighbor list builds = 0
Dangerous builds = 0
        next i
jump SELF loop1
	read_dump orig.dump 0 x y
  orthogonal box = (0 0 -0.280613) to (3.36736 5.83244 0.280613)
  18 atoms before read
  18 atoms in snapshot
  0 atoms purged
  18 atoms replaced
  0 atoms trimmed
  0 atoms added
  18 atoms after read
        variable stretch equal 1+$i*${strainstep}
        variable stretch equal 1+98*${strainstep}
        variable stretch equal 1+98*-0.0005
        change_box all ${direction} scale ${stretch} remap
        change_box all y scale ${stretch} remap
        change_box all y scale 0.951 remap
  orthogonal box = (0 0.142895 -0.280613) to (3.36736 5.68955 0.280613)
        min_style ${style}
        min_style hftn
        minimize ${etol} ${ftol} ${maxiter} ${maxeval}
        minimize 1e-12 ${ftol} ${maxiter} ${maxeval}
        minimize 1e-12 1e-08 ${maxiter} ${maxeval}
        minimize 1e-12 1e-08 10000 ${maxeval}
        minimize 1e-12 1e-08 10000 20000
WARNING: Resetting reneighboring criteria during minimization (../min.cpp:168)
Memory usage per processor = 4.85099 Mbytes
Step PotEng Pxx Pyy Pxy Lx Ly Lz 
       0   -53.142936   0.70012336    1.8988889 4.6099683e-16      3.36736    5.5466504   0.56122687 
       1   -53.142936   0.70012336    1.8988889 -3.0513699e-16      3.36736    5.5466504   0.56122687 
Loop time of 5.70712e-05 on 1 procs for 0 steps with 18 atoms

Minimization stats:
  Stopping criterion = force tolerance
  Energy initial, next-to-last, final = 
        -53.1429363406     -53.1429363406     -53.1429363404
  Force two-norm initial, final = 0.00113967 2.94198e-09
  Force max component initial, final = 0.000295775 9.21213e-10
  Final line search alpha, max atom move = 0 0
  Iterations, force evaluations = 0 7

Pair  time (%) = 3.51131e-05 (61.525)
Neigh time (%) = 0 (0)
Comm  time (%) = 4.8012e-06 (8.41265)
Outpt time (%) = 0 (0)
Other time (%) = 1.71569e-05 (30.0623)

Nlocal:    18 ave 18 max 18 min
Histogram: 1 0 0 0 0 0 0 0 0 0
Nghost:    65 ave 65 max 65 min
Histogram: 1 0 0 0 0 0 0 0 0 0
Neighs:    162 ave 162 max 162 min
Histogram: 1 0 0 0 0 0 0 0 0 0

Total # of neighbors = 162
Ave neighs/atom = 9
Neighbor list builds = 0
Dangerous builds = 0
        next i
jump SELF loop1
	read_dump orig.dump 0 x y
  orthogonal box = (0 0 -0.280613) to (3.36736 5.83244 0.280613)
  18 atoms before read
  18 atoms in snapshot
  0 atoms purged
  18 atoms replaced
  0 atoms trimmed
  0 atoms added
  18 atoms after read
        variable stretch equal 1+$i*${strainstep}
        variable stretch equal 1+99*${strainstep}
        variable stretch equal 1+99*-0.0005
        change_box all ${direction} scale ${stretch} remap
        change_box all y scale ${stretch} remap
        change_box all y scale 0.9505 remap
  orthogonal box = (0 0.144353 -0.280613) to (3.36736 5.68809 0.280613)
        min_style ${style}
        min_style hftn
        minimize ${etol} ${ftol} ${maxiter} ${maxeval}
        minimize 1e-12 ${ftol} ${maxiter} ${maxeval}
        minimize 1e-12 1e-08 ${maxiter} ${maxeval}
        minimize 1e-12 1e-08 10000 ${maxeval}
        minimize 1e-12 1e-08 10000 20000
WARNING: Resetting reneighboring criteria during minimization (../min.cpp:168)
Memory usage per processor = 4.85099 Mbytes
Step PotEng Pxx Pyy Pxy Lx Ly Lz 
       0   -53.124148    0.7094218    1.9220943 -4.2142044e-17      3.36736    5.5437342   0.56122687 
       1   -53.124148    0.7094218    1.9220943 -9.8013938e-17      3.36736    5.5437342   0.56122687 
Loop time of 5.69721e-05 on 1 procs for 0 steps with 18 atoms

Minimization stats:
  Stopping criterion = force tolerance
  Energy initial, next-to-last, final = 
        -53.1241482144     -53.1241482144     -53.1241482142
  Force two-norm initial, final = 0.00114554 2.95912e-09
  Force max component initial, final = 0.000297454 9.26803e-10
  Final line search alpha, max atom move = 0 0
  Iterations, force evaluations = 0 7

Pair  time (%) = 3.39359e-05 (59.5657)
Neigh time (%) = 0 (0)
Comm  time (%) = 5.21517e-06 (9.1539)
Outpt time (%) = 0 (0)
Other time (%) = 1.78211e-05 (31.2804)

Nlocal:    18 ave 18 max 18 min
Histogram: 1 0 0 0 0 0 0 0 0 0
Nghost:    65 ave 65 max 65 min
Histogram: 1 0 0 0 0 0 0 0 0 0
Neighs:    162 ave 162 max 162 min
Histogram: 1 0 0 0 0 0 0 0 0 0

Total # of neighbors = 162
Ave neighs/atom = 9
Neighbor list builds = 0
Dangerous builds = 0
        next i
jump SELF loop1
	read_dump orig.dump 0 x y
  orthogonal box = (0 0 -0.280613) to (3.36736 5.83244 0.280613)
  18 atoms before read
  18 atoms in snapshot
  0 atoms purged
  18 atoms replaced
  0 atoms trimmed
  0 atoms added
  18 atoms after read
        variable stretch equal 1+$i*${strainstep}
        variable stretch equal 1+100*${strainstep}
        variable stretch equal 1+100*-0.0005
        change_box all ${direction} scale ${stretch} remap
        change_box all y scale ${stretch} remap
        change_box all y scale 0.95 remap
  orthogonal box = (0 0.145811 -0.280613) to (3.36736 5.68663 0.280613)
        min_style ${style}
        min_style hftn
        minimize ${etol} ${ftol} ${maxiter} ${maxeval}
        minimize 1e-12 ${ftol} ${maxiter} ${maxeval}
        minimize 1e-12 1e-08 ${maxiter} ${maxeval}
        minimize 1e-12 1e-08 10000 ${maxeval}
        minimize 1e-12 1e-08 10000 20000
WARNING: Resetting reneighboring criteria during minimization (../min.cpp:168)
Memory usage per processor = 4.85099 Mbytes
Step PotEng Pxx Pyy Pxy Lx Ly Lz 
       0   -53.105188   0.71875988    1.9453552 3.5272442e-16      3.36736     5.540818   0.56122687 
       1   -53.105188   0.71875988    1.9453552 1.3241984e-16      3.36736     5.540818   0.56122687 
Loop time of 5.68854e-05 on 1 procs for 0 steps with 18 atoms

Minimization stats:
  Stopping criterion = force tolerance
  Energy initial, next-to-last, final = 
        -53.1051878348     -53.1051878348     -53.1051878346
  Force two-norm initial, final = 0.00115141 2.97711e-09
  Force max component initial, final = 0.000299133 9.32479e-10
  Final line search alpha, max atom move = 0 0
  Iterations, force evaluations = 0 7

Pair  time (%) = 3.41956e-05 (60.1131)
Neigh time (%) = 0 (0)
Comm  time (%) = 5.25767e-06 (9.24255)
Outpt time (%) = 0 (0)
Other time (%) = 1.74321e-05 (30.6443)

Nlocal:    18 ave 18 max 18 min
Histogram: 1 0 0 0 0 0 0 0 0 0
Nghost:    65 ave 65 max 65 min
Histogram: 1 0 0 0 0 0 0 0 0 0
Neighs:    162 ave 162 max 162 min
Histogram: 1 0 0 0 0 0 0 0 0 0

Total # of neighbors = 162
Ave neighs/atom = 9
Neighbor list builds = 0
Dangerous builds = 0
        next i
jump SELF loop1

