LAMMPS (28 Jun 2014)
# attempt at getting tensile strain-stress curve for infinite slab

#file prefix
variable prefix string compression_V_brittle_twin
variable dumpfile string ${prefix}.*.dump
variable dumpfile string compression_V_brittle_twin.*.dump
variable restartfile string ${prefix}.*.equil
variable restartfile string compression_V_brittle_twin.*.equil

#Mass (g/mol)
variable m equal 1

# lattice constant (in Angstroms) and orientation of axes (given by lattice vectors)
variable rho equal 1.0
variable x1 equal 1
variable x2 equal 0
variable x3 equal 1
variable y1 equal 0
variable y2 equal 1
variable y3 equal 0
variable z1 equal -1
variable z2 equal 0
variable z3 equal 1
# length of lattice in different directions (using orientation of lattice vectors)
variable ax equal sqrt(${x1}*${x1}+${x2}*${x2}+${x3}*${x3})
variable ax equal sqrt(1*${x1}+${x2}*${x2}+${x3}*${x3})
variable ax equal sqrt(1*1+${x2}*${x2}+${x3}*${x3})
variable ax equal sqrt(1*1+0*${x2}+${x3}*${x3})
variable ax equal sqrt(1*1+0*0+${x3}*${x3})
variable ax equal sqrt(1*1+0*0+1*${x3})
variable ax equal sqrt(1*1+0*0+1*1)
variable ay equal sqrt(${y1}*${y1}+${y2}*${y2}+${y3}*${y3})
variable ay equal sqrt(0*${y1}+${y2}*${y2}+${y3}*${y3})
variable ay equal sqrt(0*0+${y2}*${y2}+${y3}*${y3})
variable ay equal sqrt(0*0+1*${y2}+${y3}*${y3})
variable ay equal sqrt(0*0+1*1+${y3}*${y3})
variable ay equal sqrt(0*0+1*1+0*${y3})
variable ay equal sqrt(0*0+1*1+0*0)
variable az equal sqrt(${z1}*${z1}+${z2}*${z2}+${z3}*${z3})
variable az equal sqrt(-1*${z1}+${z2}*${z2}+${z3}*${z3})
variable az equal sqrt(-1*-1+${z2}*${z2}+${z3}*${z3})
variable az equal sqrt(-1*-1+0*${z2}+${z3}*${z3})
variable az equal sqrt(-1*-1+0*0+${z3}*${z3})
variable az equal sqrt(-1*-1+0*0+1*${z3})
variable az equal sqrt(-1*-1+0*0+1*1)

# size of box in lattice units
variable lxpos equal 2
variable lxneg equal 0
variable lypos equal 10
variable lyneg equal 0
variable lzpos equal 2
variable lzneg equal 0

# Define minimization parameters and damping
variable etol equal 1.0e-12
variable ftol equal 1.0e-8
variable maxiter equal 10000
variable maxeval equal 20000
variable style string hftn

# boundary conditions
dimension	3
boundary	p s p
atom_style	atomic

# create geometry
units		lj
lattice         fcc ${rho} orient x 1 1 -2 orient y 1 1 1 orient z 1 -1 0 spacing ${ax} ${ay} ${az}
lattice         fcc 1 orient x 1 1 -2 orient y 1 1 1 orient z 1 -1 0 spacing ${ax} ${ay} ${az}
lattice         fcc 1 orient x 1 1 -2 orient y 1 1 1 orient z 1 -1 0 spacing 1.4142135623731 ${ay} ${az}
lattice         fcc 1 orient x 1 1 -2 orient y 1 1 1 orient z 1 -1 0 spacing 1.4142135623731 1 ${az}
lattice         fcc 1 orient x 1 1 -2 orient y 1 1 1 orient z 1 -1 0 spacing 1.4142135623731 1 1.4142135623731
Lattice spacing in x,y,z = 2.24492 1.5874 2.24492
region		myregion block ${lxneg} ${lxpos} ${lyneg} ${lypos} ${lzneg} ${lzpos} units lattice
region		myregion block 0 ${lxpos} ${lyneg} ${lypos} ${lzneg} ${lzpos} units lattice
region		myregion block 0 2 ${lyneg} ${lypos} ${lzneg} ${lzpos} units lattice
region		myregion block 0 2 0 ${lypos} ${lzneg} ${lzpos} units lattice
region		myregion block 0 2 0 10 ${lzneg} ${lzpos} units lattice
region		myregion block 0 2 0 10 0 ${lzpos} units lattice
region		myregion block 0 2 0 10 0 2 units lattice
create_box	1 myregion
Created orthogonal box = (0 0 0) to (4.48985 15.874 4.48985)
  1 by 1 by 1 MPI processor grid

region		upper block INF INF 0.01 INF INF INF
create_atoms	1 region upper
Created 316 atoms

region		lower block INF INF INF 0.01 INF INF
lattice         fcc ${rho} orient x 1 1 -2 orient y -1 -1 -1 orient z -1 1 0 spacing ${ax} ${ay} ${az}
lattice         fcc 1 orient x 1 1 -2 orient y -1 -1 -1 orient z -1 1 0 spacing ${ax} ${ay} ${az}
lattice         fcc 1 orient x 1 1 -2 orient y -1 -1 -1 orient z -1 1 0 spacing 1.4142135623731 ${ay} ${az}
lattice         fcc 1 orient x 1 1 -2 orient y -1 -1 -1 orient z -1 1 0 spacing 1.4142135623731 1 ${az}
lattice         fcc 1 orient x 1 1 -2 orient y -1 -1 -1 orient z -1 1 0 spacing 1.4142135623731 1 1.4142135623731
Lattice spacing in x,y,z = 2.24492 1.5874 2.24492
create_atoms	1 region lower
Created 20 atoms

# define masses
mass * $m
mass * 1

# my fake/morse potential
pair_style      table linear 3001
pair_coeff      * * vpotential_inter13d dummy
neighbor	0.3 bin
neigh_modify	delay 5

# Setup output
thermo 1
thermo_style custom step pe pxx pyy pxy lx ly lz
thermo_modify norm no

# Compute initial state by relaxing box
min_style ${style}
min_style hftn
minimize ${etol} ${ftol} ${maxiter} ${maxeval}
minimize 1e-12 ${ftol} ${maxiter} ${maxeval}
minimize 1e-12 1e-08 ${maxiter} ${maxeval}
minimize 1e-12 1e-08 10000 ${maxeval}
minimize 1e-12 1e-08 10000 20000
WARNING: Resetting reneighboring criteria during minimization (../min.cpp:168)
Memory usage per processor = 4.90059 Mbytes
Step PotEng Pxx Pyy Pxy Lx Ly Lz 
       0    37246.409    1007.2293  -0.39033615   0.50231765    4.4898482    15.583444    4.4898482 
       1    12130.907    415.95418   0.27542983   0.62063381    4.4898482    15.583444    4.4898482 
       2    3206.0898     174.5068    1.1064527    0.8445612    4.4898482    15.583444    4.4898482 
       3    90.601035    78.478181    2.1256476    1.1486308    4.4898482    15.583444    4.4898482 
       4    90.601035    78.477278    2.1256232    1.1486176    4.4898482    15.583623    4.4898482 
       5   -893.97454    43.454312    3.1445211    1.4542282    4.4898482    15.583623    4.4898482 
       6   -1376.9877    25.639056    3.6943769    1.1993481    4.4898482    15.583623    4.4898482 
       7   -1493.0126    21.281156    4.1279369   0.38960852    4.4898482    15.583623    4.4898482 
       8   -1525.4043    19.535643    3.9985017   0.25565586    4.4898482    15.583623    4.4898482 
       9   -1539.7362    18.540386    3.8637301   0.28858881    4.4898482    15.859605    4.4898482 
      10   -1558.2237    16.858059    4.0446451   0.18114835    4.4898482    15.859605    4.4898482 
      11   -1568.3996    16.442823    3.9790211   0.11411883    4.4898482    15.859605    4.4898482 
      12   -1584.7148    14.708437    3.9607614  -0.12974094    4.4898482    16.214188    4.4898482 
      13    -1593.813    14.234972    3.9588782 -0.022688044    4.4898482    16.214188    4.4898482 
      14   -1608.3524    12.923509    3.9333137  -0.25533772    4.4898482    16.214188    4.4898482 
      15   -1616.2591    12.468015    3.9458542 -0.093462275    4.4898482    16.214188    4.4898482 
      16   -1629.2478    10.991031    3.7727367  -0.30168278    4.4898482    16.580216    4.4898482 
      17   -1665.1521      8.60956    3.6278866    0.1058679    4.4898482    16.580216    4.4898482 
      18    -1682.033    7.3004234    3.7239702  -0.20454825    4.4898482    16.580216    4.4898482 
      19   -1729.2218     5.068704    3.3698267   0.55149896    4.4898482    16.846067    4.4898482 
      20   -1765.1754     3.627986    2.8394441  0.099196606    4.4898482    16.846067    4.4898482 
      21   -1796.0419    2.7531833    2.3737061   0.32791733    4.4898482    16.846067    4.4898482 
      22    -1827.006    2.0871058     1.515357 -0.053989542    4.4898482    16.853891    4.4898482 
      23   -1854.5727    1.9004175   0.86491272  -0.46907545    4.4898482    16.853891    4.4898482 
      24   -1869.8079    1.5810751   0.56051141  -0.42713484    4.4898482    16.790409    4.4898482 
      25   -1875.8566    1.4597937  0.077457467 -0.060127402    4.4898482    16.790409    4.4898482 
      26   -1876.1551    1.4508906 0.0078697739 0.0013827911    4.4898482    16.790409    4.4898482 
      27   -1876.1565    1.4483647  5.65426e-05 7.3378829e-06    4.4898482    16.790409    4.4898482 
      28   -1876.1565    1.4483647  5.65426e-05 7.3378829e-06    4.4898482    16.790409    4.4898482 
      29   -1876.1565    1.4483626 5.1939411e-05 2.0068027e-06    4.4898482    16.790409    4.4898482 
Loop time of 0.338077 on 1 procs for 28 steps with 336 atoms

Minimization stats:
  Stopping criterion = energy tolerance
  Energy initial, next-to-last, final = 
         37246.4091636     -1876.15508609     -1876.15646491
  Force two-norm initial, final = 107408 0.00292653
  Force max component initial, final = 10964.3 0.000451635
  Final line search alpha, max atom move = 0 0
  Iterations, force evaluations = 28 527

Pair  time (%) = 0.275417 (81.4659)
Neigh time (%) = 0.0032969 (0.975193)
Comm  time (%) = 0.0339975 (10.0561)
Outpt time (%) = 0.011464 (3.39095)
Other time (%) = 0.0139012 (4.11185)

Nlocal:    336 ave 336 max 336 min
Histogram: 1 0 0 0 0 0 0 0 0 0
Nghost:    1101 ave 1101 max 1101 min
Histogram: 1 0 0 0 0 0 0 0 0 0
Neighs:    8488 ave 8488 max 8488 min
Histogram: 1 0 0 0 0 0 0 0 0 0

Total # of neighbors = 8488
Ave neighs/atom = 25.2619
Neighbor list builds = 8
Dangerous builds = 1
reset_timestep 0
write_dump all atom orig.dump

# Energy curve will have nstep steps
variable strainmax equal -0.05
variable strainstep equal -0.0005
variable nsteps equal round(${strainmax}/${strainstep})
variable nsteps equal round(-0.05/${strainstep})
variable nsteps equal round(-0.05/-0.0005)
variable direction string y

variable i loop ${nsteps}
variable i loop 100
label loop1
        read_dump orig.dump 0 x y z
  orthogonal box = (0 -0.603507 0) to (4.48985 16.1837 4.48985)
  336 atoms before read
  336 atoms in snapshot
  0 atoms purged
  336 atoms replaced
  0 atoms trimmed
  0 atoms added
  336 atoms after read
        variable stretch equal 1+$i*${strainstep}
        variable stretch equal 1+1*${strainstep}
        variable stretch equal 1+1*-0.0005
        change_box all ${direction} scale ${stretch} remap
        change_box all y scale ${stretch} remap
        change_box all y scale 0.9995 remap
  orthogonal box = (0 -0.600988 0) to (4.48985 16.1812 4.48985)
        min_style ${style}
        min_style hftn
        minimize ${etol} ${ftol} ${maxiter} ${maxeval}
        minimize 1e-12 ${ftol} ${maxiter} ${maxeval}
        minimize 1e-12 1e-08 ${maxiter} ${maxeval}
        minimize 1e-12 1e-08 10000 ${maxeval}
        minimize 1e-12 1e-08 10000 20000
WARNING: Resetting reneighboring criteria during minimization (../min.cpp:168)
Memory usage per processor = 4.9009 Mbytes
Step PotEng Pxx Pyy Pxy Lx Ly Lz 
       0   -1876.1546    1.4614028  0.038898607 -0.0013756429      4.48985    16.782206      4.48985 
       1   -1876.1567     1.449021 0.00012299558 -4.4505052e-05      4.48985    16.782206      4.48985 
       2   -1876.1567    1.4489882 -1.7475825e-06 1.2483095e-06      4.48985    16.782206      4.48985 
       3   -1876.1567     1.448989 2.7314302e-11 -4.5235042e-12      4.48985    16.782206      4.48985 
       4   -1876.1567     1.448989 -7.0825619e-13 1.0080985e-12      4.48985    16.782206      4.48985 
Loop time of 0.190564 on 1 procs for 3 steps with 336 atoms

Minimization stats:
  Stopping criterion = force tolerance
  Energy initial, next-to-last, final = 
        -1876.15461515     -1876.15668349     -1876.15668352
  Force two-norm initial, final = 0.34093 7.30715e-11
  Force max component initial, final = 0.0478139 1.50315e-11
  Final line search alpha, max atom move = 0 0
  Iterations, force evaluations = 3 339

Pair  time (%) = 0.167627 (87.9637)
Neigh time (%) = 0 (0)
Comm  time (%) = 0.0112509 (5.90402)
Outpt time (%) = 0.000122081 (0.0640632)
Other time (%) = 0.0115639 (6.06827)

Nlocal:    336 ave 336 max 336 min
Histogram: 1 0 0 0 0 0 0 0 0 0
Nghost:    1101 ave 1101 max 1101 min
Histogram: 1 0 0 0 0 0 0 0 0 0
Neighs:    8504 ave 8504 max 8504 min
Histogram: 1 0 0 0 0 0 0 0 0 0

Total # of neighbors = 8504
Ave neighs/atom = 25.3095
Neighbor list builds = 0
Dangerous builds = 0
        next i
jump SELF loop1
        read_dump orig.dump 0 x y z
  orthogonal box = (0 -0.603507 0) to (4.48985 16.1837 4.48985)
  336 atoms before read
  336 atoms in snapshot
  0 atoms purged
  336 atoms replaced
  0 atoms trimmed
  0 atoms added
  336 atoms after read
        variable stretch equal 1+$i*${strainstep}
        variable stretch equal 1+2*${strainstep}
        variable stretch equal 1+2*-0.0005
        change_box all ${direction} scale ${stretch} remap
        change_box all y scale ${stretch} remap
        change_box all y scale 0.999 remap
  orthogonal box = (0 -0.59679 0) to (4.48985 16.177 4.48985)
        min_style ${style}
        min_style hftn
        minimize ${etol} ${ftol} ${maxiter} ${maxeval}
        minimize 1e-12 ${ftol} ${maxiter} ${maxeval}
        minimize 1e-12 1e-08 ${maxiter} ${maxeval}
        minimize 1e-12 1e-08 10000 ${maxeval}
        minimize 1e-12 1e-08 10000 20000
WARNING: Resetting reneighboring criteria during minimization (../min.cpp:168)
Memory usage per processor = 4.9009 Mbytes
Step PotEng Pxx Pyy Pxy Lx Ly Lz 
       0   -1876.1424    1.4827799   0.10355768 -0.0035995962      4.48985    16.773811      4.48985 
       1   -1876.1566      1.44994 0.00074098975 -0.00010799205      4.48985    16.773811      4.48985 
       2   -1876.1567    1.4497102 -1.1958225e-05 5.8335937e-06      4.48985    16.773811      4.48985 
       3   -1876.1567    1.4497102 -1.1958225e-05 5.8335937e-06      4.48985    16.773811      4.48985 
       4   -1876.1567    1.4497102 -1.1958225e-05 5.8335937e-06      4.48985    16.773811      4.48985 
       5   -1876.1567    1.4497102 -1.1958225e-05 5.8335937e-06      4.48985    16.773811      4.48985 
       6   -1876.1567    1.4497102 -1.1958225e-05 5.8335937e-06      4.48985    16.773811      4.48985 
       7   -1876.1567    1.4497102 -1.1945685e-05 5.8288536e-06      4.48985    16.773811      4.48985 
Loop time of 0.17848 on 1 procs for 6 steps with 336 atoms

Minimization stats:
  Stopping criterion = energy tolerance
  Energy initial, next-to-last, final = 
        -1876.14237565     -1876.15663202     -1876.15668375
  Force two-norm initial, final = 0.907241 0.00146762
  Force max component initial, final = 0.126422 0.000257008
  Final line search alpha, max atom move = 0 0
  Iterations, force evaluations = 6 251

Pair  time (%) = 0.136087 (76.2476)
Neigh time (%) = 0 (0)
Comm  time (%) = 0.0253636 (14.2109)
Outpt time (%) = 0.000573825 (0.321506)
Other time (%) = 0.0164559 (9.22003)

Nlocal:    336 ave 336 max 336 min
Histogram: 1 0 0 0 0 0 0 0 0 0
Nghost:    1101 ave 1101 max 1101 min
Histogram: 1 0 0 0 0 0 0 0 0 0
Neighs:    8504 ave 8504 max 8504 min
Histogram: 1 0 0 0 0 0 0 0 0 0

Total # of neighbors = 8504
Ave neighs/atom = 25.3095
Neighbor list builds = 0
Dangerous builds = 0
        next i
jump SELF loop1
        read_dump orig.dump 0 x y z
  orthogonal box = (0 -0.603507 0) to (4.48985 16.1837 4.48985)
  336 atoms before read
  336 atoms in snapshot
  0 atoms purged
  336 atoms replaced
  0 atoms trimmed
  0 atoms added
  336 atoms after read
        variable stretch equal 1+$i*${strainstep}
        variable stretch equal 1+3*${strainstep}
        variable stretch equal 1+3*-0.0005
        change_box all ${direction} scale ${stretch} remap
        change_box all y scale ${stretch} remap
        change_box all y scale 0.9985 remap
  orthogonal box = (0 -0.592592 0) to (4.48985 16.1728 4.48985)
        min_style ${style}
        min_style hftn
        minimize ${etol} ${ftol} ${maxiter} ${maxeval}
        minimize 1e-12 ${ftol} ${maxiter} ${maxeval}
        minimize 1e-12 1e-08 ${maxiter} ${maxeval}
        minimize 1e-12 1e-08 10000 ${maxeval}
        minimize 1e-12 1e-08 10000 20000
WARNING: Resetting reneighboring criteria during minimization (../min.cpp:168)
Memory usage per processor = 4.9009 Mbytes
Step PotEng Pxx Pyy Pxy Lx Ly Lz 
       0   -1876.1195    1.5042874   0.16868181 -0.0057781054      4.48985    16.765415      4.48985 
       1   -1876.1566    1.4509843 0.0017060259 -8.6298667e-05      4.48985    16.765415      4.48985 
       2   -1876.1567    1.4504167 -0.00025458858 0.00025418561      4.48985    16.765415      4.48985 
       3   -1876.1567    1.4504402 2.4205411e-08 -2.6846063e-08      4.48985    16.765415      4.48985 
       4   -1876.1567    1.4504402 2.404081e-10 -3.8819174e-11      4.48985    16.765415      4.48985 
       5   -1876.1567    1.4504402 8.8810398e-13 4.5732518e-13      4.48985    16.765415      4.48985 
Loop time of 0.191372 on 1 procs for 4 steps with 336 atoms

Minimization stats:
  Stopping criterion = force tolerance
  Energy initial, next-to-last, final = 
         -1876.1195063     -1876.15662682     -1876.15668352
  Force two-norm initial, final = 1.47776 1.99323e-10
  Force max component initial, final = 0.206283 4.18978e-11
  Final line search alpha, max atom move = 0 0
  Iterations, force evaluations = 4 391

Pair  time (%) = 0.17308 (90.4417)
Neigh time (%) = 0 (0)
Comm  time (%) = 0.0101838 (5.32144)
Outpt time (%) = 0.000328791 (0.171807)
Other time (%) = 0.00777939 (4.06506)

Nlocal:    336 ave 336 max 336 min
Histogram: 1 0 0 0 0 0 0 0 0 0
Nghost:    1101 ave 1101 max 1101 min
Histogram: 1 0 0 0 0 0 0 0 0 0
Neighs:    8504 ave 8504 max 8504 min
Histogram: 1 0 0 0 0 0 0 0 0 0

Total # of neighbors = 8504
Ave neighs/atom = 25.3095
Neighbor list builds = 0
Dangerous builds = 0
        next i
jump SELF loop1
        read_dump orig.dump 0 x y z
  orthogonal box = (0 -0.603507 0) to (4.48985 16.1837 4.48985)
  336 atoms before read
  336 atoms in snapshot
  0 atoms purged
  336 atoms replaced
  0 atoms trimmed
  0 atoms added
  336 atoms after read
        variable stretch equal 1+$i*${strainstep}
        variable stretch equal 1+4*${strainstep}
        variable stretch equal 1+4*-0.0005
        change_box all ${direction} scale ${stretch} remap
        change_box all y scale ${stretch} remap
        change_box all y scale 0.998 remap
  orthogonal box = (0 -0.588395 0) to (4.48985 16.1686 4.48985)
        min_style ${style}
        min_style hftn
        minimize ${etol} ${ftol} ${maxiter} ${maxeval}
        minimize 1e-12 ${ftol} ${maxiter} ${maxeval}
        minimize 1e-12 1e-08 ${maxiter} ${maxeval}
        minimize 1e-12 1e-08 10000 ${maxeval}
        minimize 1e-12 1e-08 10000 20000
WARNING: Resetting reneighboring criteria during minimization (../min.cpp:168)
Memory usage per processor = 4.9009 Mbytes
Step PotEng Pxx Pyy Pxy Lx Ly Lz 
       0   -1876.0853     1.525944   0.23429018 -0.0079343724      4.48985     16.75702      4.48985 
       1   -1876.1565    1.4522515 0.0033835745 -0.0001077367      4.48985     16.75702      4.48985 
       2   -1876.1567    1.4511754 -0.00025346842 0.00040104748      4.48985     16.75702      4.48985 
       3   -1876.1567    1.4511668 4.2466382e-08 -5.2709451e-08      4.48985     16.75702      4.48985 
       4   -1876.1567    1.4511669 7.7082281e-11 -1.2975173e-10      4.48985     16.75702      4.48985 
Loop time of 0.138151 on 1 procs for 3 steps with 336 atoms

Minimization stats:
  Stopping criterion = energy tolerance
  Energy initial, next-to-last, final = 
        -1876.08530995      -1876.1566584     -1876.15668352
  Force two-norm initial, final = 2.0521 2.20118e-08
  Force max component initial, final = 0.286782 3.14521e-09
  Final line search alpha, max atom move = 0 0
  Iterations, force evaluations = 3 284

Pair  time (%) = 0.119184 (86.2711)
Neigh time (%) = 0 (0)
Comm  time (%) = 0.013569 (9.82183)
Outpt time (%) = 0.000201928 (0.146165)
Other time (%) = 0.0051957 (3.76089)

Nlocal:    336 ave 336 max 336 min
Histogram: 1 0 0 0 0 0 0 0 0 0
Nghost:    1101 ave 1101 max 1101 min
Histogram: 1 0 0 0 0 0 0 0 0 0
Neighs:    8504 ave 8504 max 8504 min
Histogram: 1 0 0 0 0 0 0 0 0 0

Total # of neighbors = 8504
Ave neighs/atom = 25.3095
Neighbor list builds = 0
Dangerous builds = 0
        next i
jump SELF loop1
        read_dump orig.dump 0 x y z
  orthogonal box = (0 -0.603507 0) to (4.48985 16.1837 4.48985)
  336 atoms before read
  336 atoms in snapshot
  0 atoms purged
  336 atoms replaced
  0 atoms trimmed
  0 atoms added
  336 atoms after read
        variable stretch equal 1+$i*${strainstep}
        variable stretch equal 1+5*${strainstep}
        variable stretch equal 1+5*-0.0005
        change_box all ${direction} scale ${stretch} remap
        change_box all y scale ${stretch} remap
        change_box all y scale 0.9975 remap
  orthogonal box = (0 -0.584197 0) to (4.48985 16.1644 4.48985)
        min_style ${style}
        min_style hftn
        minimize ${etol} ${ftol} ${maxiter} ${maxeval}
        minimize 1e-12 ${ftol} ${maxiter} ${maxeval}
        minimize 1e-12 1e-08 ${maxiter} ${maxeval}
        minimize 1e-12 1e-08 10000 ${maxeval}
        minimize 1e-12 1e-08 10000 20000
WARNING: Resetting reneighboring criteria during minimization (../min.cpp:168)
Memory usage per processor = 4.9009 Mbytes
Step PotEng Pxx Pyy Pxy Lx Ly Lz 
       0   -1876.0404    1.5477374   0.30036199 -0.010047869      4.48985    16.748625      4.48985 
       1   -1876.1564    1.4536159 0.0052869816 -7.9734653e-05      4.48985    16.748625      4.48985 
       2   -1876.1567    1.4519165 -0.00027086485 0.00046528685      4.48985    16.748625      4.48985 
       3   -1876.1567    1.4518942 6.0037442e-08 -8.4931654e-08      4.48985    16.748625      4.48985 
       4   -1876.1567    1.4518942 6.0037442e-08 -8.4931654e-08      4.48985    16.748625      4.48985 
       5   -1876.1567    1.4518942 6.0037442e-08 -8.4931654e-08      4.48985    16.748625      4.48985 
       6   -1876.1567    1.4518942 5.331563e-08 -8.1806498e-08      4.48985    16.748625      4.48985 
Loop time of 0.150982 on 1 procs for 5 steps with 336 atoms

Minimization stats:
  Stopping criterion = energy tolerance
  Energy initial, next-to-last, final = 
        -1876.04041236     -1876.15665745     -1876.15668353
  Force two-norm initial, final = 2.63045 1.50743e-05
  Force max component initial, final = 0.367894 1.81297e-06
  Final line search alpha, max atom move = 0 0
  Iterations, force evaluations = 5 302

Pair  time (%) = 0.129285 (85.6292)
Neigh time (%) = 0 (0)
Comm  time (%) = 0.0159159 (10.5416)
Outpt time (%) = 0.000393201 (0.260429)
Other time (%) = 0.00538826 (3.56881)

Nlocal:    336 ave 336 max 336 min
Histogram: 1 0 0 0 0 0 0 0 0 0
Nghost:    1101 ave 1101 max 1101 min
Histogram: 1 0 0 0 0 0 0 0 0 0
Neighs:    8504 ave 8504 max 8504 min
Histogram: 1 0 0 0 0 0 0 0 0 0

Total # of neighbors = 8504
Ave neighs/atom = 25.3095
Neighbor list builds = 0
Dangerous builds = 0
        next i
jump SELF loop1
        read_dump orig.dump 0 x y z
  orthogonal box = (0 -0.603507 0) to (4.48985 16.1837 4.48985)
  336 atoms before read
  336 atoms in snapshot
  0 atoms purged
  336 atoms replaced
  0 atoms trimmed
  0 atoms added
  336 atoms after read
        variable stretch equal 1+$i*${strainstep}
        variable stretch equal 1+6*${strainstep}
        variable stretch equal 1+6*-0.0005
        change_box all ${direction} scale ${stretch} remap
        change_box all y scale ${stretch} remap
        change_box all y scale 0.997 remap
  orthogonal box = (0 -0.579999 0) to (4.48985 16.1602 4.48985)
        min_style ${style}
        min_style hftn
        minimize ${etol} ${ftol} ${maxiter} ${maxeval}
        minimize 1e-12 ${ftol} ${maxiter} ${maxeval}
        minimize 1e-12 1e-08 ${maxiter} ${maxeval}
        minimize 1e-12 1e-08 10000 ${maxeval}
        minimize 1e-12 1e-08 10000 20000
WARNING: Resetting reneighboring criteria during minimization (../min.cpp:168)
Memory usage per processor = 4.9009 Mbytes
Step PotEng Pxx Pyy Pxy Lx Ly Lz 
       0   -1875.9839    1.5696818    0.3669324 -0.012132408      4.48985    16.740229      4.48985 
       1   -1876.1563    1.4550481  0.007519844 -7.9406372e-05      4.48985    16.740229      4.48985 
       2   -1876.1566    1.4526802 -0.00027366892 0.00063350495      4.48985    16.740229      4.48985 
       3   -1876.1567    1.4526224 -1.3689426e-08 -6.9416596e-09      4.48985    16.740229      4.48985 
       4   -1876.1567    1.4526224 7.3868102e-12 2.3004765e-12      4.48985    16.740229      4.48985 
Loop time of 0.189792 on 1 procs for 3 steps with 336 atoms

Minimization stats:
  Stopping criterion = force tolerance
  Energy initial, next-to-last, final = 
          -1875.983925     -1876.15664368     -1876.15668352
  Force two-norm initial, final = 3.21277 1.25564e-09
  Force max component initial, final = 0.449652 1.85584e-10
  Final line search alpha, max atom move = 0 0
  Iterations, force evaluations = 3 300

Pair  time (%) = 0.153172 (80.7051)
Neigh time (%) = 0 (0)
Comm  time (%) = 0.01773 (9.3418)
Outpt time (%) = 0.00028518 (0.150259)
Other time (%) = 0.018605 (9.80281)

Nlocal:    336 ave 336 max 336 min
Histogram: 1 0 0 0 0 0 0 0 0 0
Nghost:    1101 ave 1101 max 1101 min
Histogram: 1 0 0 0 0 0 0 0 0 0
Neighs:    8504 ave 8504 max 8504 min
Histogram: 1 0 0 0 0 0 0 0 0 0

Total # of neighbors = 8504
Ave neighs/atom = 25.3095
Neighbor list builds = 0
Dangerous builds = 0
        next i
jump SELF loop1
        read_dump orig.dump 0 x y z
  orthogonal box = (0 -0.603507 0) to (4.48985 16.1837 4.48985)
  336 atoms before read
  336 atoms in snapshot
  0 atoms purged
  336 atoms replaced
  0 atoms trimmed
  0 atoms added
  336 atoms after read
        variable stretch equal 1+$i*${strainstep}
        variable stretch equal 1+7*${strainstep}
        variable stretch equal 1+7*-0.0005
        change_box all ${direction} scale ${stretch} remap
        change_box all y scale ${stretch} remap
        change_box all y scale 0.9965 remap
  orthogonal box = (0 -0.575802 0) to (4.48985 16.156 4.48985)
        min_style ${style}
        min_style hftn
        minimize ${etol} ${ftol} ${maxiter} ${maxeval}
        minimize 1e-12 ${ftol} ${maxiter} ${maxeval}
        minimize 1e-12 1e-08 ${maxiter} ${maxeval}
        minimize 1e-12 1e-08 10000 ${maxeval}
        minimize 1e-12 1e-08 10000 20000
WARNING: Resetting reneighboring criteria during minimization (../min.cpp:168)
Memory usage per processor = 4.9009 Mbytes
Step PotEng Pxx Pyy Pxy Lx Ly Lz 
       0   -1875.9161    1.5917689   0.43399764 -0.014167022      4.48985    16.731834      4.48985 
       1   -1876.1562       1.4566  0.010046071 -0.00010525297      4.48985    16.731834      4.48985 
       2   -1876.1566    1.4534339 -0.00027455868 0.00074619078      4.48985    16.731834      4.48985 
       3   -1876.1567    1.4533513 4.665467e-07 -1.7581176e-07      4.48985    16.731834      4.48985 
       4   -1876.1567    1.4533513 7.1446226e-12 3.7039543e-12      4.48985    16.731834      4.48985 
Loop time of 0.158405 on 1 procs for 3 steps with 336 atoms

Minimization stats:
  Stopping criterion = force tolerance
  Energy initial, next-to-last, final = 
        -1875.91605379     -1876.15663648     -1876.15668352
  Force two-norm initial, final = 3.79927 2.34905e-09
  Force max component initial, final = 0.531967 2.49654e-10
  Final line search alpha, max atom move = 0 0
  Iterations, force evaluations = 3 304

Pair  time (%) = 0.140425 (88.6492)
Neigh time (%) = 0 (0)
Comm  time (%) = 0.0121661 (7.68038)
Outpt time (%) = 0.000209114 (0.132012)
Other time (%) = 0.00560495 (3.53837)

Nlocal:    336 ave 336 max 336 min
Histogram: 1 0 0 0 0 0 0 0 0 0
Nghost:    1101 ave 1101 max 1101 min
Histogram: 1 0 0 0 0 0 0 0 0 0
Neighs:    8504 ave 8504 max 8504 min
Histogram: 1 0 0 0 0 0 0 0 0 0

Total # of neighbors = 8504
Ave neighs/atom = 25.3095
Neighbor list builds = 0
Dangerous builds = 0
        next i
jump SELF loop1
        read_dump orig.dump 0 x y z
  orthogonal box = (0 -0.603507 0) to (4.48985 16.1837 4.48985)
  336 atoms before read
  336 atoms in snapshot
  0 atoms purged
  336 atoms replaced
  0 atoms trimmed
  0 atoms added
  336 atoms after read
        variable stretch equal 1+$i*${strainstep}
        variable stretch equal 1+8*${strainstep}
        variable stretch equal 1+8*-0.0005
        change_box all ${direction} scale ${stretch} remap
        change_box all y scale ${stretch} remap
        change_box all y scale 0.996 remap
  orthogonal box = (0 -0.571604 0) to (4.48985 16.1518 4.48985)
        min_style ${style}
        min_style hftn
        minimize ${etol} ${ftol} ${maxiter} ${maxeval}
        minimize 1e-12 ${ftol} ${maxiter} ${maxeval}
        minimize 1e-12 1e-08 ${maxiter} ${maxeval}
        minimize 1e-12 1e-08 10000 ${maxeval}
        minimize 1e-12 1e-08 10000 20000
WARNING: Resetting reneighboring criteria during minimization (../min.cpp:168)
Memory usage per processor = 4.9009 Mbytes
Step PotEng Pxx Pyy Pxy Lx Ly Lz 
       0   -1875.8368    1.6139985   0.50154906 -0.016168508      4.48985    16.723439      4.48985 
       1    -1876.156    1.4585333  0.013788507 6.2421886e-05      4.48985    16.723439      4.48985 
       2   -1876.1566    1.4542762 -0.00023825154 0.0012467068      4.48985    16.723439      4.48985 
       3   -1876.1567    1.4540811 1.1910027e-07 -1.4331634e-07      4.48985    16.723439      4.48985 
       4   -1876.1567    1.4540809 6.4441843e-12 5.3079077e-12      4.48985    16.723439      4.48985 
Loop time of 0.139042 on 1 procs for 3 steps with 336 atoms

Minimization stats:
  Stopping criterion = force tolerance
  Energy initial, next-to-last, final = 
        -1875.83680417     -1876.15660989     -1876.15668352
  Force two-norm initial, final = 4.38916 5.68746e-09
  Force max component initial, final = 0.614867 1.09121e-09
  Final line search alpha, max atom move = 0 0
  Iterations, force evaluations = 3 284

Pair  time (%) = 0.123481 (88.8082)
Neigh time (%) = 0 (0)
Comm  time (%) = 0.00901057 (6.48046)
Outpt time (%) = 0.00120823 (0.868969)
Other time (%) = 0.00534254 (3.84239)

Nlocal:    336 ave 336 max 336 min
Histogram: 1 0 0 0 0 0 0 0 0 0
Nghost:    1101 ave 1101 max 1101 min
Histogram: 1 0 0 0 0 0 0 0 0 0
Neighs:    8504 ave 8504 max 8504 min
Histogram: 1 0 0 0 0 0 0 0 0 0

Total # of neighbors = 8504
Ave neighs/atom = 25.3095
Neighbor list builds = 0
Dangerous builds = 0
        next i
jump SELF loop1
        read_dump orig.dump 0 x y z
  orthogonal box = (0 -0.603507 0) to (4.48985 16.1837 4.48985)
  336 atoms before read
  336 atoms in snapshot
  0 atoms purged
  336 atoms replaced
  0 atoms trimmed
  0 atoms added
  336 atoms after read
        variable stretch equal 1+$i*${strainstep}
        variable stretch equal 1+9*${strainstep}
        variable stretch equal 1+9*-0.0005
        change_box all ${direction} scale ${stretch} remap
        change_box all y scale ${stretch} remap
        change_box all y scale 0.9955 remap
  orthogonal box = (0 -0.567407 0) to (4.48985 16.1476 4.48985)
        min_style ${style}
        min_style hftn
        minimize ${etol} ${ftol} ${maxiter} ${maxeval}
        minimize 1e-12 ${ftol} ${maxiter} ${maxeval}
        minimize 1e-12 1e-08 ${maxiter} ${maxeval}
        minimize 1e-12 1e-08 10000 ${maxeval}
        minimize 1e-12 1e-08 10000 20000
WARNING: Resetting reneighboring criteria during minimization (../min.cpp:168)
Memory usage per processor = 4.9009 Mbytes
Step PotEng Pxx Pyy Pxy Lx Ly Lz 
       0   -1875.7465    1.6363723   0.56956422 -0.018130992      4.48985    16.715044      4.48985 
       1   -1876.1557    1.4606368   0.01791455 0.00028607465      4.48985    16.715044      4.48985 
       2   -1876.1566    1.4550538 -0.00020226293 0.0014303046      4.48985    16.715044      4.48985 
       3   -1876.1567    1.4548111 -3.4231196e-07 -3.0075922e-07      4.48985    16.715044      4.48985 
       4   -1876.1567    1.4548112 -1.385596e-12 6.4406029e-12      4.48985    16.715044      4.48985 
Loop time of 0.138449 on 1 procs for 3 steps with 336 atoms

Minimization stats:
  Stopping criterion = force tolerance
  Energy initial, next-to-last, final = 
        -1875.74654295      -1876.1565997     -1876.15668352
  Force two-norm initial, final = 4.98312 7.48503e-09
  Force max component initial, final = 0.698378 1.85073e-09
  Final line search alpha, max atom move = 0 0
  Iterations, force evaluations = 3 284

Pair  time (%) = 0.122843 (88.7283)
Neigh time (%) = 0 (0)
Comm  time (%) = 0.00959725 (6.93197)
Outpt time (%) = 0.000218897 (0.158106)
Other time (%) = 0.00578946 (4.18166)

Nlocal:    336 ave 336 max 336 min
Histogram: 1 0 0 0 0 0 0 0 0 0
Nghost:    1101 ave 1101 max 1101 min
Histogram: 1 0 0 0 0 0 0 0 0 0
Neighs:    8504 ave 8504 max 8504 min
Histogram: 1 0 0 0 0 0 0 0 0 0

Total # of neighbors = 8504
Ave neighs/atom = 25.3095
Neighbor list builds = 0
Dangerous builds = 0
        next i
jump SELF loop1
        read_dump orig.dump 0 x y z
  orthogonal box = (0 -0.603507 0) to (4.48985 16.1837 4.48985)
  336 atoms before read
  336 atoms in snapshot
  0 atoms purged
  336 atoms replaced
  0 atoms trimmed
  0 atoms added
  336 atoms after read
        variable stretch equal 1+$i*${strainstep}
        variable stretch equal 1+10*${strainstep}
        variable stretch equal 1+10*-0.0005
        change_box all ${direction} scale ${stretch} remap
        change_box all y scale ${stretch} remap
        change_box all y scale 0.995 remap
  orthogonal box = (0 -0.563209 0) to (4.48985 16.1434 4.48985)
        min_style ${style}
        min_style hftn
        minimize ${etol} ${ftol} ${maxiter} ${maxeval}
        minimize 1e-12 ${ftol} ${maxiter} ${maxeval}
        minimize 1e-12 1e-08 ${maxiter} ${maxeval}
        minimize 1e-12 1e-08 10000 ${maxeval}
        minimize 1e-12 1e-08 10000 20000
WARNING: Resetting reneighboring criteria during minimization (../min.cpp:168)
Memory usage per processor = 4.9009 Mbytes
Step PotEng Pxx Pyy Pxy Lx Ly Lz 
       0   -1875.6445     1.658891   0.63808875  -0.02005622      4.48985    16.706648      4.48985 
       1   -1876.1554    1.4625885  0.021496138 0.00025685423      4.48985    16.706648      4.48985 
       2   -1876.1566    1.4558666 -0.00016352888 0.0016290553      4.48985    16.706648      4.48985 
       3   -1876.1567    1.4555425 1.1798055e-06 6.4956864e-08      4.48985    16.706648      4.48985 
       4   -1876.1567    1.4555425 1.1798055e-06 6.4956864e-08      4.48985    16.706648      4.48985 
       5   -1876.1567    1.4555425 1.1798055e-06 6.4956864e-08      4.48985    16.706648      4.48985 
       6   -1876.1567    1.4555425 1.1798055e-06 6.4956864e-08      4.48985    16.706648      4.48985 
       7   -1876.1567    1.4555425 1.1798055e-06 6.4956864e-08      4.48985    16.706648      4.48985 
       8   -1876.1567    1.4555425 1.1790192e-06 6.6978917e-08      4.48985    16.706648      4.48985 
Loop time of 0.149384 on 1 procs for 7 steps with 336 atoms

Minimization stats:
  Stopping criterion = energy tolerance
  Energy initial, next-to-last, final = 
        -1875.64445484     -1876.15660031     -1876.15668371
  Force two-norm initial, final = 5.58077 0.000186657
  Force max component initial, final = 0.782449 2.76e-05
  Final line search alpha, max atom move = 0 0
  Iterations, force evaluations = 7 298

Pair  time (%) = 0.132605 (88.7676)
Neigh time (%) = 0 (0)
Comm  time (%) = 0.00671686 (4.49637)
Outpt time (%) = 0.00149907 (1.0035)
Other time (%) = 0.00856352 (5.73255)

Nlocal:    336 ave 336 max 336 min
Histogram: 1 0 0 0 0 0 0 0 0 0
Nghost:    1101 ave 1101 max 1101 min
Histogram: 1 0 0 0 0 0 0 0 0 0
Neighs:    8504 ave 8504 max 8504 min
Histogram: 1 0 0 0 0 0 0 0 0 0

Total # of neighbors = 8504
Ave neighs/atom = 25.3095
Neighbor list builds = 0
Dangerous builds = 0
        next i
jump SELF loop1
        read_dump orig.dump 0 x y z
  orthogonal box = (0 -0.603507 0) to (4.48985 16.1837 4.48985)
  336 atoms before read
  336 atoms in snapshot
  0 atoms purged
  336 atoms replaced
  0 atoms trimmed
  0 atoms added
  336 atoms after read
        variable stretch equal 1+$i*${strainstep}
        variable stretch equal 1+11*${strainstep}
        variable stretch equal 1+11*-0.0005
        change_box all ${direction} scale ${stretch} remap
        change_box all y scale ${stretch} remap
        change_box all y scale 0.9945 remap
  orthogonal box = (0 -0.559011 0) to (4.48985 16.1392 4.48985)
        min_style ${style}
        min_style hftn
        minimize ${etol} ${ftol} ${maxiter} ${maxeval}
        minimize 1e-12 ${ftol} ${maxiter} ${maxeval}
        minimize 1e-12 1e-08 ${maxiter} ${maxeval}
        minimize 1e-12 1e-08 10000 ${maxeval}
        minimize 1e-12 1e-08 10000 20000
WARNING: Resetting reneighboring criteria during minimization (../min.cpp:168)
Memory usage per processor = 4.9009 Mbytes
Step PotEng Pxx Pyy Pxy Lx Ly Lz 
       0   -1875.5307     1.681552   0.70710711 -0.021922799      4.48985    16.698253      4.48985 
       1    -1876.155    1.4647106  0.025837449 0.00037094203      4.48985    16.698253      4.48985 
       2   -1876.1566    1.4565909 -0.00019949083 0.0017454759      4.48985    16.698253      4.48985 
       3   -1876.1567     1.456275 1.8706935e-06 4.8805464e-07      4.48985    16.698253      4.48985 
       4   -1876.1567     1.456275 1.8706935e-06 4.8805464e-07      4.48985    16.698253      4.48985 
       5   -1876.1567    1.4562748 1.9164138e-06 5.2120226e-07      4.48985    16.698253      4.48985 
       6   -1876.1567    1.4562748 1.9164138e-06 5.2120226e-07      4.48985    16.698253      4.48985 
       7   -1876.1567    1.4562748 1.9164138e-06 5.2120226e-07      4.48985    16.698253      4.48985 
       8   -1876.1567    1.4562748 1.9019914e-06 5.1479033e-07      4.48985    16.698253      4.48985 
Loop time of 0.15045 on 1 procs for 7 steps with 336 atoms

Minimization stats:
  Stopping criterion = energy tolerance
  Energy initial, next-to-last, final = 
        -1875.53070786     -1876.15668354     -1876.15668355
  Force two-norm initial, final = 6.18269 9.26117e-05
  Force max component initial, final = 0.867299 1.32224e-05
  Final line search alpha, max atom move = 0 0
  Iterations, force evaluations = 7 310

Pair  time (%) = 0.135713 (90.2048)
Neigh time (%) = 0 (0)
Comm  time (%) = 0.0080283 (5.33619)
Outpt time (%) = 0.000472036 (0.313749)
Other time (%) = 0.00623658 (4.14528)

Nlocal:    336 ave 336 max 336 min
Histogram: 1 0 0 0 0 0 0 0 0 0
Nghost:    1101 ave 1101 max 1101 min
Histogram: 1 0 0 0 0 0 0 0 0 0
Neighs:    8504 ave 8504 max 8504 min
Histogram: 1 0 0 0 0 0 0 0 0 0

Total # of neighbors = 8504
Ave neighs/atom = 25.3095
Neighbor list builds = 0
Dangerous builds = 0
        next i
jump SELF loop1
        read_dump orig.dump 0 x y z
  orthogonal box = (0 -0.603507 0) to (4.48985 16.1837 4.48985)
  336 atoms before read
  336 atoms in snapshot
  0 atoms purged
  336 atoms replaced
  0 atoms trimmed
  0 atoms added
  336 atoms after read
        variable stretch equal 1+$i*${strainstep}
        variable stretch equal 1+12*${strainstep}
        variable stretch equal 1+12*-0.0005
        change_box all ${direction} scale ${stretch} remap
        change_box all y scale ${stretch} remap
        change_box all y scale 0.994 remap
  orthogonal box = (0 -0.554814 0) to (4.48985 16.135 4.48985)
        min_style ${style}
        min_style hftn
        minimize ${etol} ${ftol} ${maxiter} ${maxeval}
        minimize 1e-12 ${ftol} ${maxiter} ${maxeval}
        minimize 1e-12 1e-08 ${maxiter} ${maxeval}
        minimize 1e-12 1e-08 10000 ${maxeval}
        minimize 1e-12 1e-08 10000 20000
WARNING: Resetting reneighboring criteria during minimization (../min.cpp:168)
Memory usage per processor = 4.9009 Mbytes
Step PotEng Pxx Pyy Pxy Lx Ly Lz 
       0   -1875.4048    1.7043719   0.77664096  -0.02376157      4.48985    16.689858      4.48985 
       1   -1876.1542    1.4670722  0.031534774 5.211283e-05      4.48985    16.689858      4.48985 
       2   -1876.1566    1.4575095 -5.4060218e-05 0.0019668814      4.48985    16.689858      4.48985 
       3   -1876.1567    1.4570061 2.8849587e-06 -1.8421548e-06      4.48985    16.689858      4.48985 
       4   -1876.1567    1.4570066 2.9723622e-10 -1.6635147e-10      4.48985    16.689858      4.48985 
       5   -1876.1567    1.4570066 1.565659e-12 -2.5945007e-13      4.48985    16.689858      4.48985 
Loop time of 0.182743 on 1 procs for 4 steps with 336 atoms

Minimization stats:
  Stopping criterion = force tolerance
  Energy initial, next-to-last, final = 
        -1875.40482365     -1876.15668339     -1876.15668352
  Force two-norm initial, final = 6.78871 1.05249e-10
  Force max component initial, final = 0.952672 2.8356e-11
  Final line search alpha, max atom move = 0 0
  Iterations, force evaluations = 4 368

Pair  time (%) = 0.159973 (87.5401)
Neigh time (%) = 0 (0)
Comm  time (%) = 0.0156387 (8.55777)
Outpt time (%) = 0.00027911 (0.152734)
Other time (%) = 0.00685178 (3.74941)

Nlocal:    336 ave 336 max 336 min
Histogram: 1 0 0 0 0 0 0 0 0 0
Nghost:    1101 ave 1101 max 1101 min
Histogram: 1 0 0 0 0 0 0 0 0 0
Neighs:    8504 ave 8504 max 8504 min
Histogram: 1 0 0 0 0 0 0 0 0 0

Total # of neighbors = 8504
Ave neighs/atom = 25.3095
Neighbor list builds = 0
Dangerous builds = 0
        next i
jump SELF loop1
        read_dump orig.dump 0 x y z
  orthogonal box = (0 -0.603507 0) to (4.48985 16.1837 4.48985)
  336 atoms before read
  336 atoms in snapshot
  0 atoms purged
  336 atoms replaced
  0 atoms trimmed
  0 atoms added
  336 atoms after read
        variable stretch equal 1+$i*${strainstep}
        variable stretch equal 1+13*${strainstep}
        variable stretch equal 1+13*-0.0005
        change_box all ${direction} scale ${stretch} remap
        change_box all y scale ${stretch} remap
        change_box all y scale 0.9935 remap
  orthogonal box = (0 -0.550616 0) to (4.48985 16.1308 4.48985)
        min_style ${style}
        min_style hftn
        minimize ${etol} ${ftol} ${maxiter} ${maxeval}
        minimize 1e-12 ${ftol} ${maxiter} ${maxeval}
        minimize 1e-12 1e-08 ${maxiter} ${maxeval}
        minimize 1e-12 1e-08 10000 ${maxeval}
        minimize 1e-12 1e-08 10000 20000
WARNING: Resetting reneighboring criteria during minimization (../min.cpp:168)
Memory usage per processor = 4.9009 Mbytes
Step PotEng Pxx Pyy Pxy Lx Ly Lz 
       0   -1875.2677    1.7273228   0.84664738 -0.025538846      4.48985    16.681462      4.48985 
       1   -1876.1542    1.4694963  0.036301308 0.00081403158      4.48985    16.681462      4.48985 
       2   -1876.1566    1.4582981 3.2381894e-05 0.0022064665      4.48985    16.681462      4.48985 
       3   -1876.1567    1.4577398 2.9041196e-06 -1.1957318e-06      4.48985    16.681462      4.48985 
       4   -1876.1567    1.4577398 2.9041196e-06 -1.1957318e-06      4.48985    16.681462      4.48985 
       5   -1876.1567    1.4577399 2.8192283e-06 -1.1135999e-06      4.48985    16.681462      4.48985 
       6   -1876.1567    1.4577399 2.8192283e-06 -1.1135999e-06      4.48985    16.681462      4.48985 
       7   -1876.1567    1.4577399 2.8192283e-06 -1.1135999e-06      4.48985    16.681462      4.48985 
       8   -1876.1567    1.4577399 2.8192283e-06 -1.1135999e-06      4.48985    16.681462      4.48985 
       9   -1876.1567    1.4577399 2.8173345e-06 -1.1114841e-06      4.48985    16.681462      4.48985 
Loop time of 0.198345 on 1 procs for 8 steps with 336 atoms

Minimization stats:
  Stopping criterion = energy tolerance
  Energy initial, next-to-last, final = 
        -1875.26774038     -1876.15668354     -1876.15668362
  Force two-norm initial, final = 7.39834 0.00016702
  Force max component initial, final = 1.03874 1.84108e-05
  Final line search alpha, max atom move = 0 0
  Iterations, force evaluations = 8 299

Pair  time (%) = 0.171646 (86.5392)
Neigh time (%) = 0 (0)
Comm  time (%) = 0.0124371 (6.27043)
Outpt time (%) = 0.00486778 (2.4542)
Other time (%) = 0.00939385 (4.73612)

Nlocal:    336 ave 336 max 336 min
Histogram: 1 0 0 0 0 0 0 0 0 0
Nghost:    1101 ave 1101 max 1101 min
Histogram: 1 0 0 0 0 0 0 0 0 0
Neighs:    8504 ave 8504 max 8504 min
Histogram: 1 0 0 0 0 0 0 0 0 0

Total # of neighbors = 8504
Ave neighs/atom = 25.3095
Neighbor list builds = 0
Dangerous builds = 0
        next i
jump SELF loop1
        read_dump orig.dump 0 x y z
  orthogonal box = (0 -0.603507 0) to (4.48985 16.1837 4.48985)
  336 atoms before read
  336 atoms in snapshot
  0 atoms purged
  336 atoms replaced
  0 atoms trimmed
  0 atoms added
  336 atoms after read
        variable stretch equal 1+$i*${strainstep}
        variable stretch equal 1+14*${strainstep}
        variable stretch equal 1+14*-0.0005
        change_box all ${direction} scale ${stretch} remap
        change_box all y scale ${stretch} remap
        change_box all y scale 0.993 remap
  orthogonal box = (0 -0.546418 0) to (4.48985 16.1267 4.48985)
        min_style ${style}
        min_style hftn
        minimize ${etol} ${ftol} ${maxiter} ${maxeval}
        minimize 1e-12 ${ftol} ${maxiter} ${maxeval}
        minimize 1e-12 1e-08 ${maxiter} ${maxeval}
        minimize 1e-12 1e-08 10000 ${maxeval}
        minimize 1e-12 1e-08 10000 20000
WARNING: Resetting reneighboring criteria during minimization (../min.cpp:168)
Memory usage per processor = 4.9009 Mbytes
Step PotEng Pxx Pyy Pxy Lx Ly Lz 
       0   -1875.1182    1.7504269   0.91716882 -0.027285451      4.48985    16.673067      4.48985 
       1   -1876.1528     1.472414  0.043362017 0.00081258065      4.48985    16.673067      4.48985 
       2   -1876.1566    1.4591225 9.2098543e-05 0.0023107078      4.48985    16.673067      4.48985 
       3   -1876.1567    1.4584776 1.1254557e-05 -1.6545776e-06      4.48985    16.673067      4.48985 
       4   -1876.1567    1.4584738 -3.8416003e-11 -1.2971043e-10      4.48985    16.673067      4.48985 
       5   -1876.1567    1.4584738 -7.2926802e-13 -1.5155444e-12      4.48985    16.673067      4.48985 
Loop time of 0.173304 on 1 procs for 4 steps with 336 atoms

Minimization stats:
  Stopping criterion = force tolerance
  Energy initial, next-to-last, final = 
         -1875.1182268     -1876.15668328     -1876.15668352
  Force two-norm initial, final = 8.01143 1.79986e-10
  Force max component initial, final = 1.12529 3.13848e-11
  Final line search alpha, max atom move = 0 0
  Iterations, force evaluations = 4 348

Pair  time (%) = 0.150201 (86.6688)
Neigh time (%) = 0 (0)
Comm  time (%) = 0.0158412 (9.14067)
Outpt time (%) = 0.000245239 (0.141508)
Other time (%) = 0.00701706 (4.04898)

Nlocal:    336 ave 336 max 336 min
Histogram: 1 0 0 0 0 0 0 0 0 0
Nghost:    1101 ave 1101 max 1101 min
Histogram: 1 0 0 0 0 0 0 0 0 0
Neighs:    8504 ave 8504 max 8504 min
Histogram: 1 0 0 0 0 0 0 0 0 0

Total # of neighbors = 8504
Ave neighs/atom = 25.3095
Neighbor list builds = 0
Dangerous builds = 0
        next i
jump SELF loop1
        read_dump orig.dump 0 x y z
  orthogonal box = (0 -0.603507 0) to (4.48985 16.1837 4.48985)
  336 atoms before read
  336 atoms in snapshot
  0 atoms purged
  336 atoms replaced
  0 atoms trimmed
  0 atoms added
  336 atoms after read
        variable stretch equal 1+$i*${strainstep}
        variable stretch equal 1+15*${strainstep}
        variable stretch equal 1+15*-0.0005
        change_box all ${direction} scale ${stretch} remap
        change_box all y scale ${stretch} remap
        change_box all y scale 0.9925 remap
  orthogonal box = (0 -0.542221 0) to (4.48985 16.1225 4.48985)
        min_style ${style}
        min_style hftn
        minimize ${etol} ${ftol} ${maxiter} ${maxeval}
        minimize 1e-12 ${ftol} ${maxiter} ${maxeval}
        minimize 1e-12 1e-08 ${maxiter} ${maxeval}
        minimize 1e-12 1e-08 10000 ${maxeval}
        minimize 1e-12 1e-08 10000 20000
WARNING: Resetting reneighboring criteria during minimization (../min.cpp:168)
Memory usage per processor = 4.9009 Mbytes
Step PotEng Pxx Pyy Pxy Lx Ly Lz 
       0   -1874.9575    1.7736571   0.98816563 -0.028960881      4.48985    16.664672      4.48985 
       1   -1876.1519    1.4748353  0.048748074 0.00048288482      4.48985    16.664672      4.48985 
       2   -1876.1565    1.4598985 0.0001054059 0.0024707948      4.48985    16.664672      4.48985 
       3   -1876.1567    1.4592116 1.016967e-05 -2.1871373e-06      4.48985    16.664672      4.48985 
       4   -1876.1567    1.4592086 3.847718e-11 -1.0930769e-10      4.48985    16.664672      4.48985 
       5   -1876.1567    1.4592086  1.45744e-12 -1.1053335e-12      4.48985    16.664672      4.48985 
Loop time of 0.184517 on 1 procs for 4 steps with 336 atoms

Minimization stats:
  Stopping criterion = force tolerance
  Energy initial, next-to-last, final = 
        -1874.95753708     -1876.15668324     -1876.15668352
  Force two-norm initial, final = 8.62873 1.62963e-10
  Force max component initial, final = 1.21258 2.77227e-11
  Final line search alpha, max atom move = 0 0
  Iterations, force evaluations = 4 374

Pair  time (%) = 0.163691 (88.7134)
Neigh time (%) = 0 (0)
Comm  time (%) = 0.0133678 (7.24477)
Outpt time (%) = 0.000274926 (0.148998)
Other time (%) = 0.00718286 (3.89279)

Nlocal:    336 ave 336 max 336 min
Histogram: 1 0 0 0 0 0 0 0 0 0
Nghost:    1101 ave 1101 max 1101 min
Histogram: 1 0 0 0 0 0 0 0 0 0
Neighs:    8504 ave 8504 max 8504 min
Histogram: 1 0 0 0 0 0 0 0 0 0

Total # of neighbors = 8504
Ave neighs/atom = 25.3095
Neighbor list builds = 0
Dangerous builds = 0
        next i
jump SELF loop1
        read_dump orig.dump 0 x y z
  orthogonal box = (0 -0.603507 0) to (4.48985 16.1837 4.48985)
  336 atoms before read
  336 atoms in snapshot
  0 atoms purged
  336 atoms replaced
  0 atoms trimmed
  0 atoms added
  336 atoms after read
        variable stretch equal 1+$i*${strainstep}
        variable stretch equal 1+16*${strainstep}
        variable stretch equal 1+16*-0.0005
        change_box all ${direction} scale ${stretch} remap
        change_box all y scale ${stretch} remap
        change_box all y scale 0.992 remap
  orthogonal box = (0 -0.538023 0) to (4.48985 16.1183 4.48985)
        min_style ${style}
        min_style hftn
        minimize ${etol} ${ftol} ${maxiter} ${maxeval}
        minimize 1e-12 ${ftol} ${maxiter} ${maxeval}
        minimize 1e-12 1e-08 ${maxiter} ${maxeval}
        minimize 1e-12 1e-08 10000 ${maxeval}
        minimize 1e-12 1e-08 10000 20000
WARNING: Resetting reneighboring criteria during minimization (../min.cpp:168)
Memory usage per processor = 4.9009 Mbytes
Step PotEng Pxx Pyy Pxy Lx Ly Lz 
       0   -1874.7839    1.7970475     1.059699 -0.030600214      4.48985    16.656276      4.48985 
       1   -1876.1508    1.4777139  0.055445888 0.00077717889      4.48985    16.656276      4.48985 
       2   -1876.1565     1.460698 0.00020023029 0.0026410936      4.48985    16.656276      4.48985 
       3   -1876.1567    1.4599335 -3.0830613e-05 -1.2976358e-06      4.48985    16.656276      4.48985 
       4   -1876.1567    1.4599441 6.8814731e-11 -1.6879765e-10      4.48985    16.656276      4.48985 
       5   -1876.1567    1.4599441 -2.8685201e-13 -1.3347844e-12      4.48985    16.656276      4.48985 
Loop time of 0.173338 on 1 procs for 4 steps with 336 atoms

Minimization stats:
  Stopping criterion = force tolerance
  Energy initial, next-to-last, final = 
        -1874.78388035     -1876.15668304     -1876.15668352
  Force two-norm initial, final = 9.24986 2.07442e-10
  Force max component initial, final = 1.30038 4.30908e-11
  Final line search alpha, max atom move = 0 0
  Iterations, force evaluations = 4 346

Pair  time (%) = 0.158149 (91.2373)
Neigh time (%) = 0 (0)
Comm  time (%) = 0.00767707 (4.42896)
Outpt time (%) = 0.000295938 (0.170729)
Other time (%) = 0.007216 (4.16296)

Nlocal:    336 ave 336 max 336 min
Histogram: 1 0 0 0 0 0 0 0 0 0
Nghost:    1101 ave 1101 max 1101 min
Histogram: 1 0 0 0 0 0 0 0 0 0
Neighs:    8504 ave 8504 max 8504 min
Histogram: 1 0 0 0 0 0 0 0 0 0

Total # of neighbors = 8504
Ave neighs/atom = 25.3095
Neighbor list builds = 0
Dangerous builds = 0
        next i
jump SELF loop1
        read_dump orig.dump 0 x y z
  orthogonal box = (0 -0.603507 0) to (4.48985 16.1837 4.48985)
  336 atoms before read
  336 atoms in snapshot
  0 atoms purged
  336 atoms replaced
  0 atoms trimmed
  0 atoms added
  336 atoms after read
        variable stretch equal 1+$i*${strainstep}
        variable stretch equal 1+17*${strainstep}
        variable stretch equal 1+17*-0.0005
        change_box all ${direction} scale ${stretch} remap
        change_box all y scale ${stretch} remap
        change_box all y scale 0.9915 remap
  orthogonal box = (0 -0.533825 0) to (4.48985 16.1141 4.48985)
        min_style ${style}
        min_style hftn
        minimize ${etol} ${ftol} ${maxiter} ${maxeval}
        minimize 1e-12 ${ftol} ${maxiter} ${maxeval}
        minimize 1e-12 1e-08 ${maxiter} ${maxeval}
        minimize 1e-12 1e-08 10000 ${maxeval}
        minimize 1e-12 1e-08 10000 20000
WARNING: Resetting reneighboring criteria during minimization (../min.cpp:168)
Memory usage per processor = 4.9009 Mbytes
Step PotEng Pxx Pyy Pxy Lx Ly Lz 
       0   -1874.5987    1.8205589    1.1317126 -0.032158845      4.48985    16.647881      4.48985 
       1   -1876.1496    1.4807401   0.06191728 0.0016693455      4.48985    16.647881      4.48985 
       2   -1876.1565    1.4614981 0.00024374454 0.0027887988      4.48985    16.647881      4.48985 
       3   -1876.1567    1.4606658 -4.1198356e-05 -3.3421768e-06      4.48985    16.647881      4.48985 
       4   -1876.1567    1.4606803 9.4061932e-10 -1.8369665e-09      4.48985    16.647881      4.48985 
       5   -1876.1567    1.4606803 -2.6059454e-12 -8.1626174e-13      4.48985    16.647881      4.48985 
Loop time of 0.172733 on 1 procs for 4 steps with 336 atoms

Minimization stats:
  Stopping criterion = force tolerance
  Energy initial, next-to-last, final = 
        -1874.59869323     -1876.15668287     -1876.15668352
  Force two-norm initial, final = 9.87477 3.37103e-10
  Force max component initial, final = 1.38907 6.10096e-11
  Final line search alpha, max atom move = 0 0
  Iterations, force evaluations = 4 342

Pair  time (%) = 0.144739 (83.7933)
Neigh time (%) = 0 (0)
Comm  time (%) = 0.0210833 (12.2057)
Outpt time (%) = 0.000280833 (0.162582)
Other time (%) = 0.00663022 (3.83842)

Nlocal:    336 ave 336 max 336 min
Histogram: 1 0 0 0 0 0 0 0 0 0
Nghost:    1101 ave 1101 max 1101 min
Histogram: 1 0 0 0 0 0 0 0 0 0
Neighs:    8504 ave 8504 max 8504 min
Histogram: 1 0 0 0 0 0 0 0 0 0

Total # of neighbors = 8504
Ave neighs/atom = 25.3095
Neighbor list builds = 0
Dangerous builds = 0
        next i
jump SELF loop1
        read_dump orig.dump 0 x y z
  orthogonal box = (0 -0.603507 0) to (4.48985 16.1837 4.48985)
  336 atoms before read
  336 atoms in snapshot
  0 atoms purged
  336 atoms replaced
  0 atoms trimmed
  0 atoms added
  336 atoms after read
        variable stretch equal 1+$i*${strainstep}
        variable stretch equal 1+18*${strainstep}
        variable stretch equal 1+18*-0.0005
        change_box all ${direction} scale ${stretch} remap
        change_box all y scale ${stretch} remap
        change_box all y scale 0.991 remap
  orthogonal box = (0 -0.529628 0) to (4.48985 16.1099 4.48985)
        min_style ${style}
        min_style hftn
        minimize ${etol} ${ftol} ${maxiter} ${maxeval}
        minimize 1e-12 ${ftol} ${maxiter} ${maxeval}
        minimize 1e-12 1e-08 ${maxiter} ${maxeval}
        minimize 1e-12 1e-08 10000 ${maxeval}
        minimize 1e-12 1e-08 10000 20000
WARNING: Resetting reneighboring criteria during minimization (../min.cpp:168)
Memory usage per processor = 4.9009 Mbytes
Step PotEng Pxx Pyy Pxy Lx Ly Lz 
       0   -1874.4007    1.8442266    1.2042543 -0.033683745      4.48985    16.639486      4.48985 
       1   -1876.1477    1.4836667   0.07038527 0.0010173153      4.48985    16.639486      4.48985 
       2   -1876.1565    1.4621914 0.00020804801 0.0029056074      4.48985    16.639486      4.48985 
       3   -1876.1567    1.4614094 -2.4153317e-05 -4.2262306e-07      4.48985    16.639486      4.48985 
       4   -1876.1567    1.4614173 -1.7224281e-09 -2.3826152e-09      4.48985    16.639486      4.48985 
       5   -1876.1567    1.4614173 -5.0476095e-11 2.2842989e-12      4.48985    16.639486      4.48985 
Loop time of 0.178602 on 1 procs for 4 steps with 336 atoms

Minimization stats:
  Stopping criterion = force tolerance
  Energy initial, next-to-last, final = 
        -1874.40072381     -1876.15668307     -1876.15668352
  Force two-norm initial, final = 10.5032 1.44115e-09
  Force max component initial, final = 1.47817 2.70255e-10
  Final line search alpha, max atom move = 0 0
  Iterations, force evaluations = 4 354

Pair  time (%) = 0.156464 (87.6048)
Neigh time (%) = 0 (0)
Comm  time (%) = 0.0143585 (8.03938)
Outpt time (%) = 0.000269918 (0.151128)
Other time (%) = 0.00750973 (4.20473)

Nlocal:    336 ave 336 max 336 min
Histogram: 1 0 0 0 0 0 0 0 0 0
Nghost:    1101 ave 1101 max 1101 min
Histogram: 1 0 0 0 0 0 0 0 0 0
Neighs:    8504 ave 8504 max 8504 min
Histogram: 1 0 0 0 0 0 0 0 0 0

Total # of neighbors = 8504
Ave neighs/atom = 25.3095
Neighbor list builds = 0
Dangerous builds = 0
        next i
jump SELF loop1
        read_dump orig.dump 0 x y z
  orthogonal box = (0 -0.603507 0) to (4.48985 16.1837 4.48985)
  336 atoms before read
  336 atoms in snapshot
  0 atoms purged
  336 atoms replaced
  0 atoms trimmed
  0 atoms added
  336 atoms after read
        variable stretch equal 1+$i*${strainstep}
        variable stretch equal 1+19*${strainstep}
        variable stretch equal 1+19*-0.0005
        change_box all ${direction} scale ${stretch} remap
        change_box all y scale ${stretch} remap
        change_box all y scale 0.9905 remap
  orthogonal box = (0 -0.52543 0) to (4.48985 16.1057 4.48985)
        min_style ${style}
        min_style hftn
        minimize ${etol} ${ftol} ${maxiter} ${maxeval}
        minimize 1e-12 ${ftol} ${maxiter} ${maxeval}
        minimize 1e-12 1e-08 ${maxiter} ${maxeval}
        minimize 1e-12 1e-08 10000 ${maxeval}
        minimize 1e-12 1e-08 10000 20000
WARNING: Resetting reneighboring criteria during minimization (../min.cpp:168)
Memory usage per processor = 4.9009 Mbytes
Step PotEng Pxx Pyy Pxy Lx Ly Lz 
       0   -1874.1912    1.8680172    1.2772612 -0.035136226      4.48985    16.631091      4.48985 
       1    -1876.146     1.486814  0.078079084  0.002025478      4.48985    16.631091      4.48985 
       2   -1876.1565     1.462923 0.00023243447 0.0030623667      4.48985    16.631091      4.48985 
       3   -1876.1567    1.4621207 -0.00010782065 7.9448841e-06      4.48985    16.631091      4.48985 
       4   -1876.1567     1.462155 2.8542464e-10 3.1562634e-09      4.48985    16.631091      4.48985 
       5   -1876.1567     1.462155 -1.9587199e-11 2.4854419e-12      4.48985    16.631091      4.48985 
Loop time of 0.22148 on 1 procs for 4 steps with 336 atoms

Minimization stats:
  Stopping criterion = force tolerance
  Energy initial, next-to-last, final = 
        -1874.19122072     -1876.15668163     -1876.15668352
  Force two-norm initial, final = 11.1351 2.44384e-09
  Force max component initial, final = 1.56811 3.87284e-10
  Final line search alpha, max atom move = 0 0
  Iterations, force evaluations = 4 332

Pair  time (%) = 0.179154 (80.8894)
Neigh time (%) = 0 (0)
Comm  time (%) = 0.0317975 (14.3568)
Outpt time (%) = 0.000276109 (0.124665)
Other time (%) = 0.0102525 (4.62908)

Nlocal:    336 ave 336 max 336 min
Histogram: 1 0 0 0 0 0 0 0 0 0
Nghost:    1101 ave 1101 max 1101 min
Histogram: 1 0 0 0 0 0 0 0 0 0
Neighs:    8504 ave 8504 max 8504 min
Histogram: 1 0 0 0 0 0 0 0 0 0

Total # of neighbors = 8504
Ave neighs/atom = 25.3095
Neighbor list builds = 0
Dangerous builds = 0
        next i
jump SELF loop1
        read_dump orig.dump 0 x y z
  orthogonal box = (0 -0.603507 0) to (4.48985 16.1837 4.48985)
  336 atoms before read
  336 atoms in snapshot
  0 atoms purged
  336 atoms replaced
  0 atoms trimmed
  0 atoms added
  336 atoms after read
        variable stretch equal 1+$i*${strainstep}
        variable stretch equal 1+20*${strainstep}
        variable stretch equal 1+20*-0.0005
        change_box all ${direction} scale ${stretch} remap
        change_box all y scale ${stretch} remap
        change_box all y scale 0.99 remap
  orthogonal box = (0 -0.521232 0) to (4.48985 16.1015 4.48985)
        min_style ${style}
        min_style hftn
        minimize ${etol} ${ftol} ${maxiter} ${maxeval}
        minimize 1e-12 ${ftol} ${maxiter} ${maxeval}
        minimize 1e-12 1e-08 ${maxiter} ${maxeval}
        minimize 1e-12 1e-08 10000 ${maxeval}
        minimize 1e-12 1e-08 10000 20000
WARNING: Resetting reneighboring criteria during minimization (../min.cpp:168)
Memory usage per processor = 4.9009 Mbytes
Step PotEng Pxx Pyy Pxy Lx Ly Lz 
       0   -1873.9688    1.8919506    1.3508069 -0.036525897      4.48985    16.622695      4.48985 
       1   -1876.1444    1.4900735  0.085495189  0.001841832      4.48985    16.622695      4.48985 
       2   -1876.1565    1.4637409 0.00040938153 0.0032220687      4.48985    16.622695      4.48985 
       3   -1876.1567    1.4628168 -0.00023065812 1.9618177e-05      4.48985    16.622695      4.48985 
       4   -1876.1567    1.4628935 -8.4772959e-10 8.4535721e-09      4.48985    16.622695      4.48985 
       5   -1876.1567    1.4628935 8.5888639e-12 1.7017372e-11      4.48985    16.622695      4.48985 
Loop time of 0.178981 on 1 procs for 4 steps with 336 atoms

Minimization stats:
  Stopping criterion = force tolerance
  Energy initial, next-to-last, final = 
        -1873.96875901     -1876.15668147     -1876.15668352
  Force two-norm initial, final = 11.7709 2.23902e-09
  Force max component initial, final = 1.65845 3.96842e-10
  Final line search alpha, max atom move = 0 0
  Iterations, force evaluations = 4 336

Pair  time (%) = 0.158127 (88.3487)
Neigh time (%) = 0 (0)
Comm  time (%) = 0.014059 (7.85504)
Outpt time (%) = 0.000382053 (0.21346)
Other time (%) = 0.00641257 (3.58283)

Nlocal:    336 ave 336 max 336 min
Histogram: 1 0 0 0 0 0 0 0 0 0
Nghost:    1101 ave 1101 max 1101 min
Histogram: 1 0 0 0 0 0 0 0 0 0
Neighs:    8504 ave 8504 max 8504 min
Histogram: 1 0 0 0 0 0 0 0 0 0

Total # of neighbors = 8504
Ave neighs/atom = 25.3095
Neighbor list builds = 0
Dangerous builds = 0
        next i
jump SELF loop1
        read_dump orig.dump 0 x y z
  orthogonal box = (0 -0.603507 0) to (4.48985 16.1837 4.48985)
  336 atoms before read
  336 atoms in snapshot
  0 atoms purged
  336 atoms replaced
  0 atoms trimmed
  0 atoms added
  336 atoms after read
        variable stretch equal 1+$i*${strainstep}
        variable stretch equal 1+21*${strainstep}
        variable stretch equal 1+21*-0.0005
        change_box all ${direction} scale ${stretch} remap
        change_box all y scale ${stretch} remap
        change_box all y scale 0.9895 remap
  orthogonal box = (0 -0.517035 0) to (4.48985 16.0973 4.48985)
        min_style ${style}
        min_style hftn
        minimize ${etol} ${ftol} ${maxiter} ${maxeval}
        minimize 1e-12 ${ftol} ${maxiter} ${maxeval}
        minimize 1e-12 1e-08 ${maxiter} ${maxeval}
        minimize 1e-12 1e-08 10000 ${maxeval}
        minimize 1e-12 1e-08 10000 20000
WARNING: Resetting reneighboring criteria during minimization (../min.cpp:168)
Memory usage per processor = 4.9009 Mbytes
Step PotEng Pxx Pyy Pxy Lx Ly Lz 
       0   -1873.7338    1.9160361    1.4248711 -0.037859105      4.48985      16.6143      4.48985 
       1   -1876.1423    1.4936626  0.094015284 0.0023637523      4.48985      16.6143      4.48985 
       2   -1876.1565    1.4645384 0.00050139423 0.0033834127      4.48985      16.6143      4.48985 
       3   -1876.1567    1.4636224 -4.3001029e-05 2.888909e-06      4.48985      16.6143      4.48985 
       4   -1876.1567    1.4636327 6.2589928e-10 1.0747938e-07      4.48985      16.6143      4.48985 
       5   -1876.1567    1.4636327 6.2589928e-10 1.0747938e-07      4.48985      16.6143      4.48985 
       6   -1876.1567    1.4636327 5.0214195e-09 8.9010964e-08      4.48985      16.6143      4.48985 
       7   -1876.1567    1.4636327 -1.591933e-09 4.6086278e-08      4.48985      16.6143      4.48985 
       8   -1876.1567    1.4636327 -1.6020669e-11 1.7674219e-11      4.48985      16.6143      4.48985 
Loop time of 0.247472 on 1 procs for 7 steps with 336 atoms

Minimization stats:
  Stopping criterion = force tolerance
  Energy initial, next-to-last, final = 
        -1873.73384243     -1876.15665251     -1876.15668352
  Force two-norm initial, final = 12.411 6.53736e-09
  Force max component initial, final = 1.74964 1.43165e-09
  Final line search alpha, max atom move = 0 0
  Iterations, force evaluations = 7 476

Pair  time (%) = 0.219235 (88.5899)
Neigh time (%) = 0 (0)
Comm  time (%) = 0.0170754 (6.89994)
Outpt time (%) = 0.000598714 (0.241932)
Other time (%) = 0.0105626 (4.26821)

Nlocal:    336 ave 336 max 336 min
Histogram: 1 0 0 0 0 0 0 0 0 0
Nghost:    1101 ave 1101 max 1101 min
Histogram: 1 0 0 0 0 0 0 0 0 0
Neighs:    8504 ave 8504 max 8504 min
Histogram: 1 0 0 0 0 0 0 0 0 0

Total # of neighbors = 8504
Ave neighs/atom = 25.3095
Neighbor list builds = 0
Dangerous builds = 0
        next i
jump SELF loop1
        read_dump orig.dump 0 x y z
  orthogonal box = (0 -0.603507 0) to (4.48985 16.1837 4.48985)
  336 atoms before read
  336 atoms in snapshot
  0 atoms purged
  336 atoms replaced
  0 atoms trimmed
  0 atoms added
  336 atoms after read
        variable stretch equal 1+$i*${strainstep}
        variable stretch equal 1+22*${strainstep}
        variable stretch equal 1+22*-0.0005
        change_box all ${direction} scale ${stretch} remap
        change_box all y scale ${stretch} remap
        change_box all y scale 0.989 remap
  orthogonal box = (0 -0.512837 0) to (4.48985 16.0931 4.48985)
        min_style ${style}
        min_style hftn
        minimize ${etol} ${ftol} ${maxiter} ${maxeval}
        minimize 1e-12 ${ftol} ${maxiter} ${maxeval}
        minimize 1e-12 1e-08 ${maxiter} ${maxeval}
        minimize 1e-12 1e-08 10000 ${maxeval}
        minimize 1e-12 1e-08 10000 20000
WARNING: Resetting reneighboring criteria during minimization (../min.cpp:168)
Memory usage per processor = 4.9009 Mbytes
Step PotEng Pxx Pyy Pxy Lx Ly Lz 
       0   -1873.4864    1.9402604    1.4994534 -0.039132337      4.48985    16.605905      4.48985 
       1   -1876.1399    1.4975473   0.10382129 0.0029943345      4.48985    16.605905      4.48985 
       2   -1876.1565     1.465366 0.00073205075 0.0034520252      4.48985    16.605905      4.48985 
       3   -1876.1567     1.464375 -1.5187714e-05 6.3321912e-06      4.48985    16.605905      4.48985 
       4   -1876.1567    1.4643726 -1.8923633e-08 -9.1209812e-08      4.48985    16.605905      4.48985 
       5   -1876.1567    1.4643726 -1.624016e-11 1.1441764e-12      4.48985    16.605905      4.48985 
Loop time of 0.17427 on 1 procs for 4 steps with 336 atoms

Minimization stats:
  Stopping criterion = force tolerance
  Energy initial, next-to-last, final = 
        -1873.48641461     -1876.15668285     -1876.15668352
  Force two-norm initial, final = 13.0547 9.56767e-09
  Force max component initial, final = 1.84139 2.07243e-09
  Final line search alpha, max atom move = 0 0
  Iterations, force evaluations = 4 320

Pair  time (%) = 0.152791 (87.6748)
Neigh time (%) = 0 (0)
Comm  time (%) = 0.0139619 (8.01165)
Outpt time (%) = 0.000389787 (0.223669)
Other time (%) = 0.0071275 (4.08992)

Nlocal:    336 ave 336 max 336 min
Histogram: 1 0 0 0 0 0 0 0 0 0
Nghost:    1101 ave 1101 max 1101 min
Histogram: 1 0 0 0 0 0 0 0 0 0
Neighs:    8504 ave 8504 max 8504 min
Histogram: 1 0 0 0 0 0 0 0 0 0

Total # of neighbors = 8504
Ave neighs/atom = 25.3095
Neighbor list builds = 0
Dangerous builds = 0
        next i
jump SELF loop1
        read_dump orig.dump 0 x y z
  orthogonal box = (0 -0.603507 0) to (4.48985 16.1837 4.48985)
  336 atoms before read
  336 atoms in snapshot
  0 atoms purged
  336 atoms replaced
  0 atoms trimmed
  0 atoms added
  336 atoms after read
        variable stretch equal 1+$i*${strainstep}
        variable stretch equal 1+23*${strainstep}
        variable stretch equal 1+23*-0.0005
        change_box all ${direction} scale ${stretch} remap
        change_box all y scale ${stretch} remap
        change_box all y scale 0.9885 remap
  orthogonal box = (0 -0.508639 0) to (4.48985 16.0889 4.48985)
        min_style ${style}
        min_style hftn
        minimize ${etol} ${ftol} ${maxiter} ${maxeval}
        minimize 1e-12 ${ftol} ${maxiter} ${maxeval}
        minimize 1e-12 1e-08 ${maxiter} ${maxeval}
        minimize 1e-12 1e-08 10000 ${maxeval}
        minimize 1e-12 1e-08 10000 20000
WARNING: Resetting reneighboring criteria during minimization (../min.cpp:168)
Memory usage per processor = 4.9009 Mbytes
Step PotEng Pxx Pyy Pxy Lx Ly Lz 
       0   -1873.2266    1.9646413    1.5745488 -0.040356592      4.48985    16.597509      4.48985 
       1    -1876.137     1.501132   0.11250181 0.0034695007      4.48985    16.597509      4.48985 
       2   -1876.1564     1.466237 0.0009308539 0.0035963612      4.48985    16.597509      4.48985 
       3   -1876.1567    1.4651176 -3.3389417e-06 1.0098837e-05      4.48985    16.597509      4.48985 
       4   -1876.1567    1.4651133 2.8529862e-09 -1.7037765e-09      4.48985    16.597509      4.48985 
       5   -1876.1567    1.4651133 -1.4853102e-11 8.0020386e-12      4.48985    16.597509      4.48985 
Loop time of 0.178194 on 1 procs for 4 steps with 336 atoms

Minimization stats:
  Stopping criterion = force tolerance
  Energy initial, next-to-last, final = 
        -1873.22657457     -1876.15668344     -1876.15668352
  Force two-norm initial, final = 13.7028 3.04369e-09
  Force max component initial, final = 1.93397 4.66057e-10
  Final line search alpha, max atom move = 0 0
  Iterations, force evaluations = 4 352

Pair  time (%) = 0.155405 (87.2111)
Neigh time (%) = 0 (0)
Comm  time (%) = 0.0142529 (7.99854)
Outpt time (%) = 0.000259922 (0.145865)
Other time (%) = 0.00827621 (4.6445)

Nlocal:    336 ave 336 max 336 min
Histogram: 1 0 0 0 0 0 0 0 0 0
Nghost:    1101 ave 1101 max 1101 min
Histogram: 1 0 0 0 0 0 0 0 0 0
Neighs:    8520 ave 8520 max 8520 min
Histogram: 1 0 0 0 0 0 0 0 0 0

Total # of neighbors = 8520
Ave neighs/atom = 25.3571
Neighbor list builds = 0
Dangerous builds = 0
        next i
jump SELF loop1
        read_dump orig.dump 0 x y z
  orthogonal box = (0 -0.603507 0) to (4.48985 16.1837 4.48985)
  336 atoms before read
  336 atoms in snapshot
  0 atoms purged
  336 atoms replaced
  0 atoms trimmed
  0 atoms added
  336 atoms after read
        variable stretch equal 1+$i*${strainstep}
        variable stretch equal 1+24*${strainstep}
        variable stretch equal 1+24*-0.0005
        change_box all ${direction} scale ${stretch} remap
        change_box all y scale ${stretch} remap
        change_box all y scale 0.988 remap
  orthogonal box = (0 -0.504442 0) to (4.48985 16.0847 4.48985)
        min_style ${style}
        min_style hftn
        minimize ${etol} ${ftol} ${maxiter} ${maxeval}
        minimize 1e-12 ${ftol} ${maxiter} ${maxeval}
        minimize 1e-12 1e-08 ${maxiter} ${maxeval}
        minimize 1e-12 1e-08 10000 ${maxeval}
        minimize 1e-12 1e-08 10000 20000
WARNING: Resetting reneighboring criteria during minimization (../min.cpp:168)
Memory usage per processor = 4.9009 Mbytes
Step PotEng Pxx Pyy Pxy Lx Ly Lz 
       0   -1872.9537    1.9891813    1.6501901 -0.041533355      4.48985    16.589114      4.48985 
       1   -1876.1334    1.5051243    0.1229097 0.0034105169      4.48985    16.589114      4.48985 
       2   -1876.1564    1.4670181 0.0010881478  0.003725975      4.48985    16.589114      4.48985 
       3   -1876.1567    1.4658425 -5.2566681e-05 -8.1432511e-07      4.48985    16.589114      4.48985 
       4   -1876.1567    1.4658548 -2.4251669e-11 1.0112153e-08      4.48985    16.589114      4.48985 
       5   -1876.1567    1.4658548 -9.2290216e-12 1.4107241e-11      4.48985    16.589114      4.48985 
Loop time of 0.232636 on 1 procs for 4 steps with 336 atoms

Minimization stats:
  Stopping criterion = force tolerance
  Energy initial, next-to-last, final = 
         -1872.9536972     -1876.15668224     -1876.15668352
  Force two-norm initial, final = 14.3548 2.48e-09
  Force max component initial, final = 2.02705 4.82935e-10
  Final line search alpha, max atom move = 0 0
  Iterations, force evaluations = 4 354

Pair  time (%) = 0.179901 (77.3314)
Neigh time (%) = 0 (0)
Comm  time (%) = 0.0367726 (15.8069)
Outpt time (%) = 0.000225821 (0.0970706)
Other time (%) = 0.0157369 (6.76459)

Nlocal:    336 ave 336 max 336 min
Histogram: 1 0 0 0 0 0 0 0 0 0
Nghost:    1101 ave 1101 max 1101 min
Histogram: 1 0 0 0 0 0 0 0 0 0
Neighs:    8520 ave 8520 max 8520 min
Histogram: 1 0 0 0 0 0 0 0 0 0

Total # of neighbors = 8520
Ave neighs/atom = 25.3571
Neighbor list builds = 0
Dangerous builds = 0
        next i
jump SELF loop1
        read_dump orig.dump 0 x y z
  orthogonal box = (0 -0.603507 0) to (4.48985 16.1837 4.48985)
  336 atoms before read
  336 atoms in snapshot
  0 atoms purged
  336 atoms replaced
  0 atoms trimmed
  0 atoms added
  336 atoms after read
        variable stretch equal 1+$i*${strainstep}
        variable stretch equal 1+25*${strainstep}
        variable stretch equal 1+25*-0.0005
        change_box all ${direction} scale ${stretch} remap
        change_box all y scale ${stretch} remap
        change_box all y scale 0.9875 remap
  orthogonal box = (0 -0.500244 0) to (4.48985 16.0805 4.48985)
        min_style ${style}
        min_style hftn
        minimize ${etol} ${ftol} ${maxiter} ${maxeval}
        minimize 1e-12 ${ftol} ${maxiter} ${maxeval}
        minimize 1e-12 1e-08 ${maxiter} ${maxeval}
        minimize 1e-12 1e-08 10000 ${maxeval}
        minimize 1e-12 1e-08 10000 20000
WARNING: Resetting reneighboring criteria during minimization (../min.cpp:168)
Memory usage per processor = 4.9009 Mbytes
Step PotEng Pxx Pyy Pxy Lx Ly Lz 
       0    -1872.668    2.0138777    1.7263712 -0.042644626      4.48985    16.580719      4.48985 
       1   -1876.1305    1.5087458   0.13169175 0.0036486384      4.48985    16.580719      4.48985 
       2   -1876.1564    1.4678595 0.0012392195 0.0038078112      4.48985    16.580719      4.48985 
       3   -1876.1567    1.4666046 2.8587358e-06 9.3706514e-06      4.48985    16.580719      4.48985 
       4   -1876.1567     1.466597 -1.8240165e-09 1.1734143e-08      4.48985    16.580719      4.48985 
       5   -1876.1567     1.466597 -7.9737902e-12 -4.217336e-12      4.48985    16.580719      4.48985 
Loop time of 0.179853 on 1 procs for 4 steps with 336 atoms

Minimization stats:
  Stopping criterion = force tolerance
  Energy initial, next-to-last, final = 
         -1872.6679695     -1876.15668262     -1876.15668352
  Force two-norm initial, final = 15.0117 5.757e-09
  Force max component initial, final = 2.12091 1.05804e-09
  Final line search alpha, max atom move = 0 0
  Iterations, force evaluations = 4 350

Pair  time (%) = 0.161484 (89.7865)
Neigh time (%) = 0 (0)
Comm  time (%) = 0.00858363 (4.77258)
Outpt time (%) = 0.000309123 (0.171876)
Other time (%) = 0.00947648 (5.26902)

Nlocal:    336 ave 336 max 336 min
Histogram: 1 0 0 0 0 0 0 0 0 0
Nghost:    1101 ave 1101 max 1101 min
Histogram: 1 0 0 0 0 0 0 0 0 0
Neighs:    8520 ave 8520 max 8520 min
Histogram: 1 0 0 0 0 0 0 0 0 0

Total # of neighbors = 8520
Ave neighs/atom = 25.3571
Neighbor list builds = 0
Dangerous builds = 0
        next i
jump SELF loop1
        read_dump orig.dump 0 x y z
  orthogonal box = (0 -0.603507 0) to (4.48985 16.1837 4.48985)
  336 atoms before read
  336 atoms in snapshot
  0 atoms purged
  336 atoms replaced
  0 atoms trimmed
  0 atoms added
  336 atoms after read
        variable stretch equal 1+$i*${strainstep}
        variable stretch equal 1+26*${strainstep}
        variable stretch equal 1+26*-0.0005
        change_box all ${direction} scale ${stretch} remap
        change_box all y scale ${stretch} remap
        change_box all y scale 0.987 remap
  orthogonal box = (0 -0.496046 0) to (4.48985 16.0763 4.48985)
        min_style ${style}
        min_style hftn
        minimize ${etol} ${ftol} ${maxiter} ${maxeval}
        minimize 1e-12 ${ftol} ${maxiter} ${maxeval}
        minimize 1e-12 1e-08 ${maxiter} ${maxeval}
        minimize 1e-12 1e-08 10000 ${maxeval}
        minimize 1e-12 1e-08 10000 20000
WARNING: Resetting reneighboring criteria during minimization (../min.cpp:168)
Memory usage per processor = 4.9009 Mbytes
Step PotEng Pxx Pyy Pxy Lx Ly Lz 
       0   -1872.3692    2.0387451     1.803096  -0.04371675      4.48985    16.572323      4.48985 
       1   -1876.1258    1.5135752   0.14406851 0.0039389462      4.48985    16.572323      4.48985 
       2   -1876.1564    1.4686638 0.0013637922 0.0038834447      4.48985    16.572323      4.48985 
       3   -1876.1567     1.467347 5.6034272e-06 1.2900736e-05      4.48985    16.572323      4.48985 
       4   -1876.1567      1.46734 -8.2915417e-10 5.6100591e-09      4.48985    16.572323      4.48985 
       5   -1876.1567      1.46734 -2.1337655e-11 -3.2431755e-13      4.48985    16.572323      4.48985 
Loop time of 0.183122 on 1 procs for 4 steps with 336 atoms

Minimization stats:
  Stopping criterion = force tolerance
  Energy initial, next-to-last, final = 
        -1872.36920465     -1876.15668291     -1876.15668352
  Force two-norm initial, final = 15.6731 3.71672e-09
  Force max component initial, final = 2.2153 7.96803e-10
  Final line search alpha, max atom move = 0 0
  Iterations, force evaluations = 4 356

Pair  time (%) = 0.163533 (89.3029)
Neigh time (%) = 0 (0)
Comm  time (%) = 0.00894857 (4.88667)
Outpt time (%) = 0.000252137 (0.137688)
Other time (%) = 0.010388 (5.67272)

Nlocal:    336 ave 336 max 336 min
Histogram: 1 0 0 0 0 0 0 0 0 0
Nghost:    1101 ave 1101 max 1101 min
Histogram: 1 0 0 0 0 0 0 0 0 0
Neighs:    8520 ave 8520 max 8520 min
Histogram: 1 0 0 0 0 0 0 0 0 0

Total # of neighbors = 8520
Ave neighs/atom = 25.3571
Neighbor list builds = 0
Dangerous builds = 0
        next i
jump SELF loop1
        read_dump orig.dump 0 x y z
  orthogonal box = (0 -0.603507 0) to (4.48985 16.1837 4.48985)
  336 atoms before read
  336 atoms in snapshot
  0 atoms purged
  336 atoms replaced
  0 atoms trimmed
  0 atoms added
  336 atoms after read
        variable stretch equal 1+$i*${strainstep}
        variable stretch equal 1+27*${strainstep}
        variable stretch equal 1+27*-0.0005
        change_box all ${direction} scale ${stretch} remap
        change_box all y scale ${stretch} remap
        change_box all y scale 0.9865 remap
  orthogonal box = (0 -0.491849 0) to (4.48985 16.0721 4.48985)
        min_style ${style}
        min_style hftn
        minimize ${etol} ${ftol} ${maxiter} ${maxeval}
        minimize 1e-12 ${ftol} ${maxiter} ${maxeval}
        minimize 1e-12 1e-08 ${maxiter} ${maxeval}
        minimize 1e-12 1e-08 10000 ${maxeval}
        minimize 1e-12 1e-08 10000 20000
WARNING: Resetting reneighboring criteria during minimization (../min.cpp:168)
Memory usage per processor = 4.9009 Mbytes
Step PotEng Pxx Pyy Pxy Lx Ly Lz 
       0   -1872.0576    2.0637674    1.8803648 -0.044732753      4.48985    16.563928      4.48985 
       1   -1875.9492    1.5434749   0.22801462 -0.003122636      4.48985    16.563928      4.48985 
       2   -1876.1559    1.4717555 0.0088248297 0.0034708989      4.48985    16.563928      4.48985 
       3   -1876.1567    1.4680709 -1.7031128e-05 -6.1556549e-06      4.48985    16.563928      4.48985 
       4   -1876.1567    1.4680825 -2.5917724e-06 -1.0525284e-06      4.48985    16.563928      4.48985 
       5   -1876.1567    1.4680837 3.9505895e-13 -1.2918782e-13      4.48985    16.563928      4.48985 
Loop time of 0.19181 on 1 procs for 4 steps with 336 atoms

Minimization stats:
  Stopping criterion = force tolerance
  Energy initial, next-to-last, final = 
        -1872.05757276     -1876.15667966     -1876.15668352
  Force two-norm initial, final = 16.3388 3.3921e-10
  Force max component initial, final = 2.31047 4.40661e-11
  Final line search alpha, max atom move = 0 0
[...]
  Final line search alpha, max atom move = 0 0
  Iterations, force evaluations = 15 430

Pair  time (%) = 0.201625 (87.4146)
Neigh time (%) = 0.000879198 (0.381176)
Comm  time (%) = 0.0173964 (7.54222)
Outpt time (%) = 0.000829502 (0.35963)
Other time (%) = 0.00992354 (4.30235)

Nlocal:    336 ave 336 max 336 min
Histogram: 1 0 0 0 0 0 0 0 0 0
Nghost:    1101 ave 1101 max 1101 min
Histogram: 1 0 0 0 0 0 0 0 0 0
Neighs:    8504 ave 8504 max 8504 min
Histogram: 1 0 0 0 0 0 0 0 0 0

Total # of neighbors = 8504
Ave neighs/atom = 25.3095
Neighbor list builds = 2
Dangerous builds = 0
        next i
jump SELF loop1
        read_dump orig.dump 0 x y z
  orthogonal box = (0 -0.603507 0) to (4.48985 16.1837 4.48985)
  336 atoms before read
  336 atoms in snapshot
  0 atoms purged
  336 atoms replaced
  0 atoms trimmed
  0 atoms added
  336 atoms after read
        variable stretch equal 1+$i*${strainstep}
        variable stretch equal 1+95*${strainstep}
        variable stretch equal 1+95*-0.0005
        change_box all ${direction} scale ${stretch} remap
        change_box all y scale ${stretch} remap
        change_box all y scale 0.9525 remap
  orthogonal box = (0 -0.206409 0) to (4.48985 15.7866 4.48985)
        min_style ${style}
        min_style hftn
        minimize ${etol} ${ftol} ${maxiter} ${maxeval}
        minimize 1e-12 ${ftol} ${maxiter} ${maxeval}
        minimize 1e-12 1e-08 ${maxiter} ${maxeval}
        minimize 1e-12 1e-08 10000 ${maxeval}
        minimize 1e-12 1e-08 10000 20000
WARNING: Resetting reneighboring criteria during minimization (../min.cpp:168)
Memory usage per processor = 4.9009 Mbytes
Step PotEng Pxx Pyy Pxy Lx Ly Lz 
       0   -1815.1353    4.1810347    8.4852376 0.0071021589      4.48985    15.993048      4.48985 
       1   -1832.6551    3.6821974    6.2868644 -0.040738569      4.48985    15.993048      4.48985 
       2   -1850.6225    2.9378742    4.5487647  0.016396761      4.48985     16.33417      4.48985 
       3    -1862.807    2.5132102    3.0521932 -0.011461456      4.48985     16.33417      4.48985 
       4   -1871.6641    1.9767141    1.4949612  0.020472672      4.48985     16.33417      4.48985 
       5   -1876.0939    1.4982013   0.13365645  0.021897446      4.48985     16.77019      4.48985 
       6   -1876.1566    1.4509088 0.0026974863 0.0010789166      4.48985     16.77019      4.48985 
       7   -1876.1567    1.4500474 1.1308295e-05 7.527533e-05      4.48985     16.77019      4.48985 
       8   -1876.1567    1.4500273 9.2489061e-09 -7.5053347e-09      4.48985     16.77019      4.48985 
       9   -1876.1567    1.4500273 7.2976883e-12  3.11279e-11      4.48985     16.77019      4.48985 
      10   -1876.1567    1.4500273 -9.1986575e-14 1.2036855e-13      4.48985     16.77019      4.48985 
Loop time of 0.270899 on 1 procs for 9 steps with 336 atoms

Minimization stats:
  Stopping criterion = force tolerance
  Energy initial, next-to-last, final = 
         -1815.1353385     -1876.15662021     -1876.15668352
  Force two-norm initial, final = 72.5145 1.1192e-10
  Force max component initial, final = 10.4615 2.84057e-11
  Final line search alpha, max atom move = 0 0
  Iterations, force evaluations = 9 526

Pair  time (%) = 0.236601 (87.3391)
Neigh time (%) = 0.00225992 (0.834229)
Comm  time (%) = 0.0195104 (7.20211)
Outpt time (%) = 0.000577874 (0.213317)
Other time (%) = 0.01195 (4.41125)

Nlocal:    336 ave 336 max 336 min
Histogram: 1 0 0 0 0 0 0 0 0 0
Nghost:    1101 ave 1101 max 1101 min
Histogram: 1 0 0 0 0 0 0 0 0 0
Neighs:    8504 ave 8504 max 8504 min
Histogram: 1 0 0 0 0 0 0 0 0 0

Total # of neighbors = 8504
Ave neighs/atom = 25.3095
Neighbor list builds = 2
Dangerous builds = 0
        next i
jump SELF loop1
        read_dump orig.dump 0 x y z
  orthogonal box = (0 -0.603507 0) to (4.48985 16.1837 4.48985)
  336 atoms before read
  336 atoms in snapshot
  0 atoms purged
  336 atoms replaced
  0 atoms trimmed
  0 atoms added
  336 atoms after read
        variable stretch equal 1+$i*${strainstep}
        variable stretch equal 1+96*${strainstep}
        variable stretch equal 1+96*-0.0005
        change_box all ${direction} scale ${stretch} remap
        change_box all y scale ${stretch} remap
        change_box all y scale 0.952 remap
  orthogonal box = (0 -0.202211 0) to (4.48985 15.7824 4.48985)
        min_style ${style}
        min_style hftn
        minimize ${etol} ${ftol} ${maxiter} ${maxeval}
        minimize 1e-12 ${ftol} ${maxiter} ${maxeval}
        minimize 1e-12 1e-08 ${maxiter} ${maxeval}
        minimize 1e-12 1e-08 10000 ${maxeval}
        minimize 1e-12 1e-08 10000 20000
WARNING: Resetting reneighboring criteria during minimization (../min.cpp:168)
Memory usage per processor = 4.9009 Mbytes
Step PotEng Pxx Pyy Pxy Lx Ly Lz 
       0   -1813.6889    4.2190183    8.6055612  0.010390121      4.48985    15.984652      4.48985 
       1    -1831.642    3.7127747    6.3754217 -0.040447105      4.48985    15.984652      4.48985 
       2   -1840.9737    3.3457183    5.8190191  0.015892995      4.48985    15.984652      4.48985 
       3    -1854.602    2.8750911    3.5327088 -0.081889092      4.48985      16.3962      4.48985 
       4   -1867.5714    2.3625119    2.3436691 -0.079123855      4.48985      16.3962      4.48985 
       5   -1874.3809    1.7808497    0.7776944  0.043579627      4.48985    16.696073      4.48985 
       6   -1876.1453    1.4804929  0.055418098  0.020028609      4.48985    16.696073      4.48985 
       7   -1876.1567    1.4567623 0.00064808852 0.00011595192      4.48985    16.696073      4.48985 
       8   -1876.1567    1.4567623 0.00064808852 0.00011595192      4.48985    16.696073      4.48985 
       9   -1876.1567    1.4566977 0.00058128786 8.8014505e-05      4.48985    16.696073      4.48985 
      10   -1876.1567    1.4566977 0.00058128786 8.8014505e-05      4.48985    16.696073      4.48985 
      11   -1876.1567    1.4566977 0.00058128786 8.8014505e-05      4.48985    16.696073      4.48985 
      12   -1876.1567    1.4566977 0.00058128786 8.8014505e-05      4.48985    16.696073      4.48985 
      13   -1876.1567    1.4566977 0.00058128786 8.8014505e-05      4.48985    16.696073      4.48985 
      14   -1876.1567    1.4566977 0.00058128786 8.8014505e-05      4.48985    16.696073      4.48985 
      15   -1876.1567    1.4566977 0.00058128786 8.8014505e-05      4.48985    16.696073      4.48985 
      16   -1876.1567    1.4566977 0.0005812801 8.8009338e-05      4.48985    16.696073      4.48985 
Loop time of 0.181491 on 1 procs for 15 steps with 336 atoms

Minimization stats:
  Stopping criterion = energy tolerance
  Energy initial, next-to-last, final = 
        -1813.68886428     -1876.15668282     -1876.15669314
  Force two-norm initial, final = 73.5456 0.00812018
  Force max component initial, final = 10.6103 0.000916353
  Final line search alpha, max atom move = 0 0
  Iterations, force evaluations = 15 330

Pair  time (%) = 0.157585 (86.8278)
Neigh time (%) = 0.000835078 (0.460121)
Comm  time (%) = 0.0148581 (8.18669)
Outpt time (%) = 0.000929344 (0.51206)
Other time (%) = 0.00728388 (4.01335)

Nlocal:    336 ave 336 max 336 min
Histogram: 1 0 0 0 0 0 0 0 0 0
Nghost:    1101 ave 1101 max 1101 min
Histogram: 1 0 0 0 0 0 0 0 0 0
Neighs:    8504 ave 8504 max 8504 min
Histogram: 1 0 0 0 0 0 0 0 0 0

Total # of neighbors = 8504
Ave neighs/atom = 25.3095
Neighbor list builds = 2
Dangerous builds = 0
        next i
jump SELF loop1
        read_dump orig.dump 0 x y z
  orthogonal box = (0 -0.603507 0) to (4.48985 16.1837 4.48985)
  336 atoms before read
  336 atoms in snapshot
  0 atoms purged
  336 atoms replaced
  0 atoms trimmed
  0 atoms added
  336 atoms after read
        variable stretch equal 1+$i*${strainstep}
        variable stretch equal 1+97*${strainstep}
        variable stretch equal 1+97*-0.0005
        change_box all ${direction} scale ${stretch} remap
        change_box all y scale ${stretch} remap
        change_box all y scale 0.9515 remap
  orthogonal box = (0 -0.198013 0) to (4.48985 15.7782 4.48985)
        min_style ${style}
        min_style hftn
        minimize ${etol} ${ftol} ${maxiter} ${maxeval}
        minimize 1e-12 ${ftol} ${maxiter} ${maxeval}
        minimize 1e-12 1e-08 ${maxiter} ${maxeval}
        minimize 1e-12 1e-08 10000 ${maxeval}
        minimize 1e-12 1e-08 10000 20000
WARNING: Resetting reneighboring criteria during minimization (../min.cpp:168)
Memory usage per processor = 4.9009 Mbytes
Step PotEng Pxx Pyy Pxy Lx Ly Lz 
       0   -1812.2223    4.2572527    8.7266865  0.013798499      4.48985    15.976257      4.48985 
       1   -1830.6102    3.7440551     6.464099 -0.039861393      4.48985    15.976257      4.48985 
       2   -1840.1465    3.3723008    5.8974864  0.015644126      4.48985    15.976257      4.48985 
       3   -1854.0287    2.8993177    3.5923804 -0.082410566      4.48985    16.389924      4.48985 
       4   -1867.2836    2.3780753    2.3920267 -0.082058552      4.48985    16.389924      4.48985 
       5   -1874.3474    1.7837044   0.78454301  0.048002995      4.48985    16.695818      4.48985 
       6   -1876.1448    1.4809514  0.056249901  0.020455553      4.48985    16.695818      4.48985 
       7   -1876.1567    1.4567887 0.00066420462 0.00010996341      4.48985    16.695818      4.48985 
       8   -1876.1567    1.4564885 2.548873e-06 8.4391083e-06      4.48985    16.695818      4.48985 
       9   -1876.1567    1.4564864 -5.8339647e-11 -6.6547126e-10      4.48985    16.695818      4.48985 
      10   -1876.1567    1.4564864 3.2377819e-13 2.8668336e-14      4.48985    16.695818      4.48985 
Loop time of 0.258246 on 1 procs for 9 steps with 336 atoms

Minimization stats:
  Stopping criterion = force tolerance
  Energy initial, next-to-last, final = 
        -1812.22232421     -1876.15668334     -1876.15668352
  Force two-norm initial, final = 74.5835 3.44457e-09
  Force max component initial, final = 10.7597 1.23658e-09
  Final line search alpha, max atom move = 0 0
  Iterations, force evaluations = 9 467

Pair  time (%) = 0.228931 (88.6485)
Neigh time (%) = 0.000884065 (0.342335)
Comm  time (%) = 0.0171093 (6.62519)
Outpt time (%) = 0.00135279 (0.523836)
Other time (%) = 0.00996874 (3.86017)

Nlocal:    336 ave 336 max 336 min
Histogram: 1 0 0 0 0 0 0 0 0 0
Nghost:    1101 ave 1101 max 1101 min
Histogram: 1 0 0 0 0 0 0 0 0 0
Neighs:    8504 ave 8504 max 8504 min
Histogram: 1 0 0 0 0 0 0 0 0 0

Total # of neighbors = 8504
Ave neighs/atom = 25.3095
Neighbor list builds = 2
Dangerous builds = 0
        next i
jump SELF loop1
        read_dump orig.dump 0 x y z
  orthogonal box = (0 -0.603507 0) to (4.48985 16.1837 4.48985)
  336 atoms before read
  336 atoms in snapshot
  0 atoms purged
  336 atoms replaced
  0 atoms trimmed
  0 atoms added
  336 atoms after read
        variable stretch equal 1+$i*${strainstep}
        variable stretch equal 1+98*${strainstep}
        variable stretch equal 1+98*-0.0005
        change_box all ${direction} scale ${stretch} remap
        change_box all y scale ${stretch} remap
        change_box all y scale 0.951 remap
  orthogonal box = (0 -0.193816 0) to (4.48985 15.774 4.48985)
        min_style ${style}
        min_style hftn
        minimize ${etol} ${ftol} ${maxiter} ${maxeval}
        minimize 1e-12 ${ftol} ${maxiter} ${maxeval}
        minimize 1e-12 1e-08 ${maxiter} ${maxeval}
        minimize 1e-12 1e-08 10000 ${maxeval}
        minimize 1e-12 1e-08 10000 20000
WARNING: Resetting reneighboring criteria during minimization (../min.cpp:168)
Memory usage per processor = 4.9009 Mbytes
Step PotEng Pxx Pyy Pxy Lx Ly Lz 
       0   -1810.7351    4.2957352    8.8486417  0.017329272      4.48985    15.967862      4.48985 
       1   -1829.5594    3.7749093    6.5545728 -0.040224584      4.48985    15.967862      4.48985 
       2   -1839.3277    3.3972541    5.9741002  0.019195901      4.48985    15.967862      4.48985 
       3   -1853.4491    2.9236935    3.6472109   -0.0832115      4.48985    16.385313      4.48985 
       4    -1862.855    2.5683057     3.242918 -0.064500452      4.48985    16.385313      4.48985 
       5   -1871.8979    1.9645434    1.4222875   0.01881314      4.48985    16.385313      4.48985 
       6   -1876.1008    1.4945793   0.13366137  0.019585305      4.48985    16.770055      4.48985 
       7   -1876.1566    1.4506874  0.002015185 0.00045190281      4.48985    16.770055      4.48985 
       8   -1876.1567    1.4500421  5.37306e-06 4.8213147e-06      4.48985    16.770055      4.48985 
       9   -1876.1567    1.4500389 9.5195395e-09 9.2388786e-10      4.48985    16.770055      4.48985 
      10   -1876.1567    1.4500389 1.0298135e-10 2.660869e-11      4.48985    16.770055      4.48985 
Loop time of 0.301207 on 1 procs for 9 steps with 336 atoms

Minimization stats:
  Stopping criterion = force tolerance
  Energy initial, next-to-last, final = 
        -1810.73509841     -1876.15668266     -1876.15668352
  Force two-norm initial, final = 75.6294 2.87352e-09
  Force max component initial, final = 10.9105 6.88184e-10
  Final line search alpha, max atom move = 0 0
  Iterations, force evaluations = 9 499

Pair  time (%) = 0.244537 (81.1858)
Neigh time (%) = 0.000807064 (0.267943)
Comm  time (%) = 0.020665 (6.86072)
Outpt time (%) = 0.0222632 (7.39134)
Other time (%) = 0.0129344 (4.29419)

Nlocal:    336 ave 336 max 336 min
Histogram: 1 0 0 0 0 0 0 0 0 0
Nghost:    1101 ave 1101 max 1101 min
Histogram: 1 0 0 0 0 0 0 0 0 0
Neighs:    8504 ave 8504 max 8504 min
Histogram: 1 0 0 0 0 0 0 0 0 0

Total # of neighbors = 8504
Ave neighs/atom = 25.3095
Neighbor list builds = 2
Dangerous builds = 0
        next i
jump SELF loop1
        read_dump orig.dump 0 x y z
  orthogonal box = (0 -0.603507 0) to (4.48985 16.1837 4.48985)
  336 atoms before read
  336 atoms in snapshot
  0 atoms purged
  336 atoms replaced
  0 atoms trimmed
  0 atoms added
  336 atoms after read
        variable stretch equal 1+$i*${strainstep}
        variable stretch equal 1+99*${strainstep}
        variable stretch equal 1+99*-0.0005
        change_box all ${direction} scale ${stretch} remap
        change_box all y scale ${stretch} remap
        change_box all y scale 0.9505 remap
  orthogonal box = (0 -0.189618 0) to (4.48985 15.7698 4.48985)
        min_style ${style}
        min_style hftn
        minimize ${etol} ${ftol} ${maxiter} ${maxeval}
        minimize 1e-12 ${ftol} ${maxiter} ${maxeval}
        minimize 1e-12 1e-08 ${maxiter} ${maxeval}
        minimize 1e-12 1e-08 10000 ${maxeval}
        minimize 1e-12 1e-08 10000 20000
WARNING: Resetting reneighboring criteria during minimization (../min.cpp:168)
Memory usage per processor = 4.9009 Mbytes
Step PotEng Pxx Pyy Pxy Lx Ly Lz 
       0   -1809.2275    4.3344495    8.9713963  0.020967633      4.48985    15.959467      4.48985 
       1   -1828.5009    3.8067426    6.6472279 -0.039273558      4.48985    15.959467      4.48985 
       2   -1838.5345    3.4197892    6.0465352  0.021890757      4.48985    15.959467      4.48985 
       3   -1852.9472     2.945234     3.698727 -0.085075072      4.48985    16.379941      4.48985 
       4   -1862.5882    2.5810729    3.2742111 -0.067024433      4.48985    16.379941      4.48985 
       5   -1871.8011    1.9683786    1.4260535  0.019968014      4.48985    16.379941      4.48985 
       6    -1876.101    1.4947254   0.13381462  0.019658744      4.48985    16.770156      4.48985 
       7   -1876.1565    1.4507514 0.0022010607 0.00045754837      4.48985    16.770156      4.48985 
       8   -1876.1567    1.4500334 5.9900358e-06 6.7436913e-06      4.48985    16.770156      4.48985 
       9   -1876.1567    1.4500302 3.9795298e-08 -2.0644809e-09      4.48985    16.770156      4.48985 
      10   -1876.1567    1.4500302 1.6177506e-10 8.658044e-11      4.48985    16.770156      4.48985 
Loop time of 0.252434 on 1 procs for 9 steps with 336 atoms

Minimization stats:
  Stopping criterion = force tolerance
  Energy initial, next-to-last, final = 
        -1809.22750438     -1876.15668276     -1876.15668352
  Force two-norm initial, final = 76.6825 5.9967e-09
  Force max component initial, final = 11.0623 1.2294e-09
  Final line search alpha, max atom move = 0 0
  Iterations, force evaluations = 9 485

Pair  time (%) = 0.2223 (88.0625)
Neigh time (%) = 0.000930848 (0.368749)
Comm  time (%) = 0.0195142 (7.73042)
Outpt time (%) = 0.000648135 (0.256754)
Other time (%) = 0.00904112 (3.58158)

Nlocal:    336 ave 336 max 336 min
Histogram: 1 0 0 0 0 0 0 0 0 0
Nghost:    1101 ave 1101 max 1101 min
Histogram: 1 0 0 0 0 0 0 0 0 0
Neighs:    8504 ave 8504 max 8504 min
Histogram: 1 0 0 0 0 0 0 0 0 0

Total # of neighbors = 8504
Ave neighs/atom = 25.3095
Neighbor list builds = 2
Dangerous builds = 0
        next i
jump SELF loop1
        read_dump orig.dump 0 x y z
  orthogonal box = (0 -0.603507 0) to (4.48985 16.1837 4.48985)
  336 atoms before read
  336 atoms in snapshot
  0 atoms purged
  336 atoms replaced
  0 atoms trimmed
  0 atoms added
  336 atoms after read
        variable stretch equal 1+$i*${strainstep}
        variable stretch equal 1+100*${strainstep}
        variable stretch equal 1+100*-0.0005
        change_box all ${direction} scale ${stretch} remap
        change_box all y scale ${stretch} remap
        change_box all y scale 0.95 remap
  orthogonal box = (0 -0.18542 0) to (4.48985 15.7657 4.48985)
        min_style ${style}
        min_style hftn
        minimize ${etol} ${ftol} ${maxiter} ${maxeval}
        minimize 1e-12 ${ftol} ${maxiter} ${maxeval}
        minimize 1e-12 1e-08 ${maxiter} ${maxeval}
        minimize 1e-12 1e-08 10000 ${maxeval}
        minimize 1e-12 1e-08 10000 20000
WARNING: Resetting reneighboring criteria during minimization (../min.cpp:168)
Memory usage per processor = 4.9009 Mbytes
Step PotEng Pxx Pyy Pxy Lx Ly Lz 
       0   -1807.6986    4.3734026    9.0949681  0.024695055      4.48985    15.951071      4.48985 
       1    -1827.399    3.8393955    6.7386649 -0.039537498      4.48985    15.951071      4.48985 
       2   -1837.6684    3.4462721    6.1282826  0.024128811      4.48985    15.951071      4.48985 
       3   -1852.4487    2.9621918    3.7425321 -0.083306515      4.48985    16.376251      4.48985 
       4   -1862.2833    2.5961777    3.3162376 -0.066262877      4.48985    16.376251      4.48985 
       5   -1871.7342    1.9762921    1.4491603  0.022796998      4.48985    16.376251      4.48985 
       6   -1876.0987    1.4954666   0.13678794  0.020410619      4.48985    16.769702      4.48985 
       7   -1876.1566    1.4508493 0.0023172318 0.0004974725      4.48985    16.769702      4.48985 
       8   -1876.1567     1.450072 5.5410487e-06 5.8882966e-06      4.48985    16.769702      4.48985 
       9   -1876.1567    1.4500694 2.1955139e-08 1.1542476e-09      4.48985    16.769702      4.48985 
      10   -1876.1567    1.4500694 1.452025e-10 1.1306155e-10      4.48985    16.769702      4.48985 
Loop time of 0.256803 on 1 procs for 9 steps with 336 atoms

Minimization stats:
  Stopping criterion = force tolerance
  Energy initial, next-to-last, final = 
        -1807.69859534     -1876.15668283     -1876.15668352
  Force two-norm initial, final = 77.7441 4.77124e-09
  Force max component initial, final = 11.2152 1.15346e-09
  Final line search alpha, max atom move = 0 0
  Iterations, force evaluations = 9 497

Pair  time (%) = 0.228035 (88.7978)
Neigh time (%) = 0.000882984 (0.343837)
Comm  time (%) = 0.0174342 (6.78894)
Outpt time (%) = 0.000734543 (0.286034)
Other time (%) = 0.00971597 (3.78343)

Nlocal:    336 ave 336 max 336 min
Histogram: 1 0 0 0 0 0 0 0 0 0
Nghost:    1101 ave 1101 max 1101 min
Histogram: 1 0 0 0 0 0 0 0 0 0
Neighs:    8504 ave 8504 max 8504 min
Histogram: 1 0 0 0 0 0 0 0 0 0

Total # of neighbors = 8504
Ave neighs/atom = 25.3095
Neighbor list builds = 2
Dangerous builds = 0
        next i
jump SELF loop1

