LAMMPS (28 Jun 2014)
# attempt at getting strain-stress curve for infinite slab

#file prefix
variable prefix string compression_V_inter5
variable dumpfile string ${prefix}.*.dump
variable dumpfile string compression_V_inter5.*.dump
variable restartfile string ${prefix}.*.equil
variable restartfile string compression_V_inter5.*.equil

#Mass (g/mol)
variable m equal 1

# lattice constant (in Angstroms) and orientation of axes (given by lattice vectors)
variable rho equal 0.9165
variable x1 equal 1
variable x2 equal 0
variable x3 equal 0
variable y1 equal 0
variable y2 equal 1
variable y3 equal 0
# length of lattice in different directions (using orientation of lattice vectors)
variable ax equal sqrt(${x1}*${x1}+${x2}*${x2}+${x3}*${x3})
variable ax equal sqrt(1*${x1}+${x2}*${x2}+${x3}*${x3})
variable ax equal sqrt(1*1+${x2}*${x2}+${x3}*${x3})
variable ax equal sqrt(1*1+0*${x2}+${x3}*${x3})
variable ax equal sqrt(1*1+0*0+${x3}*${x3})
variable ax equal sqrt(1*1+0*0+0*${x3})
variable ax equal sqrt(1*1+0*0+0*0)
variable ay equal sqrt(${y1}*${y1}+${y2}*${y2}+${y3}*${y3})
variable ay equal sqrt(0*${y1}+${y2}*${y2}+${y3}*${y3})
variable ay equal sqrt(0*0+${y2}*${y2}+${y3}*${y3})
variable ay equal sqrt(0*0+1*${y2}+${y3}*${y3})
variable ay equal sqrt(0*0+1*1+${y3}*${y3})
variable ay equal sqrt(0*0+1*1+0*${y3})
variable ay equal sqrt(0*0+1*1+0*0)
variable az equal 1

# size of box in lattice units
variable lxpos equal 3
variable lxneg equal 0
variable lypos equal 3
variable lyneg equal 0
variable lzpos equal 0.25
variable lzneg equal -0.25

# Define minimization parameters and damping
variable etol equal 1.0e-12
variable ftol equal 1.0e-8
variable maxiter equal 10000
variable maxeval equal 20000
variable style string hftn

# boundary conditions
dimension	2
boundary	p p p
atom_style	atomic

# create geometry
units		lj
lattice         hex ${rho}
lattice         hex 0.9165
Lattice spacing in x,y,z = 1.12245 1.94415 1.12245
region		myregion block ${lxneg} ${lxpos} ${lyneg} ${lypos} ${lzneg} ${lzpos} units lattice
region		myregion block 0 ${lxpos} ${lyneg} ${lypos} ${lzneg} ${lzpos} units lattice
region		myregion block 0 3 ${lyneg} ${lypos} ${lzneg} ${lzpos} units lattice
region		myregion block 0 3 0 ${lypos} ${lzneg} ${lzpos} units lattice
region		myregion block 0 3 0 3 ${lzneg} ${lzpos} units lattice
region		myregion block 0 3 0 3 -0.25 ${lzpos} units lattice
region		myregion block 0 3 0 3 -0.25 0.25 units lattice
create_box	1 myregion
Created orthogonal box = (0 0 -0.280613) to (3.36736 5.83244 0.280613)
  1 by 1 by 1 MPI processor grid
create_atoms	1 box
Created 18 atoms

# define masses
mass * $m
mass * 1

# my fake/morse potential
pair_style      table linear 3001
pair_coeff      * * vpotential_inter5 dummy
neighbor	0.3 bin
neigh_modify	delay 5

# Setup output
thermo 1
thermo_style custom step pe pxx pyy pxy lx ly lz
thermo_modify norm no

# Compute initial state by relaxing box
min_style ${style}
min_style hftn
minimize ${etol} ${ftol} ${maxiter} ${maxeval}
minimize 1e-12 ${ftol} ${maxiter} ${maxeval}
minimize 1e-12 1e-08 ${maxiter} ${maxeval}
minimize 1e-12 1e-08 10000 ${maxeval}
minimize 1e-12 1e-08 10000 20000
WARNING: Resetting reneighboring criteria during minimization (../min.cpp:168)
Memory usage per processor = 4.85099 Mbytes
Step PotEng Pxx Pyy Pxy Lx Ly Lz 
       0   -53.999984 0.0003469208 0.0003469208 1.4727021e-22    3.3673612    5.8324407   0.56122687 
Loop time of 1.29483e-05 on 1 procs for 0 steps with 18 atoms

Minimization stats:
  Stopping criterion = force tolerance
  Energy initial, next-to-last, final = 
         -53.999983866      -53.999983866      -53.999983866
  Force two-norm initial, final = 1.11801e-13 1.11801e-13
  Force max component initial, final = 5.05401e-14 5.05401e-14
  Final line search alpha, max atom move = 0 0
  Iterations, force evaluations = 0 0

Pair  time (%) = 4.94148e-06 (38.1632)
Neigh time (%) = 0 (0)
Comm  time (%) = 1.82982e-06 (14.1317)
Outpt time (%) = 0 (0)
Other time (%) = 6.177e-06 (47.7051)

Nlocal:    18 ave 18 max 18 min
Histogram: 1 0 0 0 0 0 0 0 0 0
Nghost:    65 ave 65 max 65 min
Histogram: 1 0 0 0 0 0 0 0 0 0
Neighs:    162 ave 162 max 162 min
Histogram: 1 0 0 0 0 0 0 0 0 0

Total # of neighbors = 162
Ave neighs/atom = 9
Neighbor list builds = 0
Dangerous builds = 0
reset_timestep 0
write_dump all atom orig.dump

# Energy curve will have nstep steps
variable strainmax equal -0.05
variable strainstep equal -0.0005
variable nsteps equal round(${strainmax}/${strainstep})
variable nsteps equal round(-0.05/${strainstep})
variable nsteps equal round(-0.05/-0.0005)
variable direction string y

variable i loop ${nsteps}
variable i loop 100
label loop1
	read_dump orig.dump 0 x y
  orthogonal box = (0 0 -0.280613) to (3.36736 5.83244 0.280613)
  18 atoms before read
  18 atoms in snapshot
  0 atoms purged
  18 atoms replaced
  0 atoms trimmed
  0 atoms added
  18 atoms after read
        variable stretch equal 1+$i*${strainstep}
        variable stretch equal 1+1*${strainstep}
        variable stretch equal 1+1*-0.0005
        change_box all ${direction} scale ${stretch} remap
        change_box all y scale ${stretch} remap
        change_box all y scale 0.9995 remap
  orthogonal box = (0 0.00145811 -0.280613) to (3.36736 5.83098 0.280613)
        min_style ${style}
        min_style hftn
        minimize ${etol} ${ftol} ${maxiter} ${maxeval}
        minimize 1e-12 ${ftol} ${maxiter} ${maxeval}
        minimize 1e-12 1e-08 ${maxiter} ${maxeval}
        minimize 1e-12 1e-08 10000 ${maxeval}
        minimize 1e-12 1e-08 10000 20000
WARNING: Resetting reneighboring criteria during minimization (../min.cpp:168)
Memory usage per processor = 4.85099 Mbytes
Step PotEng Pxx Pyy Pxy Lx Ly Lz 
       0   -53.999886 0.0056837775  0.016310321 -1.5419144e-18      3.36736    5.8295238   0.56122687 
       1   -53.999886 0.0056837777  0.016310321 -1.1877021e-16      3.36736    5.8295238   0.56122687 
Loop time of 0.000101058 on 1 procs for 0 steps with 18 atoms

Minimization stats:
  Stopping criterion = force tolerance
  Energy initial, next-to-last, final = 
        -53.9998864007     -53.9998864007     -53.9998864007
  Force two-norm initial, final = 0.000858906 2.05608e-09
  Force max component initial, final = 0.000214646 6.29249e-10
  Final line search alpha, max atom move = 0 0
  Iterations, force evaluations = 0 7

Pair  time (%) = 3.69321e-05 (36.5454)
Neigh time (%) = 0 (0)
Comm  time (%) = 7.10832e-06 (7.03391)
Outpt time (%) = 0 (0)
Other time (%) = 5.70175e-05 (56.4207)

Nlocal:    18 ave 18 max 18 min
Histogram: 1 0 0 0 0 0 0 0 0 0
Nghost:    65 ave 65 max 65 min
Histogram: 1 0 0 0 0 0 0 0 0 0
Neighs:    162 ave 162 max 162 min
Histogram: 1 0 0 0 0 0 0 0 0 0

Total # of neighbors = 162
Ave neighs/atom = 9
Neighbor list builds = 0
Dangerous builds = 0
        next i
jump SELF loop1
	read_dump orig.dump 0 x y
  orthogonal box = (0 0 -0.280613) to (3.36736 5.83244 0.280613)
  18 atoms before read
  18 atoms in snapshot
  0 atoms purged
  18 atoms replaced
  0 atoms trimmed
  0 atoms added
  18 atoms after read
        variable stretch equal 1+$i*${strainstep}
        variable stretch equal 1+2*${strainstep}
        variable stretch equal 1+2*-0.0005
        change_box all ${direction} scale ${stretch} remap
        change_box all y scale ${stretch} remap
        change_box all y scale 0.999 remap
  orthogonal box = (0 0.00291622 -0.280613) to (3.36736 5.82952 0.280613)
        min_style ${style}
        min_style hftn
        minimize ${etol} ${ftol} ${maxiter} ${maxeval}
        minimize 1e-12 ${ftol} ${maxiter} ${maxeval}
        minimize 1e-12 1e-08 ${maxiter} ${maxeval}
        minimize 1e-12 1e-08 10000 ${maxeval}
        minimize 1e-12 1e-08 10000 20000
WARNING: Resetting reneighboring criteria during minimization (../min.cpp:168)
Memory usage per processor = 4.85099 Mbytes
Step PotEng Pxx Pyy Pxy Lx Ly Lz 
       0   -53.999635  0.011039582  0.032328946 1.2113276e-16      3.36736    5.8266076   0.56122687 
       1   -53.999635  0.011039582  0.032328946 -1.8122218e-16      3.36736    5.8266076   0.56122687 
Loop time of 9.60293e-05 on 1 procs for 0 steps with 18 atoms

Minimization stats:
  Stopping criterion = force tolerance
  Energy initial, next-to-last, final = 
        -53.9996354394     -53.9996354394     -53.9996354394
  Force two-norm initial, final = 0.000863132 2.06876e-09
  Force max component initial, final = 0.000215903 6.33489e-10
  Final line search alpha, max atom move = 0 0
  Iterations, force evaluations = 0 7

Pair  time (%) = 3.58752e-05 (37.3587)
Neigh time (%) = 0 (0)
Comm  time (%) = 5.18654e-06 (5.401)
Outpt time (%) = 0 (0)
Other time (%) = 5.49675e-05 (57.2403)

Nlocal:    18 ave 18 max 18 min
Histogram: 1 0 0 0 0 0 0 0 0 0
Nghost:    65 ave 65 max 65 min
Histogram: 1 0 0 0 0 0 0 0 0 0
Neighs:    162 ave 162 max 162 min
Histogram: 1 0 0 0 0 0 0 0 0 0

Total # of neighbors = 162
Ave neighs/atom = 9
Neighbor list builds = 0
Dangerous builds = 0
        next i
jump SELF loop1
	read_dump orig.dump 0 x y
  orthogonal box = (0 0 -0.280613) to (3.36736 5.83244 0.280613)
  18 atoms before read
  18 atoms in snapshot
  0 atoms purged
  18 atoms replaced
  0 atoms trimmed
  0 atoms added
  18 atoms after read
        variable stretch equal 1+$i*${strainstep}
        variable stretch equal 1+3*${strainstep}
        variable stretch equal 1+3*-0.0005
        change_box all ${direction} scale ${stretch} remap
        change_box all y scale ${stretch} remap
        change_box all y scale 0.9985 remap
  orthogonal box = (0 0.00437433 -0.280613) to (3.36736 5.82807 0.280613)
        min_style ${style}
        min_style hftn
        minimize ${etol} ${ftol} ${maxiter} ${maxeval}
        minimize 1e-12 ${ftol} ${maxiter} ${maxeval}
        minimize 1e-12 1e-08 ${maxiter} ${maxeval}
        minimize 1e-12 1e-08 10000 ${maxeval}
        minimize 1e-12 1e-08 10000 20000
WARNING: Resetting reneighboring criteria during minimization (../min.cpp:168)
Memory usage per processor = 4.85099 Mbytes
Step PotEng Pxx Pyy Pxy Lx Ly Lz 
       0   -53.999254  0.016422703   0.04839719 1.2310013e-16      3.36736    5.8236913   0.56122687 
       1   -53.999254  0.016422703   0.04839719 6.5425508e-17      3.36736    5.8236913   0.56122687 
Loop time of 6.31101e-05 on 1 procs for 0 steps with 18 atoms

Minimization stats:
  Stopping criterion = force tolerance
  Energy initial, next-to-last, final = 
        -53.9992537611     -53.9992537611     -53.9992537611
  Force two-norm initial, final = 0.000867359 2.081e-09
  Force max component initial, final = 0.000217159 6.37372e-10
  Final line search alpha, max atom move = 0 0
  Iterations, force evaluations = 0 7

Pair  time (%) = 3.60593e-05 (57.1371)
Neigh time (%) = 0 (0)
Comm  time (%) = 7.07794e-06 (11.2152)
Outpt time (%) = 0 (0)
Other time (%) = 1.99729e-05 (31.6477)

Nlocal:    18 ave 18 max 18 min
Histogram: 1 0 0 0 0 0 0 0 0 0
Nghost:    65 ave 65 max 65 min
Histogram: 1 0 0 0 0 0 0 0 0 0
Neighs:    162 ave 162 max 162 min
Histogram: 1 0 0 0 0 0 0 0 0 0

Total # of neighbors = 162
Ave neighs/atom = 9
Neighbor list builds = 0
Dangerous builds = 0
        next i
jump SELF loop1
	read_dump orig.dump 0 x y
  orthogonal box = (0 0 -0.280613) to (3.36736 5.83244 0.280613)
  18 atoms before read
  18 atoms in snapshot
  0 atoms purged
  18 atoms replaced
  0 atoms trimmed
  0 atoms added
  18 atoms after read
        variable stretch equal 1+$i*${strainstep}
        variable stretch equal 1+4*${strainstep}
        variable stretch equal 1+4*-0.0005
        change_box all ${direction} scale ${stretch} remap
        change_box all y scale ${stretch} remap
        change_box all y scale 0.998 remap
  orthogonal box = (0 0.00583244 -0.280613) to (3.36736 5.82661 0.280613)
        min_style ${style}
        min_style hftn
        minimize ${etol} ${ftol} ${maxiter} ${maxeval}
        minimize 1e-12 ${ftol} ${maxiter} ${maxeval}
        minimize 1e-12 1e-08 ${maxiter} ${maxeval}
        minimize 1e-12 1e-08 10000 ${maxeval}
        minimize 1e-12 1e-08 10000 20000
WARNING: Resetting reneighboring criteria during minimization (../min.cpp:168)
Memory usage per processor = 4.85099 Mbytes
Step PotEng Pxx Pyy Pxy Lx Ly Lz 
       0   -53.998711  0.021838761  0.064531626 5.5021806e-17      3.36736    5.8207751   0.56122687 
       1   -53.998711  0.021838762  0.064531627 -1.2688515e-16      3.36736    5.8207751   0.56122687 
Loop time of 6.29023e-05 on 1 procs for 0 steps with 18 atoms

Minimization stats:
  Stopping criterion = force tolerance
  Energy initial, next-to-last, final = 
        -53.9987112769     -53.9987112769     -53.9987112769
  Force two-norm initial, final = 0.000865943 2.07841e-09
  Force max component initial, final = 0.000216723 6.36616e-10
  Final line search alpha, max atom move = 0 0
  Iterations, force evaluations = 0 7

Pair  time (%) = 3.81588e-05 (60.6636)
Neigh time (%) = 0 (0)
Comm  time (%) = 7.17735e-06 (11.4103)
Outpt time (%) = 0 (0)
Other time (%) = 1.75661e-05 (27.9261)

Nlocal:    18 ave 18 max 18 min
Histogram: 1 0 0 0 0 0 0 0 0 0
Nghost:    65 ave 65 max 65 min
Histogram: 1 0 0 0 0 0 0 0 0 0
Neighs:    162 ave 162 max 162 min
Histogram: 1 0 0 0 0 0 0 0 0 0

Total # of neighbors = 162
Ave neighs/atom = 9
Neighbor list builds = 0
Dangerous builds = 0
        next i
jump SELF loop1
	read_dump orig.dump 0 x y
  orthogonal box = (0 0 -0.280613) to (3.36736 5.83244 0.280613)
  18 atoms before read
  18 atoms in snapshot
  0 atoms purged
  18 atoms replaced
  0 atoms trimmed
  0 atoms added
  18 atoms after read
        variable stretch equal 1+$i*${strainstep}
        variable stretch equal 1+5*${strainstep}
        variable stretch equal 1+5*-0.0005
        change_box all ${direction} scale ${stretch} remap
        change_box all y scale ${stretch} remap
        change_box all y scale 0.9975 remap
  orthogonal box = (0 0.00729055 -0.280613) to (3.36736 5.82515 0.280613)
        min_style ${style}
        min_style hftn
        minimize ${etol} ${ftol} ${maxiter} ${maxeval}
        minimize 1e-12 ${ftol} ${maxiter} ${maxeval}
        minimize 1e-12 1e-08 ${maxiter} ${maxeval}
        minimize 1e-12 1e-08 10000 ${maxeval}
        minimize 1e-12 1e-08 10000 20000
WARNING: Resetting reneighboring criteria during minimization (../min.cpp:168)
Memory usage per processor = 4.85099 Mbytes
Step PotEng Pxx Pyy Pxy Lx Ly Lz 
       0   -53.997974  0.027294317  0.080751563  5.75076e-17      3.36736    5.8178589   0.56122687 
       1   -53.997974  0.027294317  0.080751564 -1.8061182e-16      3.36736    5.8178589   0.56122687 
Loop time of 0.00196193 on 1 procs for 0 steps with 18 atoms

Minimization stats:
  Stopping criterion = force tolerance
  Energy initial, next-to-last, final = 
        -53.9979740887     -53.9979740887     -53.9979740887
  Force two-norm initial, final = 0.000870209 2.09068e-09
  Force max component initial, final = 0.00021799 6.40626e-10
  Final line search alpha, max atom move = 0 0
  Iterations, force evaluations = 0 7

Pair  time (%) = 0.00189342 (96.5084)
Neigh time (%) = 0 (0)
Comm  time (%) = 8.28831e-06 (0.422458)
Outpt time (%) = 0 (0)
Other time (%) = 6.02138e-05 (3.06912)

Nlocal:    18 ave 18 max 18 min
Histogram: 1 0 0 0 0 0 0 0 0 0
Nghost:    65 ave 65 max 65 min
Histogram: 1 0 0 0 0 0 0 0 0 0
Neighs:    162 ave 162 max 162 min
Histogram: 1 0 0 0 0 0 0 0 0 0

Total # of neighbors = 162
Ave neighs/atom = 9
Neighbor list builds = 0
Dangerous builds = 0
        next i
jump SELF loop1
	read_dump orig.dump 0 x y
  orthogonal box = (0 0 -0.280613) to (3.36736 5.83244 0.280613)
  18 atoms before read
  18 atoms in snapshot
  0 atoms purged
  18 atoms replaced
  0 atoms trimmed
  0 atoms added
  18 atoms after read
        variable stretch equal 1+$i*${strainstep}
        variable stretch equal 1+6*${strainstep}
        variable stretch equal 1+6*-0.0005
        change_box all ${direction} scale ${stretch} remap
        change_box all y scale ${stretch} remap
        change_box all y scale 0.997 remap
  orthogonal box = (0 0.00874866 -0.280613) to (3.36736 5.82369 0.280613)
        min_style ${style}
        min_style hftn
        minimize ${etol} ${ftol} ${maxiter} ${maxeval}
        minimize 1e-12 ${ftol} ${maxiter} ${maxeval}
        minimize 1e-12 1e-08 ${maxiter} ${maxeval}
        minimize 1e-12 1e-08 10000 ${maxeval}
        minimize 1e-12 1e-08 10000 20000
WARNING: Resetting reneighboring criteria during minimization (../min.cpp:168)
Memory usage per processor = 4.85099 Mbytes
Step PotEng Pxx Pyy Pxy Lx Ly Lz 
       0   -53.997105   0.03277753  0.097021365 1.2580291e-16      3.36736    5.8149427   0.56122687 
       1   -53.997105  0.032777531  0.097021366 1.2899499e-16      3.36736    5.8149427   0.56122687 
Loop time of 9.49877e-05 on 1 procs for 0 steps with 18 atoms

Minimization stats:
  Stopping criterion = force tolerance
  Energy initial, next-to-last, final = 
        -53.9971047551     -53.9971047551     -53.9971047551
  Force two-norm initial, final = 0.000874478 2.10346e-09
  Force max component initial, final = 0.000219257 6.44914e-10
  Final line search alpha, max atom move = 0 0
  Iterations, force evaluations = 0 7

Pair  time (%) = 3.57884e-05 (37.6769)
Neigh time (%) = 0 (0)
Comm  time (%) = 7.25116e-06 (7.63379)
Outpt time (%) = 0 (0)
Other time (%) = 5.19481e-05 (54.6893)

Nlocal:    18 ave 18 max 18 min
Histogram: 1 0 0 0 0 0 0 0 0 0
Nghost:    65 ave 65 max 65 min
Histogram: 1 0 0 0 0 0 0 0 0 0
Neighs:    162 ave 162 max 162 min
Histogram: 1 0 0 0 0 0 0 0 0 0

Total # of neighbors = 162
Ave neighs/atom = 9
Neighbor list builds = 0
Dangerous builds = 0
        next i
jump SELF loop1
	read_dump orig.dump 0 x y
  orthogonal box = (0 0 -0.280613) to (3.36736 5.83244 0.280613)
  18 atoms before read
  18 atoms in snapshot
  0 atoms purged
  18 atoms replaced
  0 atoms trimmed
  0 atoms added
  18 atoms after read
        variable stretch equal 1+$i*${strainstep}
        variable stretch equal 1+7*${strainstep}
        variable stretch equal 1+7*-0.0005
        change_box all ${direction} scale ${stretch} remap
        change_box all y scale ${stretch} remap
        change_box all y scale 0.9965 remap
  orthogonal box = (0 0.0102068 -0.280613) to (3.36736 5.82223 0.280613)
        min_style ${style}
        min_style hftn
        minimize ${etol} ${ftol} ${maxiter} ${maxeval}
        minimize 1e-12 ${ftol} ${maxiter} ${maxeval}
        minimize 1e-12 1e-08 ${maxiter} ${maxeval}
        minimize 1e-12 1e-08 10000 ${maxeval}
        minimize 1e-12 1e-08 10000 20000
WARNING: Resetting reneighboring criteria during minimization (../min.cpp:168)
Memory usage per processor = 4.85099 Mbytes
Step PotEng Pxx Pyy Pxy Lx Ly Lz 
       0   -53.996103  0.038288412   0.11334084 2.4918865e-16      3.36736    5.8120265   0.56122687 
       1   -53.996103  0.038288412   0.11334084 -3.0839517e-16      3.36736    5.8120265   0.56122687 
Loop time of 9.48871e-05 on 1 procs for 0 steps with 18 atoms

Minimization stats:
  Stopping criterion = force tolerance
  Energy initial, next-to-last, final = 
        -53.9961033099     -53.9961033099     -53.9961033099
  Force two-norm initial, final = 0.000878791 2.11578e-09
  Force max component initial, final = 0.000220536 6.48948e-10
  Final line search alpha, max atom move = 0 0
  Iterations, force evaluations = 0 7

Pair  time (%) = 3.92753e-05 (41.3916)
Neigh time (%) = 0 (0)
Comm  time (%) = 4.21808e-06 (4.44536)
Outpt time (%) = 0 (0)
Other time (%) = 5.13938e-05 (54.1631)

Nlocal:    18 ave 18 max 18 min
Histogram: 1 0 0 0 0 0 0 0 0 0
Nghost:    65 ave 65 max 65 min
Histogram: 1 0 0 0 0 0 0 0 0 0
Neighs:    162 ave 162 max 162 min
Histogram: 1 0 0 0 0 0 0 0 0 0

Total # of neighbors = 162
Ave neighs/atom = 9
Neighbor list builds = 0
Dangerous builds = 0
        next i
jump SELF loop1
	read_dump orig.dump 0 x y
  orthogonal box = (0 0 -0.280613) to (3.36736 5.83244 0.280613)
  18 atoms before read
  18 atoms in snapshot
  0 atoms purged
  18 atoms replaced
  0 atoms trimmed
  0 atoms added
  18 atoms after read
        variable stretch equal 1+$i*${strainstep}
        variable stretch equal 1+8*${strainstep}
        variable stretch equal 1+8*-0.0005
        change_box all ${direction} scale ${stretch} remap
        change_box all y scale ${stretch} remap
        change_box all y scale 0.996 remap
  orthogonal box = (0 0.0116649 -0.280613) to (3.36736 5.82078 0.280613)
        min_style ${style}
        min_style hftn
        minimize ${etol} ${ftol} ${maxiter} ${maxeval}
        minimize 1e-12 ${ftol} ${maxiter} ${maxeval}
        minimize 1e-12 1e-08 ${maxiter} ${maxeval}
        minimize 1e-12 1e-08 10000 ${maxeval}
        minimize 1e-12 1e-08 10000 20000
WARNING: Resetting reneighboring criteria during minimization (../min.cpp:168)
Memory usage per processor = 4.85099 Mbytes
Step PotEng Pxx Pyy Pxy Lx Ly Lz 
       0   -53.994882  0.043843507   0.12975901 5.4387241e-17      3.36736    5.8091102   0.56122687 
       1   -53.994882  0.043843507   0.12975901 -6.7671905e-17      3.36736    5.8091102   0.56122687 
Loop time of 6.30204e-05 on 1 procs for 0 steps with 18 atoms

Minimization stats:
  Stopping criterion = force tolerance
  Energy initial, next-to-last, final = 
        -53.9948823254     -53.9948823254     -53.9948823254
  Force two-norm initial, final = 0.000877345 2.113e-09
  Force max component initial, final = 0.000220092 6.48093e-10
  Final line search alpha, max atom move = 0 0
  Iterations, force evaluations = 0 7

Pair  time (%) = 3.69109e-05 (58.5697)
Neigh time (%) = 0 (0)
Comm  time (%) = 3.82727e-06 (6.07307)
Outpt time (%) = 0 (0)
Other time (%) = 2.22822e-05 (35.3572)

Nlocal:    18 ave 18 max 18 min
Histogram: 1 0 0 0 0 0 0 0 0 0
Nghost:    65 ave 65 max 65 min
Histogram: 1 0 0 0 0 0 0 0 0 0
Neighs:    162 ave 162 max 162 min
Histogram: 1 0 0 0 0 0 0 0 0 0

Total # of neighbors = 162
Ave neighs/atom = 9
Neighbor list builds = 0
Dangerous builds = 0
        next i
jump SELF loop1
	read_dump orig.dump 0 x y
  orthogonal box = (0 0 -0.280613) to (3.36736 5.83244 0.280613)
  18 atoms before read
  18 atoms in snapshot
  0 atoms purged
  18 atoms replaced
  0 atoms trimmed
  0 atoms added
  18 atoms after read
        variable stretch equal 1+$i*${strainstep}
        variable stretch equal 1+9*${strainstep}
        variable stretch equal 1+9*-0.0005
        change_box all ${direction} scale ${stretch} remap
        change_box all y scale ${stretch} remap
        change_box all y scale 0.9955 remap
  orthogonal box = (0 0.013123 -0.280613) to (3.36736 5.81932 0.280613)
        min_style ${style}
        min_style hftn
        minimize ${etol} ${ftol} ${maxiter} ${maxeval}
        minimize 1e-12 ${ftol} ${maxiter} ${maxeval}
        minimize 1e-12 1e-08 ${maxiter} ${maxeval}
        minimize 1e-12 1e-08 10000 ${maxeval}
        minimize 1e-12 1e-08 10000 20000
WARNING: Resetting reneighboring criteria during minimization (../min.cpp:168)
Memory usage per processor = 4.85099 Mbytes
Step PotEng Pxx Pyy Pxy Lx Ly Lz 
       0   -53.993519  0.049428252   0.14623219 1.1050237e-16      3.36736     5.806194   0.56122687 
       1   -53.993519  0.049428252   0.14623219 -6.4504805e-17      3.36736     5.806194   0.56122687 
Loop time of 1.09732e-05 on 1 procs for 0 steps with 18 atoms

Minimization stats:
  Stopping criterion = force tolerance
  Energy initial, next-to-last, final = 
        -53.9935192651     -53.9935192651     -53.9935192651
  Force two-norm initial, final = 0.000881674 2.12539e-09
  Force max component initial, final = 0.000221375 6.52179e-10
  Final line search alpha, max atom move = 0 0
  Iterations, force evaluations = 0 7

Pair  time (%) = 9.24803e-07 (8.42784)
Neigh time (%) = 0 (0)
Comm  time (%) = 1.89594e-06 (17.2779)
Outpt time (%) = 0 (0)
Other time (%) = 8.15245e-06 (74.2942)

Nlocal:    18 ave 18 max 18 min
Histogram: 1 0 0 0 0 0 0 0 0 0
Nghost:    65 ave 65 max 65 min
Histogram: 1 0 0 0 0 0 0 0 0 0
Neighs:    162 ave 162 max 162 min
Histogram: 1 0 0 0 0 0 0 0 0 0

Total # of neighbors = 162
Ave neighs/atom = 9
Neighbor list builds = 0
Dangerous builds = 0
        next i
jump SELF loop1
	read_dump orig.dump 0 x y
  orthogonal box = (0 0 -0.280613) to (3.36736 5.83244 0.280613)
  18 atoms before read
  18 atoms in snapshot
  0 atoms purged
  18 atoms replaced
  0 atoms trimmed
  0 atoms added
  18 atoms after read
        variable stretch equal 1+$i*${strainstep}
        variable stretch equal 1+10*${strainstep}
        variable stretch equal 1+10*-0.0005
        change_box all ${direction} scale ${stretch} remap
        change_box all y scale ${stretch} remap
        change_box all y scale 0.995 remap
  orthogonal box = (0 0.0145811 -0.280613) to (3.36736 5.81786 0.280613)
        min_style ${style}
        min_style hftn
        minimize ${etol} ${ftol} ${maxiter} ${maxeval}
        minimize 1e-12 ${ftol} ${maxiter} ${maxeval}
        minimize 1e-12 1e-08 ${maxiter} ${maxeval}
        minimize 1e-12 1e-08 10000 ${maxeval}
        minimize 1e-12 1e-08 10000 20000
WARNING: Resetting reneighboring criteria during minimization (../min.cpp:168)
Memory usage per processor = 4.85099 Mbytes
Step PotEng Pxx Pyy Pxy Lx Ly Lz 
       0   -53.992023  0.055041075   0.16275549 -9.1780636e-18      3.36736    5.8032778   0.56122687 
       1   -53.992023  0.055041075   0.16275549 6.2893652e-17      3.36736    5.8032778   0.56122687 
Loop time of 6.31181e-05 on 1 procs for 0 steps with 18 atoms

Minimization stats:
  Stopping criterion = force tolerance
  Energy initial, next-to-last, final = 
        -53.9920225932     -53.9920225932     -53.9920225932
  Force two-norm initial, final = 0.000886008 2.1383e-09
  Force max component initial, final = 0.000222658 6.56382e-10
  Final line search alpha, max atom move = 0 0
  Iterations, force evaluations = 0 7

Pair  time (%) = 3.69375e-05 (58.5213)
Neigh time (%) = 0 (0)
Comm  time (%) = 7.59563e-06 (12.034)
Outpt time (%) = 0 (0)
Other time (%) = 1.85849e-05 (29.4446)

Nlocal:    18 ave 18 max 18 min
Histogram: 1 0 0 0 0 0 0 0 0 0
Nghost:    65 ave 65 max 65 min
Histogram: 1 0 0 0 0 0 0 0 0 0
Neighs:    162 ave 162 max 162 min
Histogram: 1 0 0 0 0 0 0 0 0 0

Total # of neighbors = 162
Ave neighs/atom = 9
Neighbor list builds = 0
Dangerous builds = 0
        next i
jump SELF loop1
	read_dump orig.dump 0 x y
  orthogonal box = (0 0 -0.280613) to (3.36736 5.83244 0.280613)
  18 atoms before read
  18 atoms in snapshot
  0 atoms purged
  18 atoms replaced
  0 atoms trimmed
  0 atoms added
  18 atoms after read
        variable stretch equal 1+$i*${strainstep}
        variable stretch equal 1+11*${strainstep}
        variable stretch equal 1+11*-0.0005
        change_box all ${direction} scale ${stretch} remap
        change_box all y scale ${stretch} remap
        change_box all y scale 0.9945 remap
  orthogonal box = (0 0.0160392 -0.280613) to (3.36736 5.8164 0.280613)
        min_style ${style}
        min_style hftn
        minimize ${etol} ${ftol} ${maxiter} ${maxeval}
        minimize 1e-12 ${ftol} ${maxiter} ${maxeval}
        minimize 1e-12 1e-08 ${maxiter} ${maxeval}
        minimize 1e-12 1e-08 10000 ${maxeval}
        minimize 1e-12 1e-08 10000 20000
WARNING: Resetting reneighboring criteria during minimization (../min.cpp:168)
Memory usage per processor = 4.85099 Mbytes
Step PotEng Pxx Pyy Pxy Lx Ly Lz 
       0   -53.990342  0.060691397   0.17935662 5.098615e-17      3.36736    5.8003616   0.56122687 
       1   -53.990342  0.060691397   0.17935662 -1.0508932e-16      3.36736    5.8003616   0.56122687 
Loop time of 6.19171e-05 on 1 procs for 0 steps with 18 atoms

Minimization stats:
  Stopping criterion = force tolerance
  Energy initial, next-to-last, final = 
         -53.990342188      -53.990342188      -53.990342188
  Force two-norm initial, final = 0.000884543 2.13566e-09
  Force max component initial, final = 0.000222209 6.55504e-10
  Final line search alpha, max atom move = 0 0
  Iterations, force evaluations = 0 7

Pair  time (%) = 3.71907e-05 (60.0654)
Neigh time (%) = 0 (0)
Comm  time (%) = 8.9102e-06 (14.3905)
Outpt time (%) = 0 (0)
Other time (%) = 1.58162e-05 (25.5441)

Nlocal:    18 ave 18 max 18 min
Histogram: 1 0 0 0 0 0 0 0 0 0
Nghost:    65 ave 65 max 65 min
Histogram: 1 0 0 0 0 0 0 0 0 0
Neighs:    162 ave 162 max 162 min
Histogram: 1 0 0 0 0 0 0 0 0 0

Total # of neighbors = 162
Ave neighs/atom = 9
Neighbor list builds = 0
Dangerous builds = 0
        next i
jump SELF loop1
	read_dump orig.dump 0 x y
  orthogonal box = (0 0 -0.280613) to (3.36736 5.83244 0.280613)
  18 atoms before read
  18 atoms in snapshot
  0 atoms purged
  18 atoms replaced
  0 atoms trimmed
  0 atoms added
  18 atoms after read
        variable stretch equal 1+$i*${strainstep}
        variable stretch equal 1+12*${strainstep}
        variable stretch equal 1+12*-0.0005
        change_box all ${direction} scale ${stretch} remap
        change_box all y scale ${stretch} remap
        change_box all y scale 0.994 remap
  orthogonal box = (0 0.0174973 -0.280613) to (3.36736 5.81494 0.280613)
        min_style ${style}
        min_style hftn
        minimize ${etol} ${ftol} ${maxiter} ${maxeval}
        minimize 1e-12 ${ftol} ${maxiter} ${maxeval}
        minimize 1e-12 1e-08 ${maxiter} ${maxeval}
        minimize 1e-12 1e-08 10000 ${maxeval}
        minimize 1e-12 1e-08 10000 20000
WARNING: Resetting reneighboring criteria during minimization (../min.cpp:168)
Memory usage per processor = 4.85099 Mbytes
Step PotEng Pxx Pyy Pxy Lx Ly Lz 
       0    -53.98848  0.066378992   0.19603461 -1.8855614e-16      3.36736    5.7974454   0.56122687 
       1    -53.98848  0.066378993   0.19603461 4.9173668e-17      3.36736    5.7974454   0.56122687 
Loop time of 6.28958e-05 on 1 procs for 0 steps with 18 atoms

Minimization stats:
  Stopping criterion = force tolerance
  Energy initial, next-to-last, final = 
        -53.9884797318     -53.9884797318     -53.9884797318
  Force two-norm initial, final = 0.000888912 2.14864e-09
  Force max component initial, final = 0.000223502 6.59904e-10
  Final line search alpha, max atom move = 0 0
  Iterations, force evaluations = 0 7

Pair  time (%) = 3.72061e-05 (59.1551)
Neigh time (%) = 0 (0)
Comm  time (%) = 6.98701e-06 (11.1089)
Outpt time (%) = 0 (0)
Other time (%) = 1.87027e-05 (29.736)

Nlocal:    18 ave 18 max 18 min
Histogram: 1 0 0 0 0 0 0 0 0 0
Nghost:    65 ave 65 max 65 min
Histogram: 1 0 0 0 0 0 0 0 0 0
Neighs:    162 ave 162 max 162 min
Histogram: 1 0 0 0 0 0 0 0 0 0

Total # of neighbors = 162
Ave neighs/atom = 9
Neighbor list builds = 0
Dangerous builds = 0
        next i
jump SELF loop1
	read_dump orig.dump 0 x y
  orthogonal box = (0 0 -0.280613) to (3.36736 5.83244 0.280613)
  18 atoms before read
  18 atoms in snapshot
  0 atoms purged
  18 atoms replaced
  0 atoms trimmed
  0 atoms added
  18 atoms after read
        variable stretch equal 1+$i*${strainstep}
        variable stretch equal 1+13*${strainstep}
        variable stretch equal 1+13*-0.0005
        change_box all ${direction} scale ${stretch} remap
        change_box all y scale ${stretch} remap
        change_box all y scale 0.9935 remap
  orthogonal box = (0 0.0189554 -0.280613) to (3.36736 5.81348 0.280613)
        min_style ${style}
        min_style hftn
        minimize ${etol} ${ftol} ${maxiter} ${maxeval}
        minimize 1e-12 ${ftol} ${maxiter} ${maxeval}
        minimize 1e-12 1e-08 ${maxiter} ${maxeval}
        minimize 1e-12 1e-08 10000 ${maxeval}
        minimize 1e-12 1e-08 10000 20000
WARNING: Resetting reneighboring criteria during minimization (../min.cpp:168)
Memory usage per processor = 4.85099 Mbytes
Step PotEng Pxx Pyy Pxy Lx Ly Lz 
       0   -53.986482  0.072095044   0.21276304 -1.6639051e-16      3.36736    5.7945291   0.56122687 
       1   -53.986482  0.072095044   0.21276304 -5.2138812e-17      3.36736    5.7945291   0.56122687 
Loop time of 6.30791e-05 on 1 procs for 0 steps with 18 atoms

Minimization stats:
  Stopping criterion = force tolerance
  Energy initial, next-to-last, final = 
        -53.9864822051     -53.9864822051     -53.9864822051
  Force two-norm initial, final = 0.0008933 2.16117e-09
  Force max component initial, final = 0.000224799 6.63986e-10
  Final line search alpha, max atom move = 0 0
  Iterations, force evaluations = 0 7

Pair  time (%) = 3.69033e-05 (58.5033)
Neigh time (%) = 0 (0)
Comm  time (%) = 4.33542e-06 (6.873)
Outpt time (%) = 0 (0)
Other time (%) = 2.18403e-05 (34.6237)

Nlocal:    18 ave 18 max 18 min
Histogram: 1 0 0 0 0 0 0 0 0 0
Nghost:    65 ave 65 max 65 min
Histogram: 1 0 0 0 0 0 0 0 0 0
Neighs:    162 ave 162 max 162 min
Histogram: 1 0 0 0 0 0 0 0 0 0

Total # of neighbors = 162
Ave neighs/atom = 9
Neighbor list builds = 0
Dangerous builds = 0
        next i
jump SELF loop1
	read_dump orig.dump 0 x y
  orthogonal box = (0 0 -0.280613) to (3.36736 5.83244 0.280613)
  18 atoms before read
  18 atoms in snapshot
  0 atoms purged
  18 atoms replaced
  0 atoms trimmed
  0 atoms added
  18 atoms after read
        variable stretch equal 1+$i*${strainstep}
        variable stretch equal 1+14*${strainstep}
        variable stretch equal 1+14*-0.0005
        change_box all ${direction} scale ${stretch} remap
        change_box all y scale ${stretch} remap
        change_box all y scale 0.993 remap
  orthogonal box = (0 0.0204135 -0.280613) to (3.36736 5.81203 0.280613)
        min_style ${style}
        min_style hftn
        minimize ${etol} ${ftol} ${maxiter} ${maxeval}
        minimize 1e-12 ${ftol} ${maxiter} ${maxeval}
        minimize 1e-12 1e-08 ${maxiter} ${maxeval}
        minimize 1e-12 1e-08 10000 ${maxeval}
        minimize 1e-12 1e-08 10000 20000
WARNING: Resetting reneighboring criteria during minimization (../min.cpp:168)
Memory usage per processor = 4.85099 Mbytes
Step PotEng Pxx Pyy Pxy Lx Ly Lz 
       0   -53.984336  0.077842057   0.22954909 2.6361553e-17      3.36736    5.7916129   0.56122687 
       1   -53.984336  0.077842057   0.22954909  9.97431e-17      3.36736    5.7916129   0.56122687 
Loop time of 6.19787e-05 on 1 procs for 0 steps with 18 atoms

Minimization stats:
  Stopping criterion = force tolerance
  Energy initial, next-to-last, final = 
        -53.9843364171     -53.9843364171     -53.9843364171
  Force two-norm initial, final = 0.000891816 2.1583e-09
  Force max component initial, final = 0.000224345 6.63001e-10
  Final line search alpha, max atom move = 0 0
  Iterations, force evaluations = 0 7

Pair  time (%) = 3.91607e-05 (63.1842)
Neigh time (%) = 0 (0)
Comm  time (%) = 6.46582e-06 (10.4323)
Outpt time (%) = 0 (0)
Other time (%) = 1.63522e-05 (26.3835)

Nlocal:    18 ave 18 max 18 min
Histogram: 1 0 0 0 0 0 0 0 0 0
Nghost:    65 ave 65 max 65 min
Histogram: 1 0 0 0 0 0 0 0 0 0
Neighs:    162 ave 162 max 162 min
Histogram: 1 0 0 0 0 0 0 0 0 0

Total # of neighbors = 162
Ave neighs/atom = 9
Neighbor list builds = 0
Dangerous builds = 0
        next i
jump SELF loop1
	read_dump orig.dump 0 x y
  orthogonal box = (0 0 -0.280613) to (3.36736 5.83244 0.280613)
  18 atoms before read
  18 atoms in snapshot
  0 atoms purged
  18 atoms replaced
  0 atoms trimmed
  0 atoms added
  18 atoms after read
        variable stretch equal 1+$i*${strainstep}
        variable stretch equal 1+15*${strainstep}
        variable stretch equal 1+15*-0.0005
        change_box all ${direction} scale ${stretch} remap
        change_box all y scale ${stretch} remap
        change_box all y scale 0.9925 remap
  orthogonal box = (0 0.0218716 -0.280613) to (3.36736 5.81057 0.280613)
        min_style ${style}
        min_style hftn
        minimize ${etol} ${ftol} ${maxiter} ${maxeval}
        minimize 1e-12 ${ftol} ${maxiter} ${maxeval}
        minimize 1e-12 1e-08 ${maxiter} ${maxeval}
        minimize 1e-12 1e-08 10000 ${maxeval}
        minimize 1e-12 1e-08 10000 20000
WARNING: Resetting reneighboring criteria during minimization (../min.cpp:168)
Memory usage per processor = 4.85099 Mbytes
Step PotEng Pxx Pyy Pxy Lx Ly Lz 
       0   -53.981969  0.083633958   0.24643368 -4.0654674e-18      3.36736    5.7886967   0.56122687 
       1   -53.981969  0.083633958   0.24643368 1.2836402e-17      3.36736    5.7886967   0.56122687 
Loop time of 5.89892e-05 on 1 procs for 0 steps with 18 atoms

Minimization stats:
  Stopping criterion = force tolerance
  Energy initial, next-to-last, final = 
        -53.9819685392     -53.9819685392     -53.9819685392
  Force two-norm initial, final = 0.00089622 2.17122e-09
  Force max component initial, final = 0.000225646 6.67334e-10
  Final line search alpha, max atom move = 0 0
  Iterations, force evaluations = 0 7

Pair  time (%) = 3.39194e-05 (57.501)
Neigh time (%) = 0 (0)
Comm  time (%) = 6.55942e-06 (11.1197)
Outpt time (%) = 0 (0)
Other time (%) = 1.85104e-05 (31.3793)

Nlocal:    18 ave 18 max 18 min
Histogram: 1 0 0 0 0 0 0 0 0 0
Nghost:    65 ave 65 max 65 min
Histogram: 1 0 0 0 0 0 0 0 0 0
Neighs:    162 ave 162 max 162 min
Histogram: 1 0 0 0 0 0 0 0 0 0

Total # of neighbors = 162
Ave neighs/atom = 9
Neighbor list builds = 0
Dangerous builds = 0
        next i
jump SELF loop1
	read_dump orig.dump 0 x y
  orthogonal box = (0 0 -0.280613) to (3.36736 5.83244 0.280613)
  18 atoms before read
  18 atoms in snapshot
  0 atoms purged
  18 atoms replaced
  0 atoms trimmed
  0 atoms added
  18 atoms after read
        variable stretch equal 1+$i*${strainstep}
        variable stretch equal 1+16*${strainstep}
        variable stretch equal 1+16*-0.0005
        change_box all ${direction} scale ${stretch} remap
        change_box all y scale ${stretch} remap
        change_box all y scale 0.992 remap
  orthogonal box = (0 0.0233298 -0.280613) to (3.36736 5.80911 0.280613)
        min_style ${style}
        min_style hftn
        minimize ${etol} ${ftol} ${maxiter} ${maxeval}
        minimize 1e-12 ${ftol} ${maxiter} ${maxeval}
        minimize 1e-12 1e-08 ${maxiter} ${maxeval}
        minimize 1e-12 1e-08 10000 ${maxeval}
        minimize 1e-12 1e-08 10000 20000
WARNING: Resetting reneighboring criteria during minimization (../min.cpp:168)
Memory usage per processor = 4.85099 Mbytes
Step PotEng Pxx Pyy Pxy Lx Ly Lz 
       0   -53.979464  0.089454698   0.26336903 -1.0635257e-17      3.36736    5.7857805   0.56122687 
       1   -53.979464  0.089454699   0.26336903 7.4215804e-17      3.36736    5.7857805   0.56122687 
Loop time of 5.70142e-05 on 1 procs for 0 steps with 18 atoms

Minimization stats:
  Stopping criterion = force tolerance
  Energy initial, next-to-last, final = 
        -53.9794641423     -53.9794641423     -53.9794641423
  Force two-norm initial, final = 0.000900655 2.18433e-09
  Force max component initial, final = 0.000226956 6.71611e-10
  Final line search alpha, max atom move = 0 0
  Iterations, force evaluations = 0 7

Pair  time (%) = 3.18488e-05 (55.8612)
Neigh time (%) = 0 (0)
Comm  time (%) = 7.18667e-06 (12.6051)
Outpt time (%) = 0 (0)
Other time (%) = 1.79787e-05 (31.5338)

Nlocal:    18 ave 18 max 18 min
Histogram: 1 0 0 0 0 0 0 0 0 0
Nghost:    65 ave 65 max 65 min
Histogram: 1 0 0 0 0 0 0 0 0 0
Neighs:    162 ave 162 max 162 min
Histogram: 1 0 0 0 0 0 0 0 0 0

Total # of neighbors = 162
Ave neighs/atom = 9
Neighbor list builds = 0
Dangerous builds = 0
        next i
jump SELF loop1
	read_dump orig.dump 0 x y
  orthogonal box = (0 0 -0.280613) to (3.36736 5.83244 0.280613)
  18 atoms before read
  18 atoms in snapshot
  0 atoms purged
  18 atoms replaced
  0 atoms trimmed
  0 atoms added
  18 atoms after read
        variable stretch equal 1+$i*${strainstep}
        variable stretch equal 1+17*${strainstep}
        variable stretch equal 1+17*-0.0005
        change_box all ${direction} scale ${stretch} remap
        change_box all y scale ${stretch} remap
        change_box all y scale 0.9915 remap
  orthogonal box = (0 0.0247879 -0.280613) to (3.36736 5.80765 0.280613)
        min_style ${style}
        min_style hftn
        minimize ${etol} ${ftol} ${maxiter} ${maxeval}
        minimize 1e-12 ${ftol} ${maxiter} ${maxeval}
        minimize 1e-12 1e-08 ${maxiter} ${maxeval}
        minimize 1e-12 1e-08 10000 ${maxeval}
        minimize 1e-12 1e-08 10000 20000
WARNING: Resetting reneighboring criteria during minimization (../min.cpp:168)
Memory usage per processor = 4.85099 Mbytes
Step PotEng Pxx Pyy Pxy Lx Ly Lz 
       0   -53.976823  0.095304297   0.28035496 2.8792581e-16      3.36736    5.7828643   0.56122687 
       1   -53.976823  0.095304297   0.28035496 1.2094701e-16      3.36736    5.7828643   0.56122687 
Loop time of 5.70324e-05 on 1 procs for 0 steps with 18 atoms

Minimization stats:
  Stopping criterion = force tolerance
  Energy initial, next-to-last, final = 
        -53.9768233052     -53.9768233052     -53.9768233052
  Force two-norm initial, final = 0.000905108 2.19769e-09
  Force max component initial, final = 0.00022827 6.76032e-10
  Final line search alpha, max atom move = 0 0
  Iterations, force evaluations = 0 7

Pair  time (%) = 3.30345e-05 (57.9223)
Neigh time (%) = 0 (0)
Comm  time (%) = 9.65083e-06 (16.9216)
Outpt time (%) = 0 (0)
Other time (%) = 1.43471e-05 (25.1561)

Nlocal:    18 ave 18 max 18 min
Histogram: 1 0 0 0 0 0 0 0 0 0
Nghost:    65 ave 65 max 65 min
Histogram: 1 0 0 0 0 0 0 0 0 0
Neighs:    162 ave 162 max 162 min
Histogram: 1 0 0 0 0 0 0 0 0 0

Total # of neighbors = 162
Ave neighs/atom = 9
Neighbor list builds = 0
Dangerous builds = 0
        next i
jump SELF loop1
	read_dump orig.dump 0 x y
  orthogonal box = (0 0 -0.280613) to (3.36736 5.83244 0.280613)
  18 atoms before read
  18 atoms in snapshot
  0 atoms purged
  18 atoms replaced
  0 atoms trimmed
  0 atoms added
  18 atoms after read
        variable stretch equal 1+$i*${strainstep}
        variable stretch equal 1+18*${strainstep}
        variable stretch equal 1+18*-0.0005
        change_box all ${direction} scale ${stretch} remap
        change_box all y scale ${stretch} remap
        change_box all y scale 0.991 remap
  orthogonal box = (0 0.026246 -0.280613) to (3.36736 5.80619 0.280613)
        min_style ${style}
        min_style hftn
        minimize ${etol} ${ftol} ${maxiter} ${maxeval}
        minimize 1e-12 ${ftol} ${maxiter} ${maxeval}
        minimize 1e-12 1e-08 ${maxiter} ${maxeval}
        minimize 1e-12 1e-08 10000 ${maxeval}
        minimize 1e-12 1e-08 10000 20000
WARNING: Resetting reneighboring criteria during minimization (../min.cpp:168)
Memory usage per processor = 4.85099 Mbytes
Step PotEng Pxx Pyy Pxy Lx Ly Lz 
       0   -53.973968   0.10119743   0.29743509 4.3407093e-17      3.36736     5.779948   0.56122687 
       1   -53.973968   0.10119743    0.2974351 -2.9238192e-17      3.36736     5.779948   0.56122687 
Loop time of 5.6939e-05 on 1 procs for 0 steps with 18 atoms

Minimization stats:
  Stopping criterion = force tolerance
  Energy initial, next-to-last, final = 
        -53.9739679806     -53.9739679806     -53.9739679806
  Force two-norm initial, final = 0.000903609 2.19444e-09
  Force max component initial, final = 0.000227812 6.74994e-10
  Final line search alpha, max atom move = 0 0
  Iterations, force evaluations = 0 7

Pair  time (%) = 3.19552e-05 (56.1218)
Neigh time (%) = 0 (0)
Comm  time (%) = 5.35313e-06 (9.40152)
Outpt time (%) = 0 (0)
Other time (%) = 1.96307e-05 (34.4767)

Nlocal:    18 ave 18 max 18 min
Histogram: 1 0 0 0 0 0 0 0 0 0
Nghost:    65 ave 65 max 65 min
Histogram: 1 0 0 0 0 0 0 0 0 0
Neighs:    162 ave 162 max 162 min
Histogram: 1 0 0 0 0 0 0 0 0 0

Total # of neighbors = 162
Ave neighs/atom = 9
Neighbor list builds = 0
Dangerous builds = 0
        next i
jump SELF loop1
	read_dump orig.dump 0 x y
  orthogonal box = (0 0 -0.280613) to (3.36736 5.83244 0.280613)
  18 atoms before read
  18 atoms in snapshot
  0 atoms purged
  18 atoms replaced
  0 atoms trimmed
  0 atoms added
  18 atoms after read
        variable stretch equal 1+$i*${strainstep}
        variable stretch equal 1+19*${strainstep}
        variable stretch equal 1+19*-0.0005
        change_box all ${direction} scale ${stretch} remap
        change_box all y scale ${stretch} remap
        change_box all y scale 0.9905 remap
  orthogonal box = (0 0.0277041 -0.280613) to (3.36736 5.80474 0.280613)
        min_style ${style}
        min_style hftn
        minimize ${etol} ${ftol} ${maxiter} ${maxeval}
        minimize 1e-12 ${ftol} ${maxiter} ${maxeval}
        minimize 1e-12 1e-08 ${maxiter} ${maxeval}
        minimize 1e-12 1e-08 10000 ${maxeval}
        minimize 1e-12 1e-08 10000 20000
WARNING: Resetting reneighboring criteria during minimization (../min.cpp:168)
Memory usage per processor = 4.85099 Mbytes
Step PotEng Pxx Pyy Pxy Lx Ly Lz 
       0   -53.970951   0.10712432   0.31457597 -8.5191696e-17      3.36736    5.7770318   0.56122687 
       1   -53.970951   0.10712432   0.31457597 -1.4523326e-16      3.36736    5.7770318   0.56122687 
Loop time of 5.69517e-05 on 1 procs for 0 steps with 18 atoms

Minimization stats:
  Stopping criterion = force tolerance
  Energy initial, next-to-last, final = 
        -53.9709505902     -53.9709505902     -53.9709505901
  Force two-norm initial, final = 0.000907971 2.20751e-09
  Force max component initial, final = 0.000229094 6.79387e-10
  Final line search alpha, max atom move = 0 0
  Iterations, force evaluations = 0 7

Pair  time (%) = 3.08183e-05 (54.1131)
Neigh time (%) = 0 (0)
Comm  time (%) = 6.07944e-06 (10.6747)
Outpt time (%) = 0 (0)
Other time (%) = 2.00539e-05 (35.2122)

Nlocal:    18 ave 18 max 18 min
Histogram: 1 0 0 0 0 0 0 0 0 0
Nghost:    65 ave 65 max 65 min
Histogram: 1 0 0 0 0 0 0 0 0 0
Neighs:    162 ave 162 max 162 min
Histogram: 1 0 0 0 0 0 0 0 0 0

Total # of neighbors = 162
Ave neighs/atom = 9
Neighbor list builds = 0
Dangerous builds = 0
        next i
jump SELF loop1
	read_dump orig.dump 0 x y
  orthogonal box = (0 0 -0.280613) to (3.36736 5.83244 0.280613)
  18 atoms before read
  18 atoms in snapshot
  0 atoms purged
  18 atoms replaced
  0 atoms trimmed
  0 atoms added
  18 atoms after read
        variable stretch equal 1+$i*${strainstep}
        variable stretch equal 1+20*${strainstep}
        variable stretch equal 1+20*-0.0005
        change_box all ${direction} scale ${stretch} remap
        change_box all y scale ${stretch} remap
        change_box all y scale 0.99 remap
  orthogonal box = (0 0.0291622 -0.280613) to (3.36736 5.80328 0.280613)
        min_style ${style}
        min_style hftn
        minimize ${etol} ${ftol} ${maxiter} ${maxeval}
        minimize 1e-12 ${ftol} ${maxiter} ${maxeval}
        minimize 1e-12 1e-08 ${maxiter} ${maxeval}
        minimize 1e-12 1e-08 10000 ${maxeval}
        minimize 1e-12 1e-08 10000 20000
WARNING: Resetting reneighboring criteria during minimization (../min.cpp:168)
Memory usage per processor = 4.85099 Mbytes
Step PotEng Pxx Pyy Pxy Lx Ly Lz 
       0   -53.967795   0.11308043    0.3317353 -1.2302469e-16      3.36736    5.7741156   0.56122687 
       1   -53.967795   0.11308043    0.3317353 -6.1993842e-17      3.36736    5.7741156   0.56122687 
Loop time of 5.60038e-05 on 1 procs for 0 steps with 18 atoms

Minimization stats:
  Stopping criterion = force tolerance
  Energy initial, next-to-last, final = 
        -53.9677953943     -53.9677953943     -53.9677953943
  Force two-norm initial, final = 0.000912007 2.22218e-09
  Force max component initial, final = 0.000230268 6.84094e-10
  Final line search alpha, max atom move = 0 0
  Iterations, force evaluations = 0 7

Pair  time (%) = 3.27661e-05 (58.507)
Neigh time (%) = 0 (0)
Comm  time (%) = 5.11401e-06 (9.13154)
Outpt time (%) = 0 (0)
Other time (%) = 1.81237e-05 (32.3615)

Nlocal:    18 ave 18 max 18 min
Histogram: 1 0 0 0 0 0 0 0 0 0
Nghost:    65 ave 65 max 65 min
Histogram: 1 0 0 0 0 0 0 0 0 0
Neighs:    162 ave 162 max 162 min
Histogram: 1 0 0 0 0 0 0 0 0 0

Total # of neighbors = 162
Ave neighs/atom = 9
Neighbor list builds = 0
Dangerous builds = 0
        next i
jump SELF loop1
	read_dump orig.dump 0 x y
  orthogonal box = (0 0 -0.280613) to (3.36736 5.83244 0.280613)
  18 atoms before read
  18 atoms in snapshot
  0 atoms purged
  18 atoms replaced
  0 atoms trimmed
  0 atoms added
  18 atoms after read
        variable stretch equal 1+$i*${strainstep}
        variable stretch equal 1+21*${strainstep}
        variable stretch equal 1+21*-0.0005
        change_box all ${direction} scale ${stretch} remap
        change_box all y scale ${stretch} remap
        change_box all y scale 0.9895 remap
  orthogonal box = (0 0.0306203 -0.280613) to (3.36736 5.80182 0.280613)
        min_style ${style}
        min_style hftn
        minimize ${etol} ${ftol} ${maxiter} ${maxeval}
        minimize 1e-12 ${ftol} ${maxiter} ${maxeval}
        minimize 1e-12 1e-08 ${maxiter} ${maxeval}
        minimize 1e-12 1e-08 10000 ${maxeval}
        minimize 1e-12 1e-08 10000 20000
WARNING: Resetting reneighboring criteria during minimization (../min.cpp:168)
Memory usage per processor = 4.85099 Mbytes
Step PotEng Pxx Pyy Pxy Lx Ly Lz 
       0    -53.96446   0.11907375    0.3489246 -1.2668924e-16      3.36736    5.7711994   0.56122687 
       1    -53.96446   0.11907375    0.3489246 2.0611887e-16      3.36736    5.7711994   0.56122687 
Loop time of 6.70623e-05 on 1 procs for 0 steps with 18 atoms

Minimization stats:
  Stopping criterion = force tolerance
  Energy initial, next-to-last, final = 
        -53.9644601986     -53.9644601986     -53.9644601986
  Force two-norm initial, final = 0.000909997 2.21958e-09
  Force max component initial, final = 0.000229642 6.83115e-10
  Final line search alpha, max atom move = 0 0
  Iterations, force evaluations = 0 7

Pair  time (%) = 3.57149e-05 (53.2563)
Neigh time (%) = 0 (0)
Comm  time (%) = 8.05792e-06 (12.0156)
Outpt time (%) = 0 (0)
Other time (%) = 2.32895e-05 (34.7281)

Nlocal:    18 ave 18 max 18 min
Histogram: 1 0 0 0 0 0 0 0 0 0
Nghost:    65 ave 65 max 65 min
Histogram: 1 0 0 0 0 0 0 0 0 0
Neighs:    162 ave 162 max 162 min
Histogram: 1 0 0 0 0 0 0 0 0 0

Total # of neighbors = 162
Ave neighs/atom = 9
Neighbor list builds = 0
Dangerous builds = 0
        next i
jump SELF loop1
	read_dump orig.dump 0 x y
  orthogonal box = (0 0 -0.280613) to (3.36736 5.83244 0.280613)
  18 atoms before read
  18 atoms in snapshot
  0 atoms purged
  18 atoms replaced
  0 atoms trimmed
  0 atoms added
  18 atoms after read
        variable stretch equal 1+$i*${strainstep}
        variable stretch equal 1+22*${strainstep}
        variable stretch equal 1+22*-0.0005
        change_box all ${direction} scale ${stretch} remap
        change_box all y scale ${stretch} remap
        change_box all y scale 0.989 remap
  orthogonal box = (0 0.0320784 -0.280613) to (3.36736 5.80036 0.280613)
        min_style ${style}
        min_style hftn
        minimize ${etol} ${ftol} ${maxiter} ${maxeval}
        minimize 1e-12 ${ftol} ${maxiter} ${maxeval}
        minimize 1e-12 1e-08 ${maxiter} ${maxeval}
        minimize 1e-12 1e-08 10000 ${maxeval}
        minimize 1e-12 1e-08 10000 20000
WARNING: Resetting reneighboring criteria during minimization (../min.cpp:168)
Memory usage per processor = 4.85099 Mbytes
Step PotEng Pxx Pyy Pxy Lx Ly Lz 
       0   -53.960926   0.12510824   0.36615528 4.024084e-16      3.36736    5.7682832   0.56122687 
       1   -53.960926   0.12510824   0.36615528 -4.2179296e-17      3.36736    5.7682832   0.56122687 
Loop time of 5.78975e-05 on 1 procs for 0 steps with 18 atoms

Minimization stats:
  Stopping criterion = force tolerance
  Energy initial, next-to-last, final = 
        -53.9609255876     -53.9609255876     -53.9609255876
  Force two-norm initial, final = 0.000914047 2.23349e-09
  Force max component initial, final = 0.000230819 6.87661e-10
  Final line search alpha, max atom move = 0 0
  Iterations, force evaluations = 0 7

Pair  time (%) = 3.19091e-05 (55.113)
Neigh time (%) = 0 (0)
Comm  time (%) = 1.00689e-05 (17.3909)
Outpt time (%) = 0 (0)
Other time (%) = 1.59196e-05 (27.4961)

Nlocal:    18 ave 18 max 18 min
Histogram: 1 0 0 0 0 0 0 0 0 0
Nghost:    65 ave 65 max 65 min
Histogram: 1 0 0 0 0 0 0 0 0 0
Neighs:    162 ave 162 max 162 min
Histogram: 1 0 0 0 0 0 0 0 0 0

Total # of neighbors = 162
Ave neighs/atom = 9
Neighbor list builds = 0
Dangerous builds = 0
        next i
jump SELF loop1
	read_dump orig.dump 0 x y
  orthogonal box = (0 0 -0.280613) to (3.36736 5.83244 0.280613)
  18 atoms before read
  18 atoms in snapshot
  0 atoms purged
  18 atoms replaced
  0 atoms trimmed
  0 atoms added
  18 atoms after read
        variable stretch equal 1+$i*${strainstep}
        variable stretch equal 1+23*${strainstep}
        variable stretch equal 1+23*-0.0005
        change_box all ${direction} scale ${stretch} remap
        change_box all y scale ${stretch} remap
        change_box all y scale 0.9885 remap
  orthogonal box = (0 0.0335365 -0.280613) to (3.36736 5.7989 0.280613)
        min_style ${style}
        min_style hftn
        minimize ${etol} ${ftol} ${maxiter} ${maxeval}
        minimize 1e-12 ${ftol} ${maxiter} ${maxeval}
        minimize 1e-12 1e-08 ${maxiter} ${maxeval}
        minimize 1e-12 1e-08 10000 ${maxeval}
        minimize 1e-12 1e-08 10000 20000
WARNING: Resetting reneighboring criteria during minimization (../min.cpp:168)
Memory usage per processor = 4.85099 Mbytes
Step PotEng Pxx Pyy Pxy Lx Ly Lz 
       0   -53.957253   0.13117232   0.38339304 -3.5532626e-19      3.36736    5.7653669   0.56122687 
       1   -53.957253   0.13117232   0.38339304 5.3951203e-18      3.36736    5.7653669   0.56122687 
Loop time of 5.70288e-05 on 1 procs for 0 steps with 18 atoms

Minimization stats:
  Stopping criterion = force tolerance
  Energy initial, next-to-last, final = 
        -53.9572529377     -53.9572529377     -53.9572529377
  Force two-norm initial, final = 0.000918101 2.24827e-09
  Force max component initial, final = 0.000231995 6.92413e-10
  Final line search alpha, max atom move = 0 0
  Iterations, force evaluations = 0 7

Pair  time (%) = 3.47279e-05 (60.8953)
Neigh time (%) = 0 (0)
Comm  time (%) = 1.22294e-06 (2.14443)
Outpt time (%) = 0 (0)
Other time (%) = 2.1078e-05 (36.9603)

Nlocal:    18 ave 18 max 18 min
Histogram: 1 0 0 0 0 0 0 0 0 0
Nghost:    65 ave 65 max 65 min
Histogram: 1 0 0 0 0 0 0 0 0 0
Neighs:    162 ave 162 max 162 min
Histogram: 1 0 0 0 0 0 0 0 0 0

Total # of neighbors = 162
Ave neighs/atom = 9
Neighbor list builds = 0
Dangerous builds = 0
        next i
jump SELF loop1
	read_dump orig.dump 0 x y
  orthogonal box = (0 0 -0.280613) to (3.36736 5.83244 0.280613)
  18 atoms before read
  18 atoms in snapshot
  0 atoms purged
  18 atoms replaced
  0 atoms trimmed
  0 atoms added
  18 atoms after read
        variable stretch equal 1+$i*${strainstep}
        variable stretch equal 1+24*${strainstep}
        variable stretch equal 1+24*-0.0005
        change_box all ${direction} scale ${stretch} remap
        change_box all y scale ${stretch} remap
        change_box all y scale 0.988 remap
  orthogonal box = (0 0.0349946 -0.280613) to (3.36736 5.79745 0.280613)
        min_style ${style}
        min_style hftn
        minimize ${etol} ${ftol} ${maxiter} ${maxeval}
        minimize 1e-12 ${ftol} ${maxiter} ${maxeval}
        minimize 1e-12 1e-08 ${maxiter} ${maxeval}
        minimize 1e-12 1e-08 10000 ${maxeval}
        minimize 1e-12 1e-08 10000 20000
WARNING: Resetting reneighboring criteria during minimization (../min.cpp:168)
Memory usage per processor = 4.85099 Mbytes
Step PotEng Pxx Pyy Pxy Lx Ly Lz 
       0   -53.953436    0.1372673   0.40064063 3.654383e-17      3.36736    5.7624507   0.56122687 
       1   -53.953436    0.1372673   0.40064063 2.2030852e-17      3.36736    5.7624507   0.56122687 
Loop time of 5.68823e-05 on 1 procs for 0 steps with 18 atoms

Minimization stats:
  Stopping criterion = force tolerance
  Energy initial, next-to-last, final = 
        -53.9534360045     -53.9534360045     -53.9534360045
  Force two-norm initial, final = 0.00091623 2.2455e-09
  Force max component initial, final = 0.000231416 6.91485e-10
  Final line search alpha, max atom move = 0 0
  Iterations, force evaluations = 0 7

Pair  time (%) = 3.30779e-05 (58.1515)
Neigh time (%) = 0 (0)
Comm  time (%) = 3.97593e-06 (6.98976)
Outpt time (%) = 0 (0)
Other time (%) = 1.98284e-05 (34.8587)

Nlocal:    18 ave 18 max 18 min
Histogram: 1 0 0 0 0 0 0 0 0 0
Nghost:    65 ave 65 max 65 min
Histogram: 1 0 0 0 0 0 0 0 0 0
Neighs:    162 ave 162 max 162 min
Histogram: 1 0 0 0 0 0 0 0 0 0

Total # of neighbors = 162
Ave neighs/atom = 9
Neighbor list builds = 0
Dangerous builds = 0
        next i
jump SELF loop1
	read_dump orig.dump 0 x y
  orthogonal box = (0 0 -0.280613) to (3.36736 5.83244 0.280613)
  18 atoms before read
  18 atoms in snapshot
  0 atoms purged
  18 atoms replaced
  0 atoms trimmed
  0 atoms added
  18 atoms after read
        variable stretch equal 1+$i*${strainstep}
        variable stretch equal 1+25*${strainstep}
        variable stretch equal 1+25*-0.0005
        change_box all ${direction} scale ${stretch} remap
        change_box all y scale ${stretch} remap
        change_box all y scale 0.9875 remap
  orthogonal box = (0 0.0364527 -0.280613) to (3.36736 5.79599 0.280613)
        min_style ${style}
        min_style hftn
        minimize ${etol} ${ftol} ${maxiter} ${maxeval}
        minimize 1e-12 ${ftol} ${maxiter} ${maxeval}
        minimize 1e-12 1e-08 ${maxiter} ${maxeval}
        minimize 1e-12 1e-08 10000 ${maxeval}
        minimize 1e-12 1e-08 10000 20000
WARNING: Resetting reneighboring criteria during minimization (../min.cpp:168)
Memory usage per processor = 4.85099 Mbytes
Step PotEng Pxx Pyy Pxy Lx Ly Lz 
       0   -53.949382   0.14341087   0.41795016 -5.0436206e-18      3.36736    5.7595345   0.56122687 
       1   -53.949382   0.14341087   0.41795016 1.8091457e-16      3.36736    5.7595345   0.56122687 
Loop time of 5.59017e-05 on 1 procs for 0 steps with 18 atoms

Minimization stats:
  Stopping criterion = force tolerance
  Energy initial, next-to-last, final = 
        -53.9493818084     -53.9493818084     -53.9493818083
  Force two-norm initial, final = 0.000920325 2.2597e-09
  Force max component initial, final = 0.000232605 6.96114e-10
  Final line search alpha, max atom move = 0 0
  Iterations, force evaluations = 0 7

Pair  time (%) = 3.32799e-05 (59.5329)
Neigh time (%) = 0 (0)
Comm  time (%) = 4.14182e-06 (7.40912)
Outpt time (%) = 0 (0)
Other time (%) = 1.848e-05 (33.058)

Nlocal:    18 ave 18 max 18 min
Histogram: 1 0 0 0 0 0 0 0 0 0
Nghost:    65 ave 65 max 65 min
Histogram: 1 0 0 0 0 0 0 0 0 0
Neighs:    162 ave 162 max 162 min
Histogram: 1 0 0 0 0 0 0 0 0 0

Total # of neighbors = 162
Ave neighs/atom = 9
Neighbor list builds = 0
Dangerous builds = 0
        next i
jump SELF loop1
	read_dump orig.dump 0 x y
  orthogonal box = (0 0 -0.280613) to (3.36736 5.83244 0.280613)
  18 atoms before read
  18 atoms in snapshot
  0 atoms purged
  18 atoms replaced
  0 atoms trimmed
  0 atoms added
  18 atoms after read
        variable stretch equal 1+$i*${strainstep}
        variable stretch equal 1+26*${strainstep}
        variable stretch equal 1+26*-0.0005
        change_box all ${direction} scale ${stretch} remap
        change_box all y scale ${stretch} remap
        change_box all y scale 0.987 remap
  orthogonal box = (0 0.0379109 -0.280613) to (3.36736 5.79453 0.280613)
        min_style ${style}
        min_style hftn
        minimize ${etol} ${ftol} ${maxiter} ${maxeval}
        minimize 1e-12 ${ftol} ${maxiter} ${maxeval}
        minimize 1e-12 1e-08 ${maxiter} ${maxeval}
        minimize 1e-12 1e-08 10000 ${maxeval}
        minimize 1e-12 1e-08 10000 20000
WARNING: Resetting reneighboring criteria during minimization (../min.cpp:168)
Memory usage per processor = 4.85099 Mbytes
Step PotEng Pxx Pyy Pxy Lx Ly Lz 
       0   -53.945189   0.14958444   0.43526717 6.657255e-17      3.36736    5.7566183   0.56122687 
       1   -53.945189   0.14958444   0.43526717 1.6792894e-16      3.36736    5.7566183   0.56122687 
Loop time of 5.60997e-05 on 1 procs for 0 steps with 18 atoms

Minimization stats:
  Stopping criterion = force tolerance
  Energy initial, next-to-last, final = 
        -53.9451894945     -53.9451894945     -53.9451894944
  Force two-norm initial, final = 0.000924435 2.27372e-09
  Force max component initial, final = 0.000233797 7.00676e-10
  Final line search alpha, max atom move = 0 0
  Iterations, force evaluations = 0 7

Pair  time (%) = 3.41554e-05 (60.8834)
Neigh time (%) = 0 (0)
Comm  time (%) = 6.79342e-06 (12.1095)
Outpt time (%) = 0 (0)
Other time (%) = 1.51509e-05 (27.007)

Nlocal:    18 ave 18 max 18 min
Histogram: 1 0 0 0 0 0 0 0 0 0
Nghost:    65 ave 65 max 65 min
Histogram: 1 0 0 0 0 0 0 0 0 0
Neighs:    162 ave 162 max 162 min
Histogram: 1 0 0 0 0 0 0 0 0 0

Total # of neighbors = 162
Ave neighs/atom = 9
Neighbor list builds = 0
Dangerous builds = 0
        next i
jump SELF loop1
	read_dump orig.dump 0 x y
  orthogonal box = (0 0 -0.280613) to (3.36736 5.83244 0.280613)
  18 atoms before read
  18 atoms in snapshot
  0 atoms purged
  18 atoms replaced
  0 atoms trimmed
  0 atoms added
  18 atoms after read
        variable stretch equal 1+$i*${strainstep}
        variable stretch equal 1+27*${strainstep}
        variable stretch equal 1+27*-0.0005
        change_box all ${direction} scale ${stretch} remap
        change_box all y scale ${stretch} remap
        change_box all y scale 0.9865 remap
  orthogonal box = (0 0.039369 -0.280613) to (3.36736 5.79307 0.280613)
        min_style ${style}
        min_style hftn
        minimize ${etol} ${ftol} ${maxiter} ${maxeval}
        minimize 1e-12 ${ftol} ${maxiter} ${maxeval}
        minimize 1e-12 1e-08 ${maxiter} ${maxeval}
        minimize 1e-12 1e-08 10000 ${maxeval}
        minimize 1e-12 1e-08 10000 20000
WARNING: Resetting reneighboring criteria during minimization (../min.cpp:168)
Memory usage per processor = 4.85099 Mbytes
Step PotEng Pxx Pyy Pxy Lx Ly Lz 
       0    -53.94086   0.15578802   0.45259143 -7.644513e-18      3.36736    5.7537021   0.56122687 
       1    -53.94086   0.15578802   0.45259143 1.2524868e-16      3.36736    5.7537021   0.56122687 
Loop time of 5.5987e-05 on 1 procs for 0 steps with 18 atoms

Minimization stats:
  Stopping criterion = force tolerance
  Energy initial, next-to-last, final = 
        -53.9408595918     -53.9408595918     -53.9408595918
  Force two-norm initial, final = 0.000928557 2.28829e-09
  Force max component initial, final = 0.000234991 7.05449e-10
  Final line search alpha, max atom move = 0 0
  Iterations, force evaluations = 0 7

Pair  time (%) = 3.3724e-05 (60.2354)
Neigh time (%) = 0 (0)
Comm  time (%) = 4.31458e-06 (7.7064)
Outpt time (%) = 0 (0)
Other time (%) = 1.79484e-05 (32.0582)

Nlocal:    18 ave 18 max 18 min
Histogram: 1 0 0 0 0 0 0 0 0 0
Nghost:    65 ave 65 max 65 min
Histogram: 1 0 0 0 0 0 0 0 0 0
Neighs:    162 ave 162 max 162 min
Histogram: 1 0 0 0 0 0 0 0 0 0

Total # of neighbors = 162
Ave neighs/atom = 9
Neighbor list builds = 0
Dangerous builds = 0
        next i
jump SELF loop1
	read_dump orig.dump 0 x y
  orthogonal box = (0 0 -0.280613) to (3.36736 5.83244 0.280613)
  18 atoms before read
  18 atoms in snapshot
  0 atoms purged
  18 atoms replaced
  0 atoms trimmed
  0 atoms added
  18 atoms after read
        variable stretch equal 1+$i*${strainstep}
        variable stretch equal 1+28*${strainstep}
        variable stretch equal 1+28*-0.0005
        change_box all ${direction} scale ${stretch} remap
        change_box all y scale ${stretch} remap
        change_box all y scale 0.986 remap
  orthogonal box = (0 0.0408271 -0.280613) to (3.36736 5.79161 0.280613)
        min_style ${style}
        min_style hftn
        minimize ${etol} ${ftol} ${maxiter} ${maxeval}
        minimize 1e-12 ${ftol} ${maxiter} ${maxeval}
        minimize 1e-12 1e-08 ${maxiter} ${maxeval}
        minimize 1e-12 1e-08 10000 ${maxeval}
        minimize 1e-12 1e-08 10000 20000
WARNING: Resetting reneighboring criteria during minimization (../min.cpp:168)
Memory usage per processor = 4.85099 Mbytes
Step PotEng Pxx Pyy Pxy Lx Ly Lz 
       0   -53.936312   0.16203668   0.46996668 -9.8682594e-17      3.36736    5.7507858   0.56122687 
       1   -53.936312   0.16203668   0.46996668 -4.8510979e-16      3.36736    5.7507858   0.56122687 
Loop time of 9.9407e-07 on 1 procs for 0 steps with 18 atoms

Minimization stats:
  Stopping criterion = force tolerance
  Energy initial, next-to-last, final = 
         -53.936312101      -53.936312101      -53.936312101
  Force two-norm initial, final = 0.000926494 2.28614e-09
  Force max component initial, final = 0.000234351 7.04787e-10
  Final line search alpha, max atom move = 0 0
  Iterations, force evaluations = 0 7

Pair  time (%) = 2.76952e-07 (27.8604)
Neigh time (%) = 0 (0)
Comm  time (%) = 1.5538e-06 (156.306)
Outpt time (%) = 0 (0)
Other time (%) = -8.36677e-07 (-84.1668)

Nlocal:    18 ave 18 max 18 min
Histogram: 1 0 0 0 0 0 0 0 0 0
Nghost:    65 ave 65 max 65 min
Histogram: 1 0 0 0 0 0 0 0 0 0
Neighs:    162 ave 162 max 162 min
Histogram: 1 0 0 0 0 0 0 0 0 0

Total # of neighbors = 162
Ave neighs/atom = 9
Neighbor list builds = 0
Dangerous builds = 0
        next i
jump SELF loop1
	read_dump orig.dump 0 x y
  orthogonal box = (0 0 -0.280613) to (3.36736 5.83244 0.280613)
  18 atoms before read
  18 atoms in snapshot
  0 atoms purged
  18 atoms replaced
  0 atoms trimmed
  0 atoms added
  18 atoms after read
        variable stretch equal 1+$i*${strainstep}
        variable stretch equal 1+29*${strainstep}
        variable stretch equal 1+29*-0.0005
        change_box all ${direction} scale ${stretch} remap
        change_box all y scale ${stretch} remap
        change_box all y scale 0.9855 remap
  orthogonal box = (0 0.0422852 -0.280613) to (3.36736 5.79015 0.280613)
        min_style ${style}
        min_style hftn
        minimize ${etol} ${ftol} ${maxiter} ${maxeval}
        minimize 1e-12 ${ftol} ${maxiter} ${maxeval}
        minimize 1e-12 1e-08 ${maxiter} ${maxeval}
        minimize 1e-12 1e-08 10000 ${maxeval}
        minimize 1e-12 1e-08 10000 20000
WARNING: Resetting reneighboring criteria during minimization (../min.cpp:168)
Memory usage per processor = 4.85099 Mbytes
Step PotEng Pxx Pyy Pxy Lx Ly Lz 
       0   -53.931598   0.16832116    0.4873646 2.8790087e-16      3.36736    5.7478696   0.56122687 
       1   -53.931598   0.16832116    0.4873646 -3.3680234e-17      3.36736    5.7478696   0.56122687 
Loop time of 7.5074e-05 on 1 procs for 0 steps with 18 atoms

Minimization stats:
  Stopping criterion = force tolerance
  Energy initial, next-to-last, final = 
        -53.9315977669     -53.9315977669     -53.9315977669
  Force two-norm initial, final = 0.000930823 2.30027e-09
  Force max component initial, final = 0.000235611 7.09378e-10
  Final line search alpha, max atom move = 0 0
  Iterations, force evaluations = 0 7

Pair  time (%) = 3.92322e-05 (52.258)
Neigh time (%) = 0 (0)
Comm  time (%) = 5.13217e-06 (6.83614)
Outpt time (%) = 0 (0)
Other time (%) = 3.07097e-05 (40.9058)

Nlocal:    18 ave 18 max 18 min
Histogram: 1 0 0 0 0 0 0 0 0 0
Nghost:    65 ave 65 max 65 min
Histogram: 1 0 0 0 0 0 0 0 0 0
Neighs:    162 ave 162 max 162 min
Histogram: 1 0 0 0 0 0 0 0 0 0

Total # of neighbors = 162
Ave neighs/atom = 9
Neighbor list builds = 0
Dangerous builds = 0
        next i
jump SELF loop1
	read_dump orig.dump 0 x y
  orthogonal box = (0 0 -0.280613) to (3.36736 5.83244 0.280613)
  18 atoms before read
  18 atoms in snapshot
  0 atoms purged
  18 atoms replaced
  0 atoms trimmed
  0 atoms added
  18 atoms after read
        variable stretch equal 1+$i*${strainstep}
        variable stretch equal 1+30*${strainstep}
        variable stretch equal 1+30*-0.0005
        change_box all ${direction} scale ${stretch} remap
        change_box all y scale ${stretch} remap
        change_box all y scale 0.985 remap
  orthogonal box = (0 0.0437433 -0.280613) to (3.36736 5.7887 0.280613)
        min_style ${style}
        min_style hftn
        minimize ${etol} ${ftol} ${maxiter} ${maxeval}
        minimize 1e-12 ${ftol} ${maxiter} ${maxeval}
        minimize 1e-12 1e-08 ${maxiter} ${maxeval}
        minimize 1e-12 1e-08 10000 ${maxeval}
        minimize 1e-12 1e-08 10000 20000
WARNING: Resetting reneighboring criteria during minimization (../min.cpp:168)
Memory usage per processor = 4.85099 Mbytes
Step PotEng Pxx Pyy Pxy Lx Ly Lz 
       0   -53.926746   0.17463606   0.50476992 -1.3660391e-16      3.36736    5.7449534   0.56122687 
       1   -53.926746   0.17463606   0.50476992 5.8233344e-17      3.36736    5.7449534   0.56122687 
Loop time of 6.60559e-05 on 1 procs for 0 steps with 18 atoms

Minimization stats:
  Stopping criterion = force tolerance
  Energy initial, next-to-last, final = 
        -53.9267459399     -53.9267459399     -53.9267459398
  Force two-norm initial, final = 0.00093499 2.31492e-09
  Force max component initial, final = 0.000236818 7.14042e-10
  Final line search alpha, max atom move = 0 0
  Iterations, force evaluations = 0 7

Pair  time (%) = 3.68967e-05 (55.8567)
Neigh time (%) = 0 (0)
Comm  time (%) = 7.79878e-06 (11.8063)
Outpt time (%) = 0 (0)
Other time (%) = 2.13605e-05 (32.3369)

Nlocal:    18 ave 18 max 18 min
Histogram: 1 0 0 0 0 0 0 0 0 0
Nghost:    65 ave 65 max 65 min
Histogram: 1 0 0 0 0 0 0 0 0 0
Neighs:    162 ave 162 max 162 min
Histogram: 1 0 0 0 0 0 0 0 0 0

Total # of neighbors = 162
Ave neighs/atom = 9
Neighbor list builds = 0
Dangerous builds = 0
        next i
jump SELF loop1
	read_dump orig.dump 0 x y
  orthogonal box = (0 0 -0.280613) to (3.36736 5.83244 0.280613)
  18 atoms before read
  18 atoms in snapshot
  0 atoms purged
  18 atoms replaced
  0 atoms trimmed
  0 atoms added
  18 atoms after read
        variable stretch equal 1+$i*${strainstep}
        variable stretch equal 1+31*${strainstep}
        variable stretch equal 1+31*-0.0005
        change_box all ${direction} scale ${stretch} remap
        change_box all y scale ${stretch} remap
        change_box all y scale 0.9845 remap
  orthogonal box = (0 0.0452014 -0.280613) to (3.36736 5.78724 0.280613)
        min_style ${style}
        min_style hftn
        minimize ${etol} ${ftol} ${maxiter} ${maxeval}
        minimize 1e-12 ${ftol} ${maxiter} ${maxeval}
        minimize 1e-12 1e-08 ${maxiter} ${maxeval}
        minimize 1e-12 1e-08 10000 ${maxeval}
        minimize 1e-12 1e-08 10000 20000
WARNING: Resetting reneighboring criteria during minimization (../min.cpp:168)
Memory usage per processor = 4.85099 Mbytes
Step PotEng Pxx Pyy Pxy Lx Ly Lz 
       0    -53.92171   0.18099013   0.52220806 2.5069943e-17      3.36736    5.7420372   0.56122687 
       1    -53.92171   0.18099013   0.52220806 2.1754169e-16      3.36736    5.7420372   0.56122687 
Loop time of 6.11057e-05 on 1 procs for 0 steps with 18 atoms

Minimization stats:
  Stopping criterion = force tolerance
  Energy initial, next-to-last, final = 
        -53.9217100016     -53.9217100016     -53.9217100016
  Force two-norm initial, final = 0.000932907 2.3125e-09
  Force max component initial, final = 0.000236172 7.1322e-10
  Final line search alpha, max atom move = 0 0
  Iterations, force evaluations = 0 7

Pair  time (%) = 3.68918e-05 (60.3737)
Neigh time (%) = 0 (0)
Comm  time (%) = 1.16966e-05 (19.1416)
Outpt time (%) = 0 (0)
Other time (%) = 1.25173e-05 (20.4847)

Nlocal:    18 ave 18 max 18 min
Histogram: 1 0 0 0 0 0 0 0 0 0
Nghost:    65 ave 65 max 65 min
Histogram: 1 0 0 0 0 0 0 0 0 0
Neighs:    162 ave 162 max 162 min
Histogram: 1 0 0 0 0 0 0 0 0 0

Total # of neighbors = 162
Ave neighs/atom = 9
Neighbor list builds = 0
Dangerous builds = 0
        next i
jump SELF loop1
	read_dump orig.dump 0 x y
  orthogonal box = (0 0 -0.280613) to (3.36736 5.83244 0.280613)
  18 atoms before read
  18 atoms in snapshot
  0 atoms purged
  18 atoms replaced
  0 atoms trimmed
  0 atoms added
  18 atoms after read
        variable stretch equal 1+$i*${strainstep}
        variable stretch equal 1+32*${strainstep}
        variable stretch equal 1+32*-0.0005
        change_box all ${direction} scale ${stretch} remap
        change_box all y scale ${stretch} remap
        change_box all y scale 0.984 remap
  orthogonal box = (0 0.0466595 -0.280613) to (3.36736 5.78578 0.280613)
        min_style ${style}
        min_style hftn
        minimize ${etol} ${ftol} ${maxiter} ${maxeval}
        minimize 1e-12 ${ftol} ${maxiter} ${maxeval}
        minimize 1e-12 1e-08 ${maxiter} ${maxeval}
        minimize 1e-12 1e-08 10000 ${maxeval}
        minimize 1e-12 1e-08 10000 20000
WARNING: Resetting reneighboring criteria during minimization (../min.cpp:168)
Memory usage per processor = 4.85099 Mbytes
Step PotEng Pxx Pyy Pxy Lx Ly Lz 
       0   -53.916472   0.18738707   0.53968949 2.4243776e-16      3.36736     5.739121   0.56122687 
       1   -53.916472   0.18738707   0.53968949 -2.6834969e-16      3.36736     5.739121   0.56122687 
Loop time of 6.2102e-05 on 1 procs for 0 steps with 18 atoms

Minimization stats:
  Stopping criterion = force tolerance
  Energy initial, next-to-last, final = 
        -53.9164716736     -53.9164716736     -53.9164716735
  Force two-norm initial, final = 0.000937114 2.32715e-09
  Force max component initial, final = 0.00023739 7.17922e-10
  Final line search alpha, max atom move = 0 0
  Iterations, force evaluations = 0 7

Pair  time (%) = 3.49941e-05 (56.3494)
Neigh time (%) = 0 (0)
Comm  time (%) = 9.80857e-06 (15.7943)
Outpt time (%) = 0 (0)
Other time (%) = 1.72993e-05 (27.8563)

Nlocal:    18 ave 18 max 18 min
Histogram: 1 0 0 0 0 0 0 0 0 0
Nghost:    65 ave 65 max 65 min
Histogram: 1 0 0 0 0 0 0 0 0 0
Neighs:    162 ave 162 max 162 min
Histogram: 1 0 0 0 0 0 0 0 0 0

Total # of neighbors = 162
Ave neighs/atom = 9
Neighbor list builds = 0
Dangerous builds = 0
        next i
jump SELF loop1
	read_dump orig.dump 0 x y
  orthogonal box = (0 0 -0.280613) to (3.36736 5.83244 0.280613)
  18 atoms before read
  18 atoms in snapshot
  0 atoms purged
  18 atoms replaced
  0 atoms trimmed
  0 atoms added
  18 atoms after read
        variable stretch equal 1+$i*${strainstep}
        variable stretch equal 1+33*${strainstep}
        variable stretch equal 1+33*-0.0005
        change_box all ${direction} scale ${stretch} remap
        change_box all y scale ${stretch} remap
        change_box all y scale 0.9835 remap
  orthogonal box = (0 0.0481176 -0.280613) to (3.36736 5.78432 0.280613)
        min_style ${style}
        min_style hftn
        minimize ${etol} ${ftol} ${maxiter} ${maxeval}
        minimize 1e-12 ${ftol} ${maxiter} ${maxeval}
        minimize 1e-12 1e-08 ${maxiter} ${maxeval}
        minimize 1e-12 1e-08 10000 ${maxeval}
        minimize 1e-12 1e-08 10000 20000
WARNING: Resetting reneighboring criteria during minimization (../min.cpp:168)
Memory usage per processor = 4.85099 Mbytes
Step PotEng Pxx Pyy Pxy Lx Ly Lz 
       0   -53.911095    0.1938148   0.55717877 2.2455745e-17      3.36736    5.7362047   0.56122687 
       1   -53.911095    0.1938148   0.55717877 2.2455745e-17      3.36736    5.7362047   0.56122687 
       2   -53.911095    0.1938148   0.55717877 2.2455745e-17      3.36736    5.7362047   0.56122687 
       3   -53.911095    0.1938148   0.55717877 2.2455745e-17      3.36736    5.7362047   0.56122687 
       4   -53.911095    0.1938148   0.55717877 -4.1098879e-17      3.36736    5.7362047   0.56122687 
Loop time of 0.000214975 on 1 procs for 3 steps with 18 atoms

Minimization stats:
  Stopping criterion = energy tolerance
  Energy initial, next-to-last, final = 
        -53.9110954462     -53.9110954462     -53.9110954461
  Force two-norm initial, final = 0.000941474 0.000926742
  Force max component initial, final = 0.000238657 0.00023486
  Final line search alpha, max atom move = 0 0
  Iterations, force evaluations = 3 28

Pair  time (%) = 0.000129584 (60.2786)
Neigh time (%) = 0 (0)
Comm  time (%) = 2.03092e-05 (9.44728)
Outpt time (%) = 1.87274e-05 (8.71144)
Other time (%) = 4.63543e-05 (21.5627)

Nlocal:    18 ave 18 max 18 min
Histogram: 1 0 0 0 0 0 0 0 0 0
Nghost:    65 ave 65 max 65 min
Histogram: 1 0 0 0 0 0 0 0 0 0
Neighs:    162 ave 162 max 162 min
Histogram: 1 0 0 0 0 0 0 0 0 0

Total # of neighbors = 162
Ave neighs/atom = 9
Neighbor list builds = 0
Dangerous builds = 0
        next i
jump SELF loop1
	read_dump orig.dump 0 x y
  orthogonal box = (0 0 -0.280613) to (3.36736 5.83244 0.280613)
  18 atoms before read
  18 atoms in snapshot
  0 atoms purged
  18 atoms replaced
  0 atoms trimmed
  0 atoms added
  18 atoms after read
        variable stretch equal 1+$i*${strainstep}
        variable stretch equal 1+34*${strainstep}
        variable stretch equal 1+34*-0.0005
        change_box all ${direction} scale ${stretch} remap
        change_box all y scale ${stretch} remap
        change_box all y scale 0.983 remap
  orthogonal box = (0 0.0495757 -0.280613) to (3.36736 5.78286 0.280613)
        min_style ${style}
        min_style hftn
        minimize ${etol} ${ftol} ${maxiter} ${maxeval}
        minimize 1e-12 ${ftol} ${maxiter} ${maxeval}
        minimize 1e-12 1e-08 ${maxiter} ${maxeval}
        minimize 1e-12 1e-08 10000 ${maxeval}
        minimize 1e-12 1e-08 10000 20000
WARNING: Resetting reneighboring criteria during minimization (../min.cpp:168)
Memory usage per processor = 4.85099 Mbytes
Step PotEng Pxx Pyy Pxy Lx Ly Lz 
       0   -53.905569   0.20027581   0.57468166 9.2342186e-17      3.36736    5.7332885   0.56122687 
       1   -53.905569   0.20027581   0.57468166 9.0497701e-18      3.36736    5.7332885   0.56122687 
Loop time of 0.000116904 on 1 procs for 0 steps with 18 atoms

Minimization stats:
  Stopping criterion = force tolerance
  Energy initial, next-to-last, final = 
        -53.9055685578     -53.9055685578     -53.9055685578
  Force two-norm initial, final = 0.000939388 2.33886e-09
  Force max component initial, final = 0.000238011 7.21687e-10
  Final line search alpha, max atom move = 0 0
  Iterations, force evaluations = 0 7

Pair  time (%) = 4.5843e-05 (39.2142)
Neigh time (%) = 0 (0)
Comm  time (%) = 2.62351e-05 (22.4416)
Outpt time (%) = 0 (0)
Other time (%) = 4.48258e-05 (38.3442)

Nlocal:    18 ave 18 max 18 min
Histogram: 1 0 0 0 0 0 0 0 0 0
Nghost:    65 ave 65 max 65 min
Histogram: 1 0 0 0 0 0 0 0 0 0
Neighs:    162 ave 162 max 162 min
Histogram: 1 0 0 0 0 0 0 0 0 0

Total # of neighbors = 162
Ave neighs/atom = 9
Neighbor list builds = 0
Dangerous builds = 0
        next i
jump SELF loop1
	read_dump orig.dump 0 x y
  orthogonal box = (0 0 -0.280613) to (3.36736 5.83244 0.280613)
  18 atoms before read
  18 atoms in snapshot
  0 atoms purged
  18 atoms replaced
  0 atoms trimmed
  0 atoms added
  18 atoms after read
        variable stretch equal 1+$i*${strainstep}
        variable stretch equal 1+35*${strainstep}
        variable stretch equal 1+35*-0.0005
        change_box all ${direction} scale ${stretch} remap
        change_box all y scale ${stretch} remap
        change_box all y scale 0.9825 remap
  orthogonal box = (0 0.0510338 -0.280613) to (3.36736 5.78141 0.280613)
        min_style ${style}
        min_style hftn
        minimize ${etol} ${ftol} ${maxiter} ${maxeval}
        minimize 1e-12 ${ftol} ${maxiter} ${maxeval}
        minimize 1e-12 1e-08 ${maxiter} ${maxeval}
        minimize 1e-12 1e-08 10000 ${maxeval}
        minimize 1e-12 1e-08 10000 20000
WARNING: Resetting reneighboring criteria during minimization (../min.cpp:168)
Memory usage per processor = 4.85099 Mbytes
Step PotEng Pxx Pyy Pxy Lx Ly Lz 
       0   -53.899804   0.20678673   0.59224734 -3.166874e-17      3.36736    5.7303723   0.56122687 
       1   -53.899804   0.20678673   0.59224734 -1.9279531e-16      3.36736    5.7303723   0.56122687 
Loop time of 6.00328e-05 on 1 procs for 0 steps with 18 atoms

[...]

Pair  time (%) = 4.50623e-05 (64.4236)
Neigh time (%) = 0 (0)
Comm  time (%) = 3.73926e-06 (5.34586)
Outpt time (%) = 0 (0)
Other time (%) = 2.11453e-05 (30.2306)

Nlocal:    18 ave 18 max 18 min
Histogram: 1 0 0 0 0 0 0 0 0 0
Nghost:    65 ave 65 max 65 min
Histogram: 1 0 0 0 0 0 0 0 0 0
Neighs:    162 ave 162 max 162 min
Histogram: 1 0 0 0 0 0 0 0 0 0

Total # of neighbors = 162
Ave neighs/atom = 9
Neighbor list builds = 0
Dangerous builds = 0
        next i
jump SELF loop1
	read_dump orig.dump 0 x y
  orthogonal box = (0 0 -0.280613) to (3.36736 5.83244 0.280613)
  18 atoms before read
  18 atoms in snapshot
  0 atoms purged
  18 atoms replaced
  0 atoms trimmed
  0 atoms added
  18 atoms after read
        variable stretch equal 1+$i*${strainstep}
        variable stretch equal 1+92*${strainstep}
        variable stretch equal 1+92*-0.0005
        change_box all ${direction} scale ${stretch} remap
        change_box all y scale ${stretch} remap
        change_box all y scale 0.954 remap
  orthogonal box = (0 0.134146 -0.280613) to (3.36736 5.69829 0.280613)
        min_style ${style}
        min_style hftn
        minimize ${etol} ${ftol} ${maxiter} ${maxeval}
        minimize 1e-12 ${ftol} ${maxiter} ${maxeval}
        minimize 1e-12 1e-08 ${maxiter} ${maxeval}
        minimize 1e-12 1e-08 10000 ${maxeval}
        minimize 1e-12 1e-08 10000 20000
WARNING: Resetting reneighboring criteria during minimization (../min.cpp:168)
Memory usage per processor = 4.85099 Mbytes
Step PotEng Pxx Pyy Pxy Lx Ly Lz 
       0   -53.279274   0.64487308    1.6424603 -8.0958044e-16      3.36736    5.5641478   0.56122687 
       1   -53.279274   0.64487308    1.6424603 1.485211e-17      3.36736    5.5641478   0.56122687 
Loop time of 5.99639e-05 on 1 procs for 0 steps with 18 atoms

Minimization stats:
  Stopping criterion = force tolerance
  Energy initial, next-to-last, final = 
        -53.2792744828     -53.2792744828     -53.2792744826
  Force two-norm initial, final = 0.00108766 2.92831e-09
  Force max component initial, final = 0.000279727 9.1205e-10
  Final line search alpha, max atom move = 0 0
  Iterations, force evaluations = 0 7

Pair  time (%) = 3.71877e-05 (62.0168)
Neigh time (%) = 0 (0)
Comm  time (%) = 3.95055e-06 (6.58822)
Outpt time (%) = 0 (0)
Other time (%) = 1.88256e-05 (31.395)

Nlocal:    18 ave 18 max 18 min
Histogram: 1 0 0 0 0 0 0 0 0 0
Nghost:    65 ave 65 max 65 min
Histogram: 1 0 0 0 0 0 0 0 0 0
Neighs:    162 ave 162 max 162 min
Histogram: 1 0 0 0 0 0 0 0 0 0

Total # of neighbors = 162
Ave neighs/atom = 9
Neighbor list builds = 0
Dangerous builds = 0
        next i
jump SELF loop1
	read_dump orig.dump 0 x y
  orthogonal box = (0 0 -0.280613) to (3.36736 5.83244 0.280613)
  18 atoms before read
  18 atoms in snapshot
  0 atoms purged
  18 atoms replaced
  0 atoms trimmed
  0 atoms added
  18 atoms after read
        variable stretch equal 1+$i*${strainstep}
        variable stretch equal 1+93*${strainstep}
        variable stretch equal 1+93*-0.0005
        change_box all ${direction} scale ${stretch} remap
        change_box all y scale ${stretch} remap
        change_box all y scale 0.9535 remap
  orthogonal box = (0 0.135604 -0.280613) to (3.36736 5.69684 0.280613)
        min_style ${style}
        min_style hftn
        minimize ${etol} ${ftol} ${maxiter} ${maxeval}
        minimize 1e-12 ${ftol} ${maxiter} ${maxeval}
        minimize 1e-12 1e-08 ${maxiter} ${maxeval}
        minimize 1e-12 1e-08 10000 ${maxeval}
        minimize 1e-12 1e-08 10000 20000
WARNING: Resetting reneighboring criteria during minimization (../min.cpp:168)
Memory usage per processor = 4.85099 Mbytes
Step PotEng Pxx Pyy Pxy Lx Ly Lz 
       0   -53.263033   0.65380364     1.661874 -5.9229315e-17      3.36736    5.5612315   0.56122687 
       1   -53.263033   0.65380364     1.661874 5.8388156e-17      3.36736    5.5612315   0.56122687 
Loop time of 5.90612e-05 on 1 procs for 0 steps with 18 atoms

Minimization stats:
  Stopping criterion = force tolerance
  Energy initial, next-to-last, final = 
        -53.2630327499     -53.2630327499     -53.2630327497
  Force two-norm initial, final = 0.00109303 2.94586e-09
  Force max component initial, final = 0.000281259 9.17962e-10
  Final line search alpha, max atom move = 0 0
  Iterations, force evaluations = 0 7

Pair  time (%) = 3.49733e-05 (59.2153)
Neigh time (%) = 0 (0)
Comm  time (%) = 8.1443e-06 (13.7896)
Outpt time (%) = 0 (0)
Other time (%) = 1.59437e-05 (26.9951)

Nlocal:    18 ave 18 max 18 min
Histogram: 1 0 0 0 0 0 0 0 0 0
Nghost:    65 ave 65 max 65 min
Histogram: 1 0 0 0 0 0 0 0 0 0
Neighs:    162 ave 162 max 162 min
Histogram: 1 0 0 0 0 0 0 0 0 0

Total # of neighbors = 162
Ave neighs/atom = 9
Neighbor list builds = 0
Dangerous builds = 0
        next i
jump SELF loop1
	read_dump orig.dump 0 x y
  orthogonal box = (0 0 -0.280613) to (3.36736 5.83244 0.280613)
  18 atoms before read
  18 atoms in snapshot
  0 atoms purged
  18 atoms replaced
  0 atoms trimmed
  0 atoms added
  18 atoms after read
        variable stretch equal 1+$i*${strainstep}
        variable stretch equal 1+94*${strainstep}
        variable stretch equal 1+94*-0.0005
        change_box all ${direction} scale ${stretch} remap
        change_box all y scale ${stretch} remap
        change_box all y scale 0.953 remap
  orthogonal box = (0 0.137062 -0.280613) to (3.36736 5.69538 0.280613)
        min_style ${style}
        min_style hftn
        minimize ${etol} ${ftol} ${maxiter} ${maxeval}
        minimize 1e-12 ${ftol} ${maxiter} ${maxeval}
        minimize 1e-12 1e-08 ${maxiter} ${maxeval}
        minimize 1e-12 1e-08 10000 ${maxeval}
        minimize 1e-12 1e-08 10000 20000
WARNING: Resetting reneighboring criteria during minimization (../min.cpp:168)
Memory usage per processor = 4.85099 Mbytes
Step PotEng Pxx Pyy Pxy Lx Ly Lz 
       0   -53.246653   0.66276977    1.6812981 1.4069625e-16      3.36736    5.5583153   0.56122687 
       1   -53.246653   0.66276977    1.6812981 -1.6740972e-17      3.36736    5.5583153   0.56122687 
Loop time of 5.90999e-05 on 1 procs for 0 steps with 18 atoms

Minimization stats:
  Stopping criterion = force tolerance
  Energy initial, next-to-last, final = 
        -53.2466534155     -53.2466534155     -53.2466534153
  Force two-norm initial, final = 0.00109823 2.96305e-09
  Force max component initial, final = 0.000282732 9.23397e-10
  Final line search alpha, max atom move = 0 0
  Iterations, force evaluations = 0 7

Pair  time (%) = 3.48056e-05 (58.8929)
Neigh time (%) = 0 (0)
Comm  time (%) = 5.80901e-06 (9.82914)
Outpt time (%) = 0 (0)
Other time (%) = 1.84852e-05 (31.278)

Nlocal:    18 ave 18 max 18 min
Histogram: 1 0 0 0 0 0 0 0 0 0
Nghost:    65 ave 65 max 65 min
Histogram: 1 0 0 0 0 0 0 0 0 0
Neighs:    162 ave 162 max 162 min
Histogram: 1 0 0 0 0 0 0 0 0 0

Total # of neighbors = 162
Ave neighs/atom = 9
Neighbor list builds = 0
Dangerous builds = 0
        next i
jump SELF loop1
	read_dump orig.dump 0 x y
  orthogonal box = (0 0 -0.280613) to (3.36736 5.83244 0.280613)
  18 atoms before read
  18 atoms in snapshot
  0 atoms purged
  18 atoms replaced
  0 atoms trimmed
  0 atoms added
  18 atoms after read
        variable stretch equal 1+$i*${strainstep}
        variable stretch equal 1+95*${strainstep}
        variable stretch equal 1+95*-0.0005
        change_box all ${direction} scale ${stretch} remap
        change_box all y scale ${stretch} remap
        change_box all y scale 0.9525 remap
  orthogonal box = (0 0.13852 -0.280613) to (3.36736 5.69392 0.280613)
        min_style ${style}
        min_style hftn
        minimize ${etol} ${ftol} ${maxiter} ${maxeval}
        minimize 1e-12 ${ftol} ${maxiter} ${maxeval}
        minimize 1e-12 1e-08 ${maxiter} ${maxeval}
        minimize 1e-12 1e-08 10000 ${maxeval}
        minimize 1e-12 1e-08 10000 20000
WARNING: Resetting reneighboring criteria during minimization (../min.cpp:168)
Memory usage per processor = 4.85099 Mbytes
Step PotEng Pxx Pyy Pxy Lx Ly Lz 
       0   -53.230035   0.67179029    1.7007849 3.1188445e-16      3.36736    5.5553991   0.56122687 
       1   -53.230035   0.67179029    1.7007849 1.0354868e-16      3.36736    5.5553991   0.56122687 
Loop time of 6.1036e-05 on 1 procs for 0 steps with 18 atoms

Minimization stats:
  Stopping criterion = force tolerance
  Energy initial, next-to-last, final = 
        -53.2300348454     -53.2300348454     -53.2300348452
  Force two-norm initial, final = 0.00109564 2.95945e-09
  Force max component initial, final = 0.000281944 9.22226e-10
  Final line search alpha, max atom move = 0 0
  Iterations, force evaluations = 0 7

Pair  time (%) = 3.37572e-05 (55.307)
Neigh time (%) = 0 (0)
Comm  time (%) = 1.02886e-05 (16.8565)
Outpt time (%) = 0 (0)
Other time (%) = 1.69902e-05 (27.8364)

Nlocal:    18 ave 18 max 18 min
Histogram: 1 0 0 0 0 0 0 0 0 0
Nghost:    65 ave 65 max 65 min
Histogram: 1 0 0 0 0 0 0 0 0 0
Neighs:    162 ave 162 max 162 min
Histogram: 1 0 0 0 0 0 0 0 0 0

Total # of neighbors = 162
Ave neighs/atom = 9
Neighbor list builds = 0
Dangerous builds = 0
        next i
jump SELF loop1
	read_dump orig.dump 0 x y
  orthogonal box = (0 0 -0.280613) to (3.36736 5.83244 0.280613)
  18 atoms before read
  18 atoms in snapshot
  0 atoms purged
  18 atoms replaced
  0 atoms trimmed
  0 atoms added
  18 atoms after read
        variable stretch equal 1+$i*${strainstep}
        variable stretch equal 1+96*${strainstep}
        variable stretch equal 1+96*-0.0005
        change_box all ${direction} scale ${stretch} remap
        change_box all y scale ${stretch} remap
        change_box all y scale 0.952 remap
  orthogonal box = (0 0.139979 -0.280613) to (3.36736 5.69246 0.280613)
        min_style ${style}
        min_style hftn
        minimize ${etol} ${ftol} ${maxiter} ${maxeval}
        minimize 1e-12 ${ftol} ${maxiter} ${maxeval}
        minimize 1e-12 1e-08 ${maxiter} ${maxeval}
        minimize 1e-12 1e-08 10000 ${maxeval}
        minimize 1e-12 1e-08 10000 20000
WARNING: Resetting reneighboring criteria during minimization (../min.cpp:168)
Memory usage per processor = 4.85099 Mbytes
Step PotEng Pxx Pyy Pxy Lx Ly Lz 
       0   -53.213214    0.6808566    1.7203141 -2.3981229e-16      3.36736    5.5524829   0.56122687 
       1   -53.213214    0.6808566    1.7203141 -3.8811737e-16      3.36736    5.5524829   0.56122687 
Loop time of 6.10383e-05 on 1 procs for 0 steps with 18 atoms

Minimization stats:
  Stopping criterion = force tolerance
  Energy initial, next-to-last, final = 
        -53.2132144872     -53.2132144872      -53.213214487
  Force two-norm initial, final = 0.00110107 2.9775e-09
  Force max component initial, final = 0.000283491 9.28086e-10
  Final line search alpha, max atom move = 0 0
  Iterations, force evaluations = 0 7

Pair  time (%) = 3.58751e-05 (58.7748)
Neigh time (%) = 0 (0)
Comm  time (%) = 8.23243e-06 (13.4873)
Outpt time (%) = 0 (0)
Other time (%) = 1.69307e-05 (27.7379)

Nlocal:    18 ave 18 max 18 min
Histogram: 1 0 0 0 0 0 0 0 0 0
Nghost:    65 ave 65 max 65 min
Histogram: 1 0 0 0 0 0 0 0 0 0
Neighs:    162 ave 162 max 162 min
Histogram: 1 0 0 0 0 0 0 0 0 0

Total # of neighbors = 162
Ave neighs/atom = 9
Neighbor list builds = 0
Dangerous builds = 0
        next i
jump SELF loop1
	read_dump orig.dump 0 x y
  orthogonal box = (0 0 -0.280613) to (3.36736 5.83244 0.280613)
  18 atoms before read
  18 atoms in snapshot
  0 atoms purged
  18 atoms replaced
  0 atoms trimmed
  0 atoms added
  18 atoms after read
        variable stretch equal 1+$i*${strainstep}
        variable stretch equal 1+97*${strainstep}
        variable stretch equal 1+97*-0.0005
        change_box all ${direction} scale ${stretch} remap
        change_box all y scale ${stretch} remap
        change_box all y scale 0.9515 remap
  orthogonal box = (0 0.141437 -0.280613) to (3.36736 5.691 0.280613)
        min_style ${style}
        min_style hftn
        minimize ${etol} ${ftol} ${maxiter} ${maxeval}
        minimize 1e-12 ${ftol} ${maxiter} ${maxeval}
        minimize 1e-12 1e-08 ${maxiter} ${maxeval}
        minimize 1e-12 1e-08 10000 ${maxeval}
        minimize 1e-12 1e-08 10000 20000
WARNING: Resetting reneighboring criteria during minimization (../min.cpp:168)
Memory usage per processor = 4.85099 Mbytes
Step PotEng Pxx Pyy Pxy Lx Ly Lz 
       0   -53.196257    0.6899589    1.7398532 2.9269205e-16      3.36736    5.5495667   0.56122687 
       1   -53.196257    0.6899589    1.7398532 -2.1242222e-16      3.36736    5.5495667   0.56122687 
Loop time of 5.81164e-05 on 1 procs for 0 steps with 18 atoms

Minimization stats:
  Stopping criterion = force tolerance
  Energy initial, next-to-last, final = 
        -53.1962572634     -53.1962572634     -53.1962572632
  Force two-norm initial, final = 0.00110632 2.99503e-09
  Force max component initial, final = 0.000284978 9.33747e-10
  Final line search alpha, max atom move = 0 0
  Iterations, force evaluations = 0 7

Pair  time (%) = 3.60373e-05 (62.0088)
Neigh time (%) = 0 (0)
Comm  time (%) = 4.12657e-06 (7.10053)
Outpt time (%) = 0 (0)
Other time (%) = 1.79525e-05 (30.8906)

Nlocal:    18 ave 18 max 18 min
Histogram: 1 0 0 0 0 0 0 0 0 0
Nghost:    65 ave 65 max 65 min
Histogram: 1 0 0 0 0 0 0 0 0 0
Neighs:    162 ave 162 max 162 min
Histogram: 1 0 0 0 0 0 0 0 0 0

Total # of neighbors = 162
Ave neighs/atom = 9
Neighbor list builds = 0
Dangerous builds = 0
        next i
jump SELF loop1
	read_dump orig.dump 0 x y
  orthogonal box = (0 0 -0.280613) to (3.36736 5.83244 0.280613)
  18 atoms before read
  18 atoms in snapshot
  0 atoms purged
  18 atoms replaced
  0 atoms trimmed
  0 atoms added
  18 atoms after read
        variable stretch equal 1+$i*${strainstep}
        variable stretch equal 1+98*${strainstep}
        variable stretch equal 1+98*-0.0005
        change_box all ${direction} scale ${stretch} remap
        change_box all y scale ${stretch} remap
        change_box all y scale 0.951 remap
  orthogonal box = (0 0.142895 -0.280613) to (3.36736 5.68955 0.280613)
        min_style ${style}
        min_style hftn
        minimize ${etol} ${ftol} ${maxiter} ${maxeval}
        minimize 1e-12 ${ftol} ${maxiter} ${maxeval}
        minimize 1e-12 1e-08 ${maxiter} ${maxeval}
        minimize 1e-12 1e-08 10000 ${maxeval}
        minimize 1e-12 1e-08 10000 20000
WARNING: Resetting reneighboring criteria during minimization (../min.cpp:168)
Memory usage per processor = 4.85099 Mbytes
Step PotEng Pxx Pyy Pxy Lx Ly Lz 
       0   -53.179071   0.69911425    1.7594494 4.1306292e-16      3.36736    5.5466504   0.56122687 
       1   -53.179071   0.69911425    1.7594495 -1.3283236e-16      3.36736    5.5466504   0.56122687 
Loop time of 6.89266e-05 on 1 procs for 0 steps with 18 atoms

Minimization stats:
  Stopping criterion = force tolerance
  Energy initial, next-to-last, final = 
        -53.1790714492     -53.1790714492      -53.179071449
  Force two-norm initial, final = 0.00110371 2.99184e-09
  Force max component initial, final = 0.000284183 9.32581e-10
  Final line search alpha, max atom move = 0 0
  Iterations, force evaluations = 0 7

Pair  time (%) = 3.39753e-05 (49.2921)
Neigh time (%) = 0 (0)
Comm  time (%) = 8.05571e-06 (11.6874)
Outpt time (%) = 0 (0)
Other time (%) = 2.68955e-05 (39.0206)

Nlocal:    18 ave 18 max 18 min
Histogram: 1 0 0 0 0 0 0 0 0 0
Nghost:    65 ave 65 max 65 min
Histogram: 1 0 0 0 0 0 0 0 0 0
Neighs:    162 ave 162 max 162 min
Histogram: 1 0 0 0 0 0 0 0 0 0

Total # of neighbors = 162
Ave neighs/atom = 9
Neighbor list builds = 0
Dangerous builds = 0
        next i
jump SELF loop1
	read_dump orig.dump 0 x y
  orthogonal box = (0 0 -0.280613) to (3.36736 5.83244 0.280613)
  18 atoms before read
  18 atoms in snapshot
  0 atoms purged
  18 atoms replaced
  0 atoms trimmed
  0 atoms added
  18 atoms after read
        variable stretch equal 1+$i*${strainstep}
        variable stretch equal 1+99*${strainstep}
        variable stretch equal 1+99*-0.0005
        change_box all ${direction} scale ${stretch} remap
        change_box all y scale ${stretch} remap
        change_box all y scale 0.9505 remap
  orthogonal box = (0 0.144353 -0.280613) to (3.36736 5.68809 0.280613)
        min_style ${style}
        min_style hftn
        minimize ${etol} ${ftol} ${maxiter} ${maxeval}
        minimize 1e-12 ${ftol} ${maxiter} ${maxeval}
        minimize 1e-12 1e-08 ${maxiter} ${maxeval}
        minimize 1e-12 1e-08 10000 ${maxeval}
        minimize 1e-12 1e-08 10000 20000
WARNING: Resetting reneighboring criteria during minimization (../min.cpp:168)
Memory usage per processor = 4.85099 Mbytes
Step PotEng Pxx Pyy Pxy Lx Ly Lz 
       0    -53.16167   0.70831819    1.7790959 1.3773433e-17      3.36736    5.5437342   0.56122687 
       1    -53.16167   0.70831819    1.7790959 1.8165468e-16      3.36736    5.5437342   0.56122687 
Loop time of 5.80703e-05 on 1 procs for 0 steps with 18 atoms

Minimization stats:
  Stopping criterion = force tolerance
  Energy initial, next-to-last, final = 
        -53.1616698387     -53.1616698387     -53.1616698385
  Force two-norm initial, final = 0.00110919 3.00923e-09
  Force max component initial, final = 0.000285745 9.38323e-10
  Final line search alpha, max atom move = 0 0
  Iterations, force evaluations = 0 7

Pair  time (%) = 3.50989e-05 (60.442)
Neigh time (%) = 0 (0)
Comm  time (%) = 7.34907e-06 (12.6555)
Outpt time (%) = 0 (0)
Other time (%) = 1.56224e-05 (26.9025)

Nlocal:    18 ave 18 max 18 min
Histogram: 1 0 0 0 0 0 0 0 0 0
Nghost:    65 ave 65 max 65 min
Histogram: 1 0 0 0 0 0 0 0 0 0
Neighs:    162 ave 162 max 162 min
Histogram: 1 0 0 0 0 0 0 0 0 0

Total # of neighbors = 162
Ave neighs/atom = 9
Neighbor list builds = 0
Dangerous builds = 0
        next i
jump SELF loop1
	read_dump orig.dump 0 x y
  orthogonal box = (0 0 -0.280613) to (3.36736 5.83244 0.280613)
  18 atoms before read
  18 atoms in snapshot
  0 atoms purged
  18 atoms replaced
  0 atoms trimmed
  0 atoms added
  18 atoms after read
        variable stretch equal 1+$i*${strainstep}
        variable stretch equal 1+100*${strainstep}
        variable stretch equal 1+100*-0.0005
        change_box all ${direction} scale ${stretch} remap
        change_box all y scale ${stretch} remap
        change_box all y scale 0.95 remap
  orthogonal box = (0 0.145811 -0.280613) to (3.36736 5.68663 0.280613)
        min_style ${style}
        min_style hftn
        minimize ${etol} ${ftol} ${maxiter} ${maxeval}
        minimize 1e-12 ${ftol} ${maxiter} ${maxeval}
        minimize 1e-12 1e-08 ${maxiter} ${maxeval}
        minimize 1e-12 1e-08 10000 ${maxeval}
        minimize 1e-12 1e-08 10000 20000
WARNING: Resetting reneighboring criteria during minimization (../min.cpp:168)
Memory usage per processor = 4.85099 Mbytes
Step PotEng Pxx Pyy Pxy Lx Ly Lz 
       0   -53.144132   0.71755856    1.7987517 2.2564482e-16      3.36736     5.540818   0.56122687 
       1   -53.144132   0.71755856    1.7987517 3.0523464e-16      3.36736     5.540818   0.56122687 
Loop time of 5.79428e-05 on 1 procs for 0 steps with 18 atoms

Minimization stats:
  Stopping criterion = force tolerance
  Energy initial, next-to-last, final = 
        -53.1441317655     -53.1441317655     -53.1441317653
  Force two-norm initial, final = 0.0011145 3.02737e-09
  Force max component initial, final = 0.000287247 9.44161e-10
  Final line search alpha, max atom move = 0 0
  Iterations, force evaluations = 0 7

Pair  time (%) = 3.47873e-05 (60.0374)
Neigh time (%) = 0 (0)
Comm  time (%) = 3.96441e-06 (6.84193)
Outpt time (%) = 0 (0)
Other time (%) = 1.91911e-05 (33.1207)

Nlocal:    18 ave 18 max 18 min
Histogram: 1 0 0 0 0 0 0 0 0 0
Nghost:    65 ave 65 max 65 min
Histogram: 1 0 0 0 0 0 0 0 0 0
Neighs:    162 ave 162 max 162 min
Histogram: 1 0 0 0 0 0 0 0 0 0

Total # of neighbors = 162
Ave neighs/atom = 9
Neighbor list builds = 0
Dangerous builds = 0
        next i
jump SELF loop1

