LAMMPS (28 Jun 2014)
# attempt at getting tensile strain-stress curve for infinite slab

#file prefix
variable prefix string compression_V_brittle_twin
variable dumpfile string ${prefix}.*.dump
variable dumpfile string compression_V_brittle_twin.*.dump
variable restartfile string ${prefix}.*.equil
variable restartfile string compression_V_brittle_twin.*.equil

#Mass (g/mol)
variable m equal 1

# lattice constant (in Angstroms) and orientation of axes (given by lattice vectors)
variable rho equal 1.0
variable x1 equal 1
variable x2 equal 0
variable x3 equal 1
variable y1 equal 0
variable y2 equal 1
variable y3 equal 0
variable z1 equal -1
variable z2 equal 0
variable z3 equal 1
# length of lattice in different directions (using orientation of lattice vectors)
variable ax equal sqrt(${x1}*${x1}+${x2}*${x2}+${x3}*${x3})
variable ax equal sqrt(1*${x1}+${x2}*${x2}+${x3}*${x3})
variable ax equal sqrt(1*1+${x2}*${x2}+${x3}*${x3})
variable ax equal sqrt(1*1+0*${x2}+${x3}*${x3})
variable ax equal sqrt(1*1+0*0+${x3}*${x3})
variable ax equal sqrt(1*1+0*0+1*${x3})
variable ax equal sqrt(1*1+0*0+1*1)
variable ay equal sqrt(${y1}*${y1}+${y2}*${y2}+${y3}*${y3})
variable ay equal sqrt(0*${y1}+${y2}*${y2}+${y3}*${y3})
variable ay equal sqrt(0*0+${y2}*${y2}+${y3}*${y3})
variable ay equal sqrt(0*0+1*${y2}+${y3}*${y3})
variable ay equal sqrt(0*0+1*1+${y3}*${y3})
variable ay equal sqrt(0*0+1*1+0*${y3})
variable ay equal sqrt(0*0+1*1+0*0)
variable az equal sqrt(${z1}*${z1}+${z2}*${z2}+${z3}*${z3})
variable az equal sqrt(-1*${z1}+${z2}*${z2}+${z3}*${z3})
variable az equal sqrt(-1*-1+${z2}*${z2}+${z3}*${z3})
variable az equal sqrt(-1*-1+0*${z2}+${z3}*${z3})
variable az equal sqrt(-1*-1+0*0+${z3}*${z3})
variable az equal sqrt(-1*-1+0*0+1*${z3})
variable az equal sqrt(-1*-1+0*0+1*1)

# size of box in lattice units
variable lxpos equal 2
variable lxneg equal 0
variable lypos equal 10
variable lyneg equal 0
variable lzpos equal 2
variable lzneg equal 0

# Define minimization parameters and damping
variable etol equal 1.0e-12
variable ftol equal 1.0e-8
variable maxiter equal 10000
variable maxeval equal 20000
variable style string hftn

# boundary conditions
dimension	3
boundary	p s p
atom_style	atomic

# create geometry
units		lj
lattice         fcc ${rho} orient x 1 1 -2 orient y 1 1 1 orient z 1 -1 0 spacing ${ax} ${ay} ${az}
lattice         fcc 1 orient x 1 1 -2 orient y 1 1 1 orient z 1 -1 0 spacing ${ax} ${ay} ${az}
lattice         fcc 1 orient x 1 1 -2 orient y 1 1 1 orient z 1 -1 0 spacing 1.4142135623731 ${ay} ${az}
lattice         fcc 1 orient x 1 1 -2 orient y 1 1 1 orient z 1 -1 0 spacing 1.4142135623731 1 ${az}
lattice         fcc 1 orient x 1 1 -2 orient y 1 1 1 orient z 1 -1 0 spacing 1.4142135623731 1 1.4142135623731
Lattice spacing in x,y,z = 2.24492 1.5874 2.24492
region		myregion block ${lxneg} ${lxpos} ${lyneg} ${lypos} ${lzneg} ${lzpos} units lattice
region		myregion block 0 ${lxpos} ${lyneg} ${lypos} ${lzneg} ${lzpos} units lattice
region		myregion block 0 2 ${lyneg} ${lypos} ${lzneg} ${lzpos} units lattice
region		myregion block 0 2 0 ${lypos} ${lzneg} ${lzpos} units lattice
region		myregion block 0 2 0 10 ${lzneg} ${lzpos} units lattice
region		myregion block 0 2 0 10 0 ${lzpos} units lattice
region		myregion block 0 2 0 10 0 2 units lattice
create_box	1 myregion
Created orthogonal box = (0 0 0) to (4.48985 15.874 4.48985)
  1 by 1 by 1 MPI processor grid

region		upper block INF INF 0.01 INF INF INF
create_atoms	1 region upper
Created 316 atoms

region		lower block INF INF INF 0.01 INF INF
lattice         fcc ${rho} orient x 1 1 -2 orient y -1 -1 -1 orient z -1 1 0 spacing ${ax} ${ay} ${az}
lattice         fcc 1 orient x 1 1 -2 orient y -1 -1 -1 orient z -1 1 0 spacing ${ax} ${ay} ${az}
lattice         fcc 1 orient x 1 1 -2 orient y -1 -1 -1 orient z -1 1 0 spacing 1.4142135623731 ${ay} ${az}
lattice         fcc 1 orient x 1 1 -2 orient y -1 -1 -1 orient z -1 1 0 spacing 1.4142135623731 1 ${az}
lattice         fcc 1 orient x 1 1 -2 orient y -1 -1 -1 orient z -1 1 0 spacing 1.4142135623731 1 1.4142135623731
Lattice spacing in x,y,z = 2.24492 1.5874 2.24492
create_atoms	1 region lower
Created 20 atoms

# define masses
mass * $m
mass * 1

# my fake/morse potential
pair_style      table linear 3001
pair_coeff      * * vpotential_inter23d dummy
neighbor	0.3 bin
neigh_modify	delay 5

# Setup output
thermo 1
thermo_style custom step pe pxx pyy pxy lx ly lz
thermo_modify norm no

# Compute initial state by relaxing box
min_style ${style}
min_style hftn
minimize ${etol} ${ftol} ${maxiter} ${maxeval}
minimize 1e-12 ${ftol} ${maxiter} ${maxeval}
minimize 1e-12 1e-08 ${maxiter} ${maxeval}
minimize 1e-12 1e-08 10000 ${maxeval}
minimize 1e-12 1e-08 10000 20000
WARNING: Resetting reneighboring criteria during minimization (../min.cpp:168)
Memory usage per processor = 4.90059 Mbytes
Step PotEng Pxx Pyy Pxy Lx Ly Lz 
       0    37261.158    1007.3462  -0.22342897   0.37738543    4.4898482    15.583444    4.4898482 
       1    12145.332    416.09263   0.44760733   0.43297102    4.4898482    15.583444    4.4898482 
       2    3219.1232    174.76845    1.3132655   0.61018274    4.4898482    15.583444    4.4898482 
       3    102.25509    78.811968    2.3555458   0.94110447    4.4898482    15.583444    4.4898482 
       4    102.25509     78.81101    2.3555172   0.94109303    4.4898482    15.583633    4.4898482 
       5   -883.00458    43.837553    3.3621684    1.2488711    4.4898482    15.583633    4.4898482 
       6   -1369.7195    26.015036    3.8414071   0.96297268    4.4898482    15.583633    4.4898482 
       7   -1485.9847    20.225145    5.3820177  -0.31168697    4.4898482    15.857386    4.4898482 
       8   -1539.9941    17.495388    4.2229443  -0.17029177    4.4898482    15.857386    4.4898482 
       9   -1553.2438    17.003183    4.1082918  -0.13248601    4.4898482    15.857386    4.4898482 
      10   -1567.7227     15.11423    4.0508331  -0.38019648    4.4898482    16.220878    4.4898482 
      11   -1580.6742     14.63338    3.9136488  -0.23992938    4.4898482    16.220878    4.4898482 
      12   -1594.2722    13.114868    3.9623062  -0.46737427    4.4898482    16.220878    4.4898482 
      13   -1603.8534    12.734489    3.8002668  -0.30381043    4.4898482    16.220878    4.4898482 
      14   -1613.4906    11.219416    3.8028638  -0.39985174    4.4898482    16.603926    4.4898482 
      15   -1646.8591    8.9389556    3.5522948  0.018149414    4.4898482    16.603926    4.4898482 
      16   -1661.1268    7.8984717    3.4885059  -0.16344797    4.4898482    16.603926    4.4898482 
      17   -1690.4912    6.1427152    3.5605302   0.46541573    4.4898482    16.815676    4.4898482 
      18   -1716.2162    4.9015807    3.3283984   0.29361361    4.4898482    16.815676    4.4898482 
      19    -1765.464     3.397725    3.0127924   0.68174664    4.4898482    16.815676    4.4898482 
      20    -1799.902    2.5635824    2.2053729   0.32234794    4.4898482    16.878312    4.4898482 
      21   -1833.9882    2.0459755    1.2392925  0.062740303    4.4898482    16.878312    4.4898482 
      22   -1856.8573    1.6953812   0.57767916  -0.22487292    4.4898482    16.878312    4.4898482 
      23   -1867.1873    1.5975733   0.40328993  -0.40618229    4.4898482    16.811334    4.4898482 
      24   -1873.1508    1.6286385   0.45653418  -0.37302268    4.4898482    16.811334    4.4898482 
      25   -1876.0105    1.4743125  0.058091674 -0.011285301    4.4898482    16.811334    4.4898482 
      26   -1876.0517    1.4611895 9.5912535e-05 0.0012014948    4.4898482    16.811334    4.4898482 
      27   -1876.0518    1.4611571 3.6510517e-07 3.4687137e-06    4.4898482    16.811334    4.4898482 
      28   -1876.0518    1.4611566 4.9239406e-09 -5.7948824e-10    4.4898482    16.811334    4.4898482 
      29   -1876.0518    1.4611566 1.4274412e-10 1.4789979e-12    4.4898482    16.811334    4.4898482 
Loop time of 0.388774 on 1 procs for 28 steps with 336 atoms

Minimization stats:
  Stopping criterion = force tolerance
  Energy initial, next-to-last, final = 
         37261.1579875     -1876.05178233     -1876.05178247
  Force two-norm initial, final = 107408 8.83345e-09
  Force max component initial, final = 10963.6 9.13431e-10
  Final line search alpha, max atom move = 0 0
  Iterations, force evaluations = 28 673

Pair  time (%) = 0.316736 (81.4704)
Neigh time (%) = 0.00363063 (0.933865)
Comm  time (%) = 0.0510975 (13.1432)
Outpt time (%) = 0.00451187 (1.16054)
Other time (%) = 0.0127984 (3.29199)

Nlocal:    336 ave 336 max 336 min
Histogram: 1 0 0 0 0 0 0 0 0 0
Nghost:    1092 ave 1092 max 1092 min
Histogram: 1 0 0 0 0 0 0 0 0 0
Neighs:    8488 ave 8488 max 8488 min
Histogram: 1 0 0 0 0 0 0 0 0 0

Total # of neighbors = 8488
Ave neighs/atom = 25.2619
Neighbor list builds = 8
Dangerous builds = 1
reset_timestep 0
write_dump all atom orig.dump

# Energy curve will have nstep steps
variable strainmax equal -0.05
variable strainstep equal -0.0005
variable nsteps equal round(${strainmax}/${strainstep})
variable nsteps equal round(-0.05/${strainstep})
variable nsteps equal round(-0.05/-0.0005)
variable direction string y

variable i loop ${nsteps}
variable i loop 100
label loop1
        read_dump orig.dump 0 x y z
  orthogonal box = (0 -0.602089 0) to (4.48985 16.1824 4.48985)
  336 atoms before read
  336 atoms in snapshot
  0 atoms purged
  336 atoms replaced
  0 atoms trimmed
  0 atoms added
  336 atoms after read
        variable stretch equal 1+$i*${strainstep}
        variable stretch equal 1+1*${strainstep}
        variable stretch equal 1+1*-0.0005
        change_box all ${direction} scale ${stretch} remap
        change_box all y scale ${stretch} remap
        change_box all y scale 0.9995 remap
  orthogonal box = (0 -0.599571 0) to (4.48985 16.1798 4.48985)
        min_style ${style}
        min_style hftn
        minimize ${etol} ${ftol} ${maxiter} ${maxeval}
        minimize 1e-12 ${ftol} ${maxiter} ${maxeval}
        minimize 1e-12 1e-08 ${maxiter} ${maxeval}
        minimize 1e-12 1e-08 10000 ${maxeval}
        minimize 1e-12 1e-08 10000 20000
WARNING: Resetting reneighboring criteria during minimization (../min.cpp:168)
Memory usage per processor = 4.9009 Mbytes
Step PotEng Pxx Pyy Pxy Lx Ly Lz 
       0   -1876.0502    1.4764412  0.039073454 -0.0014185226      4.48985    16.779397      4.48985 
       1    -1876.052    1.4639243 0.00013512705 7.9061888e-05      4.48985    16.779397      4.48985 
       2    -1876.052    1.4638741 -7.7120959e-07 1.5852897e-08      4.48985    16.779397      4.48985 
       3    -1876.052    1.4638745 -7.6544928e-11 3.8478728e-11      4.48985    16.779397      4.48985 
       4    -1876.052    1.4638745 4.163931e-14 1.6049345e-13      4.48985    16.779397      4.48985 
Loop time of 0.214446 on 1 procs for 3 steps with 336 atoms

Minimization stats:
  Stopping criterion = force tolerance
  Energy initial, next-to-last, final = 
        -1876.05015689     -1876.05200045     -1876.05200048
  Force two-norm initial, final = 0.329257 2.21161e-11
  Force max component initial, final = 0.0475312 5.66835e-12
  Final line search alpha, max atom move = 0 0
  Iterations, force evaluations = 3 339

Pair  time (%) = 0.163737 (76.3537)
Neigh time (%) = 0 (0)
Comm  time (%) = 0.0439939 (20.5151)
Outpt time (%) = 0.000167964 (0.0783246)
Other time (%) = 0.00654663 (3.05281)

Nlocal:    336 ave 336 max 336 min
Histogram: 1 0 0 0 0 0 0 0 0 0
Nghost:    1110 ave 1110 max 1110 min
Histogram: 1 0 0 0 0 0 0 0 0 0
Neighs:    8504 ave 8504 max 8504 min
Histogram: 1 0 0 0 0 0 0 0 0 0

Total # of neighbors = 8504
Ave neighs/atom = 25.3095
Neighbor list builds = 0
Dangerous builds = 0
        next i
jump SELF loop1
        read_dump orig.dump 0 x y z
  orthogonal box = (0 -0.602089 0) to (4.48985 16.1824 4.48985)
  336 atoms before read
  336 atoms in snapshot
  0 atoms purged
  336 atoms replaced
  0 atoms trimmed
  0 atoms added
  336 atoms after read
        variable stretch equal 1+$i*${strainstep}
        variable stretch equal 1+2*${strainstep}
        variable stretch equal 1+2*-0.0005
        change_box all ${direction} scale ${stretch} remap
        change_box all y scale ${stretch} remap
        change_box all y scale 0.999 remap
  orthogonal box = (0 -0.595374 0) to (4.48985 16.1756 4.48985)
        min_style ${style}
        min_style hftn
        minimize ${etol} ${ftol} ${maxiter} ${maxeval}
        minimize 1e-12 ${ftol} ${maxiter} ${maxeval}
        minimize 1e-12 1e-08 ${maxiter} ${maxeval}
        minimize 1e-12 1e-08 10000 ${maxeval}
        minimize 1e-12 1e-08 10000 20000
WARNING: Resetting reneighboring criteria during minimization (../min.cpp:168)
Memory usage per processor = 4.9009 Mbytes
Step PotEng Pxx Pyy Pxy Lx Ly Lz 
       0   -1876.0381    1.4981742   0.10451087 -0.0036441654      4.48985    16.771003      4.48985 
       1   -1876.0519    1.4647515 0.00048547825 5.1041859e-05      4.48985    16.771003      4.48985 
       2    -1876.052    1.4645509 -0.0001900414 5.1114568e-05      4.48985    16.771003      4.48985 
       3    -1876.052    1.4646072 2.8454963e-08 6.0789603e-09      4.48985    16.771003      4.48985 
       4    -1876.052    1.4646072 -1.2011396e-10 -1.3726412e-11      4.48985    16.771003      4.48985 
       5    -1876.052    1.4646072 1.4598566e-12 7.4786603e-14      4.48985    16.771003      4.48985 
Loop time of 0.186575 on 1 procs for 4 steps with 336 atoms

Minimization stats:
  Stopping criterion = force tolerance
  Energy initial, next-to-last, final = 
        -1876.03805656     -1876.05198009     -1876.05200048
  Force two-norm initial, final = 0.882295 1.01307e-10
  Force max component initial, final = 0.126765 2.48115e-11
  Final line search alpha, max atom move = 0 0
  Iterations, force evaluations = 4 399

Pair  time (%) = 0.160849 (86.2116)
Neigh time (%) = 0 (0)
Comm  time (%) = 0.0169789 (9.10032)
Outpt time (%) = 0.000893979 (0.479152)
Other time (%) = 0.00785284 (4.20894)

Nlocal:    336 ave 336 max 336 min
Histogram: 1 0 0 0 0 0 0 0 0 0
Nghost:    1110 ave 1110 max 1110 min
Histogram: 1 0 0 0 0 0 0 0 0 0
Neighs:    8504 ave 8504 max 8504 min
Histogram: 1 0 0 0 0 0 0 0 0 0

Total # of neighbors = 8504
Ave neighs/atom = 25.3095
Neighbor list builds = 0
Dangerous builds = 0
        next i
jump SELF loop1
        read_dump orig.dump 0 x y z
  orthogonal box = (0 -0.602089 0) to (4.48985 16.1824 4.48985)
  336 atoms before read
  336 atoms in snapshot
  0 atoms purged
  336 atoms replaced
  0 atoms trimmed
  0 atoms added
  336 atoms after read
        variable stretch equal 1+$i*${strainstep}
        variable stretch equal 1+3*${strainstep}
        variable stretch equal 1+3*-0.0005
        change_box all ${direction} scale ${stretch} remap
        change_box all y scale ${stretch} remap
        change_box all y scale 0.9985 remap
  orthogonal box = (0 -0.591177 0) to (4.48985 16.1714 4.48985)
        min_style ${style}
        min_style hftn
        minimize ${etol} ${ftol} ${maxiter} ${maxeval}
        minimize 1e-12 ${ftol} ${maxiter} ${maxeval}
        minimize 1e-12 1e-08 ${maxiter} ${maxeval}
        minimize 1e-12 1e-08 10000 ${maxeval}
        minimize 1e-12 1e-08 10000 20000
WARNING: Resetting reneighboring criteria during minimization (../min.cpp:168)
Memory usage per processor = 4.9009 Mbytes
Step PotEng Pxx Pyy Pxy Lx Ly Lz 
       0   -1876.0149    1.5199676   0.17027955 -0.0057255136      4.48985     16.76261      4.48985 
       1   -1876.0519    1.4656997 0.0013825062 -0.00016739429      4.48985     16.76261      4.48985 
       2    -1876.052    1.4652764 -0.00039327155 0.00041577395      4.48985     16.76261      4.48985 
       3    -1876.052    1.4653406 -3.0102084e-08 1.0458628e-08      4.48985     16.76261      4.48985 
       4    -1876.052    1.4653406 1.0557185e-10 7.0482475e-11      4.48985     16.76261      4.48985 
       5    -1876.052    1.4653406 -1.1369878e-12 1.3206648e-13      4.48985     16.76261      4.48985 
Loop time of 0.174173 on 1 procs for 4 steps with 336 atoms

Minimization stats:
  Stopping criterion = force tolerance
  Energy initial, next-to-last, final = 
        -1876.01489817     -1876.05196417     -1876.05200048
  Force two-norm initial, final = 1.44378 4.70781e-11
  Force max component initial, final = 0.206534 1.01674e-11
  Final line search alpha, max atom move = 0 0
  Iterations, force evaluations = 4 375

Pair  time (%) = 0.150342 (86.3174)
Neigh time (%) = 0 (0)
Comm  time (%) = 0.0162156 (9.31003)
Outpt time (%) = 0.000395197 (0.226899)
Other time (%) = 0.00722062 (4.14566)

Nlocal:    336 ave 336 max 336 min
Histogram: 1 0 0 0 0 0 0 0 0 0
Nghost:    1110 ave 1110 max 1110 min
Histogram: 1 0 0 0 0 0 0 0 0 0
Neighs:    8504 ave 8504 max 8504 min
Histogram: 1 0 0 0 0 0 0 0 0 0

Total # of neighbors = 8504
Ave neighs/atom = 25.3095
Neighbor list builds = 0
Dangerous builds = 0
        next i
jump SELF loop1
        read_dump orig.dump 0 x y z
  orthogonal box = (0 -0.602089 0) to (4.48985 16.1824 4.48985)
  336 atoms before read
  336 atoms in snapshot
  0 atoms purged
  336 atoms replaced
  0 atoms trimmed
  0 atoms added
  336 atoms after read
        variable stretch equal 1+$i*${strainstep}
        variable stretch equal 1+4*${strainstep}
        variable stretch equal 1+4*-0.0005
        change_box all ${direction} scale ${stretch} remap
        change_box all y scale ${stretch} remap
        change_box all y scale 0.998 remap
  orthogonal box = (0 -0.58698 0) to (4.48985 16.1672 4.48985)
        min_style ${style}
        min_style hftn
        minimize ${etol} ${ftol} ${maxiter} ${maxeval}
        minimize 1e-12 ${ftol} ${maxiter} ${maxeval}
        minimize 1e-12 1e-08 ${maxiter} ${maxeval}
        minimize 1e-12 1e-08 10000 ${maxeval}
        minimize 1e-12 1e-08 10000 20000
WARNING: Resetting reneighboring criteria during minimization (../min.cpp:168)
Memory usage per processor = 4.9009 Mbytes
Step PotEng Pxx Pyy Pxy Lx Ly Lz 
       0   -1875.9806    1.5418446   0.23643132 -0.0076920967      4.48985    16.754216      4.48985 
       1   -1876.0519    1.4664062 0.0021225759 -0.00070481413      4.48985    16.754216      4.48985 
       2    -1876.052    1.4661768 4.4793997e-05 0.00056465701      4.48985    16.754216      4.48985 
       3    -1876.052    1.4660747 -3.0581304e-07 4.6332757e-08      4.48985    16.754216      4.48985 
       4    -1876.052    1.4660748 -1.245948e-12 1.8700262e-12      4.48985    16.754216      4.48985 
Loop time of 0.128996 on 1 procs for 3 steps with 336 atoms

Minimization stats:
  Stopping criterion = force tolerance
  Energy initial, next-to-last, final = 
        -1875.98057024     -1876.05197692     -1876.05200048
  Force two-norm initial, final = 2.01191 3.72568e-10
  Force max component initial, final = 0.286983 3.78437e-11
  Final line search alpha, max atom move = 0 0
  Iterations, force evaluations = 3 280

Pair  time (%) = 0.115535 (89.5648)
Neigh time (%) = 0 (0)
Comm  time (%) = 0.00817429 (6.33686)
Outpt time (%) = 0.000204936 (0.15887)
Other time (%) = 0.0050817 (3.93943)

Nlocal:    336 ave 336 max 336 min
Histogram: 1 0 0 0 0 0 0 0 0 0
Nghost:    1110 ave 1110 max 1110 min
Histogram: 1 0 0 0 0 0 0 0 0 0
Neighs:    8504 ave 8504 max 8504 min
Histogram: 1 0 0 0 0 0 0 0 0 0

Total # of neighbors = 8504
Ave neighs/atom = 25.3095
Neighbor list builds = 0
Dangerous builds = 0
        next i
jump SELF loop1
        read_dump orig.dump 0 x y z
  orthogonal box = (0 -0.602089 0) to (4.48985 16.1824 4.48985)
  336 atoms before read
  336 atoms in snapshot
  0 atoms purged
  336 atoms replaced
  0 atoms trimmed
  0 atoms added
  336 atoms after read
        variable stretch equal 1+$i*${strainstep}
        variable stretch equal 1+5*${strainstep}
        variable stretch equal 1+5*-0.0005
        change_box all ${direction} scale ${stretch} remap
        change_box all y scale ${stretch} remap
        change_box all y scale 0.9975 remap
  orthogonal box = (0 -0.582783 0) to (4.48985 16.163 4.48985)
        min_style ${style}
        min_style hftn
        minimize ${etol} ${ftol} ${maxiter} ${maxeval}
        minimize 1e-12 ${ftol} ${maxiter} ${maxeval}
        minimize 1e-12 1e-08 ${maxiter} ${maxeval}
        minimize 1e-12 1e-08 10000 ${maxeval}
        minimize 1e-12 1e-08 10000 20000
WARNING: Resetting reneighboring criteria during minimization (../min.cpp:168)
Memory usage per processor = 4.9009 Mbytes
Step PotEng Pxx Pyy Pxy Lx Ly Lz 
       0   -1875.9348    1.5638126   0.30298505 -0.0095529807      4.48985    16.745822      4.48985 
       1   -1876.0519    1.4677336 0.0041436632 -0.00090181985      4.48985    16.745822      4.48985 
       2    -1876.052    1.4669422 0.00011425329 0.00060620554      4.48985    16.745822      4.48985 
       3    -1876.052    1.4668095 -3.7484192e-07 9.2348409e-08      4.48985    16.745822      4.48985 
       4    -1876.052    1.4668096 -2.4040051e-12 -2.1895218e-12      4.48985    16.745822      4.48985 
Loop time of 0.129152 on 1 procs for 3 steps with 336 atoms

Minimization stats:
  Stopping criterion = force tolerance
  Energy initial, next-to-last, final = 
        -1875.93483891     -1876.05197461     -1876.05200048
  Force two-norm initial, final = 2.58635 1.1892e-09
  Force max component initial, final = 0.367867 1.6617e-10
  Final line search alpha, max atom move = 0 0
  Iterations, force evaluations = 3 278

Pair  time (%) = 0.114072 (88.3241)
Neigh time (%) = 0 (0)
Comm  time (%) = 0.00991863 (7.67981)
Outpt time (%) = 0.0001878 (0.14541)
Other time (%) = 0.00497322 (3.85067)

Nlocal:    336 ave 336 max 336 min
Histogram: 1 0 0 0 0 0 0 0 0 0
Nghost:    1110 ave 1110 max 1110 min
Histogram: 1 0 0 0 0 0 0 0 0 0
Neighs:    8504 ave 8504 max 8504 min
Histogram: 1 0 0 0 0 0 0 0 0 0

Total # of neighbors = 8504
Ave neighs/atom = 25.3095
Neighbor list builds = 0
Dangerous builds = 0
        next i
jump SELF loop1
        read_dump orig.dump 0 x y z
  orthogonal box = (0 -0.602089 0) to (4.48985 16.1824 4.48985)
  336 atoms before read
  336 atoms in snapshot
  0 atoms purged
  336 atoms replaced
  0 atoms trimmed
  0 atoms added
  336 atoms after read
        variable stretch equal 1+$i*${strainstep}
        variable stretch equal 1+6*${strainstep}
        variable stretch equal 1+6*-0.0005
        change_box all ${direction} scale ${stretch} remap
        change_box all y scale ${stretch} remap
        change_box all y scale 0.997 remap
  orthogonal box = (0 -0.578586 0) to (4.48985 16.1588 4.48985)
        min_style ${style}
        min_style hftn
        minimize ${etol} ${ftol} ${maxiter} ${maxeval}
        minimize 1e-12 ${ftol} ${maxiter} ${maxeval}
        minimize 1e-12 1e-08 ${maxiter} ${maxeval}
        minimize 1e-12 1e-08 10000 ${maxeval}
        minimize 1e-12 1e-08 10000 20000
WARNING: Resetting reneighboring criteria during minimization (../min.cpp:168)
Memory usage per processor = 4.9009 Mbytes
Step PotEng Pxx Pyy Pxy Lx Ly Lz 
       0   -1875.8779    1.5859006   0.36998385 -0.011349744      4.48985    16.737428      4.48985 
       1   -1876.0518    1.4690662 0.0063372938 -0.0012436872      4.48985    16.737428      4.48985 
       2    -1876.052    1.4676891 0.00013420611 0.00065513052      4.48985    16.737428      4.48985 
       3    -1876.052    1.4675453 -6.5062842e-07 5.4046867e-07      4.48985    16.737428      4.48985 
       4    -1876.052    1.4675452 -1.7364667e-12 -1.598124e-11      4.48985    16.737428      4.48985 
Loop time of 0.180472 on 1 procs for 3 steps with 336 atoms

Minimization stats:
  Stopping criterion = force tolerance
  Energy initial, next-to-last, final = 
        -1875.87788454     -1876.05198222     -1876.05200048
  Force two-norm initial, final = 3.16575 4.57438e-09
  Force max component initial, final = 0.44947 6.59996e-10
  Final line search alpha, max atom move = 0 0
  Iterations, force evaluations = 3 270

Pair  time (%) = 0.149866 (83.0409)
Neigh time (%) = 0 (0)
Comm  time (%) = 0.0231969 (12.8534)
Outpt time (%) = 0.000141103 (0.0781854)
Other time (%) = 0.0072684 (4.02744)

Nlocal:    336 ave 336 max 336 min
Histogram: 1 0 0 0 0 0 0 0 0 0
Nghost:    1110 ave 1110 max 1110 min
Histogram: 1 0 0 0 0 0 0 0 0 0
Neighs:    8504 ave 8504 max 8504 min
Histogram: 1 0 0 0 0 0 0 0 0 0

Total # of neighbors = 8504
Ave neighs/atom = 25.3095
Neighbor list builds = 0
Dangerous builds = 0
        next i
jump SELF loop1
        read_dump orig.dump 0 x y z
  orthogonal box = (0 -0.602089 0) to (4.48985 16.1824 4.48985)
  336 atoms before read
  336 atoms in snapshot
  0 atoms purged
  336 atoms replaced
  0 atoms trimmed
  0 atoms added
  336 atoms after read
        variable stretch equal 1+$i*${strainstep}
        variable stretch equal 1+7*${strainstep}
        variable stretch equal 1+7*-0.0005
        change_box all ${direction} scale ${stretch} remap
        change_box all y scale ${stretch} remap
        change_box all y scale 0.9965 remap
  orthogonal box = (0 -0.574389 0) to (4.48985 16.1547 4.48985)
        min_style ${style}
        min_style hftn
        minimize ${etol} ${ftol} ${maxiter} ${maxeval}
        minimize 1e-12 ${ftol} ${maxiter} ${maxeval}
        minimize 1e-12 1e-08 ${maxiter} ${maxeval}
        minimize 1e-12 1e-08 10000 ${maxeval}
        minimize 1e-12 1e-08 10000 20000
WARNING: Resetting reneighboring criteria during minimization (../min.cpp:168)
Memory usage per processor = 4.9009 Mbytes
Step PotEng Pxx Pyy Pxy Lx Ly Lz 
       0     -1875.81    1.6081176   0.43743933 -0.013088651      4.48985    16.729034      4.48985 
       1   -1876.0516    1.4707642 0.0093544345 -0.001399895      4.48985    16.729034      4.48985 
       2    -1876.052    1.4683926 3.8347251e-05 0.00068910577      4.48985    16.729034      4.48985 
       3    -1876.052    1.4682816 -4.2762791e-07 1.2707833e-07      4.48985    16.729034      4.48985 
       4    -1876.052    1.4682816 -8.7375124e-12 7.1982557e-12      4.48985    16.729034      4.48985 
Loop time of 0.127532 on 1 procs for 3 steps with 336 atoms

Minimization stats:
  Stopping criterion = force tolerance
  Energy initial, next-to-last, final = 
        -1875.80998859     -1876.05198612     -1876.05200048
  Force two-norm initial, final = 3.74943 6.01128e-09
  Force max component initial, final = 0.531485 9.03174e-10
  Final line search alpha, max atom move = 0 0
  Iterations, force evaluations = 3 274

Pair  time (%) = 0.115004 (90.1767)
Neigh time (%) = 0 (0)
Comm  time (%) = 0.00745851 (5.84835)
Outpt time (%) = 0.000180938 (0.141877)
Other time (%) = 0.00488844 (3.83311)

Nlocal:    336 ave 336 max 336 min
Histogram: 1 0 0 0 0 0 0 0 0 0
Nghost:    1110 ave 1110 max 1110 min
Histogram: 1 0 0 0 0 0 0 0 0 0
Neighs:    8504 ave 8504 max 8504 min
Histogram: 1 0 0 0 0 0 0 0 0 0

Total # of neighbors = 8504
Ave neighs/atom = 25.3095
Neighbor list builds = 0
Dangerous builds = 0
        next i
jump SELF loop1
        read_dump orig.dump 0 x y z
  orthogonal box = (0 -0.602089 0) to (4.48985 16.1824 4.48985)
  336 atoms before read
  336 atoms in snapshot
  0 atoms purged
  336 atoms replaced
  0 atoms trimmed
  0 atoms added
  336 atoms after read
        variable stretch equal 1+$i*${strainstep}
        variable stretch equal 1+8*${strainstep}
        variable stretch equal 1+8*-0.0005
        change_box all ${direction} scale ${stretch} remap
        change_box all y scale ${stretch} remap
        change_box all y scale 0.996 remap
  orthogonal box = (0 -0.570192 0) to (4.48985 16.1505 4.48985)
        min_style ${style}
        min_style hftn
        minimize ${etol} ${ftol} ${maxiter} ${maxeval}
        minimize 1e-12 ${ftol} ${maxiter} ${maxeval}
        minimize 1e-12 1e-08 ${maxiter} ${maxeval}
        minimize 1e-12 1e-08 10000 ${maxeval}
        minimize 1e-12 1e-08 10000 20000
WARNING: Resetting reneighboring criteria during minimization (../min.cpp:168)
Memory usage per processor = 4.9009 Mbytes
Step PotEng Pxx Pyy Pxy Lx Ly Lz 
       0   -1875.7299    1.6304902   0.50541674 -0.014793465      4.48985     16.72064      4.48985 
       1   -1876.0514    1.4722694  0.012079284 -0.0016624395      4.48985     16.72064      4.48985 
       2    -1876.052    1.4692336 0.00028684131 0.00070401827      4.48985     16.72064      4.48985 
       3    -1876.052    1.4690185 4.8716685e-07 -3.0930751e-08      4.48985     16.72064      4.48985 
       4    -1876.052    1.4690185 4.8716685e-07 -3.0930751e-08      4.48985     16.72064      4.48985 
       5    -1876.052    1.4690185 4.8716685e-07 -3.0930751e-08      4.48985     16.72064      4.48985 
       6    -1876.052    1.4690185 4.8716685e-07 -3.0930751e-08      4.48985     16.72064      4.48985 
       7    -1876.052    1.4690185 4.8277441e-07 -2.7951332e-08      4.48985     16.72064      4.48985 
Loop time of 0.136346 on 1 procs for 6 steps with 336 atoms

Minimization stats:
  Stopping criterion = energy tolerance
  Energy initial, next-to-last, final = 
        -1875.72991069     -1876.05196457     -1876.05200052
  Force two-norm initial, final = 4.33744 0.000140295
  Force max component initial, final = 0.614368 1.93262e-05
  Final line search alpha, max atom move = 0 0
  Iterations, force evaluations = 6 291

Pair  time (%) = 0.123521 (90.5936)
Neigh time (%) = 0 (0)
Comm  time (%) = 0.00616366 (4.52061)
Outpt time (%) = 0.000585861 (0.429687)
Other time (%) = 0.00607577 (4.45614)

Nlocal:    336 ave 336 max 336 min
Histogram: 1 0 0 0 0 0 0 0 0 0
Nghost:    1110 ave 1110 max 1110 min
Histogram: 1 0 0 0 0 0 0 0 0 0
Neighs:    8504 ave 8504 max 8504 min
Histogram: 1 0 0 0 0 0 0 0 0 0

Total # of neighbors = 8504
Ave neighs/atom = 25.3095
Neighbor list builds = 0
Dangerous builds = 0
        next i
jump SELF loop1
        read_dump orig.dump 0 x y z
  orthogonal box = (0 -0.602089 0) to (4.48985 16.1824 4.48985)
  336 atoms before read
  336 atoms in snapshot
  0 atoms purged
  336 atoms replaced
  0 atoms trimmed
  0 atoms added
  336 atoms after read
        variable stretch equal 1+$i*${strainstep}
        variable stretch equal 1+9*${strainstep}
        variable stretch equal 1+9*-0.0005
        change_box all ${direction} scale ${stretch} remap
        change_box all y scale ${stretch} remap
        change_box all y scale 0.9955 remap
  orthogonal box = (0 -0.565995 0) to (4.48985 16.1463 4.48985)
        min_style ${style}
        min_style hftn
        minimize ${etol} ${ftol} ${maxiter} ${maxeval}
        minimize 1e-12 ${ftol} ${maxiter} ${maxeval}
        minimize 1e-12 1e-08 ${maxiter} ${maxeval}
        minimize 1e-12 1e-08 10000 ${maxeval}
        minimize 1e-12 1e-08 10000 20000
WARNING: Resetting reneighboring criteria during minimization (../min.cpp:168)
Memory usage per processor = 4.9009 Mbytes
Step PotEng Pxx Pyy Pxy Lx Ly Lz 
       0   -1875.6388    1.6529958   0.57386839 -0.016442843      4.48985    16.712246      4.48985 
       1   -1876.0512    1.4744589  0.016589255 -0.0016998745      4.48985    16.712246      4.48985 
       2    -1876.052    1.4698951 7.1318285e-05 0.0007842896      4.48985    16.712246      4.48985 
       3    -1876.052    1.4697562 -1.6901938e-06 5.3364889e-07      4.48985    16.712246      4.48985 
       4    -1876.052    1.4697565 -1.4784015e-11 6.8634979e-12      4.48985    16.712246      4.48985 
       5    -1876.052    1.4697565 -3.3215925e-14 1.626834e-14      4.48985    16.712246      4.48985 
Loop time of 0.174796 on 1 procs for 4 steps with 336 atoms

Minimization stats:
  Stopping criterion = force tolerance
  Energy initial, next-to-last, final = 
        -1875.63884547     -1876.05200047     -1876.05200048
  Force two-norm initial, final = 4.92894 1.18431e-11
  Force max component initial, final = 0.69766 2.0267e-12
  Final line search alpha, max atom move = 0 0
  Iterations, force evaluations = 4 378

Pair  time (%) = 0.157007 (89.8227)
Neigh time (%) = 0 (0)
Comm  time (%) = 0.0102276 (5.85116)
Outpt time (%) = 0.000265862 (0.152098)
Other time (%) = 0.00729604 (4.17403)

Nlocal:    336 ave 336 max 336 min
Histogram: 1 0 0 0 0 0 0 0 0 0
Nghost:    1110 ave 1110 max 1110 min
Histogram: 1 0 0 0 0 0 0 0 0 0
Neighs:    8504 ave 8504 max 8504 min
Histogram: 1 0 0 0 0 0 0 0 0 0

Total # of neighbors = 8504
Ave neighs/atom = 25.3095
Neighbor list builds = 0
Dangerous builds = 0
        next i
jump SELF loop1
        read_dump orig.dump 0 x y z
  orthogonal box = (0 -0.602089 0) to (4.48985 16.1824 4.48985)
  336 atoms before read
  336 atoms in snapshot
  0 atoms purged
  336 atoms replaced
  0 atoms trimmed
  0 atoms added
  336 atoms after read
        variable stretch equal 1+$i*${strainstep}
        variable stretch equal 1+10*${strainstep}
        variable stretch equal 1+10*-0.0005
        change_box all ${direction} scale ${stretch} remap
        change_box all y scale ${stretch} remap
        change_box all y scale 0.995 remap
  orthogonal box = (0 -0.561798 0) to (4.48985 16.1421 4.48985)
        min_style ${style}
        min_style hftn
        minimize ${etol} ${ftol} ${maxiter} ${maxeval}
        minimize 1e-12 ${ftol} ${maxiter} ${maxeval}
        minimize 1e-12 1e-08 ${maxiter} ${maxeval}
        minimize 1e-12 1e-08 10000 ${maxeval}
        minimize 1e-12 1e-08 10000 20000
WARNING: Resetting reneighboring criteria during minimization (../min.cpp:168)
Memory usage per processor = 4.9009 Mbytes
Step PotEng Pxx Pyy Pxy Lx Ly Lz 
       0   -1875.5359    1.6756631   0.64281792 -0.018074953      4.48985    16.703852      4.48985 
       1    -1876.051    1.4766398  0.020651177 -0.0016943301      4.48985    16.703852      4.48985 
       2    -1876.052    1.4706583 8.6311887e-05 0.00086249014      4.48985    16.703852      4.48985 
       3    -1876.052    1.4704944 -2.5246588e-06 7.3824263e-07      4.48985    16.703852      4.48985 
       4    -1876.052    1.4704951 1.2371631e-10 4.9097688e-11      4.48985    16.703852      4.48985 
       5    -1876.052    1.4704951 -7.9517701e-13 -4.2321788e-14      4.48985    16.703852      4.48985 
Loop time of 0.176328 on 1 procs for 4 steps with 336 atoms

Minimization stats:
  Stopping criterion = force tolerance
  Energy initial, next-to-last, final = 
        -1875.53585954     -1876.05200045     -1876.05200048
  Force two-norm initial, final = 5.52495 2.30209e-11
  Force max component initial, final = 0.781762 3.47904e-12
  Final line search alpha, max atom move = 0 0
  Iterations, force evaluations = 4 378

Pair  time (%) = 0.15958 (90.5017)
Neigh time (%) = 0 (0)
Comm  time (%) = 0.00777366 (4.40864)
Outpt time (%) = 0.000420831 (0.238664)
Other time (%) = 0.0085537 (4.85102)

Nlocal:    336 ave 336 max 336 min
Histogram: 1 0 0 0 0 0 0 0 0 0
Nghost:    1110 ave 1110 max 1110 min
Histogram: 1 0 0 0 0 0 0 0 0 0
Neighs:    8504 ave 8504 max 8504 min
Histogram: 1 0 0 0 0 0 0 0 0 0

Total # of neighbors = 8504
Ave neighs/atom = 25.3095
Neighbor list builds = 0
Dangerous builds = 0
        next i
jump SELF loop1
        read_dump orig.dump 0 x y z
  orthogonal box = (0 -0.602089 0) to (4.48985 16.1824 4.48985)
  336 atoms before read
  336 atoms in snapshot
  0 atoms purged
  336 atoms replaced
  0 atoms trimmed
  0 atoms added
  336 atoms after read
        variable stretch equal 1+$i*${strainstep}
        variable stretch equal 1+11*${strainstep}
        variable stretch equal 1+11*-0.0005
        change_box all ${direction} scale ${stretch} remap
        change_box all y scale ${stretch} remap
        change_box all y scale 0.9945 remap
  orthogonal box = (0 -0.557601 0) to (4.48985 16.1379 4.48985)
        min_style ${style}
        min_style hftn
        minimize ${etol} ${ftol} ${maxiter} ${maxeval}
        minimize 1e-12 ${ftol} ${maxiter} ${maxeval}
        minimize 1e-12 1e-08 ${maxiter} ${maxeval}
        minimize 1e-12 1e-08 10000 ${maxeval}
        minimize 1e-12 1e-08 10000 20000
WARNING: Resetting reneighboring criteria during minimization (../min.cpp:168)
Memory usage per processor = 4.9009 Mbytes
Step PotEng Pxx Pyy Pxy Lx Ly Lz 
       0   -1875.4217    1.6984684   0.71225201 -0.019647008      4.48985    16.695458      4.48985 
       1   -1876.0507    1.4787867  0.025190357 -0.0016247218      4.48985    16.695458      4.48985 
       2    -1876.052    1.4714184 0.00012199656 0.00093994348      4.48985    16.695458      4.48985 
       3    -1876.052     1.471234 -2.1925339e-06 4.7392434e-07      4.48985    16.695458      4.48985 
       4    -1876.052     1.471234 -2.1925339e-06 4.7392434e-07      4.48985    16.695458      4.48985 
       5    -1876.052     1.471234 -2.0432688e-06 4.2888765e-07      4.48985    16.695458      4.48985 
       6    -1876.052     1.471234 -2.0432688e-06 4.2888765e-07      4.48985    16.695458      4.48985 
       7    -1876.052     1.471234 -1.9415647e-06 4.0496168e-07      4.48985    16.695458      4.48985 
Loop time of 0.134721 on 1 procs for 6 steps with 336 atoms

Minimization stats:
  Stopping criterion = energy tolerance
  Energy initial, next-to-last, final = 
        -1875.42168202     -1876.05200048     -1876.05200049
  Force two-norm initial, final = 6.12443 6.83641e-05
  Force max component initial, final = 0.866244 1.07189e-05
  Final line search alpha, max atom move = 0 0
  Iterations, force evaluations = 6 289

Pair  time (%) = 0.120059 (89.1166)
Neigh time (%) = 0 (0)
Comm  time (%) = 0.00815271 (6.05155)
Outpt time (%) = 0.000948885 (0.704333)
Other time (%) = 0.00556066 (4.12753)

Nlocal:    336 ave 336 max 336 min
Histogram: 1 0 0 0 0 0 0 0 0 0
Nghost:    1110 ave 1110 max 1110 min
Histogram: 1 0 0 0 0 0 0 0 0 0
Neighs:    8504 ave 8504 max 8504 min
Histogram: 1 0 0 0 0 0 0 0 0 0

Total # of neighbors = 8504
Ave neighs/atom = 25.3095
Neighbor list builds = 0
Dangerous builds = 0
        next i
jump SELF loop1
        read_dump orig.dump 0 x y z
  orthogonal box = (0 -0.602089 0) to (4.48985 16.1824 4.48985)
  336 atoms before read
  336 atoms in snapshot
  0 atoms purged
  336 atoms replaced
  0 atoms trimmed
  0 atoms added
  336 atoms after read
        variable stretch equal 1+$i*${strainstep}
        variable stretch equal 1+12*${strainstep}
        variable stretch equal 1+12*-0.0005
        change_box all ${direction} scale ${stretch} remap
        change_box all y scale ${stretch} remap
        change_box all y scale 0.994 remap
  orthogonal box = (0 -0.553405 0) to (4.48985 16.1337 4.48985)
        min_style ${style}
        min_style hftn
        minimize ${etol} ${ftol} ${maxiter} ${maxeval}
        minimize 1e-12 ${ftol} ${maxiter} ${maxeval}
        minimize 1e-12 1e-08 ${maxiter} ${maxeval}
        minimize 1e-12 1e-08 10000 ${maxeval}
        minimize 1e-12 1e-08 10000 20000
WARNING: Resetting reneighboring criteria during minimization (../min.cpp:168)
Memory usage per processor = 4.9009 Mbytes
Step PotEng Pxx Pyy Pxy Lx Ly Lz 
       0   -1875.2949    1.7214345    0.7822204  -0.02118972      4.48985    16.687064      4.48985 
       1   -1876.0503    1.4810845  0.030051893 -0.0019042254      4.48985    16.687064      4.48985 
       2    -1876.052    1.4722062 0.00025110613 0.00095175029      4.48985    16.687064      4.48985 
       3    -1876.052    1.4719749 -2.2283408e-07 1.1115378e-06      4.48985    16.687064      4.48985 
       4    -1876.052    1.4719749 -2.2283408e-07 1.1115378e-06      4.48985    16.687064      4.48985 
       5    -1876.052    1.4719749 -2.2283408e-07 1.1115378e-06      4.48985    16.687064      4.48985 
       6    -1876.052    1.4719749 -2.2283408e-07 1.1115378e-06      4.48985    16.687064      4.48985 
       7    -1876.052    1.4719749 -2.2283408e-07 1.1115378e-06      4.48985    16.687064      4.48985 
       8    -1876.052    1.4719749 -2.2319889e-07 1.1115247e-06      4.48985    16.687064      4.48985 
Loop time of 0.134524 on 1 procs for 7 steps with 336 atoms

Minimization stats:
  Stopping criterion = energy tolerance
  Energy initial, next-to-last, final = 
        -1875.29489088     -1876.05196844     -1876.05200059
  Force two-norm initial, final = 6.72806 0.000307867
  Force max component initial, final = 0.951519 3.16608e-05
  Final line search alpha, max atom move = 0 0
  Iterations, force evaluations = 7 286

Pair  time (%) = 0.115689 (85.9987)
Neigh time (%) = 0 (0)
Comm  time (%) = 0.0126257 (9.38549)
Outpt time (%) = 0.000582892 (0.433299)
Other time (%) = 0.00562646 (4.18249)

Nlocal:    336 ave 336 max 336 min
Histogram: 1 0 0 0 0 0 0 0 0 0
Nghost:    1110 ave 1110 max 1110 min
Histogram: 1 0 0 0 0 0 0 0 0 0
Neighs:    8504 ave 8504 max 8504 min
Histogram: 1 0 0 0 0 0 0 0 0 0

Total # of neighbors = 8504
Ave neighs/atom = 25.3095
Neighbor list builds = 0
Dangerous builds = 0
        next i
jump SELF loop1
        read_dump orig.dump 0 x y z
  orthogonal box = (0 -0.602089 0) to (4.48985 16.1824 4.48985)
  336 atoms before read
  336 atoms in snapshot
  0 atoms purged
  336 atoms replaced
  0 atoms trimmed
  0 atoms added
  336 atoms after read
        variable stretch equal 1+$i*${strainstep}
        variable stretch equal 1+13*${strainstep}
        variable stretch equal 1+13*-0.0005
        change_box all ${direction} scale ${stretch} remap
        change_box all y scale ${stretch} remap
        change_box all y scale 0.9935 remap
  orthogonal box = (0 -0.549208 0) to (4.48985 16.1295 4.48985)
        min_style ${style}
        min_style hftn
        minimize ${etol} ${ftol} ${maxiter} ${maxeval}
        minimize 1e-12 ${ftol} ${maxiter} ${maxeval}
        minimize 1e-12 1e-08 ${maxiter} ${maxeval}
        minimize 1e-12 1e-08 10000 ${maxeval}
        minimize 1e-12 1e-08 10000 20000
WARNING: Resetting reneighboring criteria during minimization (../min.cpp:168)
Memory usage per processor = 4.9009 Mbytes
Step PotEng Pxx Pyy Pxy Lx Ly Lz 
       0   -1875.1567    1.7445447   0.85267821 -0.022675153      4.48985    16.678671      4.48985 
       1   -1876.0497    1.4836009   0.03543014 -0.0019235476      4.48985    16.678671      4.48985 
       2    -1876.052    1.4729714 0.0002377811 0.0010523693      4.48985    16.678671      4.48985 
       3    -1876.052     1.472715 -2.2024838e-06 1.2303717e-06      4.48985    16.678671      4.48985 
       4    -1876.052     1.472715 -2.2024838e-06 1.2303717e-06      4.48985    16.678671      4.48985 
       5    -1876.052     1.472715 -2.2024838e-06 1.2303717e-06      4.48985    16.678671      4.48985 
       6    -1876.052     1.472715 -2.1570757e-06 1.2107877e-06      4.48985    16.678671      4.48985 
Loop time of 0.185398 on 1 procs for 5 steps with 336 atoms

Minimization stats:
  Stopping criterion = energy tolerance
  Energy initial, next-to-last, final = 
         -1875.1567132     -1876.05198188      -1876.0520005
  Force two-norm initial, final = 7.33555 0.000249553
  Force max component initial, final = 1.03722 2.44428e-05
  Final line search alpha, max atom move = 0 0
  Iterations, force evaluations = 5 276

Pair  time (%) = 0.149289 (80.5233)
Neigh time (%) = 0 (0)
Comm  time (%) = 0.026886 (14.5018)
Outpt time (%) = 0.000383154 (0.206666)
Other time (%) = 0.00884018 (4.76822)

Nlocal:    336 ave 336 max 336 min
Histogram: 1 0 0 0 0 0 0 0 0 0
Nghost:    1110 ave 1110 max 1110 min
Histogram: 1 0 0 0 0 0 0 0 0 0
Neighs:    8504 ave 8504 max 8504 min
Histogram: 1 0 0 0 0 0 0 0 0 0

Total # of neighbors = 8504
Ave neighs/atom = 25.3095
Neighbor list builds = 0
Dangerous builds = 0
        next i
jump SELF loop1
        read_dump orig.dump 0 x y z
  orthogonal box = (0 -0.602089 0) to (4.48985 16.1824 4.48985)
  336 atoms before read
  336 atoms in snapshot
  0 atoms purged
  336 atoms replaced
  0 atoms trimmed
  0 atoms added
  336 atoms after read
        variable stretch equal 1+$i*${strainstep}
        variable stretch equal 1+14*${strainstep}
        variable stretch equal 1+14*-0.0005
        change_box all ${direction} scale ${stretch} remap
        change_box all y scale ${stretch} remap
        change_box all y scale 0.993 remap
  orthogonal box = (0 -0.545011 0) to (4.48985 16.1253 4.48985)
        min_style ${style}
        min_style hftn
        minimize ${etol} ${ftol} ${maxiter} ${maxeval}
        minimize 1e-12 ${ftol} ${maxiter} ${maxeval}
        minimize 1e-12 1e-08 ${maxiter} ${maxeval}
        minimize 1e-12 1e-08 10000 ${maxeval}
        minimize 1e-12 1e-08 10000 20000
WARNING: Resetting reneighboring criteria during minimization (../min.cpp:168)
Memory usage per processor = 4.9009 Mbytes
Step PotEng Pxx Pyy Pxy Lx Ly Lz 
       0   -1875.0064    1.7678103   0.92364634  -0.02412815      4.48985    16.670277      4.48985 
       1   -1876.0484    1.4866203   0.04290513 -0.0025382178      4.48985    16.670277      4.48985 
       2    -1876.052    1.4737412 0.00033507936 0.0010187083      4.48985    16.670277      4.48985 
       3    -1876.052    1.4734556 -7.0986056e-06 4.9307697e-06      4.48985    16.670277      4.48985 
       4    -1876.052    1.4734568 2.5527986e-09 -5.2191075e-10      4.48985    16.670277      4.48985 
       5    -1876.052    1.4734568 -2.0251238e-12 1.0132117e-11      4.48985    16.670277      4.48985 
Loop time of 0.175661 on 1 procs for 4 steps with 336 atoms

Minimization stats:
  Stopping criterion = force tolerance
  Energy initial, next-to-last, final = 
        -1875.00640162     -1876.05200043     -1876.05200048
  Force two-norm initial, final = 7.94746 5.87081e-10
  Force max component initial, final = 1.12382 1.13941e-10
  Final line search alpha, max atom move = 0 0
  Iterations, force evaluations = 4 358

Pair  time (%) = 0.160742 (91.5067)
Neigh time (%) = 0 (0)
Comm  time (%) = 0.00746899 (4.25194)
Outpt time (%) = 0.000395812 (0.225327)
Other time (%) = 0.00705458 (4.01602)

Nlocal:    336 ave 336 max 336 min
Histogram: 1 0 0 0 0 0 0 0 0 0
Nghost:    1110 ave 1110 max 1110 min
Histogram: 1 0 0 0 0 0 0 0 0 0
Neighs:    8504 ave 8504 max 8504 min
Histogram: 1 0 0 0 0 0 0 0 0 0

Total # of neighbors = 8504
Ave neighs/atom = 25.3095
Neighbor list builds = 0
Dangerous builds = 0
        next i
jump SELF loop1
        read_dump orig.dump 0 x y z
  orthogonal box = (0 -0.602089 0) to (4.48985 16.1824 4.48985)
  336 atoms before read
  336 atoms in snapshot
  0 atoms purged
  336 atoms replaced
  0 atoms trimmed
  0 atoms added
  336 atoms after read
        variable stretch equal 1+$i*${strainstep}
        variable stretch equal 1+15*${strainstep}
        variable stretch equal 1+15*-0.0005
        change_box all ${direction} scale ${stretch} remap
        change_box all y scale ${stretch} remap
        change_box all y scale 0.9925 remap
  orthogonal box = (0 -0.540814 0) to (4.48985 16.1211 4.48985)
        min_style ${style}
        min_style hftn
        minimize ${etol} ${ftol} ${maxiter} ${maxeval}
        minimize 1e-12 ${ftol} ${maxiter} ${maxeval}
        minimize 1e-12 1e-08 ${maxiter} ${maxeval}
        minimize 1e-12 1e-08 10000 ${maxeval}
        minimize 1e-12 1e-08 10000 20000
WARNING: Resetting reneighboring criteria during minimization (../min.cpp:168)
Memory usage per processor = 4.9009 Mbytes
Step PotEng Pxx Pyy Pxy Lx Ly Lz 
       0   -1874.8442    1.7912291   0.99511701  -0.02553242      4.48985    16.661883      4.48985 
       1   -1876.0473    1.4890825  0.048612897 -0.0026555689      4.48985    16.661883      4.48985 
       2   -1876.0519    1.4744847 0.00066089712 0.00080635794      4.48985    16.661883      4.48985 
       3    -1876.052    1.4741973 -1.7419967e-06 5.1183966e-06      4.48985    16.661883      4.48985 
       4    -1876.052    1.4741991 8.0389468e-11 1.1859006e-11      4.48985    16.661883      4.48985 
       5    -1876.052    1.4741991 -3.4037726e-12 9.7690812e-12      4.48985    16.661883      4.48985 
Loop time of 0.169849 on 1 procs for 4 steps with 336 atoms

Minimization stats:
  Stopping criterion = force tolerance
  Energy initial, next-to-last, final = 
        -1874.84420278     -1876.05200021     -1876.05200048
  Force two-norm initial, final = 8.56306 1.43599e-09
  Force max component initial, final = 1.21087 4.22752e-10
  Final line search alpha, max atom move = 0 0
  Iterations, force evaluations = 4 348

Pair  time (%) = 0.149777 (88.1826)
Neigh time (%) = 0 (0)
Comm  time (%) = 0.0122057 (7.1862)
Outpt time (%) = 0.000468872 (0.276052)
Other time (%) = 0.00739724 (4.35519)

Nlocal:    336 ave 336 max 336 min
Histogram: 1 0 0 0 0 0 0 0 0 0
Nghost:    1110 ave 1110 max 1110 min
Histogram: 1 0 0 0 0 0 0 0 0 0
Neighs:    8504 ave 8504 max 8504 min
Histogram: 1 0 0 0 0 0 0 0 0 0

Total # of neighbors = 8504
Ave neighs/atom = 25.3095
Neighbor list builds = 0
Dangerous builds = 0
        next i
jump SELF loop1
        read_dump orig.dump 0 x y z
  orthogonal box = (0 -0.602089 0) to (4.48985 16.1824 4.48985)
  336 atoms before read
  336 atoms in snapshot
  0 atoms purged
  336 atoms replaced
  0 atoms trimmed
  0 atoms added
  336 atoms after read
        variable stretch equal 1+$i*${strainstep}
        variable stretch equal 1+16*${strainstep}
        variable stretch equal 1+16*-0.0005
        change_box all ${direction} scale ${stretch} remap
        change_box all y scale ${stretch} remap
        change_box all y scale 0.992 remap
  orthogonal box = (0 -0.536617 0) to (4.48985 16.1169 4.48985)
        min_style ${style}
        min_style hftn
        minimize ${etol} ${ftol} ${maxiter} ${maxeval}
        minimize 1e-12 ${ftol} ${maxiter} ${maxeval}
        minimize 1e-12 1e-08 ${maxiter} ${maxeval}
        minimize 1e-12 1e-08 10000 ${maxeval}
        minimize 1e-12 1e-08 10000 20000
WARNING: Resetting reneighboring criteria during minimization (../min.cpp:168)
Memory usage per processor = 4.9009 Mbytes
Step PotEng Pxx Pyy Pxy Lx Ly Lz 
       0   -1874.6696    1.8147996    1.0671152 -0.026893971      4.48985    16.653489      4.48985 
       1    -1876.046    1.4921665   0.05571162 -0.0028567431      4.48985    16.653489      4.48985 
       2   -1876.0519    1.4752622 0.00045132086 0.00098934034      4.48985    16.653489      4.48985 
       3    -1876.052    1.4749383 -1.7795763e-05 6.9654001e-06      4.48985    16.653489      4.48985 
       4    -1876.052    1.4749421 -2.3816642e-09 -1.6262016e-09      4.48985    16.653489      4.48985 
       5    -1876.052    1.4749421 -1.4847691e-12 1.137642e-11      4.48985    16.653489      4.48985 
Loop time of 0.178418 on 1 procs for 4 steps with 336 atoms

Minimization stats:
  Stopping criterion = force tolerance
  Energy initial, next-to-last, final = 
        -1874.66962834     -1876.05200039     -1876.05200048
  Force two-norm initial, final = 9.1827 8.46653e-10
  Force max component initial, final = 1.29866 1.38602e-10
  Final line search alpha, max atom move = 0 0
  Iterations, force evaluations = 4 356

Pair  time (%) = 0.161049 (90.2648)
Neigh time (%) = 0 (0)
Comm  time (%) = 0.00960831 (5.38528)
Outpt time (%) = 0.000794117 (0.445088)
Other time (%) = 0.00696687 (3.90481)

Nlocal:    336 ave 336 max 336 min
Histogram: 1 0 0 0 0 0 0 0 0 0
Nghost:    1110 ave 1110 max 1110 min
Histogram: 1 0 0 0 0 0 0 0 0 0
Neighs:    8520 ave 8520 max 8520 min
Histogram: 1 0 0 0 0 0 0 0 0 0

Total # of neighbors = 8520
Ave neighs/atom = 25.3571
Neighbor list builds = 0
Dangerous builds = 0
        next i
jump SELF loop1
        read_dump orig.dump 0 x y z
  orthogonal box = (0 -0.602089 0) to (4.48985 16.1824 4.48985)
  336 atoms before read
  336 atoms in snapshot
  0 atoms purged
  336 atoms replaced
  0 atoms trimmed
  0 atoms added
  336 atoms after read
        variable stretch equal 1+$i*${strainstep}
        variable stretch equal 1+17*${strainstep}
        variable stretch equal 1+17*-0.0005
        change_box all ${direction} scale ${stretch} remap
        change_box all y scale ${stretch} remap
        change_box all y scale 0.9915 remap
  orthogonal box = (0 -0.53242 0) to (4.48985 16.1127 4.48985)
        min_style ${style}
        min_style hftn
        minimize ${etol} ${ftol} ${maxiter} ${maxeval}
        minimize 1e-12 ${ftol} ${maxiter} ${maxeval}
        minimize 1e-12 1e-08 ${maxiter} ${maxeval}
        minimize 1e-12 1e-08 10000 ${maxeval}
        minimize 1e-12 1e-08 10000 20000
WARNING: Resetting reneighboring criteria during minimization (../min.cpp:168)
Memory usage per processor = 4.9009 Mbytes
Step PotEng Pxx Pyy Pxy Lx Ly Lz 
       0    -1874.483    1.8385287      1.13962 -0.028213146      4.48985    16.645095      4.48985 
       1   -1876.0451    1.4953292  0.062688477 -0.0025925776      4.48985    16.645095      4.48985 
       2   -1876.0519    1.4760569 0.00056806731 0.0010176151      4.48985    16.645095      4.48985 
       3    -1876.052    1.4756889 -4.0521278e-06 1.0241454e-05      4.48985    16.645095      4.48985 
       4    -1876.052    1.4756889 -4.0521278e-06 1.0241454e-05      4.48985    16.645095      4.48985 
       5    -1876.052    1.4756889 -4.0521278e-06 1.0241454e-05      4.48985    16.645095      4.48985 
       6    -1876.052    1.4756889 -4.0521278e-06 1.0241454e-05      4.48985    16.645095      4.48985 
       7    -1876.052    1.4756889 -4.0521278e-06 1.0241454e-05      4.48985    16.645095      4.48985 
       8    -1876.052    1.4756889 -4.0521278e-06 1.0241454e-05      4.48985    16.645095      4.48985 
       9    -1876.052    1.4756889 -4.0578375e-06 1.0245677e-05      4.48985    16.645095      4.48985 
Loop time of 0.151055 on 1 procs for 8 steps with 336 atoms

Minimization stats:
  Stopping criterion = energy tolerance
  Energy initial, next-to-last, final = 
        -1874.48301255     -1876.05190697     -1876.05200074
  Force two-norm initial, final = 9.80677 0.00145934
  Force max component initial, final = 1.38696 0.000271461
  Final line search alpha, max atom move = 0 0
  Iterations, force evaluations = 8 287

Pair  time (%) = 0.132955 (88.0178)
Neigh time (%) = 0 (0)
Comm  time (%) = 0.0109039 (7.21849)
Outpt time (%) = 0.00114088 (0.755277)
Other time (%) = 0.00605488 (4.0084)

Nlocal:    336 ave 336 max 336 min
Histogram: 1 0 0 0 0 0 0 0 0 0
Nghost:    1110 ave 1110 max 1110 min
Histogram: 1 0 0 0 0 0 0 0 0 0
Neighs:    8520 ave 8520 max 8520 min
Histogram: 1 0 0 0 0 0 0 0 0 0

Total # of neighbors = 8520
Ave neighs/atom = 25.3571
Neighbor list builds = 0
Dangerous builds = 0
        next i
jump SELF loop1
        read_dump orig.dump 0 x y z
  orthogonal box = (0 -0.602089 0) to (4.48985 16.1824 4.48985)
  336 atoms before read
  336 atoms in snapshot
  0 atoms purged
  336 atoms replaced
  0 atoms trimmed
  0 atoms added
  336 atoms after read
        variable stretch equal 1+$i*${strainstep}
        variable stretch equal 1+18*${strainstep}
        variable stretch equal 1+18*-0.0005
        change_box all ${direction} scale ${stretch} remap
        change_box all y scale ${stretch} remap
        change_box all y scale 0.991 remap
  orthogonal box = (0 -0.528223 0) to (4.48985 16.1085 4.48985)
        min_style ${style}
        min_style hftn
        minimize ${etol} ${ftol} ${maxiter} ${maxeval}
        minimize 1e-12 ${ftol} ${maxiter} ${maxeval}
        minimize 1e-12 1e-08 ${maxiter} ${maxeval}
        minimize 1e-12 1e-08 10000 ${maxeval}
        minimize 1e-12 1e-08 10000 20000
WARNING: Resetting reneighboring criteria during minimization (../min.cpp:168)
Memory usage per processor = 4.9009 Mbytes
Step PotEng Pxx Pyy Pxy Lx Ly Lz 
       0   -1874.2839    1.8624124    1.2126548 -0.029479994      4.48985    16.636701      4.48985 
       1   -1876.0431    1.4982175  0.070376483 -0.0032033244      4.48985    16.636701      4.48985 
       2   -1876.0519    1.4766411 0.00043717413 0.00082465892      4.48985    16.636701      4.48985 
       3    -1876.052    1.4763473 -0.00025009775 3.1013935e-05      4.48985    16.636701      4.48985 
       4    -1876.052    1.4764305 3.491455e-08 1.7675354e-08      4.48985    16.636701      4.48985 
       5    -1876.052    1.4764305 -1.1053968e-10 -3.0314789e-11      4.48985    16.636701      4.48985 
       6    -1876.052    1.4764305 1.0816922e-12 1.5850536e-13      4.48985    16.636701      4.48985 
Loop time of 0.23243 on 1 procs for 5 steps with 336 atoms

Minimization stats:
  Stopping criterion = force tolerance
  Energy initial, next-to-last, final = 
        -1874.28389894     -1876.05195426     -1876.05200048
  Force two-norm initial, final = 10.4348 9.95981e-11
  Force max component initial, final = 1.47595 2.49982e-11
  Final line search alpha, max atom move = 0 0
  Iterations, force evaluations = 5 436

Pair  time (%) = 0.199619 (85.8834)
Neigh time (%) = 0 (0)
Comm  time (%) = 0.0201718 (8.67867)
Outpt time (%) = 0.00388787 (1.6727)
Other time (%) = 0.00875141 (3.76518)

Nlocal:    336 ave 336 max 336 min
Histogram: 1 0 0 0 0 0 0 0 0 0
Nghost:    1110 ave 1110 max 1110 min
Histogram: 1 0 0 0 0 0 0 0 0 0
Neighs:    8520 ave 8520 max 8520 min
Histogram: 1 0 0 0 0 0 0 0 0 0

Total # of neighbors = 8520
Ave neighs/atom = 25.3571
Neighbor list builds = 0
Dangerous builds = 0
        next i
jump SELF loop1
        read_dump orig.dump 0 x y z
  orthogonal box = (0 -0.602089 0) to (4.48985 16.1824 4.48985)
  336 atoms before read
  336 atoms in snapshot
  0 atoms purged
  336 atoms replaced
  0 atoms trimmed
  0 atoms added
  336 atoms after read
        variable stretch equal 1+$i*${strainstep}
        variable stretch equal 1+19*${strainstep}
        variable stretch equal 1+19*-0.0005
        change_box all ${direction} scale ${stretch} remap
        change_box all y scale ${stretch} remap
        change_box all y scale 0.9905 remap
  orthogonal box = (0 -0.524026 0) to (4.48985 16.1043 4.48985)
        min_style ${style}
        min_style hftn
        minimize ${etol} ${ftol} ${maxiter} ${maxeval}
        minimize 1e-12 ${ftol} ${maxiter} ${maxeval}
        minimize 1e-12 1e-08 ${maxiter} ${maxeval}
        minimize 1e-12 1e-08 10000 ${maxeval}
        minimize 1e-12 1e-08 10000 20000
WARNING: Resetting reneighboring criteria during minimization (../min.cpp:168)
Memory usage per processor = 4.9009 Mbytes
Step PotEng Pxx Pyy Pxy Lx Ly Lz 
       0   -1874.0724      1.88645    1.2862162 -0.030702088      4.48985    16.628307      4.48985 
       1   -1876.0414    1.5015947  0.078508491 -0.003114095      4.48985    16.628307      4.48985 
       2   -1876.0519    1.4774447 0.00055114921 0.00085094644      4.48985    16.628307      4.48985 
       3    -1876.052     1.477089 -0.00026257325 2.969248e-05      4.48985    16.628307      4.48985 
       4    -1876.052    1.4771758 3.5732681e-08 1.7382403e-08      4.48985    16.628307      4.48985 
       5    -1876.052    1.4771758 3.5732681e-08 1.7382403e-08      4.48985    16.628307      4.48985 
       6    -1876.052    1.4771758 3.5732681e-08 1.7382403e-08      4.48985    16.628307      4.48985 
       7    -1876.052    1.4771758 3.5732681e-08 1.7382403e-08      4.48985    16.628307      4.48985 
       8    -1876.052    1.4771758 3.5732681e-08 1.7382403e-08      4.48985    16.628307      4.48985 
       9    -1876.052    1.4771758 3.5732681e-08 1.7382403e-08      4.48985    16.628307      4.48985 
      10    -1876.052    1.4771758 3.5732681e-08 1.7382403e-08      4.48985    16.628307      4.48985 
      11    -1876.052    1.4771758 3.5732681e-08 1.7382403e-08      4.48985    16.628307      4.48985 
      12    -1876.052    1.4771758 3.5732681e-08 1.7382403e-08      4.48985    16.628307      4.48985 
      13    -1876.052    1.4771758 3.5732681e-08 1.7382403e-08      4.48985    16.628307      4.48985 
      14    -1876.052    1.4771758 3.5732681e-08 1.7382403e-08      4.48985    16.628307      4.48985 
      15    -1876.052    1.4771758 3.5732681e-08 1.7382403e-08      4.48985    16.628307      4.48985 
Loop time of 0.248418 on 1 procs for 14 steps with 336 atoms

Minimization stats:
  Stopping criterion = trust region too small
  Energy initial, next-to-last, final = 
         -1874.0723711      -1876.0519959     -1876.05200048
  Force two-norm initial, final = 11.0668 6.59839e-06
  Force max component initial, final = 1.56559 1.45818e-06
  Final line search alpha, max atom move = 0 0
  Iterations, force evaluations = 14 410

Pair  time (%) = 0.216723 (87.2412)
Neigh time (%) = 0 (0)
Comm  time (%) = 0.0223174 (8.98381)
Outpt time (%) = 0.000819149 (0.329747)
Other time (%) = 0.0085585 (3.4452)

Nlocal:    336 ave 336 max 336 min
Histogram: 1 0 0 0 0 0 0 0 0 0
Nghost:    1110 ave 1110 max 1110 min
Histogram: 1 0 0 0 0 0 0 0 0 0
Neighs:    8536 ave 8536 max 8536 min
Histogram: 1 0 0 0 0 0 0 0 0 0

Total # of neighbors = 8536
Ave neighs/atom = 25.4048
Neighbor list builds = 0
Dangerous builds = 0
        next i
jump SELF loop1
        read_dump orig.dump 0 x y z
  orthogonal box = (0 -0.602089 0) to (4.48985 16.1824 4.48985)
  336 atoms before read
  336 atoms in snapshot
  0 atoms purged
  336 atoms replaced
  0 atoms trimmed
  0 atoms added
  336 atoms after read
        variable stretch equal 1+$i*${strainstep}
        variable stretch equal 1+20*${strainstep}
        variable stretch equal 1+20*-0.0005
        change_box all ${direction} scale ${stretch} remap
        change_box all y scale ${stretch} remap
        change_box all y scale 0.99 remap
  orthogonal box = (0 -0.519829 0) to (4.48985 16.1001 4.48985)
        min_style ${style}
        min_style hftn
        minimize ${etol} ${ftol} ${maxiter} ${maxeval}
        minimize 1e-12 ${ftol} ${maxiter} ${maxeval}
        minimize 1e-12 1e-08 ${maxiter} ${maxeval}
        minimize 1e-12 1e-08 10000 ${maxeval}
        minimize 1e-12 1e-08 10000 20000
WARNING: Resetting reneighboring criteria during minimization (../min.cpp:168)
Memory usage per processor = 4.9009 Mbytes
Step PotEng Pxx Pyy Pxy Lx Ly Lz 
       0   -1873.8485    1.9106472    1.3602929 -0.031883021      4.48985    16.619913      4.48985 
       1   -1876.0392    1.5055907  0.088135321 -0.0031648466      4.48985    16.619913      4.48985 
       2   -1876.0519    1.4782426 0.00077868952 0.00083925857      4.48985    16.619913      4.48985 
       3    -1876.052    1.4779246 -1.3592542e-05 1.6495932e-05      4.48985    16.619913      4.48985 
       4    -1876.052    1.4779218 -5.5101998e-09 1.0825795e-08      4.48985    16.619913      4.48985 
       5    -1876.052    1.4779218 -8.6759128e-11 1.5534591e-11      4.48985    16.619913      4.48985 
Loop time of 0.165026 on 1 procs for 4 steps with 336 atoms

Minimization stats:
  Stopping criterion = force tolerance
  Energy initial, next-to-last, final = 
        -1873.84850889     -1876.05200041     -1876.05200048
  Force two-norm initial, final = 11.7032 3.00078e-09
  Force max component initial, final = 1.65596 6.00835e-10
  Final line search alpha, max atom move = 0 0
  Iterations, force evaluations = 4 344

Pair  time (%) = 0.148367 (89.9051)
Neigh time (%) = 0 (0)
Comm  time (%) = 0.00903071 (5.4723)
Outpt time (%) = 0.00026382 (0.159866)
Other time (%) = 0.00736461 (4.4627)

Nlocal:    336 ave 336 max 336 min
Histogram: 1 0 0 0 0 0 0 0 0 0
Nghost:    1110 ave 1110 max 1110 min
Histogram: 1 0 0 0 0 0 0 0 0 0
Neighs:    8536 ave 8536 max 8536 min
Histogram: 1 0 0 0 0 0 0 0 0 0

Total # of neighbors = 8536
Ave neighs/atom = 25.4048
Neighbor list builds = 0
Dangerous builds = 0
        next i
jump SELF loop1
        read_dump orig.dump 0 x y z
  orthogonal box = (0 -0.602089 0) to (4.48985 16.1824 4.48985)
  336 atoms before read
  336 atoms in snapshot
  0 atoms purged
  336 atoms replaced
  0 atoms trimmed
  0 atoms added
  336 atoms after read
        variable stretch equal 1+$i*${strainstep}
        variable stretch equal 1+21*${strainstep}
        variable stretch equal 1+21*-0.0005
        change_box all ${direction} scale ${stretch} remap
        change_box all y scale ${stretch} remap
        change_box all y scale 0.9895 remap
  orthogonal box = (0 -0.515632 0) to (4.48985 16.0959 4.48985)
        min_style ${style}
        min_style hftn
        minimize ${etol} ${ftol} ${maxiter} ${maxeval}
        minimize 1e-12 ${ftol} ${maxiter} ${maxeval}
        minimize 1e-12 1e-08 ${maxiter} ${maxeval}
        minimize 1e-12 1e-08 10000 ${maxeval}
        minimize 1e-12 1e-08 10000 20000
WARNING: Resetting reneighboring criteria during minimization (../min.cpp:168)
Memory usage per processor = 4.9009 Mbytes
Step PotEng Pxx Pyy Pxy Lx Ly Lz 
       0   -1873.6123    1.9349953    1.4348938 -0.033008609      4.48985    16.611519      4.48985 
       1   -1876.0372    1.5091789  0.096681353 -0.0033075845      4.48985    16.611519      4.48985 
       2   -1876.0519    1.4790027 0.00076510042 0.00089200042      4.48985    16.611519      4.48985 
       3    -1876.052    1.4786729 -1.0895174e-05 1.6710325e-05      4.48985    16.611519      4.48985 
       4    -1876.052    1.4786729 -1.0895174e-05 1.6710325e-05      4.48985    16.611519      4.48985 
       5    -1876.052    1.4786729 -1.0895174e-05 1.6710325e-05      4.48985    16.611519      4.48985 
       6    -1876.052    1.4786729 -1.0895174e-05 1.6710325e-05      4.48985    16.611519      4.48985 
       7    -1876.052    1.4786729 -1.0895174e-05 1.6710325e-05      4.48985    16.611519      4.48985 
       8    -1876.052    1.4786729 -1.0895174e-05 1.6710325e-05      4.48985    16.611519      4.48985 
       9    -1876.052    1.4786729 -1.0895174e-05 1.6710325e-05      4.48985    16.611519      4.48985 
      10    -1876.052    1.4786729 -1.0895966e-05 1.6710148e-05      4.48985    16.611519      4.48985 
Loop time of 0.138252 on 1 procs for 9 steps with 336 atoms

Minimization stats:
  Stopping criterion = energy tolerance
  Energy initial, next-to-last, final = 
        -1873.61227138     -1876.05187353     -1876.05200071
  Force two-norm initial, final = 12.3439 0.00261554
  Force max component initial, final = 1.74695 0.000434015
  Final line search alpha, max atom move = 0 0
  Iterations, force evaluations = 9 286

Pair  time (%) = 0.120288 (87.0061)
Neigh time (%) = 0 (0)
Comm  time (%) = 0.0126629 (9.15931)
Outpt time (%) = 0.00049533 (0.35828)
Other time (%) = 0.00480605 (3.4763)

Nlocal:    336 ave 336 max 336 min
Histogram: 1 0 0 0 0 0 0 0 0 0
Nghost:    1110 ave 1110 max 1110 min
Histogram: 1 0 0 0 0 0 0 0 0 0
Neighs:    8568 ave 8568 max 8568 min
Histogram: 1 0 0 0 0 0 0 0 0 0

Total # of neighbors = 8568
Ave neighs/atom = 25.5
Neighbor list builds = 0
Dangerous builds = 0
        next i
jump SELF loop1
        read_dump orig.dump 0 x y z
  orthogonal box = (0 -0.602089 0) to (4.48985 16.1824 4.48985)
  336 atoms before read
  336 atoms in snapshot
  0 atoms purged
  336 atoms replaced
  0 atoms trimmed
  0 atoms added
  336 atoms after read
        variable stretch equal 1+$i*${strainstep}
        variable stretch equal 1+22*${strainstep}
        variable stretch equal 1+22*-0.0005
        change_box all ${direction} scale ${stretch} remap
        change_box all y scale ${stretch} remap
        change_box all y scale 0.989 remap
  orthogonal box = (0 -0.511435 0) to (4.48985 16.0917 4.48985)
        min_style ${style}
        min_style hftn
        minimize ${etol} ${ftol} ${maxiter} ${maxeval}
        minimize 1e-12 ${ftol} ${maxiter} ${maxeval}
        minimize 1e-12 1e-08 ${maxiter} ${maxeval}
        minimize 1e-12 1e-08 10000 ${maxeval}
        minimize 1e-12 1e-08 10000 20000
WARNING: Resetting reneighboring criteria during minimization (../min.cpp:168)
Memory usage per processor = 4.9009 Mbytes
Step PotEng Pxx Pyy Pxy Lx Ly Lz 
       0   -1873.3629    1.9595098    1.5100474  -0.03409353      4.48985    16.603126      4.48985 
       1    -1876.035    1.5122101   0.10412147 -0.0030964358      4.48985    16.603126      4.48985 
       2   -1876.0519    1.4798149 0.0010124914 0.00090639642      4.48985    16.603126      4.48985 
       3    -1876.052    1.4794218 -1.2923134e-05 2.1343304e-05      4.48985    16.603126      4.48985 
       4    -1876.052    1.4794218 -1.2923134e-05 2.1343304e-05      4.48985    16.603126      4.48985 
       5    -1876.052    1.4794218 -1.2923134e-05 2.1343304e-05      4.48985    16.603126      4.48985 
       6    -1876.052    1.4794218 -1.2923134e-05 2.1343304e-05      4.48985    16.603126      4.48985 
       7    -1876.052    1.4794218 -1.2923134e-05 2.1343304e-05      4.48985    16.603126      4.48985 
       8    -1876.052    1.4794218 -1.2923134e-05 2.1343304e-05      4.48985    16.603126      4.48985 
       9    -1876.052    1.4794218 -1.2929724e-05 2.1345746e-05      4.48985    16.603126      4.48985 
Loop time of 0.13245 on 1 procs for 8 steps with 336 atoms

Minimization stats:
  Stopping criterion = energy tolerance
  Energy initial, next-to-last, final = 
         -1873.3629347     -1876.05186109     -1876.05200084
  Force two-norm initial, final = 12.9887 0.00267017
  Force max component initial, final = 1.83856 0.000437235
  Final line search alpha, max atom move = 0 0
  Iterations, force evaluations = 8 277

Pair  time (%) = 0.117327 (88.5825)
Neigh time (%) = 0 (0)
Comm  time (%) = 0.00620035 (4.68128)
Outpt time (%) = 0.000490139 (0.370056)
Other time (%) = 0.00843204 (6.36621)

Nlocal:    336 ave 336 max 336 min
Histogram: 1 0 0 0 0 0 0 0 0 0
Nghost:    1110 ave 1110 max 1110 min
Histogram: 1 0 0 0 0 0 0 0 0 0
Neighs:    8568 ave 8568 max 8568 min
Histogram: 1 0 0 0 0 0 0 0 0 0

Total # of neighbors = 8568
Ave neighs/atom = 25.5
Neighbor list builds = 0
Dangerous builds = 0
        next i
jump SELF loop1
        read_dump orig.dump 0 x y z
  orthogonal box = (0 -0.602089 0) to (4.48985 16.1824 4.48985)
  336 atoms before read
  336 atoms in snapshot
  0 atoms purged
  336 atoms replaced
  0 atoms trimmed
  0 atoms added
  336 atoms after read
        variable stretch equal 1+$i*${strainstep}
        variable stretch equal 1+23*${strainstep}
        variable stretch equal 1+23*-0.0005
        change_box all ${direction} scale ${stretch} remap
        change_box all y scale ${stretch} remap
        change_box all y scale 0.9885 remap
  orthogonal box = (0 -0.507238 0) to (4.48985 16.0875 4.48985)
        min_style ${style}
        min_style hftn
        minimize ${etol} ${ftol} ${maxiter} ${maxeval}
        minimize 1e-12 ${ftol} ${maxiter} ${maxeval}
        minimize 1e-12 1e-08 ${maxiter} ${maxeval}
        minimize 1e-12 1e-08 10000 ${maxeval}
        minimize 1e-12 1e-08 10000 20000
WARNING: Resetting reneighboring criteria during minimization (../min.cpp:168)
Memory usage per processor = 4.9009 Mbytes
Step PotEng Pxx Pyy Pxy Lx Ly Lz 
       0    -1873.101    1.9841782    1.5857361 -0.035120253      4.48985    16.594732      4.48985 
       1   -1876.0319    1.5165506   0.11483246 -0.0028599303      4.48985    16.594732      4.48985 
       2   -1876.0518    1.4803716 0.00079953617 0.00053096017      4.48985    16.594732      4.48985 
       3    -1876.052    1.4800486 -0.00036214657 5.0805013e-05      4.48985    16.594732      4.48985 
       4    -1876.052    1.4801645 3.1617686e-08 2.1661879e-08      4.48985    16.594732      4.48985 
       5    -1876.052    1.4801645 3.1617686e-08 2.1661879e-08      4.48985    16.594732      4.48985 
       6    -1876.052    1.4801645 3.1617686e-08 2.1661879e-08      4.48985    16.594732      4.48985 
       7    -1876.052    1.4801645 3.1617686e-08 2.1661879e-08      4.48985    16.594732      4.48985 
       8    -1876.052    1.4801645 3.1617686e-08 2.1661879e-08      4.48985    16.594732      4.48985 
       9    -1876.052    1.4801645 3.1617686e-08 2.1661879e-08      4.48985    16.594732      4.48985 
      10    -1876.052    1.4801645 3.1617686e-08 2.1661879e-08      4.48985    16.594732      4.48985 
      11    -1876.052    1.4801645 3.1617686e-08 2.1661879e-08      4.48985    16.594732      4.48985 
      12    -1876.052    1.4801645 3.1617686e-08 2.1661879e-08      4.48985    16.594732      4.48985 
      13    -1876.052    1.4801645 3.1617686e-08 2.1661879e-08      4.48985    16.594732      4.48985 
      14    -1876.052    1.4801645 3.1617686e-08 2.1661879e-08      4.48985    16.594732      4.48985 
      15    -1876.052    1.4801645 3.1617686e-08 2.1661879e-08      4.48985    16.594732      4.48985 
Loop time of 0.192711 on 1 procs for 14 steps with 336 atoms

Minimization stats:
  Stopping criterion = trust region too small
  Energy initial, next-to-last, final = 
        -1873.10095519      -1876.0519933     -1876.05200048
  Force two-norm initial, final = 13.6375 6.50124e-06
  Force max component initial, final = 1.93084 1.43347e-06
  Final line search alpha, max atom move = 0 0
  Iterations, force evaluations = 14 406

Pair  time (%) = 0.170162 (88.2992)
Neigh time (%) = 0 (0)
Comm  time (%) = 0.0133513 (6.92814)
Outpt time (%) = 0.000954886 (0.495501)
Other time (%) = 0.00824246 (4.27711)

Nlocal:    336 ave 336 max 336 min
Histogram: 1 0 0 0 0 0 0 0 0 0
Nghost:    1110 ave 1110 max 1110 min
Histogram: 1 0 0 0 0 0 0 0 0 0
Neighs:    8568 ave 8568 max 8568 min
Histogram: 1 0 0 0 0 0 0 0 0 0

Total # of neighbors = 8568
Ave neighs/atom = 25.5
Neighbor list builds = 0
Dangerous builds = 0
        next i
jump SELF loop1
        read_dump orig.dump 0 x y z
  orthogonal box = (0 -0.602089 0) to (4.48985 16.1824 4.48985)
  336 atoms before read
  336 atoms in snapshot
  0 atoms purged
  336 atoms replaced
  0 atoms trimmed
  0 atoms added
  336 atoms after read
        variable stretch equal 1+$i*${strainstep}
        variable stretch equal 1+24*${strainstep}
        variable stretch equal 1+24*-0.0005
        change_box all ${direction} scale ${stretch} remap
        change_box all y scale ${stretch} remap
        change_box all y scale 0.988 remap
  orthogonal box = (0 -0.503041 0) to (4.48985 16.0833 4.48985)
        min_style ${style}
        min_style hftn
        minimize ${etol} ${ftol} ${maxiter} ${maxeval}
        minimize 1e-12 ${ftol} ${maxiter} ${maxeval}
        minimize 1e-12 1e-08 ${maxiter} ${maxeval}
        minimize 1e-12 1e-08 10000 ${maxeval}
        minimize 1e-12 1e-08 10000 20000
WARNING: Resetting reneighboring criteria during minimization (../min.cpp:168)
Memory usage per processor = 4.9009 Mbytes
Step PotEng Pxx Pyy Pxy Lx Ly Lz 
       0   -1872.8265    2.0090051    1.6619403 -0.036107657      4.48985    16.586338      4.48985 
       1   -1876.0281    1.5209681   0.12597213 -0.002839898      4.48985    16.586338      4.48985 
       2   -1876.0518     1.481115 0.0009294154 0.00037959947      4.48985    16.586338      4.48985 
       3    -1876.052    1.4807924 -0.00038113785 6.762274e-05      4.48985    16.586338      4.48985 
       4    -1876.052    1.4809135 -6.4054536e-08 -8.0877285e-09      4.48985    16.586338      4.48985 
       5    -1876.052    1.4809136 -2.4917902e-10 -7.8403078e-11      4.48985    16.586338      4.48985 
Loop time of 0.159474 on 1 procs for 4 steps with 336 atoms

Minimization stats:
  Stopping criterion = energy tolerance
  Energy initial, next-to-last, final = 
        -1872.82651954     -1876.05199369     -1876.05200048
  Force two-norm initial, final = 14.2908 2.58785e-08
  Force max component initial, final = 2.02369 4.33888e-09
  Final line search alpha, max atom move = 0 0
  Iterations, force evaluations = 4 325

Pair  time (%) = 0.139174 (87.2706)
Neigh time (%) = 0 (0)
Comm  time (%) = 0.0137627 (8.63008)
Outpt time (%) = 0.000368878 (0.231309)
Other time (%) = 0.00616851 (3.86803)

Nlocal:    336 ave 336 max 336 min
Histogram: 1 0 0 0 0 0 0 0 0 0
Nghost:    1110 ave 1110 max 1110 min
Histogram: 1 0 0 0 0 0 0 0 0 0
Neighs:    8568 ave 8568 max 8568 min
Histogram: 1 0 0 0 0 0 0 0 0 0

Total # of neighbors = 8568
Ave neighs/atom = 25.5
Neighbor list builds = 0
Dangerous builds = 0
        next i
jump SELF loop1
        read_dump orig.dump 0 x y z
  orthogonal box = (0 -0.602089 0) to (4.48985 16.1824 4.48985)
  336 atoms before read
  336 atoms in snapshot
  0 atoms purged
  336 atoms replaced
  0 atoms trimmed
  0 atoms added
  336 atoms after read
        variable stretch equal 1+$i*${strainstep}
        variable stretch equal 1+25*${strainstep}
        variable stretch equal 1+25*-0.0005
        change_box all ${direction} scale ${stretch} remap
        change_box all y scale ${stretch} remap
        change_box all y scale 0.9875 remap
  orthogonal box = (0 -0.498844 0) to (4.48985 16.0791 4.48985)
        min_style ${style}
        min_style hftn
        minimize ${etol} ${ftol} ${maxiter} ${maxeval}
        minimize 1e-12 ${ftol} ${maxiter} ${maxeval}
        minimize 1e-12 1e-08 ${maxiter} ${maxeval}
        minimize 1e-12 1e-08 10000 ${maxeval}
        minimize 1e-12 1e-08 10000 20000
WARNING: Resetting reneighboring criteria during minimization (../min.cpp:168)
Memory usage per processor = 4.9009 Mbytes
Step PotEng Pxx Pyy Pxy Lx Ly Lz 
       0    -1872.539    2.0339971    1.7386959 -0.037039493      4.48985    16.577944      4.48985 
       1    -1876.025    1.5246078   0.13510946 -0.0025831171      4.48985    16.577944      4.48985 
       2   -1876.0518    1.4819052 0.0010659209 0.00039723035      4.48985    16.577944      4.48985 
       3    -1876.052     1.481522 -0.00044226209 7.9825922e-05      4.48985    16.577944      4.48985 
       4    -1876.052    1.4816634 -4.0593825e-08 -6.3771995e-09      4.48985    16.577944      4.48985 
       5    -1876.052    1.4816634 -5.5984313e-10 1.2319124e-10      4.48985    16.577944      4.48985 
       6    -1876.052    1.4816634 4.5954769e-13 1.0151486e-13      4.48985    16.577944      4.48985 
Loop time of 0.25467 on 1 procs for 5 steps with 336 atoms

Minimization stats:
  Stopping criterion = force tolerance
  Energy initial, next-to-last, final = 
        -1872.53901718     -1876.05200047     -1876.05200048
  Force two-norm initial, final = 14.9486 6.07065e-11
  Force max component initial, final = 2.11741 1.15332e-11
  Final line search alpha, max atom move = 0 0
  Iterations, force evaluations = 5 429

Pair  time (%) = 0.21864 (85.8521)
Neigh time (%) = 0 (0)
Comm  time (%) = 0.0269569 (10.585)
Outpt time (%) = 0.000579895 (0.227704)
Other time (%) = 0.00849362 (3.33515)

Nlocal:    336 ave 336 max 336 min
Histogram: 1 0 0 0 0 0 0 0 0 0
Nghost:    1110 ave 1110 max 1110 min
Histogram: 1 0 0 0 0 0 0 0 0 0
Neighs:    8568 ave 8568 max 8568 min
Histogram: 1 0 0 0 0 0 0 0 0 0

Total # of neighbors = 8568
Ave neighs/atom = 25.5
Neighbor list builds = 0
Dangerous builds = 0
        next i
jump SELF loop1
        read_dump orig.dump 0 x y z
  orthogonal box = (0 -0.602089 0) to (4.48985 16.1824 4.48985)
  336 atoms before read
  336 atoms in snapshot
  0 atoms purged
  336 atoms replaced
  0 atoms trimmed
  0 atoms added
  336 atoms after read
        variable stretch equal 1+$i*${strainstep}
        variable stretch equal 1+26*${strainstep}
        variable stretch equal 1+26*-0.0005
        change_box all ${direction} scale ${stretch} remap
        change_box all y scale ${stretch} remap
        change_box all y scale 0.987 remap
  orthogonal box = (0 -0.494647 0) to (4.48985 16.0749 4.48985)
        min_style ${style}
        min_style hftn
        minimize ${etol} ${ftol} ${maxiter} ${maxeval}
        minimize 1e-12 ${ftol} ${maxiter} ${maxeval}
        minimize 1e-12 1e-08 ${maxiter} ${maxeval}
        minimize 1e-12 1e-08 10000 ${maxeval}
        minimize 1e-12 1e-08 10000 20000
WARNING: Resetting reneighboring criteria during minimization (../min.cpp:168)
Memory usage per processor = 4.9009 Mbytes
Step PotEng Pxx Pyy Pxy Lx Ly Lz 
       0   -1872.2381    2.0591499    1.8160172 -0.037917808      4.48985     16.56955      4.48985 
       1   -1876.0209    1.5291766   0.14639278 -0.002571874      4.48985     16.56955      4.48985 
       2   -1876.0518    1.4825421 0.00092193555 0.00018830397      4.48985     16.56955      4.48985 
       3    -1876.052     1.482326 -0.00026866091 4.426454e-05      4.48985     16.56955      4.48985 
       4    -1876.052     1.482414 6.0818966e-08 1.2722563e-08      4.48985     16.56955      4.48985 
       5    -1876.052     1.482414 3.6706136e-11 7.3605838e-11      4.48985     16.56955      4.48985 
[...]

Nlocal:    336 ave 336 max 336 min
Histogram: 1 0 0 0 0 0 0 0 0 0
Nghost:    1110 ave 1110 max 1110 min
Histogram: 1 0 0 0 0 0 0 0 0 0
Neighs:    8504 ave 8504 max 8504 min
Histogram: 1 0 0 0 0 0 0 0 0 0

Total # of neighbors = 8504
Ave neighs/atom = 25.3095
Neighbor list builds = 2
Dangerous builds = 0
        next i
jump SELF loop1
        read_dump orig.dump 0 x y z
  orthogonal box = (0 -0.602089 0) to (4.48985 16.1824 4.48985)
  336 atoms before read
  336 atoms in snapshot
  0 atoms purged
  336 atoms replaced
  0 atoms trimmed
  0 atoms added
  336 atoms after read
        variable stretch equal 1+$i*${strainstep}
        variable stretch equal 1+95*${strainstep}
        variable stretch equal 1+95*-0.0005
        change_box all ${direction} scale ${stretch} remap
        change_box all y scale ${stretch} remap
        change_box all y scale 0.9525 remap
  orthogonal box = (0 -0.205058 0) to (4.48985 15.7853 4.48985)
        min_style ${style}
        min_style hftn
        minimize ${etol} ${ftol} ${maxiter} ${maxeval}
        minimize 1e-12 ${ftol} ${maxiter} ${maxeval}
        minimize 1e-12 1e-08 ${maxiter} ${maxeval}
        minimize 1e-12 1e-08 10000 ${maxeval}
        minimize 1e-12 1e-08 10000 20000
WARNING: Resetting reneighboring criteria during minimization (../min.cpp:168)
Memory usage per processor = 4.9009 Mbytes
Step PotEng Pxx Pyy Pxy Lx Ly Lz 
       0   -1814.2431    4.2443388    8.6458362  0.060912417      4.48985    15.990371      4.48985 
       1   -1832.0012    3.7145226    6.4142895  0.032047676      4.48985    15.990371      4.48985 
       2   -1850.4187    2.9769832    4.6235088  0.050781824      4.48985    16.329112      4.48985 
       3   -1862.7825    2.4922162    3.0690719  0.026207693      4.48985    16.329112      4.48985 
       4   -1871.3457    1.9896053    1.5570733  0.040436956      4.48985    16.329112      4.48985 
       5   -1875.9842    1.5145393    0.1462227  0.012308163      4.48985    16.765689      4.48985 
       6    -1876.052    1.4659764 0.0024176846 0.0012665086      4.48985    16.765689      4.48985 
       7    -1876.052    1.4650691 -5.0549665e-06 3.957297e-06      4.48985    16.765689      4.48985 
       8    -1876.052    1.4650714 -4.1110467e-09 -1.1251576e-09      4.48985    16.765689      4.48985 
       9    -1876.052    1.4650714 -4.1510205e-11 2.8661608e-11      4.48985    16.765689      4.48985 
Loop time of 0.21742 on 1 procs for 8 steps with 336 atoms

Minimization stats:
  Stopping criterion = force tolerance
  Energy initial, next-to-last, final = 
        -1814.24307879     -1876.05200042     -1876.05200048
  Force two-norm initial, final = 74.2631 1.64758e-09
  Force max component initial, final = 10.6078 3.42542e-10
  Final line search alpha, max atom move = 0 0
  Iterations, force evaluations = 8 426

Pair  time (%) = 0.197442 (90.8113)
Neigh time (%) = 0.000916903 (0.42172)
Comm  time (%) = 0.0100888 (4.64025)
Outpt time (%) = 0.000490133 (0.225431)
Other time (%) = 0.00848226 (3.90132)

Nlocal:    336 ave 336 max 336 min
Histogram: 1 0 0 0 0 0 0 0 0 0
Nghost:    1110 ave 1110 max 1110 min
Histogram: 1 0 0 0 0 0 0 0 0 0
Neighs:    8504 ave 8504 max 8504 min
Histogram: 1 0 0 0 0 0 0 0 0 0

Total # of neighbors = 8504
Ave neighs/atom = 25.3095
Neighbor list builds = 2
Dangerous builds = 0
        next i
jump SELF loop1
        read_dump orig.dump 0 x y z
  orthogonal box = (0 -0.602089 0) to (4.48985 16.1824 4.48985)
  336 atoms before read
  336 atoms in snapshot
  0 atoms purged
  336 atoms replaced
  0 atoms trimmed
  0 atoms added
  336 atoms after read
        variable stretch equal 1+$i*${strainstep}
        variable stretch equal 1+96*${strainstep}
        variable stretch equal 1+96*-0.0005
        change_box all ${direction} scale ${stretch} remap
        change_box all y scale ${stretch} remap
        change_box all y scale 0.952 remap
  orthogonal box = (0 -0.200861 0) to (4.48985 15.7811 4.48985)
        min_style ${style}
        min_style hftn
        minimize ${etol} ${ftol} ${maxiter} ${maxeval}
        minimize 1e-12 ${ftol} ${maxiter} ${maxeval}
        minimize 1e-12 1e-08 ${maxiter} ${maxeval}
        minimize 1e-12 1e-08 10000 ${maxeval}
        minimize 1e-12 1e-08 10000 20000
WARNING: Resetting reneighboring criteria during minimization (../min.cpp:168)
Memory usage per processor = 4.9009 Mbytes
Step PotEng Pxx Pyy Pxy Lx Ly Lz 
       0   -1812.7702    4.2835934    8.7698161   0.06557613      4.48985    15.981977      4.48985 
       1   -1830.9628    3.7462748    6.5064072  0.032674469      4.48985    15.981977      4.48985 
       2   -1849.8484    2.9973927     4.685373   0.05313443      4.48985    16.324253      4.48985 
       3   -1862.5357    2.5026418    3.0991722  0.026259823      4.48985    16.324253      4.48985 
       4   -1871.1979    2.0006994    1.5904994  0.041804325      4.48985    16.324253      4.48985 
       5   -1875.9808    1.5160626   0.15069541  0.013315598      4.48985    16.765336      4.48985 
       6    -1876.052    1.4660795 0.0026887075 0.0012818378      4.48985    16.765336      4.48985 
       7    -1876.052    1.4651002 7.1009072e-08 -2.1076401e-06      4.48985    16.765336      4.48985 
       8    -1876.052    1.4651023 4.9335247e-09 -2.147547e-09      4.48985    16.765336      4.48985 
       9    -1876.052    1.4651023 -2.4096917e-11 8.1739567e-12      4.48985    16.765336      4.48985 
Loop time of 0.207823 on 1 procs for 8 steps with 336 atoms

Minimization stats:
  Stopping criterion = force tolerance
  Energy initial, next-to-last, final = 
        -1812.77021884      -1876.0519999     -1876.05200048
  Force two-norm initial, final = 75.3322 2.67749e-09
  Force max component initial, final = 10.761 5.99054e-10
  Final line search alpha, max atom move = 0 0
  Iterations, force evaluations = 8 408

Pair  time (%) = 0.178479 (85.8802)
Neigh time (%) = 0.000536923 (0.258356)
Comm  time (%) = 0.0200493 (9.64729)
Outpt time (%) = 0.00153399 (0.738122)
Other time (%) = 0.00722408 (3.47607)

Nlocal:    336 ave 336 max 336 min
Histogram: 1 0 0 0 0 0 0 0 0 0
Nghost:    1110 ave 1110 max 1110 min
Histogram: 1 0 0 0 0 0 0 0 0 0
Neighs:    8504 ave 8504 max 8504 min
Histogram: 1 0 0 0 0 0 0 0 0 0

Total # of neighbors = 8504
Ave neighs/atom = 25.3095
Neighbor list builds = 2
Dangerous builds = 0
        next i
jump SELF loop1
        read_dump orig.dump 0 x y z
  orthogonal box = (0 -0.602089 0) to (4.48985 16.1824 4.48985)
  336 atoms before read
  336 atoms in snapshot
  0 atoms purged
  336 atoms replaced
  0 atoms trimmed
  0 atoms added
  336 atoms after read
        variable stretch equal 1+$i*${strainstep}
        variable stretch equal 1+97*${strainstep}
        variable stretch equal 1+97*-0.0005
        change_box all ${direction} scale ${stretch} remap
        change_box all y scale ${stretch} remap
        change_box all y scale 0.9515 remap
  orthogonal box = (0 -0.196664 0) to (4.48985 15.7769 4.48985)
        min_style ${style}
        min_style hftn
        minimize ${etol} ${ftol} ${maxiter} ${maxeval}
        minimize 1e-12 ${ftol} ${maxiter} ${maxeval}
        minimize 1e-12 1e-08 ${maxiter} ${maxeval}
        minimize 1e-12 1e-08 10000 ${maxeval}
        minimize 1e-12 1e-08 10000 20000
WARNING: Resetting reneighboring criteria during minimization (../min.cpp:168)
Memory usage per processor = 4.9009 Mbytes
Step PotEng Pxx Pyy Pxy Lx Ly Lz 
       0   -1811.2751    4.3231212    8.8946551  0.070346653      4.48985    15.973583      4.48985 
       1   -1829.9054    3.7784129    6.5973293   0.03385905      4.48985    15.973583      4.48985 
       2   -1849.2524    3.0166439    4.7490393  0.053925092      4.48985    16.319848      4.48985 
       3    -1862.229    2.5153038    3.1405136  0.027509691      4.48985    16.319848      4.48985 
       4   -1871.1211    2.0001329    1.5869753  0.044287197      4.48985    16.319848      4.48985 
       5   -1875.9776    1.5168785   0.15149228  0.014006033      4.48985    16.765176      4.48985 
       6    -1876.052    1.4661064 0.0027700192 0.0011853497      4.48985    16.765176      4.48985 
       7    -1876.052    1.4651144 5.5729139e-06 -6.7362425e-07      4.48985    16.765176      4.48985 
       8    -1876.052    1.4651163 -4.9803568e-08 3.9185323e-09      4.48985    16.765176      4.48985 
       9    -1876.052    1.4651163 2.5014255e-11 1.0808394e-11      4.48985    16.765176      4.48985 
Loop time of 0.214461 on 1 procs for 8 steps with 336 atoms

Minimization stats:
  Stopping criterion = force tolerance
  Energy initial, next-to-last, final = 
        -1811.27509974     -1876.05200003     -1876.05200048
  Force two-norm initial, final = 76.4093 4.26711e-09
  Force max component initial, final = 10.9155 1.05202e-09
  Final line search alpha, max atom move = 0 0
  Iterations, force evaluations = 8 414

Pair  time (%) = 0.185123 (86.3202)
Neigh time (%) = 0.000896061 (0.41782)
Comm  time (%) = 0.0162323 (7.56886)
Outpt time (%) = 0.00467375 (2.1793)
Other time (%) = 0.00753581 (3.51384)

Nlocal:    336 ave 336 max 336 min
Histogram: 1 0 0 0 0 0 0 0 0 0
Nghost:    1110 ave 1110 max 1110 min
Histogram: 1 0 0 0 0 0 0 0 0 0
Neighs:    8504 ave 8504 max 8504 min
Histogram: 1 0 0 0 0 0 0 0 0 0

Total # of neighbors = 8504
Ave neighs/atom = 25.3095
Neighbor list builds = 2
Dangerous builds = 0
        next i
jump SELF loop1
        read_dump orig.dump 0 x y z
  orthogonal box = (0 -0.602089 0) to (4.48985 16.1824 4.48985)
  336 atoms before read
  336 atoms in snapshot
  0 atoms purged
  336 atoms replaced
  0 atoms trimmed
  0 atoms added
  336 atoms after read
        variable stretch equal 1+$i*${strainstep}
        variable stretch equal 1+98*${strainstep}
        variable stretch equal 1+98*-0.0005
        change_box all ${direction} scale ${stretch} remap
        change_box all y scale ${stretch} remap
        change_box all y scale 0.951 remap
  orthogonal box = (0 -0.192467 0) to (4.48985 15.7727 4.48985)
        min_style ${style}
        min_style hftn
        minimize ${etol} ${ftol} ${maxiter} ${maxeval}
        minimize 1e-12 ${ftol} ${maxiter} ${maxeval}
        minimize 1e-12 1e-08 ${maxiter} ${maxeval}
        minimize 1e-12 1e-08 10000 ${maxeval}
        minimize 1e-12 1e-08 10000 20000
WARNING: Resetting reneighboring criteria during minimization (../min.cpp:168)
Memory usage per processor = 4.9009 Mbytes
Step PotEng Pxx Pyy Pxy Lx Ly Lz 
       0   -1809.7596    4.3628709    9.0202897  0.075258541      4.48985    15.965189      4.48985 
       1   -1828.8381    3.8106641    6.6904029  0.035659265      4.48985    15.965189      4.48985 
       2   -1838.7697    3.4430381    6.0794333     0.057269      4.48985    15.965189      4.48985 
       3   -1853.7312    2.8671009     3.645583 -0.033010556      4.48985    16.390287      4.48985 
       4   -1862.6744     2.591214    3.3129155  -0.02012138      4.48985    16.390287      4.48985 
       5   -1869.0521    2.1788986    2.0259772 -0.011915462      4.48985    16.390287      4.48985 
       6   -1875.2632     1.648024   0.57273054 -0.026944889      4.48985    16.708817      4.48985 
       7   -1876.0498    1.4794959   0.02688953 0.0021380613      4.48985    16.708817      4.48985 
       8    -1876.052    1.4701061 7.0591603e-05 6.379143e-05      4.48985    16.708817      4.48985 
       9    -1876.052    1.4700582 -1.8232412e-07 3.1451388e-07      4.48985    16.708817      4.48985 
      10    -1876.052    1.4700581 9.8994253e-13 9.3834323e-13      4.48985    16.708817      4.48985 
Loop time of 0.223252 on 1 procs for 9 steps with 336 atoms

Minimization stats:
  Stopping criterion = force tolerance
  Energy initial, next-to-last, final = 
        -1809.75959393     -1876.05200026     -1876.05200048
  Force two-norm initial, final = 77.4924 5.65717e-10
  Force max component initial, final = 11.0709 7.64686e-11
  Final line search alpha, max atom move = 0 0
  Iterations, force evaluations = 9 434

Pair  time (%) = 0.195793 (87.7007)
Neigh time (%) = 0.00172406 (0.77225)
Comm  time (%) = 0.0137158 (6.14365)
Outpt time (%) = 0.00277438 (1.24271)
Other time (%) = 0.00924424 (4.14072)

Nlocal:    336 ave 336 max 336 min
Histogram: 1 0 0 0 0 0 0 0 0 0
Nghost:    1110 ave 1110 max 1110 min
Histogram: 1 0 0 0 0 0 0 0 0 0
Neighs:    8504 ave 8504 max 8504 min
Histogram: 1 0 0 0 0 0 0 0 0 0

Total # of neighbors = 8504
Ave neighs/atom = 25.3095
Neighbor list builds = 2
Dangerous builds = 0
        next i
jump SELF loop1
        read_dump orig.dump 0 x y z
  orthogonal box = (0 -0.602089 0) to (4.48985 16.1824 4.48985)
  336 atoms before read
  336 atoms in snapshot
  0 atoms purged
  336 atoms replaced
  0 atoms trimmed
  0 atoms added
  336 atoms after read
        variable stretch equal 1+$i*${strainstep}
        variable stretch equal 1+99*${strainstep}
        variable stretch equal 1+99*-0.0005
        change_box all ${direction} scale ${stretch} remap
        change_box all y scale ${stretch} remap
        change_box all y scale 0.9505 remap
  orthogonal box = (0 -0.18827 0) to (4.48985 15.7685 4.48985)
        min_style ${style}
        min_style hftn
        minimize ${etol} ${ftol} ${maxiter} ${maxeval}
        minimize 1e-12 ${ftol} ${maxiter} ${maxeval}
        minimize 1e-12 1e-08 ${maxiter} ${maxeval}
        minimize 1e-12 1e-08 10000 ${maxeval}
        minimize 1e-12 1e-08 10000 20000
WARNING: Resetting reneighboring criteria during minimization (../min.cpp:168)
Memory usage per processor = 4.9009 Mbytes
Step PotEng Pxx Pyy Pxy Lx Ly Lz 
       0   -1808.2229    4.4028976    9.1467222  0.080262008      4.48985    15.956796      4.48985 
       1   -1827.7712    3.8425705    6.7834707  0.036966292      4.48985    15.956796      4.48985 
       2     -1837.99    3.4669418    6.1526552  0.059495263      4.48985    15.956796      4.48985 
       3    -1853.177    2.8900234     3.706377 -0.034986456      4.48985    16.384623      4.48985 
       4   -1862.3838    2.6040942    3.3509757 -0.020516207      4.48985    16.384623      4.48985 
       5   -1868.8663    2.1923971    2.0576209 -0.012874842      4.48985    16.384623      4.48985 
       6   -1875.2494    1.6487515   0.57552401 -0.027505676      4.48985    16.708448      4.48985 
       7   -1876.0498    1.4797503  0.027721593 0.0019866794      4.48985    16.708448      4.48985 
       8    -1876.052    1.4701389 7.2128025e-05 9.3374229e-05      4.48985    16.708448      4.48985 
       9    -1876.052    1.4701389 7.2128025e-05 9.3374229e-05      4.48985    16.708448      4.48985 
      10    -1876.052    1.4701389 7.2128025e-05 9.3374229e-05      4.48985    16.708448      4.48985 
      11    -1876.052    1.4701389 7.2128025e-05 9.3374229e-05      4.48985    16.708448      4.48985 
      12    -1876.052    1.4701389 7.2128025e-05 9.3374229e-05      4.48985    16.708448      4.48985 
      13    -1876.052    1.4701389 7.2128025e-05 9.3374229e-05      4.48985    16.708448      4.48985 
      14    -1876.052    1.4701389 7.2128025e-05 9.3374229e-05      4.48985    16.708448      4.48985 
      15    -1876.052    1.4701389 7.2128025e-05 9.3374229e-05      4.48985    16.708448      4.48985 
      16    -1876.052    1.4701389 7.2128899e-05 9.3375127e-05      4.48985    16.708448      4.48985 
Loop time of 0.240416 on 1 procs for 15 steps with 336 atoms

Minimization stats:
  Stopping criterion = energy tolerance
  Energy initial, next-to-last, final = 
        -1808.22287447     -1876.04977116     -1876.05200157
  Force two-norm initial, final = 78.5832 0.0113203
  Force max component initial, final = 11.2272 0.00229981
  Final line search alpha, max atom move = 0 0
  Iterations, force evaluations = 15 350

Pair  time (%) = 0.178739 (74.3459)
Neigh time (%) = 0.000818962 (0.340644)
Comm  time (%) = 0.0263804 (10.9728)
Outpt time (%) = 0.014717 (6.12146)
Other time (%) = 0.0197603 (8.21919)

Nlocal:    336 ave 336 max 336 min
Histogram: 1 0 0 0 0 0 0 0 0 0
Nghost:    1110 ave 1110 max 1110 min
Histogram: 1 0 0 0 0 0 0 0 0 0
Neighs:    8504 ave 8504 max 8504 min
Histogram: 1 0 0 0 0 0 0 0 0 0

Total # of neighbors = 8504
Ave neighs/atom = 25.3095
Neighbor list builds = 2
Dangerous builds = 0
        next i
jump SELF loop1
        read_dump orig.dump 0 x y z
  orthogonal box = (0 -0.602089 0) to (4.48985 16.1824 4.48985)
  336 atoms before read
  336 atoms in snapshot
  0 atoms purged
  336 atoms replaced
  0 atoms trimmed
  0 atoms added
  336 atoms after read
        variable stretch equal 1+$i*${strainstep}
        variable stretch equal 1+100*${strainstep}
        variable stretch equal 1+100*-0.0005
        change_box all ${direction} scale ${stretch} remap
        change_box all y scale ${stretch} remap
        change_box all y scale 0.95 remap
  orthogonal box = (0 -0.184073 0) to (4.48985 15.7643 4.48985)
        min_style ${style}
        min_style hftn
        minimize ${etol} ${ftol} ${maxiter} ${maxeval}
        minimize 1e-12 ${ftol} ${maxiter} ${maxeval}
        minimize 1e-12 1e-08 ${maxiter} ${maxeval}
        minimize 1e-12 1e-08 10000 ${maxeval}
        minimize 1e-12 1e-08 10000 20000
WARNING: Resetting reneighboring criteria during minimization (../min.cpp:168)
Memory usage per processor = 4.9009 Mbytes
Step PotEng Pxx Pyy Pxy Lx Ly Lz 
       0    -1806.665    4.4431676    9.2739772  0.085406291      4.48985    15.948402      4.48985 
       1   -1826.6812    3.8741822    6.8752868  0.039069866      4.48985    15.948402      4.48985 
       2   -1837.1133    3.4937371    6.2341074  0.061713025      4.48985    15.948402      4.48985 
       3   -1852.6232    2.9123686    3.7607072 -0.034050097      4.48985    16.379608      4.48985 
       4   -1862.0013    2.6214844    3.4035902 -0.019884303      4.48985    16.379608      4.48985 
       5   -1868.7099    2.2011152    2.0798163 -0.011603606      4.48985    16.379608      4.48985 
       6    -1875.236    1.6479949   0.58052081 -0.032527075      4.48985    16.708964      4.48985 
       7   -1876.0498    1.4797541  0.027798206  0.001812795      4.48985    16.708964      4.48985 
       8    -1876.052    1.4700906 7.6269111e-05 7.6272225e-05      4.48985    16.708964      4.48985 
       9    -1876.052    1.4700906 7.6269111e-05 7.6272225e-05      4.48985    16.708964      4.48985 
      10    -1876.052    1.4700906 7.6269111e-05 7.6272225e-05      4.48985    16.708964      4.48985 
      11    -1876.052    1.4700906 7.6269111e-05 7.6272225e-05      4.48985    16.708964      4.48985 
      12    -1876.052    1.4700906 7.6269111e-05 7.6272225e-05      4.48985    16.708964      4.48985 
      13    -1876.052    1.4700906 7.6269111e-05 7.6272225e-05      4.48985    16.708964      4.48985 
      14    -1876.052    1.4700906 7.6269111e-05 7.6272225e-05      4.48985    16.708964      4.48985 
      15    -1876.052    1.4700906 7.6269111e-05 7.6272225e-05      4.48985    16.708964      4.48985 
      16    -1876.052    1.4700906 7.6269292e-05 7.627267e-05      4.48985    16.708964      4.48985 
Loop time of 0.180022 on 1 procs for 15 steps with 336 atoms

Minimization stats:
  Stopping criterion = energy tolerance
  Energy initial, next-to-last, final = 
        -1806.66499306     -1876.04978563     -1876.05200181
  Force two-norm initial, final = 79.6812 0.00999883
  Force max component initial, final = 11.3846 0.00181223
  Final line search alpha, max atom move = 0 0
  Iterations, force evaluations = 15 352

Pair  time (%) = 0.159738 (88.7324)
Neigh time (%) = 0.000874119 (0.485562)
Comm  time (%) = 0.0112495 (6.24897)
Outpt time (%) = 0.00181698 (1.00931)
Other time (%) = 0.00634352 (3.52375)

Nlocal:    336 ave 336 max 336 min
Histogram: 1 0 0 0 0 0 0 0 0 0
Nghost:    1110 ave 1110 max 1110 min
Histogram: 1 0 0 0 0 0 0 0 0 0
Neighs:    8504 ave 8504 max 8504 min
Histogram: 1 0 0 0 0 0 0 0 0 0

Total # of neighbors = 8504
Ave neighs/atom = 25.3095
Neighbor list builds = 2
Dangerous builds = 0
        next i
jump SELF loop1

