LAMMPS (28 Jun 2014)
# attempt at getting strain-stress curve for infinite slab

#file prefix
variable prefix string compression_V_inter3
variable dumpfile string ${prefix}.*.dump
variable dumpfile string compression_V_inter3.*.dump
variable restartfile string ${prefix}.*.equil
variable restartfile string compression_V_inter3.*.equil

#Mass (g/mol)
variable m equal 1

# lattice constant (in Angstroms) and orientation of axes (given by lattice vectors)
variable rho equal 0.9165
variable x1 equal 1
variable x2 equal 0
variable x3 equal 0
variable y1 equal 0
variable y2 equal 1
variable y3 equal 0
# length of lattice in different directions (using orientation of lattice vectors)
variable ax equal sqrt(${x1}*${x1}+${x2}*${x2}+${x3}*${x3})
variable ax equal sqrt(1*${x1}+${x2}*${x2}+${x3}*${x3})
variable ax equal sqrt(1*1+${x2}*${x2}+${x3}*${x3})
variable ax equal sqrt(1*1+0*${x2}+${x3}*${x3})
variable ax equal sqrt(1*1+0*0+${x3}*${x3})
variable ax equal sqrt(1*1+0*0+0*${x3})
variable ax equal sqrt(1*1+0*0+0*0)
variable ay equal sqrt(${y1}*${y1}+${y2}*${y2}+${y3}*${y3})
variable ay equal sqrt(0*${y1}+${y2}*${y2}+${y3}*${y3})
variable ay equal sqrt(0*0+${y2}*${y2}+${y3}*${y3})
variable ay equal sqrt(0*0+1*${y2}+${y3}*${y3})
variable ay equal sqrt(0*0+1*1+${y3}*${y3})
variable ay equal sqrt(0*0+1*1+0*${y3})
variable ay equal sqrt(0*0+1*1+0*0)
variable az equal 1

# size of box in lattice units
variable lxpos equal 3
variable lxneg equal 0
variable lypos equal 3
variable lyneg equal 0
variable lzpos equal 0.25
variable lzneg equal -0.25

# Define minimization parameters and damping
variable etol equal 1.0e-12
variable ftol equal 1.0e-8
variable maxiter equal 10000
variable maxeval equal 20000
variable style string hftn

# boundary conditions
dimension	2
boundary	p p p
atom_style	atomic

# create geometry
units		lj
lattice         hex ${rho}
lattice         hex 0.9165
Lattice spacing in x,y,z = 1.12245 1.94415 1.12245
region		myregion block ${lxneg} ${lxpos} ${lyneg} ${lypos} ${lzneg} ${lzpos} units lattice
region		myregion block 0 ${lxpos} ${lyneg} ${lypos} ${lzneg} ${lzpos} units lattice
region		myregion block 0 3 ${lyneg} ${lypos} ${lzneg} ${lzpos} units lattice
region		myregion block 0 3 0 ${lypos} ${lzneg} ${lzpos} units lattice
region		myregion block 0 3 0 3 ${lzneg} ${lzpos} units lattice
region		myregion block 0 3 0 3 -0.25 ${lzpos} units lattice
region		myregion block 0 3 0 3 -0.25 0.25 units lattice
create_box	1 myregion
Created orthogonal box = (0 0 -0.280613) to (3.36736 5.83244 0.280613)
  1 by 1 by 1 MPI processor grid
create_atoms	1 box
Created 18 atoms

# define masses
mass * $m
mass * 1

# my fake/morse potential
pair_style      table linear 3001
pair_coeff      * * vpotential_inter3 dummy
neighbor	0.3 bin
neigh_modify	delay 5

# Setup output
thermo 1
thermo_style custom step pe pxx pyy pxy lx ly lz
thermo_modify norm no

# Compute initial state by relaxing box
min_style ${style}
min_style hftn
minimize ${etol} ${ftol} ${maxiter} ${maxeval}
minimize 1e-12 ${ftol} ${maxiter} ${maxeval}
minimize 1e-12 1e-08 ${maxiter} ${maxeval}
minimize 1e-12 1e-08 10000 ${maxeval}
minimize 1e-12 1e-08 10000 20000
WARNING: Resetting reneighboring criteria during minimization (../min.cpp:168)
Memory usage per processor = 4.85099 Mbytes
Step PotEng Pxx Pyy Pxy Lx Ly Lz 
       0   -53.999984 0.0003469208 0.0003469208 6.0896838e-20    3.3673612    5.8324407   0.56122687 
Loop time of 1.28922e-05 on 1 procs for 0 steps with 18 atoms

Minimization stats:
  Stopping criterion = force tolerance
  Energy initial, next-to-last, final = 
         -53.999983866      -53.999983866      -53.999983866
  Force two-norm initial, final = 1.11801e-13 1.11801e-13
  Force max component initial, final = 5.05401e-14 5.05401e-14
  Final line search alpha, max atom move = 0 0
  Iterations, force evaluations = 0 0

Pair  time (%) = 6.07746e-06 (47.1407)
Neigh time (%) = 0 (0)
Comm  time (%) = 1.14809e-06 (8.9053)
Outpt time (%) = 0 (0)
Other time (%) = 5.66663e-06 (43.954)

Nlocal:    18 ave 18 max 18 min
Histogram: 1 0 0 0 0 0 0 0 0 0
Nghost:    65 ave 65 max 65 min
Histogram: 1 0 0 0 0 0 0 0 0 0
Neighs:    162 ave 162 max 162 min
Histogram: 1 0 0 0 0 0 0 0 0 0

Total # of neighbors = 162
Ave neighs/atom = 9
Neighbor list builds = 0
Dangerous builds = 0
reset_timestep 0
write_dump all atom orig.dump

# Energy curve will have nstep steps
variable strainmax equal -0.05
variable strainstep equal -0.0005
variable nsteps equal round(${strainmax}/${strainstep})
variable nsteps equal round(-0.05/${strainstep})
variable nsteps equal round(-0.05/-0.0005)
variable direction string y

variable i loop ${nsteps}
variable i loop 100
label loop1
	read_dump orig.dump 0 x y
  orthogonal box = (0 0 -0.280613) to (3.36736 5.83244 0.280613)
  18 atoms before read
  18 atoms in snapshot
  0 atoms purged
  18 atoms replaced
  0 atoms trimmed
  0 atoms added
  18 atoms after read
        variable stretch equal 1+$i*${strainstep}
        variable stretch equal 1+1*${strainstep}
        variable stretch equal 1+1*-0.0005
        change_box all ${direction} scale ${stretch} remap
        change_box all y scale ${stretch} remap
        change_box all y scale 0.9995 remap
  orthogonal box = (0 0.00145811 -0.280613) to (3.36736 5.83098 0.280613)
        min_style ${style}
        min_style hftn
        minimize ${etol} ${ftol} ${maxiter} ${maxeval}
        minimize 1e-12 ${ftol} ${maxiter} ${maxeval}
        minimize 1e-12 1e-08 ${maxiter} ${maxeval}
        minimize 1e-12 1e-08 10000 ${maxeval}
        minimize 1e-12 1e-08 10000 20000
WARNING: Resetting reneighboring criteria during minimization (../min.cpp:168)
Memory usage per processor = 4.85099 Mbytes
Step PotEng Pxx Pyy Pxy Lx Ly Lz 
       0   -53.999886 0.0056837775  0.016310321 1.6301179e-18      3.36736    5.8295238   0.56122687 
       1   -53.999886 0.0056837778  0.016310321 -5.9639797e-17      3.36736    5.8295238   0.56122687 
Loop time of 0.000102072 on 1 procs for 0 steps with 18 atoms

Minimization stats:
  Stopping criterion = force tolerance
  Energy initial, next-to-last, final = 
        -53.9998864007     -53.9998864007     -53.9998864007
  Force two-norm initial, final = 0.000858906 2.05619e-09
  Force max component initial, final = 0.000214646 6.29222e-10
  Final line search alpha, max atom move = 0 0
  Iterations, force evaluations = 0 7

Pair  time (%) = 3.8093e-05 (37.3196)
Neigh time (%) = 0 (0)
Comm  time (%) = 7.19167e-06 (7.04567)
Outpt time (%) = 0 (0)
Other time (%) = 5.67876e-05 (55.6347)

Nlocal:    18 ave 18 max 18 min
Histogram: 1 0 0 0 0 0 0 0 0 0
Nghost:    65 ave 65 max 65 min
Histogram: 1 0 0 0 0 0 0 0 0 0
Neighs:    162 ave 162 max 162 min
Histogram: 1 0 0 0 0 0 0 0 0 0

Total # of neighbors = 162
Ave neighs/atom = 9
Neighbor list builds = 0
Dangerous builds = 0
        next i
jump SELF loop1
	read_dump orig.dump 0 x y
  orthogonal box = (0 0 -0.280613) to (3.36736 5.83244 0.280613)
  18 atoms before read
  18 atoms in snapshot
  0 atoms purged
  18 atoms replaced
  0 atoms trimmed
  0 atoms added
  18 atoms after read
        variable stretch equal 1+$i*${strainstep}
        variable stretch equal 1+2*${strainstep}
        variable stretch equal 1+2*-0.0005
        change_box all ${direction} scale ${stretch} remap
        change_box all y scale ${stretch} remap
        change_box all y scale 0.999 remap
  orthogonal box = (0 0.00291622 -0.280613) to (3.36736 5.82952 0.280613)
        min_style ${style}
        min_style hftn
        minimize ${etol} ${ftol} ${maxiter} ${maxeval}
        minimize 1e-12 ${ftol} ${maxiter} ${maxeval}
        minimize 1e-12 1e-08 ${maxiter} ${maxeval}
        minimize 1e-12 1e-08 10000 ${maxeval}
        minimize 1e-12 1e-08 10000 20000
WARNING: Resetting reneighboring criteria during minimization (../min.cpp:168)
Memory usage per processor = 4.85099 Mbytes
Step PotEng Pxx Pyy Pxy Lx Ly Lz 
       0   -53.999635  0.011039582  0.032328945 1.2509342e-16      3.36736    5.8266076   0.56122687 
       1   -53.999635  0.011039582  0.032328946 1.2033449e-16      3.36736    5.8266076   0.56122687 
Loop time of 0.00117888 on 1 procs for 0 steps with 18 atoms

Minimization stats:
  Stopping criterion = force tolerance
  Energy initial, next-to-last, final = 
        -53.9996354394     -53.9996354394     -53.9996354394
  Force two-norm initial, final = 0.000863132 2.06841e-09
  Force max component initial, final = 0.000215903 6.33288e-10
  Final line search alpha, max atom move = 0 0
  Iterations, force evaluations = 0 7

Pair  time (%) = 3.82254e-05 (3.24251)
Neigh time (%) = 0 (0)
Comm  time (%) = 7.31088e-06 (0.620154)
Outpt time (%) = 0 (0)
Other time (%) = 0.00113335 (96.1373)

Nlocal:    18 ave 18 max 18 min
Histogram: 1 0 0 0 0 0 0 0 0 0
Nghost:    65 ave 65 max 65 min
Histogram: 1 0 0 0 0 0 0 0 0 0
Neighs:    162 ave 162 max 162 min
Histogram: 1 0 0 0 0 0 0 0 0 0

Total # of neighbors = 162
Ave neighs/atom = 9
Neighbor list builds = 0
Dangerous builds = 0
        next i
jump SELF loop1
	read_dump orig.dump 0 x y
  orthogonal box = (0 0 -0.280613) to (3.36736 5.83244 0.280613)
  18 atoms before read
  18 atoms in snapshot
  0 atoms purged
  18 atoms replaced
  0 atoms trimmed
  0 atoms added
  18 atoms after read
        variable stretch equal 1+$i*${strainstep}
        variable stretch equal 1+3*${strainstep}
        variable stretch equal 1+3*-0.0005
        change_box all ${direction} scale ${stretch} remap
        change_box all y scale ${stretch} remap
        change_box all y scale 0.9985 remap
  orthogonal box = (0 0.00437433 -0.280613) to (3.36736 5.82807 0.280613)
        min_style ${style}
        min_style hftn
        minimize ${etol} ${ftol} ${maxiter} ${maxeval}
        minimize 1e-12 ${ftol} ${maxiter} ${maxeval}
        minimize 1e-12 1e-08 ${maxiter} ${maxeval}
        minimize 1e-12 1e-08 10000 ${maxeval}
        minimize 1e-12 1e-08 10000 20000
WARNING: Resetting reneighboring criteria during minimization (../min.cpp:168)
Memory usage per processor = 4.85099 Mbytes
Step PotEng Pxx Pyy Pxy Lx Ly Lz 
       0   -53.999254  0.016422703  0.048397191 1.2776437e-16      3.36736    5.8236913   0.56122687 
       1   -53.999254  0.016422703  0.048397192 -6.6361127e-17      3.36736    5.8236913   0.56122687 
Loop time of 9.69782e-05 on 1 procs for 0 steps with 18 atoms

Minimization stats:
  Stopping criterion = force tolerance
  Energy initial, next-to-last, final = 
        -53.9992537611     -53.9992537611     -53.9992537611
  Force two-norm initial, final = 0.000867359 2.08103e-09
  Force max component initial, final = 0.000217159 6.37404e-10
  Final line search alpha, max atom move = 0 0
  Iterations, force evaluations = 0 7

Pair  time (%) = 3.5652e-05 (36.7629)
Neigh time (%) = 0 (0)
Comm  time (%) = 7.97829e-06 (8.2269)
Outpt time (%) = 0 (0)
Other time (%) = 5.33479e-05 (55.0102)

Nlocal:    18 ave 18 max 18 min
Histogram: 1 0 0 0 0 0 0 0 0 0
Nghost:    65 ave 65 max 65 min
Histogram: 1 0 0 0 0 0 0 0 0 0
Neighs:    162 ave 162 max 162 min
Histogram: 1 0 0 0 0 0 0 0 0 0

Total # of neighbors = 162
Ave neighs/atom = 9
Neighbor list builds = 0
Dangerous builds = 0
        next i
jump SELF loop1
	read_dump orig.dump 0 x y
  orthogonal box = (0 0 -0.280613) to (3.36736 5.83244 0.280613)
  18 atoms before read
  18 atoms in snapshot
  0 atoms purged
  18 atoms replaced
  0 atoms trimmed
  0 atoms added
  18 atoms after read
        variable stretch equal 1+$i*${strainstep}
        variable stretch equal 1+4*${strainstep}
        variable stretch equal 1+4*-0.0005
        change_box all ${direction} scale ${stretch} remap
        change_box all y scale ${stretch} remap
        change_box all y scale 0.998 remap
  orthogonal box = (0 0.00583244 -0.280613) to (3.36736 5.82661 0.280613)
        min_style ${style}
        min_style hftn
        minimize ${etol} ${ftol} ${maxiter} ${maxeval}
        minimize 1e-12 ${ftol} ${maxiter} ${maxeval}
        minimize 1e-12 1e-08 ${maxiter} ${maxeval}
        minimize 1e-12 1e-08 10000 ${maxeval}
        minimize 1e-12 1e-08 10000 20000
WARNING: Resetting reneighboring criteria during minimization (../min.cpp:168)
Memory usage per processor = 4.85099 Mbytes
Step PotEng Pxx Pyy Pxy Lx Ly Lz 
       0   -53.998711  0.021838761  0.064531645 6.334787e-17      3.36736    5.8207751   0.56122687 
       1   -53.998711  0.021838762  0.064531645 -6.9902385e-17      3.36736    5.8207751   0.56122687 
Loop time of 6.70138e-05 on 1 procs for 0 steps with 18 atoms

Minimization stats:
  Stopping criterion = force tolerance
  Energy initial, next-to-last, final = 
         -53.998711277      -53.998711277      -53.998711277
  Force two-norm initial, final = 0.000865944 2.07835e-09
  Force max component initial, final = 0.000216724 6.36628e-10
  Final line search alpha, max atom move = 0 0
  Iterations, force evaluations = 0 7

Pair  time (%) = 1.43996e-05 (21.4876)
Neigh time (%) = 0 (0)
Comm  time (%) = 9.24687e-07 (1.37985)
Outpt time (%) = 0 (0)
Other time (%) = 5.16895e-05 (77.1326)

Nlocal:    18 ave 18 max 18 min
Histogram: 1 0 0 0 0 0 0 0 0 0
Nghost:    65 ave 65 max 65 min
Histogram: 1 0 0 0 0 0 0 0 0 0
Neighs:    162 ave 162 max 162 min
Histogram: 1 0 0 0 0 0 0 0 0 0

Total # of neighbors = 162
Ave neighs/atom = 9
Neighbor list builds = 0
Dangerous builds = 0
        next i
jump SELF loop1
	read_dump orig.dump 0 x y
  orthogonal box = (0 0 -0.280613) to (3.36736 5.83244 0.280613)
  18 atoms before read
  18 atoms in snapshot
  0 atoms purged
  18 atoms replaced
  0 atoms trimmed
  0 atoms added
  18 atoms after read
        variable stretch equal 1+$i*${strainstep}
        variable stretch equal 1+5*${strainstep}
        variable stretch equal 1+5*-0.0005
        change_box all ${direction} scale ${stretch} remap
        change_box all y scale ${stretch} remap
        change_box all y scale 0.9975 remap
  orthogonal box = (0 0.00729055 -0.280613) to (3.36736 5.82515 0.280613)
        min_style ${style}
        min_style hftn
        minimize ${etol} ${ftol} ${maxiter} ${maxeval}
        minimize 1e-12 ${ftol} ${maxiter} ${maxeval}
        minimize 1e-12 1e-08 ${maxiter} ${maxeval}
        minimize 1e-12 1e-08 10000 ${maxeval}
        minimize 1e-12 1e-08 10000 20000
WARNING: Resetting reneighboring criteria during minimization (../min.cpp:168)
Memory usage per processor = 4.85099 Mbytes
Step PotEng Pxx Pyy Pxy Lx Ly Lz 
       0   -53.997974  0.027294317  0.080751542 5.2994452e-17      3.36736    5.8178589   0.56122687 
       1   -53.997974  0.027294317  0.080751542 -6.999782e-17      3.36736    5.8178589   0.56122687 
Loop time of 6.3973e-05 on 1 procs for 0 steps with 18 atoms

Minimization stats:
  Stopping criterion = force tolerance
  Energy initial, next-to-last, final = 
        -53.9979740886     -53.9979740886     -53.9979740886
  Force two-norm initial, final = 0.000870217 2.09086e-09
  Force max component initial, final = 0.000217993 6.40733e-10
  Final line search alpha, max atom move = 0 0
  Iterations, force evaluations = 0 7

Pair  time (%) = 3.90081e-05 (60.9759)
Neigh time (%) = 0 (0)
Comm  time (%) = 4.16092e-06 (6.50417)
Outpt time (%) = 0 (0)
Other time (%) = 2.0804e-05 (32.52)

Nlocal:    18 ave 18 max 18 min
Histogram: 1 0 0 0 0 0 0 0 0 0
Nghost:    65 ave 65 max 65 min
Histogram: 1 0 0 0 0 0 0 0 0 0
Neighs:    162 ave 162 max 162 min
Histogram: 1 0 0 0 0 0 0 0 0 0

Total # of neighbors = 162
Ave neighs/atom = 9
Neighbor list builds = 0
Dangerous builds = 0
        next i
jump SELF loop1
	read_dump orig.dump 0 x y
  orthogonal box = (0 0 -0.280613) to (3.36736 5.83244 0.280613)
  18 atoms before read
  18 atoms in snapshot
  0 atoms purged
  18 atoms replaced
  0 atoms trimmed
  0 atoms added
  18 atoms after read
        variable stretch equal 1+$i*${strainstep}
        variable stretch equal 1+6*${strainstep}
        variable stretch equal 1+6*-0.0005
        change_box all ${direction} scale ${stretch} remap
        change_box all y scale ${stretch} remap
        change_box all y scale 0.997 remap
  orthogonal box = (0 0.00874866 -0.280613) to (3.36736 5.82369 0.280613)
        min_style ${style}
        min_style hftn
        minimize ${etol} ${ftol} ${maxiter} ${maxeval}
        minimize 1e-12 ${ftol} ${maxiter} ${maxeval}
        minimize 1e-12 1e-08 ${maxiter} ${maxeval}
        minimize 1e-12 1e-08 10000 ${maxeval}
        minimize 1e-12 1e-08 10000 20000
WARNING: Resetting reneighboring criteria during minimization (../min.cpp:168)
Memory usage per processor = 4.85099 Mbytes
Step PotEng Pxx Pyy Pxy Lx Ly Lz 
       0   -53.997105  0.032777531  0.097020325 1.207208e-16      3.36736    5.8149427   0.56122687 
       1   -53.997105  0.032777531  0.097020326 1.642351e-17      3.36736    5.8149427   0.56122687 
Loop time of 6.49042e-05 on 1 procs for 0 steps with 18 atoms

Minimization stats:
  Stopping criterion = force tolerance
  Energy initial, next-to-last, final = 
        -53.9971047514     -53.9971047514     -53.9971047514
  Force two-norm initial, final = 0.000874463 2.10339e-09
  Force max component initial, final = 0.000219252 6.44812e-10
  Final line search alpha, max atom move = 0 0
  Iterations, force evaluations = 0 7

Pair  time (%) = 3.80273e-05 (58.5899)
Neigh time (%) = 0 (0)
Comm  time (%) = 6.10668e-06 (9.40876)
Outpt time (%) = 0 (0)
Other time (%) = 2.07702e-05 (32.0014)

Nlocal:    18 ave 18 max 18 min
Histogram: 1 0 0 0 0 0 0 0 0 0
Nghost:    65 ave 65 max 65 min
Histogram: 1 0 0 0 0 0 0 0 0 0
Neighs:    162 ave 162 max 162 min
Histogram: 1 0 0 0 0 0 0 0 0 0

Total # of neighbors = 162
Ave neighs/atom = 9
Neighbor list builds = 0
Dangerous builds = 0
        next i
jump SELF loop1
	read_dump orig.dump 0 x y
  orthogonal box = (0 0 -0.280613) to (3.36736 5.83244 0.280613)
  18 atoms before read
  18 atoms in snapshot
  0 atoms purged
  18 atoms replaced
  0 atoms trimmed
  0 atoms added
  18 atoms after read
        variable stretch equal 1+$i*${strainstep}
        variable stretch equal 1+7*${strainstep}
        variable stretch equal 1+7*-0.0005
        change_box all ${direction} scale ${stretch} remap
        change_box all y scale ${stretch} remap
        change_box all y scale 0.9965 remap
  orthogonal box = (0 0.0102068 -0.280613) to (3.36736 5.82223 0.280613)
        min_style ${style}
        min_style hftn
        minimize ${etol} ${ftol} ${maxiter} ${maxeval}
        minimize 1e-12 ${ftol} ${maxiter} ${maxeval}
        minimize 1e-12 1e-08 ${maxiter} ${maxeval}
        minimize 1e-12 1e-08 10000 ${maxeval}
        minimize 1e-12 1e-08 10000 20000
WARNING: Resetting reneighboring criteria during minimization (../min.cpp:168)
Memory usage per processor = 4.85099 Mbytes
Step PotEng Pxx Pyy Pxy Lx Ly Lz 
       0   -53.996103  0.038288412   0.11301505 2.5287623e-16      3.36736    5.8120265   0.56122687 
       1   -53.996103  0.038288412   0.11301505 1.3270242e-16      3.36736    5.8120265   0.56122687 
Loop time of 6.41065e-05 on 1 procs for 0 steps with 18 atoms

Minimization stats:
  Stopping criterion = force tolerance
  Energy initial, next-to-last, final = 
        -53.9961033332     -53.9961033332     -53.9961033332
  Force two-norm initial, final = 0.000851498 2.16344e-09
  Force max component initial, final = 0.000211425 6.60759e-10
  Final line search alpha, max atom move = 0 0
  Iterations, force evaluations = 0 7

Pair  time (%) = 3.79776e-05 (59.2414)
Neigh time (%) = 0 (0)
Comm  time (%) = 5.00691e-06 (7.81029)
Outpt time (%) = 0 (0)
Other time (%) = 2.1122e-05 (32.9483)

Nlocal:    18 ave 18 max 18 min
Histogram: 1 0 0 0 0 0 0 0 0 0
Nghost:    65 ave 65 max 65 min
Histogram: 1 0 0 0 0 0 0 0 0 0
Neighs:    162 ave 162 max 162 min
Histogram: 1 0 0 0 0 0 0 0 0 0

Total # of neighbors = 162
Ave neighs/atom = 9
Neighbor list builds = 0
Dangerous builds = 0
        next i
jump SELF loop1
	read_dump orig.dump 0 x y
  orthogonal box = (0 0 -0.280613) to (3.36736 5.83244 0.280613)
  18 atoms before read
  18 atoms in snapshot
  0 atoms purged
  18 atoms replaced
  0 atoms trimmed
  0 atoms added
  18 atoms after read
        variable stretch equal 1+$i*${strainstep}
        variable stretch equal 1+8*${strainstep}
        variable stretch equal 1+8*-0.0005
        change_box all ${direction} scale ${stretch} remap
        change_box all y scale ${stretch} remap
        change_box all y scale 0.996 remap
  orthogonal box = (0 0.0116649 -0.280613) to (3.36736 5.82078 0.280613)
        min_style ${style}
        min_style hftn
        minimize ${etol} ${ftol} ${maxiter} ${maxeval}
        minimize 1e-12 ${ftol} ${maxiter} ${maxeval}
        minimize 1e-12 1e-08 ${maxiter} ${maxeval}
        minimize 1e-12 1e-08 10000 ${maxeval}
        minimize 1e-12 1e-08 10000 20000
WARNING: Resetting reneighboring criteria during minimization (../min.cpp:168)
Memory usage per processor = 4.85099 Mbytes
Step PotEng Pxx Pyy Pxy Lx Ly Lz 
       0   -53.994899  0.043843507   0.12475272 5.9071285e-17      3.36736    5.8091102   0.56122687 
       1   -53.994899  0.043843507   0.12475273 4.869857e-17      3.36736    5.8091102   0.56122687 
Loop time of 6.29519e-05 on 1 procs for 0 steps with 18 atoms

Minimization stats:
  Stopping criterion = force tolerance
  Energy initial, next-to-last, final = 
        -53.9948992992     -53.9948992992     -53.9948992992
  Force two-norm initial, final = 0.000810642 2.23145e-09
  Force max component initial, final = 0.00019763 6.77174e-10
  Final line search alpha, max atom move = 0 0
  Iterations, force evaluations = 0 7

Pair  time (%) = 3.7085e-05 (58.9101)
Neigh time (%) = 0 (0)
Comm  time (%) = 9.17551e-06 (14.5754)
Outpt time (%) = 0 (0)
Other time (%) = 1.66914e-05 (26.5145)

Nlocal:    18 ave 18 max 18 min
Histogram: 1 0 0 0 0 0 0 0 0 0
Nghost:    65 ave 65 max 65 min
Histogram: 1 0 0 0 0 0 0 0 0 0
Neighs:    162 ave 162 max 162 min
Histogram: 1 0 0 0 0 0 0 0 0 0

Total # of neighbors = 162
Ave neighs/atom = 9
Neighbor list builds = 0
Dangerous builds = 0
        next i
jump SELF loop1
	read_dump orig.dump 0 x y
  orthogonal box = (0 0 -0.280613) to (3.36736 5.83244 0.280613)
  18 atoms before read
  18 atoms in snapshot
  0 atoms purged
  18 atoms replaced
  0 atoms trimmed
  0 atoms added
  18 atoms after read
        variable stretch equal 1+$i*${strainstep}
        variable stretch equal 1+9*${strainstep}
        variable stretch equal 1+9*-0.0005
        change_box all ${direction} scale ${stretch} remap
        change_box all y scale ${stretch} remap
        change_box all y scale 0.9955 remap
  orthogonal box = (0 0.013123 -0.280613) to (3.36736 5.81932 0.280613)
        min_style ${style}
        min_style hftn
        minimize ${etol} ${ftol} ${maxiter} ${maxeval}
        minimize 1e-12 ${ftol} ${maxiter} ${maxeval}
        minimize 1e-12 1e-08 ${maxiter} ${maxeval}
        minimize 1e-12 1e-08 10000 ${maxeval}
        minimize 1e-12 1e-08 10000 20000
WARNING: Resetting reneighboring criteria during minimization (../min.cpp:168)
Memory usage per processor = 4.85099 Mbytes
Step PotEng Pxx Pyy Pxy Lx Ly Lz 
       0   -53.993622  0.049428251   0.13381612 1.1700581e-16      3.36736     5.806194   0.56122687 
       1   -53.993622  0.049428251   0.13381612   1.6403e-17      3.36736     5.806194   0.56122687 
Loop time of 6.39622e-05 on 1 procs for 0 steps with 18 atoms

Minimization stats:
  Stopping criterion = force tolerance
  Energy initial, next-to-last, final = 
        -53.9936223805     -53.9936223805     -53.9936223805
  Force two-norm initial, final = 0.000808344 2.25611e-09
  Force max component initial, final = 0.000196671 6.84382e-10
  Final line search alpha, max atom move = 0 0
  Iterations, force evaluations = 0 7

Pair  time (%) = 3.69221e-05 (57.7248)
Neigh time (%) = 0 (0)
Comm  time (%) = 7.32648e-06 (11.4544)
Outpt time (%) = 0 (0)
Other time (%) = 1.97137e-05 (30.8208)

Nlocal:    18 ave 18 max 18 min
Histogram: 1 0 0 0 0 0 0 0 0 0
Nghost:    65 ave 65 max 65 min
Histogram: 1 0 0 0 0 0 0 0 0 0
Neighs:    162 ave 162 max 162 min
Histogram: 1 0 0 0 0 0 0 0 0 0

Total # of neighbors = 162
Ave neighs/atom = 9
Neighbor list builds = 0
Dangerous builds = 0
        next i
jump SELF loop1
	read_dump orig.dump 0 x y
  orthogonal box = (0 0 -0.280613) to (3.36736 5.83244 0.280613)
  18 atoms before read
  18 atoms in snapshot
  0 atoms purged
  18 atoms replaced
  0 atoms trimmed
  0 atoms added
  18 atoms after read
        variable stretch equal 1+$i*${strainstep}
        variable stretch equal 1+10*${strainstep}
        variable stretch equal 1+10*-0.0005
        change_box all ${direction} scale ${stretch} remap
        change_box all y scale ${stretch} remap
        change_box all y scale 0.995 remap
  orthogonal box = (0 0.0145811 -0.280613) to (3.36736 5.81786 0.280613)
        min_style ${style}
        min_style hftn
        minimize ${etol} ${ftol} ${maxiter} ${maxeval}
        minimize 1e-12 ${ftol} ${maxiter} ${maxeval}
        minimize 1e-12 1e-08 ${maxiter} ${maxeval}
        minimize 1e-12 1e-08 10000 ${maxeval}
        minimize 1e-12 1e-08 10000 20000
WARNING: Resetting reneighboring criteria during minimization (../min.cpp:168)
Memory usage per processor = 4.85099 Mbytes
Step PotEng Pxx Pyy Pxy Lx Ly Lz 
       0   -53.992284  0.055041075   0.14292645 -7.1046318e-18      3.36736    5.8032778   0.56122687 
       1   -53.992284  0.055041076   0.14292645 -3.0302291e-16      3.36736    5.8032778   0.56122687 
Loop time of 6.3046e-05 on 1 procs for 0 steps with 18 atoms

Minimization stats:
  Stopping criterion = force tolerance
  Energy initial, next-to-last, final = 
        -53.9922841019     -53.9922841019     -53.9922841019
  Force two-norm initial, final = 0.000812201 2.26946e-09
  Force max component initial, final = 0.000197817 6.88677e-10
  Final line search alpha, max atom move = 0 0
  Iterations, force evaluations = 0 7

Pair  time (%) = 3.593e-05 (56.9901)
Neigh time (%) = 0 (0)
Comm  time (%) = 9.05758e-06 (14.3666)
Outpt time (%) = 0 (0)
Other time (%) = 1.80585e-05 (28.6433)

Nlocal:    18 ave 18 max 18 min
Histogram: 1 0 0 0 0 0 0 0 0 0
Nghost:    65 ave 65 max 65 min
Histogram: 1 0 0 0 0 0 0 0 0 0
Neighs:    162 ave 162 max 162 min
Histogram: 1 0 0 0 0 0 0 0 0 0

Total # of neighbors = 162
Ave neighs/atom = 9
Neighbor list builds = 0
Dangerous builds = 0
        next i
jump SELF loop1
	read_dump orig.dump 0 x y
  orthogonal box = (0 0 -0.280613) to (3.36736 5.83244 0.280613)
  18 atoms before read
  18 atoms in snapshot
  0 atoms purged
  18 atoms replaced
  0 atoms trimmed
  0 atoms added
  18 atoms after read
        variable stretch equal 1+$i*${strainstep}
        variable stretch equal 1+11*${strainstep}
        variable stretch equal 1+11*-0.0005
        change_box all ${direction} scale ${stretch} remap
        change_box all y scale ${stretch} remap
        change_box all y scale 0.9945 remap
  orthogonal box = (0 0.0160392 -0.280613) to (3.36736 5.8164 0.280613)
        min_style ${style}
        min_style hftn
        minimize ${etol} ${ftol} ${maxiter} ${maxeval}
        minimize 1e-12 ${ftol} ${maxiter} ${maxeval}
        minimize 1e-12 1e-08 ${maxiter} ${maxeval}
        minimize 1e-12 1e-08 10000 ${maxeval}
        minimize 1e-12 1e-08 10000 20000
WARNING: Resetting reneighboring criteria during minimization (../min.cpp:168)
Memory usage per processor = 4.85099 Mbytes
Step PotEng Pxx Pyy Pxy Lx Ly Lz 
       0   -53.990835    0.0606914    0.1521119 6.7416241e-17      3.36736    5.8003616   0.56122687 
       1   -53.990835    0.0606914    0.1521119 -1.2988669e-17      3.36736    5.8003616   0.56122687 
Loop time of 6.39309e-05 on 1 procs for 0 steps with 18 atoms

Minimization stats:
  Stopping criterion = force tolerance
  Energy initial, next-to-last, final = 
         -53.990834678      -53.990834678      -53.990834678
  Force two-norm initial, final = 0.000810759 2.29319e-09
  Force max component initial, final = 0.000197365 6.9581e-10
  Final line search alpha, max atom move = 0 0
  Iterations, force evaluations = 0 7

Pair  time (%) = 3.72013e-05 (58.1899)
Neigh time (%) = 0 (0)
Comm  time (%) = 9.40822e-06 (14.7162)
Outpt time (%) = 0 (0)
Other time (%) = 1.73213e-05 (27.0938)

Nlocal:    18 ave 18 max 18 min
Histogram: 1 0 0 0 0 0 0 0 0 0
Nghost:    65 ave 65 max 65 min
Histogram: 1 0 0 0 0 0 0 0 0 0
Neighs:    162 ave 162 max 162 min
Histogram: 1 0 0 0 0 0 0 0 0 0

Total # of neighbors = 162
Ave neighs/atom = 9
Neighbor list builds = 0
Dangerous builds = 0
        next i
jump SELF loop1
	read_dump orig.dump 0 x y
  orthogonal box = (0 0 -0.280613) to (3.36736 5.83244 0.280613)
  18 atoms before read
  18 atoms in snapshot
  0 atoms purged
  18 atoms replaced
  0 atoms trimmed
  0 atoms added
  18 atoms after read
        variable stretch equal 1+$i*${strainstep}
        variable stretch equal 1+12*${strainstep}
        variable stretch equal 1+12*-0.0005
        change_box all ${direction} scale ${stretch} remap
        change_box all y scale ${stretch} remap
        change_box all y scale 0.994 remap
  orthogonal box = (0 0.0174973 -0.280613) to (3.36736 5.81494 0.280613)
        min_style ${style}
        min_style hftn
        minimize ${etol} ${ftol} ${maxiter} ${maxeval}
        minimize 1e-12 ${ftol} ${maxiter} ${maxeval}
        minimize 1e-12 1e-08 ${maxiter} ${maxeval}
        minimize 1e-12 1e-08 10000 ${maxeval}
        minimize 1e-12 1e-08 10000 20000
WARNING: Resetting reneighboring criteria during minimization (../min.cpp:168)
Memory usage per processor = 4.85099 Mbytes
Step PotEng Pxx Pyy Pxy Lx Ly Lz 
       0   -53.989276  0.066378994   0.16137155 -1.8491844e-16      3.36736    5.7974454   0.56122687 
       1   -53.989276  0.066378995   0.16137155 -9.6598362e-17      3.36736    5.7974454   0.56122687 
Loop time of 6.59394e-05 on 1 procs for 0 steps with 18 atoms

Minimization stats:
  Stopping criterion = force tolerance
  Energy initial, next-to-last, final = 
        -53.9892756919     -53.9892756919     -53.9892756918
  Force two-norm initial, final = 0.000815062 2.27954e-09
  Force max component initial, final = 0.000198662 6.92046e-10
  Final line search alpha, max atom move = 0 0
  Iterations, force evaluations = 0 7

Pair  time (%) = 3.58645e-05 (54.3902)
Neigh time (%) = 0 (0)
Comm  time (%) = 8.07247e-06 (12.2423)
Outpt time (%) = 0 (0)
Other time (%) = 2.20024e-05 (33.3676)

Nlocal:    18 ave 18 max 18 min
Histogram: 1 0 0 0 0 0 0 0 0 0
Nghost:    65 ave 65 max 65 min
Histogram: 1 0 0 0 0 0 0 0 0 0
Neighs:    162 ave 162 max 162 min
Histogram: 1 0 0 0 0 0 0 0 0 0

Total # of neighbors = 162
Ave neighs/atom = 9
Neighbor list builds = 0
Dangerous builds = 0
        next i
jump SELF loop1
	read_dump orig.dump 0 x y
  orthogonal box = (0 0 -0.280613) to (3.36736 5.83244 0.280613)
  18 atoms before read
  18 atoms in snapshot
  0 atoms purged
  18 atoms replaced
  0 atoms trimmed
  0 atoms added
  18 atoms after read
        variable stretch equal 1+$i*${strainstep}
        variable stretch equal 1+13*${strainstep}
        variable stretch equal 1+13*-0.0005
        change_box all ${direction} scale ${stretch} remap
        change_box all y scale ${stretch} remap
        change_box all y scale 0.9935 remap
  orthogonal box = (0 0.0189554 -0.280613) to (3.36736 5.81348 0.280613)
        min_style ${style}
        min_style hftn
        minimize ${etol} ${ftol} ${maxiter} ${maxeval}
        minimize 1e-12 ${ftol} ${maxiter} ${maxeval}
        minimize 1e-12 1e-08 ${maxiter} ${maxeval}
        minimize 1e-12 1e-08 10000 ${maxeval}
        minimize 1e-12 1e-08 10000 20000
WARNING: Resetting reneighboring criteria during minimization (../min.cpp:168)
Memory usage per processor = 4.85099 Mbytes
Step PotEng Pxx Pyy Pxy Lx Ly Lz 
       0   -53.987655  0.072095039   0.17067961 -1.9262746e-16      3.36736    5.7945291   0.56122687 
       1   -53.987655   0.07209504   0.17067961 2.1792344e-16      3.36736    5.7945291   0.56122687 
Loop time of 6.39892e-05 on 1 procs for 0 steps with 18 atoms

Minimization stats:
  Stopping criterion = force tolerance
  Energy initial, next-to-last, final = 
        -53.9876546437     -53.9876546437     -53.9876546437
  Force two-norm initial, final = 0.000819429 2.29273e-09
  Force max component initial, final = 0.000199978 6.96382e-10
  Final line search alpha, max atom move = 0 0
  Iterations, force evaluations = 0 7

Pair  time (%) = 3.58529e-05 (56.0296)
Neigh time (%) = 0 (0)
Comm  time (%) = 7.33405e-06 (11.4614)
Outpt time (%) = 0 (0)
Other time (%) = 2.08023e-05 (32.509)

Nlocal:    18 ave 18 max 18 min
Histogram: 1 0 0 0 0 0 0 0 0 0
Nghost:    65 ave 65 max 65 min
Histogram: 1 0 0 0 0 0 0 0 0 0
Neighs:    162 ave 162 max 162 min
Histogram: 1 0 0 0 0 0 0 0 0 0

Total # of neighbors = 162
Ave neighs/atom = 9
Neighbor list builds = 0
Dangerous builds = 0
        next i
jump SELF loop1
	read_dump orig.dump 0 x y
  orthogonal box = (0 0 -0.280613) to (3.36736 5.83244 0.280613)
  18 atoms before read
  18 atoms in snapshot
  0 atoms purged
  18 atoms replaced
  0 atoms trimmed
  0 atoms added
  18 atoms after read
        variable stretch equal 1+$i*${strainstep}
        variable stretch equal 1+14*${strainstep}
        variable stretch equal 1+14*-0.0005
        change_box all ${direction} scale ${stretch} remap
        change_box all y scale ${stretch} remap
        change_box all y scale 0.993 remap
  orthogonal box = (0 0.0204135 -0.280613) to (3.36736 5.81203 0.280613)
        min_style ${style}
        min_style hftn
        minimize ${etol} ${ftol} ${maxiter} ${maxeval}
        minimize 1e-12 ${ftol} ${maxiter} ${maxeval}
        minimize 1e-12 1e-08 ${maxiter} ${maxeval}
        minimize 1e-12 1e-08 10000 ${maxeval}
        minimize 1e-12 1e-08 10000 20000
WARNING: Resetting reneighboring criteria during minimization (../min.cpp:168)
Memory usage per processor = 4.85099 Mbytes
Step PotEng Pxx Pyy Pxy Lx Ly Lz 
       0   -53.985959  0.077842045   0.18004307 -5.5263155e-19      3.36736    5.7916129   0.56122687 
       1   -53.985959  0.077842046   0.18004307 1.8273377e-16      3.36736    5.7916129   0.56122687 
Loop time of 7.7013e-05 on 1 procs for 0 steps with 18 atoms

Minimization stats:
  Stopping criterion = force tolerance
  Energy initial, next-to-last, final = 
        -53.9859591667     -53.9859591667     -53.9859591667
  Force two-norm initial, final = 0.000817985 2.28947e-09
  Force max component initial, final = 0.000199527 6.95366e-10
  Final line search alpha, max atom move = 0 0
  Iterations, force evaluations = 0 7

Pair  time (%) = 4.70642e-05 (61.1119)
Neigh time (%) = 0 (0)
Comm  time (%) = 5.21308e-06 (6.76908)
Outpt time (%) = 0 (0)
Other time (%) = 2.47358e-05 (32.119)

Nlocal:    18 ave 18 max 18 min
Histogram: 1 0 0 0 0 0 0 0 0 0
Nghost:    65 ave 65 max 65 min
Histogram: 1 0 0 0 0 0 0 0 0 0
Neighs:    162 ave 162 max 162 min
Histogram: 1 0 0 0 0 0 0 0 0 0

Total # of neighbors = 162
Ave neighs/atom = 9
Neighbor list builds = 0
Dangerous builds = 0
        next i
jump SELF loop1
	read_dump orig.dump 0 x y
  orthogonal box = (0 0 -0.280613) to (3.36736 5.83244 0.280613)
  18 atoms before read
  18 atoms in snapshot
  0 atoms purged
  18 atoms replaced
  0 atoms trimmed
  0 atoms added
  18 atoms after read
        variable stretch equal 1+$i*${strainstep}
        variable stretch equal 1+15*${strainstep}
        variable stretch equal 1+15*-0.0005
        change_box all ${direction} scale ${stretch} remap
        change_box all y scale ${stretch} remap
        change_box all y scale 0.9925 remap
  orthogonal box = (0 0.0218716 -0.280613) to (3.36736 5.81057 0.280613)
        min_style ${style}
        min_style hftn
        minimize ${etol} ${ftol} ${maxiter} ${maxeval}
        minimize 1e-12 ${ftol} ${maxiter} ${maxeval}
        minimize 1e-12 1e-08 ${maxiter} ${maxeval}
        minimize 1e-12 1e-08 10000 ${maxeval}
        minimize 1e-12 1e-08 10000 20000
WARNING: Resetting reneighboring criteria during minimization (../min.cpp:168)
Memory usage per processor = 4.85099 Mbytes
Step PotEng Pxx Pyy Pxy Lx Ly Lz 
       0   -53.984114  0.083633956   0.18950312 -7.4844032e-18      3.36736    5.7886967   0.56122687 
       1   -53.984114  0.083633956   0.18950313 3.306622e-16      3.36736    5.7886967   0.56122687 
Loop time of 5.80109e-05 on 1 procs for 0 steps with 18 atoms

Minimization stats:
  Stopping criterion = force tolerance
  Energy initial, next-to-last, final = 
        -53.9841141701     -53.9841141701       -53.98411417
  Force two-norm initial, final = 0.000822321 2.30233e-09
  Force max component initial, final = 0.000200831 6.99595e-10
  Final line search alpha, max atom move = 0 0
  Iterations, force evaluations = 0 7

Pair  time (%) = 3.2816e-05 (56.5686)
Neigh time (%) = 0 (0)
Comm  time (%) = 4.92891e-06 (8.49652)
Outpt time (%) = 0 (0)
Other time (%) = 2.0266e-05 (34.9349)

Nlocal:    18 ave 18 max 18 min
Histogram: 1 0 0 0 0 0 0 0 0 0
Nghost:    65 ave 65 max 65 min
Histogram: 1 0 0 0 0 0 0 0 0 0
Neighs:    162 ave 162 max 162 min
Histogram: 1 0 0 0 0 0 0 0 0 0

Total # of neighbors = 162
Ave neighs/atom = 9
Neighbor list builds = 0
Dangerous builds = 0
        next i
jump SELF loop1
	read_dump orig.dump 0 x y
  orthogonal box = (0 0 -0.280613) to (3.36736 5.83244 0.280613)
  18 atoms before read
  18 atoms in snapshot
  0 atoms purged
  18 atoms replaced
  0 atoms trimmed
  0 atoms added
  18 atoms after read
        variable stretch equal 1+$i*${strainstep}
        variable stretch equal 1+16*${strainstep}
        variable stretch equal 1+16*-0.0005
        change_box all ${direction} scale ${stretch} remap
        change_box all y scale ${stretch} remap
        change_box all y scale 0.992 remap
  orthogonal box = (0 0.0233298 -0.280613) to (3.36736 5.80911 0.280613)
        min_style ${style}
        min_style hftn
        minimize ${etol} ${ftol} ${maxiter} ${maxeval}
        minimize 1e-12 ${ftol} ${maxiter} ${maxeval}
        minimize 1e-12 1e-08 ${maxiter} ${maxeval}
        minimize 1e-12 1e-08 10000 ${maxeval}
        minimize 1e-12 1e-08 10000 20000
WARNING: Resetting reneighboring criteria during minimization (../min.cpp:168)
Memory usage per processor = 4.85099 Mbytes
Step PotEng Pxx Pyy Pxy Lx Ly Lz 
       0   -53.982205  0.089454725   0.19901201 4.9329917e-17      3.36736    5.7857805   0.56122687 
       1   -53.982205  0.089454725   0.19901201 -2.5920411e-16      3.36736    5.7857805   0.56122687 
Loop time of 5.79638e-05 on 1 procs for 0 steps with 18 atoms

Minimization stats:
  Stopping criterion = force tolerance
  Energy initial, next-to-last, final = 
        -53.9822053629     -53.9822053629     -53.9822053628
  Force two-norm initial, final = 0.000826688 2.31544e-09
  Force max component initial, final = 0.000202143 7.03849e-10
  Final line search alpha, max atom move = 0 0
  Iterations, force evaluations = 0 7

Pair  time (%) = 3.62529e-05 (62.5441)
Neigh time (%) = 0 (0)
Comm  time (%) = 4.12716e-06 (7.12023)
Outpt time (%) = 0 (0)
Other time (%) = 1.75837e-05 (30.3357)

Nlocal:    18 ave 18 max 18 min
Histogram: 1 0 0 0 0 0 0 0 0 0
Nghost:    65 ave 65 max 65 min
Histogram: 1 0 0 0 0 0 0 0 0 0
Neighs:    162 ave 162 max 162 min
Histogram: 1 0 0 0 0 0 0 0 0 0

Total # of neighbors = 162
Ave neighs/atom = 9
Neighbor list builds = 0
Dangerous builds = 0
        next i
jump SELF loop1
	read_dump orig.dump 0 x y
  orthogonal box = (0 0 -0.280613) to (3.36736 5.83244 0.280613)
  18 atoms before read
  18 atoms in snapshot
  0 atoms purged
  18 atoms replaced
  0 atoms trimmed
  0 atoms added
  18 atoms after read
        variable stretch equal 1+$i*${strainstep}
        variable stretch equal 1+17*${strainstep}
        variable stretch equal 1+17*-0.0005
        change_box all ${direction} scale ${stretch} remap
        change_box all y scale ${stretch} remap
        change_box all y scale 0.9915 remap
  orthogonal box = (0 0.0247879 -0.280613) to (3.36736 5.80765 0.280613)
        min_style ${style}
        min_style hftn
        minimize ${etol} ${ftol} ${maxiter} ${maxeval}
        minimize 1e-12 ${ftol} ${maxiter} ${maxeval}
        minimize 1e-12 1e-08 ${maxiter} ${maxeval}
        minimize 1e-12 1e-08 10000 ${maxeval}
        minimize 1e-12 1e-08 10000 20000
WARNING: Resetting reneighboring criteria during minimization (../min.cpp:168)
Memory usage per processor = 4.85099 Mbytes
Step PotEng Pxx Pyy Pxy Lx Ly Lz 
       0   -53.980233  0.095304331   0.20856948 2.6073983e-16      3.36736    5.7828643   0.56122687 
       1   -53.980233  0.095304331   0.20856948 6.3231225e-17      3.36736    5.7828643   0.56122687 
Loop time of 5.69234e-05 on 1 procs for 0 steps with 18 atoms

Minimization stats:
  Stopping criterion = force tolerance
  Energy initial, next-to-last, final = 
        -53.9802326302     -53.9802326302     -53.9802326302
  Force two-norm initial, final = 0.000831077 2.32882e-09
  Force max component initial, final = 0.000203461 7.08302e-10
  Final line search alpha, max atom move = 0 0
  Iterations, force evaluations = 0 7

Pair  time (%) = 3.40753e-05 (59.8618)
Neigh time (%) = 0 (0)
Comm  time (%) = 7.01728e-06 (12.3276)
Outpt time (%) = 0 (0)
Other time (%) = 1.58307e-05 (27.8106)

Nlocal:    18 ave 18 max 18 min
Histogram: 1 0 0 0 0 0 0 0 0 0
Nghost:    65 ave 65 max 65 min
Histogram: 1 0 0 0 0 0 0 0 0 0
Neighs:    162 ave 162 max 162 min
Histogram: 1 0 0 0 0 0 0 0 0 0

Total # of neighbors = 162
Ave neighs/atom = 9
Neighbor list builds = 0
Dangerous builds = 0
        next i
jump SELF loop1
	read_dump orig.dump 0 x y
  orthogonal box = (0 0 -0.280613) to (3.36736 5.83244 0.280613)
  18 atoms before read
  18 atoms in snapshot
  0 atoms purged
  18 atoms replaced
  0 atoms trimmed
  0 atoms added
  18 atoms after read
        variable stretch equal 1+$i*${strainstep}
        variable stretch equal 1+18*${strainstep}
        variable stretch equal 1+18*-0.0005
        change_box all ${direction} scale ${stretch} remap
        change_box all y scale ${stretch} remap
        change_box all y scale 0.991 remap
  orthogonal box = (0 0.026246 -0.280613) to (3.36736 5.80619 0.280613)
        min_style ${style}
        min_style hftn
        minimize ${etol} ${ftol} ${maxiter} ${maxeval}
        minimize 1e-12 ${ftol} ${maxiter} ${maxeval}
        minimize 1e-12 1e-08 ${maxiter} ${maxeval}
        minimize 1e-12 1e-08 10000 ${maxeval}
        minimize 1e-12 1e-08 10000 20000
WARNING: Resetting reneighboring criteria during minimization (../min.cpp:168)
Memory usage per processor = 4.85099 Mbytes
Step PotEng Pxx Pyy Pxy Lx Ly Lz 
       0   -53.978118   0.10119741   0.21821865 5.5964604e-17      3.36736     5.779948   0.56122687 
       1   -53.978118   0.10119741   0.21821865 3.6542857e-18      3.36736     5.779948   0.56122687 
Loop time of 5.69292e-05 on 1 procs for 0 steps with 18 atoms

Minimization stats:
  Stopping criterion = force tolerance
  Energy initial, next-to-last, final = 
        -53.9781180025     -53.9781180025     -53.9781180024
  Force two-norm initial, final = 0.0008296 2.32549e-09
  Force max component initial, final = 0.000203 7.07211e-10
  Final line search alpha, max atom move = 0 0
  Iterations, force evaluations = 0 7

Pair  time (%) = 3.41225e-05 (59.9385)
Neigh time (%) = 0 (0)
Comm  time (%) = 8.1117e-06 (14.2488)
Outpt time (%) = 0 (0)
Other time (%) = 1.4695e-05 (25.8128)

Nlocal:    18 ave 18 max 18 min
Histogram: 1 0 0 0 0 0 0 0 0 0
Nghost:    65 ave 65 max 65 min
Histogram: 1 0 0 0 0 0 0 0 0 0
Neighs:    162 ave 162 max 162 min
Histogram: 1 0 0 0 0 0 0 0 0 0

Total # of neighbors = 162
Ave neighs/atom = 9
Neighbor list builds = 0
Dangerous builds = 0
        next i
jump SELF loop1
	read_dump orig.dump 0 x y
  orthogonal box = (0 0 -0.280613) to (3.36736 5.83244 0.280613)
  18 atoms before read
  18 atoms in snapshot
  0 atoms purged
  18 atoms replaced
  0 atoms trimmed
  0 atoms added
  18 atoms after read
        variable stretch equal 1+$i*${strainstep}
        variable stretch equal 1+19*${strainstep}
        variable stretch equal 1+19*-0.0005
        change_box all ${direction} scale ${stretch} remap
        change_box all y scale ${stretch} remap
        change_box all y scale 0.9905 remap
  orthogonal box = (0 0.0277041 -0.280613) to (3.36736 5.80474 0.280613)
        min_style ${style}
        min_style hftn
        minimize ${etol} ${ftol} ${maxiter} ${maxeval}
        minimize 1e-12 ${ftol} ${maxiter} ${maxeval}
        minimize 1e-12 1e-08 ${maxiter} ${maxeval}
        minimize 1e-12 1e-08 10000 ${maxeval}
        minimize 1e-12 1e-08 10000 20000
WARNING: Resetting reneighboring criteria during minimization (../min.cpp:168)
Memory usage per processor = 4.85099 Mbytes
Step PotEng Pxx Pyy Pxy Lx Ly Lz 
       0   -53.975916   0.10712418      0.22793 -5.4107405e-17      3.36736    5.7770318   0.56122687 
       1   -53.975916   0.10712418      0.22793 6.5754186e-17      3.36736    5.7770318   0.56122687 
Loop time of 6.10303e-05 on 1 procs for 0 steps with 18 atoms

Minimization stats:
  Stopping criterion = force tolerance
  Energy initial, next-to-last, final = 
        -53.9759155732     -53.9759155732     -53.9759155731
  Force two-norm initial, final = 0.000834061 2.33815e-09
  Force max component initial, final = 0.00020434 7.11519e-10
  Final line search alpha, max atom move = 0 0
  Iterations, force evaluations = 0 7

Pair  time (%) = 3.49963e-05 (57.3425)
Neigh time (%) = 0 (0)
Comm  time (%) = 8.90566e-06 (14.5922)
Outpt time (%) = 0 (0)
Other time (%) = 1.71283e-05 (28.0653)

Nlocal:    18 ave 18 max 18 min
Histogram: 1 0 0 0 0 0 0 0 0 0
Nghost:    65 ave 65 max 65 min
Histogram: 1 0 0 0 0 0 0 0 0 0
Neighs:    162 ave 162 max 162 min
Histogram: 1 0 0 0 0 0 0 0 0 0

Total # of neighbors = 162
Ave neighs/atom = 9
Neighbor list builds = 0
Dangerous builds = 0
        next i
jump SELF loop1
	read_dump orig.dump 0 x y
  orthogonal box = (0 0 -0.280613) to (3.36736 5.83244 0.280613)
  18 atoms before read
  18 atoms in snapshot
  0 atoms purged
  18 atoms replaced
  0 atoms trimmed
  0 atoms added
  18 atoms after read
        variable stretch equal 1+$i*${strainstep}
        variable stretch equal 1+20*${strainstep}
        variable stretch equal 1+20*-0.0005
        change_box all ${direction} scale ${stretch} remap
        change_box all y scale ${stretch} remap
        change_box all y scale 0.99 remap
  orthogonal box = (0 0.0291622 -0.280613) to (3.36736 5.80328 0.280613)
        min_style ${style}
        min_style hftn
        minimize ${etol} ${ftol} ${maxiter} ${maxeval}
        minimize 1e-12 ${ftol} ${maxiter} ${maxeval}
        minimize 1e-12 1e-08 ${maxiter} ${maxeval}
        minimize 1e-12 1e-08 10000 ${maxeval}
        minimize 1e-12 1e-08 10000 20000
WARNING: Resetting reneighboring criteria during minimization (../min.cpp:168)
Memory usage per processor = 4.85099 Mbytes
Step PotEng Pxx Pyy Pxy Lx Ly Lz 
       0   -53.973648   0.11308037    0.2376903 -1.2861604e-16      3.36736    5.7741156   0.56122687 
       1   -53.973648   0.11308038    0.2376903 -3.7871993e-17      3.36736    5.7741156   0.56122687 
Loop time of 5.80868e-05 on 1 procs for 0 steps with 18 atoms

Minimization stats:
  Stopping criterion = force tolerance
  Energy initial, next-to-last, final = 
        -53.9736480794     -53.9736480794     -53.9736480794
  Force two-norm initial, final = 0.000838495 2.35182e-09
  Force max component initial, final = 0.000205669 7.15852e-10
  Final line search alpha, max atom move = 0 0
  Iterations, force evaluations = 0 7

Pair  time (%) = 3.40459e-05 (58.6121)
Neigh time (%) = 0 (0)
Comm  time (%) = 5.00481e-06 (8.61609)
Outpt time (%) = 0 (0)
Other time (%) = 1.90361e-05 (32.7718)

Nlocal:    18 ave 18 max 18 min
Histogram: 1 0 0 0 0 0 0 0 0 0
Nghost:    65 ave 65 max 65 min
Histogram: 1 0 0 0 0 0 0 0 0 0
Neighs:    162 ave 162 max 162 min
Histogram: 1 0 0 0 0 0 0 0 0 0

Total # of neighbors = 162
Ave neighs/atom = 9
Neighbor list builds = 0
Dangerous builds = 0
        next i
jump SELF loop1
	read_dump orig.dump 0 x y
  orthogonal box = (0 0 -0.280613) to (3.36736 5.83244 0.280613)
  18 atoms before read
  18 atoms in snapshot
  0 atoms purged
  18 atoms replaced
  0 atoms trimmed
  0 atoms added
  18 atoms after read
        variable stretch equal 1+$i*${strainstep}
        variable stretch equal 1+21*${strainstep}
        variable stretch equal 1+21*-0.0005
        change_box all ${direction} scale ${stretch} remap
        change_box all y scale ${stretch} remap
        change_box all y scale 0.9895 remap
  orthogonal box = (0 0.0306203 -0.280613) to (3.36736 5.80182 0.280613)
        min_style ${style}
        min_style hftn
        minimize ${etol} ${ftol} ${maxiter} ${maxeval}
        minimize 1e-12 ${ftol} ${maxiter} ${maxeval}
        minimize 1e-12 1e-08 ${maxiter} ${maxeval}
        minimize 1e-12 1e-08 10000 ${maxeval}
        minimize 1e-12 1e-08 10000 20000
WARNING: Resetting reneighboring criteria during minimization (../min.cpp:168)
Memory usage per processor = 4.85099 Mbytes
Step PotEng Pxx Pyy Pxy Lx Ly Lz 
       0   -53.971273   0.11907401   0.24752279 -1.2345248e-16      3.36736    5.7711994   0.56122687 
       1   -53.971273   0.11907401   0.24752279 -3.8500778e-17      3.36736    5.7711994   0.56122687 
Loop time of 5.70792e-05 on 1 procs for 0 steps with 18 atoms

Minimization stats:
  Stopping criterion = force tolerance
  Energy initial, next-to-last, final = 
        -53.9712727951     -53.9712727951     -53.9712727951
  Force two-norm initial, final = 0.000836999 2.34888e-09
  Force max component initial, final = 0.000205203 7.14927e-10
  Final line search alpha, max atom move = 0 0
  Iterations, force evaluations = 0 7

Pair  time (%) = 3.51303e-05 (61.5465)
Neigh time (%) = 0 (0)
Comm  time (%) = 5.743e-06 (10.0615)
Outpt time (%) = 0 (0)
Other time (%) = 1.62059e-05 (28.392)

Nlocal:    18 ave 18 max 18 min
Histogram: 1 0 0 0 0 0 0 0 0 0
Nghost:    65 ave 65 max 65 min
Histogram: 1 0 0 0 0 0 0 0 0 0
Neighs:    162 ave 162 max 162 min
Histogram: 1 0 0 0 0 0 0 0 0 0

Total # of neighbors = 162
Ave neighs/atom = 9
Neighbor list builds = 0
Dangerous builds = 0
        next i
jump SELF loop1
	read_dump orig.dump 0 x y
  orthogonal box = (0 0 -0.280613) to (3.36736 5.83244 0.280613)
  18 atoms before read
  18 atoms in snapshot
  0 atoms purged
  18 atoms replaced
  0 atoms trimmed
  0 atoms added
  18 atoms after read
        variable stretch equal 1+$i*${strainstep}
        variable stretch equal 1+22*${strainstep}
        variable stretch equal 1+22*-0.0005
        change_box all ${direction} scale ${stretch} remap
        change_box all y scale ${stretch} remap
        change_box all y scale 0.989 remap
  orthogonal box = (0 0.0320784 -0.280613) to (3.36736 5.80036 0.280613)
        min_style ${style}
        min_style hftn
        minimize ${etol} ${ftol} ${maxiter} ${maxeval}
        minimize 1e-12 ${ftol} ${maxiter} ${maxeval}
        minimize 1e-12 1e-08 ${maxiter} ${maxeval}
        minimize 1e-12 1e-08 10000 ${maxeval}
        minimize 1e-12 1e-08 10000 20000
WARNING: Resetting reneighboring criteria during minimization (../min.cpp:168)
Memory usage per processor = 4.85099 Mbytes
Step PotEng Pxx Pyy Pxy Lx Ly Lz 
       0   -53.968769   0.12510882   0.25743873 3.9120503e-16      3.36736    5.7682832   0.56122687 
       1   -53.968769   0.12510882   0.25743874 -1.0604252e-16      3.36736    5.7682832   0.56122687 
Loop time of 5.81178e-05 on 1 procs for 0 steps with 18 atoms

Minimization stats:
  Stopping criterion = force tolerance
  Energy initial, next-to-last, final = 
        -53.9687694318     -53.9687694318     -53.9687694317
  Force two-norm initial, final = 0.000841462 2.36188e-09
  Force max component initial, final = 0.00020654 7.19245e-10
  Final line search alpha, max atom move = 0 0
  Iterations, force evaluations = 0 7

Pair  time (%) = 3.30949e-05 (56.9445)
Neigh time (%) = 0 (0)
Comm  time (%) = 7.01007e-06 (12.0618)
Outpt time (%) = 0 (0)
Other time (%) = 1.80128e-05 (30.9937)

Nlocal:    18 ave 18 max 18 min
Histogram: 1 0 0 0 0 0 0 0 0 0
Nghost:    65 ave 65 max 65 min
Histogram: 1 0 0 0 0 0 0 0 0 0
Neighs:    162 ave 162 max 162 min
Histogram: 1 0 0 0 0 0 0 0 0 0

Total # of neighbors = 162
Ave neighs/atom = 9
Neighbor list builds = 0
Dangerous builds = 0
        next i
jump SELF loop1
	read_dump orig.dump 0 x y
  orthogonal box = (0 0 -0.280613) to (3.36736 5.83244 0.280613)
  18 atoms before read
  18 atoms in snapshot
  0 atoms purged
  18 atoms replaced
  0 atoms trimmed
  0 atoms added
  18 atoms after read
        variable stretch equal 1+$i*${strainstep}
        variable stretch equal 1+23*${strainstep}
        variable stretch equal 1+23*-0.0005
        change_box all ${direction} scale ${stretch} remap
        change_box all y scale ${stretch} remap
        change_box all y scale 0.9885 remap
  orthogonal box = (0 0.0335365 -0.280613) to (3.36736 5.7989 0.280613)
        min_style ${style}
        min_style hftn
        minimize ${etol} ${ftol} ${maxiter} ${maxeval}
        minimize 1e-12 ${ftol} ${maxiter} ${maxeval}
        minimize 1e-12 1e-08 ${maxiter} ${maxeval}
        minimize 1e-12 1e-08 10000 ${maxeval}
        minimize 1e-12 1e-08 10000 20000
WARNING: Resetting reneighboring criteria during minimization (../min.cpp:168)
Memory usage per processor = 4.85099 Mbytes
Step PotEng Pxx Pyy Pxy Lx Ly Lz 
       0     -53.9662   0.13117212   0.26740352 1.5981093e-17      3.36736    5.7653669   0.56122687 
       1     -53.9662   0.13117212   0.26740353 -6.7778218e-17      3.36736    5.7653669   0.56122687 
Loop time of 5.70243e-05 on 1 procs for 0 steps with 18 atoms

Minimization stats:
  Stopping criterion = force tolerance
  Energy initial, next-to-last, final = 
         -53.966199549      -53.966199549      -53.966199549
  Force two-norm initial, final = 0.000845907 2.37546e-09
  Force max component initial, final = 0.000207868 7.2371e-10
  Final line search alpha, max atom move = 0 0
  Iterations, force evaluations = 0 7

Pair  time (%) = 3.29228e-05 (57.7347)
Neigh time (%) = 0 (0)
Comm  time (%) = 5.66593e-06 (9.936)
Outpt time (%) = 0 (0)
Other time (%) = 1.84355e-05 (32.3293)

Nlocal:    18 ave 18 max 18 min
Histogram: 1 0 0 0 0 0 0 0 0 0
Nghost:    65 ave 65 max 65 min
Histogram: 1 0 0 0 0 0 0 0 0 0
Neighs:    162 ave 162 max 162 min
Histogram: 1 0 0 0 0 0 0 0 0 0

Total # of neighbors = 162
Ave neighs/atom = 9
Neighbor list builds = 0
Dangerous builds = 0
        next i
jump SELF loop1
	read_dump orig.dump 0 x y
  orthogonal box = (0 0 -0.280613) to (3.36736 5.83244 0.280613)
  18 atoms before read
  18 atoms in snapshot
  0 atoms purged
  18 atoms replaced
  0 atoms trimmed
  0 atoms added
  18 atoms after read
        variable stretch equal 1+$i*${strainstep}
        variable stretch equal 1+24*${strainstep}
        variable stretch equal 1+24*-0.0005
        change_box all ${direction} scale ${stretch} remap
        change_box all y scale ${stretch} remap
        change_box all y scale 0.988 remap
  orthogonal box = (0 0.0349946 -0.280613) to (3.36736 5.79745 0.280613)
        min_style ${style}
        min_style hftn
        minimize ${etol} ${ftol} ${maxiter} ${maxeval}
        minimize 1e-12 ${ftol} ${maxiter} ${maxeval}
        minimize 1e-12 1e-08 ${maxiter} ${maxeval}
        minimize 1e-12 1e-08 10000 ${maxeval}
        minimize 1e-12 1e-08 10000 20000
WARNING: Resetting reneighboring criteria during minimization (../min.cpp:168)
Memory usage per processor = 4.85099 Mbytes
Step PotEng Pxx Pyy Pxy Lx Ly Lz 
       0   -53.963558   0.13726577   0.27742056 1.1846036e-17      3.36736    5.7624507   0.56122687 
       1   -53.963558   0.13726577   0.27742056 -1.1775949e-16      3.36736    5.7624507   0.56122687 
Loop time of 5.69772e-05 on 1 procs for 0 steps with 18 atoms

Minimization stats:
  Stopping criterion = force tolerance
  Energy initial, next-to-last, final = 
        -53.9635576296     -53.9635576296     -53.9635576296
  Force two-norm initial, final = 0.000844449 2.37232e-09
  Force max component initial, final = 0.000207417 7.22795e-10
  Final line search alpha, max atom move = 0 0
  Iterations, force evaluations = 0 7

Pair  time (%) = 3.27836e-05 (57.5382)
Neigh time (%) = 0 (0)
Comm  time (%) = 4.10271e-06 (7.20062)
Outpt time (%) = 0 (0)
Other time (%) = 2.00908e-05 (35.2612)

Nlocal:    18 ave 18 max 18 min
Histogram: 1 0 0 0 0 0 0 0 0 0
Nghost:    65 ave 65 max 65 min
Histogram: 1 0 0 0 0 0 0 0 0 0
Neighs:    162 ave 162 max 162 min
Histogram: 1 0 0 0 0 0 0 0 0 0

Total # of neighbors = 162
Ave neighs/atom = 9
Neighbor list builds = 0
Dangerous builds = 0
        next i
jump SELF loop1
	read_dump orig.dump 0 x y
  orthogonal box = (0 0 -0.280613) to (3.36736 5.83244 0.280613)
  18 atoms before read
  18 atoms in snapshot
  0 atoms purged
  18 atoms replaced
  0 atoms trimmed
  0 atoms added
  18 atoms after read
        variable stretch equal 1+$i*${strainstep}
        variable stretch equal 1+25*${strainstep}
        variable stretch equal 1+25*-0.0005
        change_box all ${direction} scale ${stretch} remap
        change_box all y scale ${stretch} remap
        change_box all y scale 0.9875 remap
  orthogonal box = (0 0.0364527 -0.280613) to (3.36736 5.79599 0.280613)
        min_style ${style}
        min_style hftn
        minimize ${etol} ${ftol} ${maxiter} ${maxeval}
        minimize 1e-12 ${ftol} ${maxiter} ${maxeval}
        minimize 1e-12 1e-08 ${maxiter} ${maxeval}
        minimize 1e-12 1e-08 10000 ${maxeval}
        minimize 1e-12 1e-08 10000 20000
WARNING: Resetting reneighboring criteria during minimization (../min.cpp:168)
Memory usage per processor = 4.85099 Mbytes
Step PotEng Pxx Pyy Pxy Lx Ly Lz 
       0   -53.960749   0.14340877   0.28754212 2.6993949e-17      3.36736    5.7595345   0.56122687 
       1   -53.960749   0.14340877   0.28754212 -1.2623537e-16      3.36736    5.7595345   0.56122687 
Loop time of 5.79695e-05 on 1 procs for 0 steps with 18 atoms

Minimization stats:
  Stopping criterion = force tolerance
  Energy initial, next-to-last, final = 
        -53.9607491898     -53.9607491898     -53.9607491898
  Force two-norm initial, final = 0.000848959 2.38538e-09
  Force max component initial, final = 0.000208765 7.26952e-10
  Final line search alpha, max atom move = 0 0
  Iterations, force evaluations = 0 7

Pair  time (%) = 3.17685e-05 (54.802)
Neigh time (%) = 0 (0)
Comm  time (%) = 6.21821e-06 (10.7267)
Outpt time (%) = 0 (0)
Other time (%) = 1.99828e-05 (34.4713)

Nlocal:    18 ave 18 max 18 min
Histogram: 1 0 0 0 0 0 0 0 0 0
Nghost:    65 ave 65 max 65 min
Histogram: 1 0 0 0 0 0 0 0 0 0
Neighs:    162 ave 162 max 162 min
Histogram: 1 0 0 0 0 0 0 0 0 0

Total # of neighbors = 162
Ave neighs/atom = 9
Neighbor list builds = 0
Dangerous builds = 0
        next i
jump SELF loop1
	read_dump orig.dump 0 x y
  orthogonal box = (0 0 -0.280613) to (3.36736 5.83244 0.280613)
  18 atoms before read
  18 atoms in snapshot
  0 atoms purged
  18 atoms replaced
  0 atoms trimmed
  0 atoms added
  18 atoms after read
        variable stretch equal 1+$i*${strainstep}
        variable stretch equal 1+26*${strainstep}
        variable stretch equal 1+26*-0.0005
        change_box all ${direction} scale ${stretch} remap
        change_box all y scale ${stretch} remap
        change_box all y scale 0.987 remap
  orthogonal box = (0 0.0379109 -0.280613) to (3.36736 5.79453 0.280613)
        min_style ${style}
        min_style hftn
        minimize ${etol} ${ftol} ${maxiter} ${maxeval}
        minimize 1e-12 ${ftol} ${maxiter} ${maxeval}
        minimize 1e-12 1e-08 ${maxiter} ${maxeval}
        minimize 1e-12 1e-08 10000 ${maxeval}
        minimize 1e-12 1e-08 10000 20000
WARNING: Resetting reneighboring criteria during minimization (../min.cpp:168)
Memory usage per processor = 4.85099 Mbytes
Step PotEng Pxx Pyy Pxy Lx Ly Lz 
       0   -53.957873   0.14957317   0.29771045 4.2586446e-17      3.36736    5.7566183   0.56122687 
       1   -53.957873   0.14957317   0.29771045 2.6478825e-17      3.36736    5.7566183   0.56122687 
Loop time of 6.10068e-05 on 1 procs for 0 steps with 18 atoms

Minimization stats:
  Stopping criterion = force tolerance
  Energy initial, next-to-last, final = 
         -53.957872836      -53.957872836     -53.9578728359
  Force two-norm initial, final = 0.00085334 2.39845e-09
  Force max component initial, final = 0.000210067 7.31296e-10
  Final line search alpha, max atom move = 0 0
  Iterations, force evaluations = 0 7

Pair  time (%) = 3.38547e-05 (55.4934)
Neigh time (%) = 0 (0)
Comm  time (%) = 6.29132e-06 (10.3125)
Outpt time (%) = 0 (0)
Other time (%) = 2.08607e-05 (34.1941)

Nlocal:    18 ave 18 max 18 min
Histogram: 1 0 0 0 0 0 0 0 0 0
Nghost:    65 ave 65 max 65 min
Histogram: 1 0 0 0 0 0 0 0 0 0
Neighs:    162 ave 162 max 162 min
Histogram: 1 0 0 0 0 0 0 0 0 0

Total # of neighbors = 162
Ave neighs/atom = 9
Neighbor list builds = 0
Dangerous builds = 0
        next i
jump SELF loop1
	read_dump orig.dump 0 x y
  orthogonal box = (0 0 -0.280613) to (3.36736 5.83244 0.280613)
  18 atoms before read
  18 atoms in snapshot
  0 atoms purged
  18 atoms replaced
  0 atoms trimmed
  0 atoms added
  18 atoms after read
        variable stretch equal 1+$i*${strainstep}
        variable stretch equal 1+27*${strainstep}
        variable stretch equal 1+27*-0.0005
        change_box all ${direction} scale ${stretch} remap
        change_box all y scale ${stretch} remap
        change_box all y scale 0.9865 remap
  orthogonal box = (0 0.039369 -0.280613) to (3.36736 5.79307 0.280613)
        min_style ${style}
        min_style hftn
        minimize ${etol} ${ftol} ${maxiter} ${maxeval}
        minimize 1e-12 ${ftol} ${maxiter} ${maxeval}
        minimize 1e-12 1e-08 ${maxiter} ${maxeval}
        minimize 1e-12 1e-08 10000 ${maxeval}
        minimize 1e-12 1e-08 10000 20000
WARNING: Resetting reneighboring criteria during minimization (../min.cpp:168)
Memory usage per processor = 4.85099 Mbytes
Step PotEng Pxx Pyy Pxy Lx Ly Lz 
       0   -53.954928    0.1556699   0.30789638 2.3768219e-17      3.36736    5.7537021   0.56122687 
       1   -53.954928    0.1556699   0.30789638 -1.0379475e-16      3.36736    5.7537021   0.56122687 
Loop time of 5.79708e-05 on 1 procs for 0 steps with 18 atoms

Minimization stats:
  Stopping criterion = force tolerance
  Energy initial, next-to-last, final = 
         -53.954928301      -53.954928301      -53.954928301
  Force two-norm initial, final = 0.00085416 2.39596e-09
  Force max component initial, final = 0.000210163 7.31536e-10
  Final line search alpha, max atom move = 0 0
  Iterations, force evaluations = 0 7

Pair  time (%) = 3.27326e-05 (56.464)
Neigh time (%) = 0 (0)
Comm  time (%) = 5.23904e-06 (9.03738)
Outpt time (%) = 0 (0)
Other time (%) = 1.99991e-05 (34.4986)

Nlocal:    18 ave 18 max 18 min
Histogram: 1 0 0 0 0 0 0 0 0 0
Nghost:    65 ave 65 max 65 min
Histogram: 1 0 0 0 0 0 0 0 0 0
Neighs:    162 ave 162 max 162 min
Histogram: 1 0 0 0 0 0 0 0 0 0

Total # of neighbors = 162
Ave neighs/atom = 9
Neighbor list builds = 0
Dangerous builds = 0
        next i
jump SELF loop1
	read_dump orig.dump 0 x y
  orthogonal box = (0 0 -0.280613) to (3.36736 5.83244 0.280613)
  18 atoms before read
  18 atoms in snapshot
  0 atoms purged
  18 atoms replaced
  0 atoms trimmed
  0 atoms added
  18 atoms after read
        variable stretch equal 1+$i*${strainstep}
        variable stretch equal 1+28*${strainstep}
        variable stretch equal 1+28*-0.0005
        change_box all ${direction} scale ${stretch} remap
        change_box all y scale ${stretch} remap
        change_box all y scale 0.986 remap
  orthogonal box = (0 0.0408271 -0.280613) to (3.36736 5.79161 0.280613)
        min_style ${style}
        min_style hftn
        minimize ${etol} ${ftol} ${maxiter} ${maxeval}
        minimize 1e-12 ${ftol} ${maxiter} ${maxeval}
        minimize 1e-12 1e-08 ${maxiter} ${maxeval}
        minimize 1e-12 1e-08 10000 ${maxeval}
        minimize 1e-12 1e-08 10000 20000
WARNING: Resetting reneighboring criteria during minimization (../min.cpp:168)
Memory usage per processor = 4.85099 Mbytes
Step PotEng Pxx Pyy Pxy Lx Ly Lz 
       0   -53.951835   0.16161419   0.31811144 -4.0778781e-17      3.36736    5.7507858   0.56122687 
       1   -53.951835   0.16161419   0.31811144 1.9045351e-16      3.36736    5.7507858   0.56122687 
Loop time of 5.70952e-05 on 1 procs for 0 steps with 18 atoms

Minimization stats:
  Stopping criterion = force tolerance
  Energy initial, next-to-last, final = 
        -53.9518353142     -53.9518353142     -53.9518353142
  Force two-norm initial, final = 0.00085262 2.39309e-09
  Force max component initial, final = 0.000209685 7.30573e-10
  Final line search alpha, max atom move = 0 0
  Iterations, force evaluations = 0 7

Pair  time (%) = 3.42124e-05 (59.9216)
Neigh time (%) = 0 (0)
Comm  time (%) = 9.81428e-06 (17.1893)
Outpt time (%) = 0 (0)
Other time (%) = 1.30686e-05 (22.8891)

Nlocal:    18 ave 18 max 18 min
Histogram: 1 0 0 0 0 0 0 0 0 0
Nghost:    65 ave 65 max 65 min
Histogram: 1 0 0 0 0 0 0 0 0 0
Neighs:    162 ave 162 max 162 min
Histogram: 1 0 0 0 0 0 0 0 0 0

Total # of neighbors = 162
Ave neighs/atom = 9
Neighbor list builds = 0
Dangerous builds = 0
        next i
jump SELF loop1
	read_dump orig.dump 0 x y
  orthogonal box = (0 0 -0.280613) to (3.36736 5.83244 0.280613)
  18 atoms before read
  18 atoms in snapshot
  0 atoms purged
  18 atoms replaced
  0 atoms trimmed
  0 atoms added
  18 atoms after read
        variable stretch equal 1+$i*${strainstep}
        variable stretch equal 1+29*${strainstep}
        variable stretch equal 1+29*-0.0005
        change_box all ${direction} scale ${stretch} remap
        change_box all y scale ${stretch} remap
        change_box all y scale 0.9855 remap
  orthogonal box = (0 0.0422852 -0.280613) to (3.36736 5.79015 0.280613)
        min_style ${style}
        min_style hftn
        minimize ${etol} ${ftol} ${maxiter} ${maxeval}
        minimize 1e-12 ${ftol} ${maxiter} ${maxeval}
        minimize 1e-12 1e-08 ${maxiter} ${maxeval}
        minimize 1e-12 1e-08 10000 ${maxeval}
        minimize 1e-12 1e-08 10000 20000
WARNING: Resetting reneighboring criteria during minimization (../min.cpp:168)
Memory usage per processor = 4.85099 Mbytes
Step PotEng Pxx Pyy Pxy Lx Ly Lz 
       0   -53.948646   0.16694938   0.32818336 3.0784359e-16      3.36736    5.7478696   0.56122687 
       1   -53.948646   0.16694938   0.32818336 2.1458113e-16      3.36736    5.7478696   0.56122687 
Loop time of 5.99362e-05 on 1 procs for 0 steps with 18 atoms

Minimization stats:
  Stopping criterion = force tolerance
  Energy initial, next-to-last, final = 
        -53.9486464082     -53.9486464082     -53.9486464082
  Force two-norm initial, final = 0.000848121 2.36786e-09
  Force max component initial, final = 0.000207973 7.24911e-10
  Final line search alpha, max atom move = 0 0
  Iterations, force evaluations = 0 7

Pair  time (%) = 3.70655e-05 (61.8416)
Neigh time (%) = 0 (0)
Comm  time (%) = 5.75231e-06 (9.5974)
Outpt time (%) = 0 (0)
Other time (%) = 1.71184e-05 (28.5611)

Nlocal:    18 ave 18 max 18 min
Histogram: 1 0 0 0 0 0 0 0 0 0
Nghost:    65 ave 65 max 65 min
Histogram: 1 0 0 0 0 0 0 0 0 0
Neighs:    162 ave 162 max 162 min
Histogram: 1 0 0 0 0 0 0 0 0 0

Total # of neighbors = 162
Ave neighs/atom = 9
Neighbor list builds = 0
Dangerous builds = 0
        next i
jump SELF loop1
	read_dump orig.dump 0 x y
  orthogonal box = (0 0 -0.280613) to (3.36736 5.83244 0.280613)
  18 atoms before read
  18 atoms in snapshot
  0 atoms purged
  18 atoms replaced
  0 atoms trimmed
  0 atoms added
  18 atoms after read
        variable stretch equal 1+$i*${strainstep}
        variable stretch equal 1+30*${strainstep}
        variable stretch equal 1+30*-0.0005
        change_box all ${direction} scale ${stretch} remap
        change_box all y scale ${stretch} remap
        change_box all y scale 0.985 remap
  orthogonal box = (0 0.0437433 -0.280613) to (3.36736 5.7887 0.280613)
        min_style ${style}
        min_style hftn
        minimize ${etol} ${ftol} ${maxiter} ${maxeval}
        minimize 1e-12 ${ftol} ${maxiter} ${maxeval}
        minimize 1e-12 1e-08 ${maxiter} ${maxeval}
        minimize 1e-12 1e-08 10000 ${maxeval}
        minimize 1e-12 1e-08 10000 20000
WARNING: Resetting reneighboring criteria during minimization (../min.cpp:168)
Memory usage per processor = 4.85099 Mbytes
Step PotEng Pxx Pyy Pxy Lx Ly Lz 
       0   -53.945391   0.17186167   0.33815885 -1.1527802e-16      3.36736    5.7449534   0.56122687 
       1   -53.945391   0.17186167   0.33815885 -2.1273741e-16      3.36736    5.7449534   0.56122687 
Loop time of 5.88822e-05 on 1 procs for 0 steps with 18 atoms

Minimization stats:
  Stopping criterion = force tolerance
  Energy initial, next-to-last, final = 
        -53.9453912707     -53.9453912707     -53.9453912707
  Force two-norm initial, final = 0.000842458 2.33961e-09
  Force max component initial, final = 0.000205857 7.17833e-10
  Final line search alpha, max atom move = 0 0
  Iterations, force evaluations = 0 7

Pair  time (%) = 3.28256e-05 (55.748)
Neigh time (%) = 0 (0)
Comm  time (%) = 9.90194e-06 (16.8165)
Outpt time (%) = 0 (0)
Other time (%) = 1.61546e-05 (27.4355)

Nlocal:    18 ave 18 max 18 min
Histogram: 1 0 0 0 0 0 0 0 0 0
Nghost:    65 ave 65 max 65 min
Histogram: 1 0 0 0 0 0 0 0 0 0
Neighs:    162 ave 162 max 162 min
Histogram: 1 0 0 0 0 0 0 0 0 0

Total # of neighbors = 162
Ave neighs/atom = 9
Neighbor list builds = 0
Dangerous builds = 0
        next i
jump SELF loop1
	read_dump orig.dump 0 x y
  orthogonal box = (0 0 -0.280613) to (3.36736 5.83244 0.280613)
  18 atoms before read
  18 atoms in snapshot
  0 atoms purged
  18 atoms replaced
  0 atoms trimmed
  0 atoms added
  18 atoms after read
        variable stretch equal 1+$i*${strainstep}
        variable stretch equal 1+31*${strainstep}
        variable stretch equal 1+31*-0.0005
        change_box all ${direction} scale ${stretch} remap
        change_box all y scale ${stretch} remap
        change_box all y scale 0.9845 remap
  orthogonal box = (0 0.0452014 -0.280613) to (3.36736 5.78724 0.280613)
        min_style ${style}
        min_style hftn
        minimize ${etol} ${ftol} ${maxiter} ${maxeval}
        minimize 1e-12 ${ftol} ${maxiter} ${maxeval}
        minimize 1e-12 1e-08 ${maxiter} ${maxeval}
        minimize 1e-12 1e-08 10000 ${maxeval}
        minimize 1e-12 1e-08 10000 20000
WARNING: Resetting reneighboring criteria during minimization (../min.cpp:168)
Memory usage per processor = 4.85099 Mbytes
Step PotEng Pxx Pyy Pxy Lx Ly Lz 
       0   -53.942024   0.17635405   0.34806186 4.9671038e-18      3.36736    5.7420372   0.56122687 
       1   -53.942024   0.17635405   0.34806187  2.61621e-17      3.36736    5.7420372   0.56122687 
Loop time of 6.00994e-05 on 1 procs for 0 steps with 18 atoms

Minimization stats:
  Stopping criterion = force tolerance
  Energy initial, next-to-last, final = 
        -53.9420237858     -53.9420237858     -53.9420237857
  Force two-norm initial, final = 0.000832257 2.30136e-09
  Force max component initial, final = 0.000202415 7.06851e-10
  Final line search alpha, max atom move = 0 0
  Iterations, force evaluations = 0 7

Pair  time (%) = 3.49334e-05 (58.1261)
Neigh time (%) = 0 (0)
Comm  time (%) = 3.77977e-06 (6.2892)
Outpt time (%) = 0 (0)
Other time (%) = 2.13862e-05 (35.5847)

Nlocal:    18 ave 18 max 18 min
Histogram: 1 0 0 0 0 0 0 0 0 0
Nghost:    65 ave 65 max 65 min
Histogram: 1 0 0 0 0 0 0 0 0 0
Neighs:    162 ave 162 max 162 min
Histogram: 1 0 0 0 0 0 0 0 0 0

Total # of neighbors = 162
Ave neighs/atom = 9
Neighbor list builds = 0
Dangerous builds = 0
        next i
jump SELF loop1
	read_dump orig.dump 0 x y
  orthogonal box = (0 0 -0.280613) to (3.36736 5.83244 0.280613)
  18 atoms before read
  18 atoms in snapshot
  0 atoms purged
  18 atoms replaced
  0 atoms trimmed
  0 atoms added
  18 atoms after read
        variable stretch equal 1+$i*${strainstep}
        variable stretch equal 1+32*${strainstep}
        variable stretch equal 1+32*-0.0005
        change_box all ${direction} scale ${stretch} remap
        change_box all y scale ${stretch} remap
        change_box all y scale 0.984 remap
  orthogonal box = (0 0.0466595 -0.280613) to (3.36736 5.78578 0.280613)
        min_style ${style}
        min_style hftn
        minimize ${etol} ${ftol} ${maxiter} ${maxeval}
        minimize 1e-12 ${ftol} ${maxiter} ${maxeval}
        minimize 1e-12 1e-08 ${maxiter} ${maxeval}
        minimize 1e-12 1e-08 10000 ${maxeval}
        minimize 1e-12 1e-08 10000 20000
WARNING: Resetting reneighboring criteria during minimization (../min.cpp:168)
Memory usage per processor = 4.85099 Mbytes
Step PotEng Pxx Pyy Pxy Lx Ly Lz 
       0   -53.938534   0.18021538   0.35783397 3.1088918e-16      3.36736     5.739121   0.56122687 
       1   -53.938534   0.18021538   0.35783397 -2.4078498e-16      3.36736     5.739121   0.56122687 
Loop time of 5.89527e-05 on 1 procs for 0 steps with 18 atoms

Minimization stats:
  Stopping criterion = force tolerance
  Energy initial, next-to-last, final = 
        -53.9385339113     -53.9385339113     -53.9385339113
  Force two-norm initial, final = 0.000836911 2.31545e-09
  Force max component initial, final = 0.000203815 7.11519e-10
  Final line search alpha, max atom move = 0 0
  Iterations, force evaluations = 0 7

Pair  time (%) = 3.48201e-05 (59.0644)
Neigh time (%) = 0 (0)
Comm  time (%) = 7.07642e-06 (12.0036)
Outpt time (%) = 0 (0)
Other time (%) = 1.70562e-05 (28.9321)

Nlocal:    18 ave 18 max 18 min
Histogram: 1 0 0 0 0 0 0 0 0 0
Nghost:    65 ave 65 max 65 min
Histogram: 1 0 0 0 0 0 0 0 0 0
Neighs:    162 ave 162 max 162 min
Histogram: 1 0 0 0 0 0 0 0 0 0

Total # of neighbors = 162
Ave neighs/atom = 9
Neighbor list builds = 0
Dangerous builds = 0
        next i
jump SELF loop1
	read_dump orig.dump 0 x y
  orthogonal box = (0 0 -0.280613) to (3.36736 5.83244 0.280613)
  18 atoms before read
  18 atoms in snapshot
  0 atoms purged
  18 atoms replaced
  0 atoms trimmed
  0 atoms added
  18 atoms after read
        variable stretch equal 1+$i*${strainstep}
        variable stretch equal 1+33*${strainstep}
        variable stretch equal 1+33*-0.0005
        change_box all ${direction} scale ${stretch} remap
        change_box all y scale ${stretch} remap
        change_box all y scale 0.9835 remap
  orthogonal box = (0 0.0481176 -0.280613) to (3.36736 5.78432 0.280613)
        min_style ${style}
        min_style hftn
        minimize ${etol} ${ftol} ${maxiter} ${maxeval}
        minimize 1e-12 ${ftol} ${maxiter} ${maxeval}
        minimize 1e-12 1e-08 ${maxiter} ${maxeval}
        minimize 1e-12 1e-08 10000 ${maxeval}
        minimize 1e-12 1e-08 10000 20000
WARNING: Resetting reneighboring criteria during minimization (../min.cpp:168)
Memory usage per processor = 4.85099 Mbytes
Step PotEng Pxx Pyy Pxy Lx Ly Lz 
       0   -53.934981   0.18392109   0.36759752 4.2712379e-17      3.36736    5.7362047   0.56122687 
       1   -53.934981   0.18392109   0.36759752 4.2712379e-17      3.36736    5.7362047   0.56122687 
       2   -53.934981   0.18392109   0.36759752 4.2712379e-17      3.36736    5.7362047   0.56122687 
       3   -53.934981   0.18392109   0.36759752 4.2712379e-17      3.36736    5.7362047   0.56122687 
       4   -53.934981   0.18392109   0.36759752 4.2712379e-17      3.36736    5.7362047   0.56122687 
       5   -53.934981   0.18392109   0.36759752 4.2712379e-17      3.36736    5.7362047   0.56122687 
       6   -53.934981   0.18392109   0.36759752 -8.8724596e-17      3.36736    5.7362047   0.56122687 
Loop time of 0.000334107 on 1 procs for 5 steps with 18 atoms

Minimization stats:
  Stopping criterion = energy tolerance
  Energy initial, next-to-last, final = 
        -53.9349810959     -53.9349810959     -53.9349810959
  Force two-norm initial, final = 0.000837739 0.000837471
  Force max component initial, final = 0.000203904 0.00020384
  Final line search alpha, max atom move = 0 0
  Iterations, force evaluations = 5 42

Pair  time (%) = 0.000187004 (55.9712)
Neigh time (%) = 0 (0)
Comm  time (%) = 4.0036e-05 (11.983)
Outpt time (%) = 5.11244e-05 (15.3018)
Other time (%) = 5.59429e-05 (16.744)

Nlocal:    18 ave 18 max 18 min
Histogram: 1 0 0 0 0 0 0 0 0 0
Nghost:    65 ave 65 max 65 min
Histogram: 1 0 0 0 0 0 0 0 0 0
Neighs:    162 ave 162 max 162 min
Histogram: 1 0 0 0 0 0 0 0 0 0

Total # of neighbors = 162
Ave neighs/atom = 9
Neighbor list builds = 0
Dangerous builds = 0
        next i
jump SELF loop1
	read_dump orig.dump 0 x y
  orthogonal box = (0 0 -0.280613) to (3.36736 5.83244 0.280613)
  18 atoms before read
  18 atoms in snapshot
  0 atoms purged
  18 atoms replaced
  0 atoms trimmed
  0 atoms added
  18 atoms after read
        variable stretch equal 1+$i*${strainstep}
        variable stretch equal 1+34*${strainstep}
        variable stretch equal 1+34*-0.0005
        change_box all ${direction} scale ${stretch} remap
        change_box all y scale ${stretch} remap
        change_box all y scale 0.983 remap
  orthogonal box = (0 0.0495757 -0.280613) to (3.36736 5.78286 0.280613)
        min_style ${style}
        min_style hftn
        minimize ${etol} ${ftol} ${maxiter} ${maxeval}
        minimize 1e-12 ${ftol} ${maxiter} ${maxeval}
        minimize 1e-12 1e-08 ${maxiter} ${maxeval}
        minimize 1e-12 1e-08 10000 ${maxeval}
        minimize 1e-12 1e-08 10000 20000
WARNING: Resetting reneighboring criteria during minimization (../min.cpp:168)
Memory usage per processor = 4.85099 Mbytes
Step PotEng Pxx Pyy Pxy Lx Ly Lz 
       0   -53.931354   0.18753783      0.37738 1.7892865e-16      3.36736    5.7332885   0.56122687 
       1   -53.931354   0.18753784      0.37738 -2.7761396e-16      3.36736    5.7332885   0.56122687 
Loop time of 6.00778e-05 on 1 procs for 0 steps with 18 atoms

Minimization stats:
  Stopping criterion = force tolerance
  Energy initial, next-to-last, final = 
           -53.9313537        -53.9313537        -53.9313537
  Force two-norm initial, final = 0.000836611 2.31219e-09
  Force max component initial, final = 0.000203564 7.1101e-10
  Final line search alpha, max atom move = 0 0
  Iterations, force evaluations = 0 7

Pair  time (%) = 3.29597e-05 (54.8618)
Neigh time (%) = 0 (0)
Comm  time (%) = 1.01703e-05 (16.9285)
Outpt time (%) = 0 (0)
Other time (%) = 1.69477e-05 (28.2097)

Nlocal:    18 ave 18 max 18 min
Histogram: 1 0 0 0 0 0 0 0 0 0
Nghost:    65 ave 65 max 65 min
Histogram: 1 0 0 0 0 0 0 0 0 0
Neighs:    162 ave 162 max 162 min
Histogram: 1 0 0 0 0 0 0 0 0 0

Total # of neighbors = 162
Ave neighs/atom = 9
Neighbor list builds = 0
Dangerous builds = 0
        next i
jump SELF loop1
	read_dump orig.dump 0 x y
  orthogonal box = (0 0 -0.280613) to (3.36736 5.83244 0.280613)
  18 atoms before read
  18 atoms in snapshot
  0 atoms purged
  18 atoms replaced
  0 atoms trimmed
  0 atoms added
  18 atoms after read
        variable stretch equal 1+$i*${strainstep}
        variable stretch equal 1+35*${strainstep}
        variable stretch equal 1+35*-0.0005
        change_box all ${direction} scale ${stretch} remap
        change_box all y scale ${stretch} remap
        change_box all y scale 0.9825 remap
  orthogonal box = (0 0.0510338 -0.280613) to (3.36736 5.78141 0.280613)
        min_style ${style}
        min_style hftn
        minimize ${etol} ${ftol} ${maxiter} ${maxeval}
        minimize 1e-12 ${ftol} ${maxiter} ${maxeval}
        minimize 1e-12 1e-08 ${maxiter} ${maxeval}
        minimize 1e-12 1e-08 10000 ${maxeval}
        minimize 1e-12 1e-08 10000 20000
WARNING: Resetting reneighboring criteria during minimization (../min.cpp:168)
Memory usage per processor = 4.85099 Mbytes
Step PotEng Pxx Pyy Pxy Lx Ly Lz 
[...]

Pair  time (%) = 3.21359e-05 (53.5556)
Neigh time (%) = 0 (0)
Comm  time (%) = 1.09533e-05 (18.2541)
Outpt time (%) = 0 (0)
Other time (%) = 1.69155e-05 (28.1903)

Nlocal:    18 ave 18 max 18 min
Histogram: 1 0 0 0 0 0 0 0 0 0
Nghost:    65 ave 65 max 65 min
Histogram: 1 0 0 0 0 0 0 0 0 0
Neighs:    162 ave 162 max 162 min
Histogram: 1 0 0 0 0 0 0 0 0 0

Total # of neighbors = 162
Ave neighs/atom = 9
Neighbor list builds = 0
Dangerous builds = 0
        next i
jump SELF loop1
	read_dump orig.dump 0 x y
  orthogonal box = (0 0 -0.280613) to (3.36736 5.83244 0.280613)
  18 atoms before read
  18 atoms in snapshot
  0 atoms purged
  18 atoms replaced
  0 atoms trimmed
  0 atoms added
  18 atoms after read
        variable stretch equal 1+$i*${strainstep}
        variable stretch equal 1+92*${strainstep}
        variable stretch equal 1+92*-0.0005
        change_box all ${direction} scale ${stretch} remap
        change_box all y scale ${stretch} remap
        change_box all y scale 0.954 remap
  orthogonal box = (0 0.134146 -0.280613) to (3.36736 5.69829 0.280613)
        min_style ${style}
        min_style hftn
        minimize ${etol} ${ftol} ${maxiter} ${maxeval}
        minimize 1e-12 ${ftol} ${maxiter} ${maxeval}
        minimize 1e-12 1e-08 ${maxiter} ${maxeval}
        minimize 1e-12 1e-08 10000 ${maxeval}
        minimize 1e-12 1e-08 10000 20000
WARNING: Resetting reneighboring criteria during minimization (../min.cpp:168)
Memory usage per processor = 4.85099 Mbytes
Step PotEng Pxx Pyy Pxy Lx Ly Lz 
       0   -53.530608   0.46504484    1.0721171 -6.8309961e-16      3.36736    5.5641478   0.56122687 
       1   -53.530608   0.46504484    1.0721171 -1.4788748e-16      3.36736    5.5641478   0.56122687 
Loop time of 5.89043e-05 on 1 procs for 0 steps with 18 atoms

Minimization stats:
  Stopping criterion = force tolerance
  Energy initial, next-to-last, final = 
        -53.5306083596     -53.5306083596     -53.5306083594
  Force two-norm initial, final = 0.00101276 2.86182e-09
  Force max component initial, final = 0.00025522 8.90132e-10
  Final line search alpha, max atom move = 0 0
  Iterations, force evaluations = 0 7

Pair  time (%) = 3.60487e-05 (61.1988)
Neigh time (%) = 0 (0)
Comm  time (%) = 8.10274e-06 (13.7558)
Outpt time (%) = 0 (0)
Other time (%) = 1.47528e-05 (25.0455)

Nlocal:    18 ave 18 max 18 min
Histogram: 1 0 0 0 0 0 0 0 0 0
Nghost:    65 ave 65 max 65 min
Histogram: 1 0 0 0 0 0 0 0 0 0
Neighs:    162 ave 162 max 162 min
Histogram: 1 0 0 0 0 0 0 0 0 0

Total # of neighbors = 162
Ave neighs/atom = 9
Neighbor list builds = 0
Dangerous builds = 0
        next i
jump SELF loop1
	read_dump orig.dump 0 x y
  orthogonal box = (0 0 -0.280613) to (3.36736 5.83244 0.280613)
  18 atoms before read
  18 atoms in snapshot
  0 atoms purged
  18 atoms replaced
  0 atoms trimmed
  0 atoms added
  18 atoms after read
        variable stretch equal 1+$i*${strainstep}
        variable stretch equal 1+93*${strainstep}
        variable stretch equal 1+93*-0.0005
        change_box all ${direction} scale ${stretch} remap
        change_box all y scale ${stretch} remap
        change_box all y scale 0.9535 remap
  orthogonal box = (0 0.135604 -0.280613) to (3.36736 5.69684 0.280613)
        min_style ${style}
        min_style hftn
        minimize ${etol} ${ftol} ${maxiter} ${maxeval}
        minimize 1e-12 ${ftol} ${maxiter} ${maxeval}
        minimize 1e-12 1e-08 ${maxiter} ${maxeval}
        minimize 1e-12 1e-08 10000 ${maxeval}
        minimize 1e-12 1e-08 10000 20000
WARNING: Resetting reneighboring criteria during minimization (../min.cpp:168)
Memory usage per processor = 4.85099 Mbytes
Step PotEng Pxx Pyy Pxy Lx Ly Lz 
       0   -53.519995   0.47107215    1.0863927 -1.7892012e-16      3.36736    5.5612315   0.56122687 
       1   -53.519995   0.47107215    1.0863927 3.2099421e-16      3.36736    5.5612315   0.56122687 
Loop time of 5.90683e-05 on 1 procs for 0 steps with 18 atoms

Minimization stats:
  Stopping criterion = force tolerance
  Energy initial, next-to-last, final = 
        -53.5199946966     -53.5199946966     -53.5199946964
  Force two-norm initial, final = 0.00101855 2.87823e-09
  Force max component initial, final = 0.000256905 8.95396e-10
  Final line search alpha, max atom move = 0 0
  Iterations, force evaluations = 0 7

Pair  time (%) = 3.29305e-05 (55.7499)
Neigh time (%) = 0 (0)
Comm  time (%) = 1.10655e-05 (18.7334)
Outpt time (%) = 0 (0)
Other time (%) = 1.50723e-05 (25.5167)

Nlocal:    18 ave 18 max 18 min
Histogram: 1 0 0 0 0 0 0 0 0 0
Nghost:    65 ave 65 max 65 min
Histogram: 1 0 0 0 0 0 0 0 0 0
Neighs:    162 ave 162 max 162 min
Histogram: 1 0 0 0 0 0 0 0 0 0

Total # of neighbors = 162
Ave neighs/atom = 9
Neighbor list builds = 0
Dangerous builds = 0
        next i
jump SELF loop1
	read_dump orig.dump 0 x y
  orthogonal box = (0 0 -0.280613) to (3.36736 5.83244 0.280613)
  18 atoms before read
  18 atoms in snapshot
  0 atoms purged
  18 atoms replaced
  0 atoms trimmed
  0 atoms added
  18 atoms after read
        variable stretch equal 1+$i*${strainstep}
        variable stretch equal 1+94*${strainstep}
        variable stretch equal 1+94*-0.0005
        change_box all ${direction} scale ${stretch} remap
        change_box all y scale ${stretch} remap
        change_box all y scale 0.953 remap
  orthogonal box = (0 0.137062 -0.280613) to (3.36736 5.69538 0.280613)
        min_style ${style}
        min_style hftn
        minimize ${etol} ${ftol} ${maxiter} ${maxeval}
        minimize 1e-12 ${ftol} ${maxiter} ${maxeval}
        minimize 1e-12 1e-08 ${maxiter} ${maxeval}
        minimize 1e-12 1e-08 10000 ${maxeval}
        minimize 1e-12 1e-08 10000 20000
WARNING: Resetting reneighboring criteria during minimization (../min.cpp:168)
Memory usage per processor = 4.85099 Mbytes
Step PotEng Pxx Pyy Pxy Lx Ly Lz 
       0   -53.509291   0.47713564    1.1007226 3.9203954e-17      3.36736    5.5583153   0.56122687 
       1   -53.509291   0.47713564    1.1007226 -4.3336849e-16      3.36736    5.5583153   0.56122687 
Loop time of 5.89748e-05 on 1 procs for 0 steps with 18 atoms

Minimization stats:
  Stopping criterion = force tolerance
  Energy initial, next-to-last, final = 
        -53.5092913078     -53.5092913078     -53.5092913077
  Force two-norm initial, final = 0.00102429 2.89533e-09
  Force max component initial, final = 0.000258572 9.01171e-10
  Final line search alpha, max atom move = 0 0
  Iterations, force evaluations = 0 7

Pair  time (%) = 3.40432e-05 (57.725)
Neigh time (%) = 0 (0)
Comm  time (%) = 5.95313e-06 (10.0944)
Outpt time (%) = 0 (0)
Other time (%) = 1.89785e-05 (32.1807)

Nlocal:    18 ave 18 max 18 min
Histogram: 1 0 0 0 0 0 0 0 0 0
Nghost:    65 ave 65 max 65 min
Histogram: 1 0 0 0 0 0 0 0 0 0
Neighs:    162 ave 162 max 162 min
Histogram: 1 0 0 0 0 0 0 0 0 0

Total # of neighbors = 162
Ave neighs/atom = 9
Neighbor list builds = 0
Dangerous builds = 0
        next i
jump SELF loop1
	read_dump orig.dump 0 x y
  orthogonal box = (0 0 -0.280613) to (3.36736 5.83244 0.280613)
  18 atoms before read
  18 atoms in snapshot
  0 atoms purged
  18 atoms replaced
  0 atoms trimmed
  0 atoms added
  18 atoms after read
        variable stretch equal 1+$i*${strainstep}
        variable stretch equal 1+95*${strainstep}
        variable stretch equal 1+95*-0.0005
        change_box all ${direction} scale ${stretch} remap
        change_box all y scale ${stretch} remap
        change_box all y scale 0.9525 remap
  orthogonal box = (0 0.13852 -0.280613) to (3.36736 5.69392 0.280613)
        min_style ${style}
        min_style hftn
        minimize ${etol} ${ftol} ${maxiter} ${maxeval}
        minimize 1e-12 ${ftol} ${maxiter} ${maxeval}
        minimize 1e-12 1e-08 ${maxiter} ${maxeval}
        minimize 1e-12 1e-08 10000 ${maxeval}
        minimize 1e-12 1e-08 10000 20000
WARNING: Resetting reneighboring criteria during minimization (../min.cpp:168)
Memory usage per processor = 4.85099 Mbytes
Step PotEng Pxx Pyy Pxy Lx Ly Lz 
       0   -53.498397   0.48325449    1.1151591 3.0620319e-16      3.36736    5.5553991   0.56122687 
       1   -53.498397   0.48325449    1.1151591 1.8362027e-17      3.36736    5.5553991   0.56122687 
Loop time of 5.89999e-05 on 1 procs for 0 steps with 18 atoms

Minimization stats:
  Stopping criterion = force tolerance
  Energy initial, next-to-last, final = 
        -53.4983969461     -53.4983969461      -53.498396946
  Force two-norm initial, final = 0.00102228 2.8911e-09
  Force max component initial, final = 0.000257962 8.99645e-10
  Final line search alpha, max atom move = 0 0
  Iterations, force evaluations = 0 7

Pair  time (%) = 3.30517e-05 (56.02)
Neigh time (%) = 0 (0)
Comm  time (%) = 8.87737e-06 (15.0464)
Outpt time (%) = 0 (0)
Other time (%) = 1.70708e-05 (28.9336)

Nlocal:    18 ave 18 max 18 min
Histogram: 1 0 0 0 0 0 0 0 0 0
Nghost:    65 ave 65 max 65 min
Histogram: 1 0 0 0 0 0 0 0 0 0
Neighs:    162 ave 162 max 162 min
Histogram: 1 0 0 0 0 0 0 0 0 0

Total # of neighbors = 162
Ave neighs/atom = 9
Neighbor list builds = 0
Dangerous builds = 0
        next i
jump SELF loop1
	read_dump orig.dump 0 x y
  orthogonal box = (0 0 -0.280613) to (3.36736 5.83244 0.280613)
  18 atoms before read
  18 atoms in snapshot
  0 atoms purged
  18 atoms replaced
  0 atoms trimmed
  0 atoms added
  18 atoms after read
        variable stretch equal 1+$i*${strainstep}
        variable stretch equal 1+96*${strainstep}
        variable stretch equal 1+96*-0.0005
        change_box all ${direction} scale ${stretch} remap
        change_box all y scale ${stretch} remap
        change_box all y scale 0.952 remap
  orthogonal box = (0 0.139979 -0.280613) to (3.36736 5.69246 0.280613)
        min_style ${style}
        min_style hftn
        minimize ${etol} ${ftol} ${maxiter} ${maxeval}
        minimize 1e-12 ${ftol} ${maxiter} ${maxeval}
        minimize 1e-12 1e-08 ${maxiter} ${maxeval}
        minimize 1e-12 1e-08 10000 ${maxeval}
        minimize 1e-12 1e-08 10000 20000
WARNING: Resetting reneighboring criteria during minimization (../min.cpp:168)
Memory usage per processor = 4.85099 Mbytes
Step PotEng Pxx Pyy Pxy Lx Ly Lz 
       0   -53.487354   0.48942148    1.1296831 1.7496967e-17      3.36736    5.5524829   0.56122687 
       1   -53.487354   0.48942148    1.1296831 -2.5379627e-17      3.36736    5.5524829   0.56122687 
Loop time of 7.00612e-05 on 1 procs for 0 steps with 18 atoms

Minimization stats:
  Stopping criterion = force tolerance
  Energy initial, next-to-last, final = 
        -53.4873539412     -53.4873539412     -53.4873539411
  Force two-norm initial, final = 0.00102812 2.90831e-09
  Force max component initial, final = 0.000259661 9.05159e-10
  Final line search alpha, max atom move = 0 0
  Iterations, force evaluations = 0 7

Pair  time (%) = 3.70699e-05 (52.9107)
Neigh time (%) = 0 (0)
Comm  time (%) = 1.08142e-05 (15.4353)
Outpt time (%) = 0 (0)
Other time (%) = 2.21771e-05 (31.6539)

Nlocal:    18 ave 18 max 18 min
Histogram: 1 0 0 0 0 0 0 0 0 0
Nghost:    65 ave 65 max 65 min
Histogram: 1 0 0 0 0 0 0 0 0 0
Neighs:    162 ave 162 max 162 min
Histogram: 1 0 0 0 0 0 0 0 0 0

Total # of neighbors = 162
Ave neighs/atom = 9
Neighbor list builds = 0
Dangerous builds = 0
        next i
jump SELF loop1
	read_dump orig.dump 0 x y
  orthogonal box = (0 0 -0.280613) to (3.36736 5.83244 0.280613)
  18 atoms before read
  18 atoms in snapshot
  0 atoms purged
  18 atoms replaced
  0 atoms trimmed
  0 atoms added
  18 atoms after read
        variable stretch equal 1+$i*${strainstep}
        variable stretch equal 1+97*${strainstep}
        variable stretch equal 1+97*-0.0005
        change_box all ${direction} scale ${stretch} remap
        change_box all y scale ${stretch} remap
        change_box all y scale 0.9515 remap
  orthogonal box = (0 0.141437 -0.280613) to (3.36736 5.691 0.280613)
        min_style ${style}
        min_style hftn
        minimize ${etol} ${ftol} ${maxiter} ${maxeval}
        minimize 1e-12 ${ftol} ${maxiter} ${maxeval}
        minimize 1e-12 1e-08 ${maxiter} ${maxeval}
        minimize 1e-12 1e-08 10000 ${maxeval}
        minimize 1e-12 1e-08 10000 20000
WARNING: Resetting reneighboring criteria during minimization (../min.cpp:168)
Memory usage per processor = 4.85099 Mbytes
Step PotEng Pxx Pyy Pxy Lx Ly Lz 
       0   -53.476221   0.49562512    1.1442614 4.3758878e-16      3.36736    5.5495667   0.56122687 
       1   -53.476221   0.49562512    1.1442614 -3.7428767e-18      3.36736    5.5495667   0.56122687 
Loop time of 8.79799e-05 on 1 procs for 0 steps with 18 atoms

Minimization stats:
  Stopping criterion = force tolerance
  Energy initial, next-to-last, final = 
        -53.4762212767     -53.4762212767     -53.4762212765
  Force two-norm initial, final = 0.00103392 2.92576e-09
  Force max component initial, final = 0.000261343 9.1087e-10
  Final line search alpha, max atom move = 0 0
  Iterations, force evaluations = 0 7

Pair  time (%) = 4.1886e-05 (47.6086)
Neigh time (%) = 0 (0)
Comm  time (%) = 1.62147e-05 (18.43)
Outpt time (%) = 0 (0)
Other time (%) = 2.98793e-05 (33.9615)

Nlocal:    18 ave 18 max 18 min
Histogram: 1 0 0 0 0 0 0 0 0 0
Nghost:    65 ave 65 max 65 min
Histogram: 1 0 0 0 0 0 0 0 0 0
Neighs:    162 ave 162 max 162 min
Histogram: 1 0 0 0 0 0 0 0 0 0

Total # of neighbors = 162
Ave neighs/atom = 9
Neighbor list builds = 0
Dangerous builds = 0
        next i
jump SELF loop1
	read_dump orig.dump 0 x y
  orthogonal box = (0 0 -0.280613) to (3.36736 5.83244 0.280613)
  18 atoms before read
  18 atoms in snapshot
  0 atoms purged
  18 atoms replaced
  0 atoms trimmed
  0 atoms added
  18 atoms after read
        variable stretch equal 1+$i*${strainstep}
        variable stretch equal 1+98*${strainstep}
        variable stretch equal 1+98*-0.0005
        change_box all ${direction} scale ${stretch} remap
        change_box all y scale ${stretch} remap
        change_box all y scale 0.951 remap
  orthogonal box = (0 0.142895 -0.280613) to (3.36736 5.68955 0.280613)
        min_style ${style}
        min_style hftn
        minimize ${etol} ${ftol} ${maxiter} ${maxeval}
        minimize 1e-12 ${ftol} ${maxiter} ${maxeval}
        minimize 1e-12 1e-08 ${maxiter} ${maxeval}
        minimize 1e-12 1e-08 10000 ${maxeval}
        minimize 1e-12 1e-08 10000 20000
WARNING: Resetting reneighboring criteria during minimization (../min.cpp:168)
Memory usage per processor = 4.85099 Mbytes
Step PotEng Pxx Pyy Pxy Lx Ly Lz 
       0   -53.464907   0.50188261    1.1589409 5.9280378e-16      3.36736    5.5466504   0.56122687 
       1   -53.464907   0.50188261    1.1589409 -5.4470945e-17      3.36736    5.5466504   0.56122687 
Loop time of 5.99643e-05 on 1 procs for 0 steps with 18 atoms

Minimization stats:
  Stopping criterion = force tolerance
  Energy initial, next-to-last, final = 
        -53.4649066904     -53.4649066904     -53.4649066902
  Force two-norm initial, final = 0.00103188 2.92157e-09
  Force max component initial, final = 0.000260725 9.09625e-10
  Final line search alpha, max atom move = 0 0
  Iterations, force evaluations = 0 7

Pair  time (%) = 3.60514e-05 (60.1215)
Neigh time (%) = 0 (0)
Comm  time (%) = 8.58516e-06 (14.3171)
Outpt time (%) = 0 (0)
Other time (%) = 1.53277e-05 (25.5614)

Nlocal:    18 ave 18 max 18 min
Histogram: 1 0 0 0 0 0 0 0 0 0
Nghost:    65 ave 65 max 65 min
Histogram: 1 0 0 0 0 0 0 0 0 0
Neighs:    162 ave 162 max 162 min
Histogram: 1 0 0 0 0 0 0 0 0 0

Total # of neighbors = 162
Ave neighs/atom = 9
Neighbor list builds = 0
Dangerous builds = 0
        next i
jump SELF loop1
	read_dump orig.dump 0 x y
  orthogonal box = (0 0 -0.280613) to (3.36736 5.83244 0.280613)
  18 atoms before read
  18 atoms in snapshot
  0 atoms purged
  18 atoms replaced
  0 atoms trimmed
  0 atoms added
  18 atoms after read
        variable stretch equal 1+$i*${strainstep}
        variable stretch equal 1+99*${strainstep}
        variable stretch equal 1+99*-0.0005
        change_box all ${direction} scale ${stretch} remap
        change_box all y scale ${stretch} remap
        change_box all y scale 0.9505 remap
  orthogonal box = (0 0.144353 -0.280613) to (3.36736 5.68809 0.280613)
        min_style ${style}
        min_style hftn
        minimize ${etol} ${ftol} ${maxiter} ${maxeval}
        minimize 1e-12 ${ftol} ${maxiter} ${maxeval}
        minimize 1e-12 1e-08 ${maxiter} ${maxeval}
        minimize 1e-12 1e-08 10000 ${maxeval}
        minimize 1e-12 1e-08 10000 20000
WARNING: Resetting reneighboring criteria during minimization (../min.cpp:168)
Memory usage per processor = 4.85099 Mbytes
Step PotEng Pxx Pyy Pxy Lx Ly Lz 
       0   -53.453428   0.50819127    1.1737152 7.3628971e-17      3.36736    5.5437342   0.56122687 
       1   -53.453428   0.50819127    1.1737152 -3.6214458e-16      3.36736    5.5437342   0.56122687 
Loop time of 5.89158e-05 on 1 procs for 0 steps with 18 atoms

Minimization stats:
  Stopping criterion = force tolerance
  Energy initial, next-to-last, final = 
        -53.4534275756     -53.4534275756     -53.4534275754
  Force two-norm initial, final = 0.00103778 2.939e-09
  Force max component initial, final = 0.000262438 9.15353e-10
  Final line search alpha, max atom move = 0 0
  Iterations, force evaluations = 0 7

Pair  time (%) = 3.71014e-05 (62.9737)
Neigh time (%) = 0 (0)
Comm  time (%) = 2.82424e-06 (4.79368)
Outpt time (%) = 0 (0)
Other time (%) = 1.89901e-05 (32.2327)

Nlocal:    18 ave 18 max 18 min
Histogram: 1 0 0 0 0 0 0 0 0 0
Nghost:    65 ave 65 max 65 min
Histogram: 1 0 0 0 0 0 0 0 0 0
Neighs:    162 ave 162 max 162 min
Histogram: 1 0 0 0 0 0 0 0 0 0

Total # of neighbors = 162
Ave neighs/atom = 9
Neighbor list builds = 0
Dangerous builds = 0
        next i
jump SELF loop1
	read_dump orig.dump 0 x y
  orthogonal box = (0 0 -0.280613) to (3.36736 5.83244 0.280613)
  18 atoms before read
  18 atoms in snapshot
  0 atoms purged
  18 atoms replaced
  0 atoms trimmed
  0 atoms added
  18 atoms after read
        variable stretch equal 1+$i*${strainstep}
        variable stretch equal 1+100*${strainstep}
        variable stretch equal 1+100*-0.0005
        change_box all ${direction} scale ${stretch} remap
        change_box all y scale ${stretch} remap
        change_box all y scale 0.95 remap
  orthogonal box = (0 0.145811 -0.280613) to (3.36736 5.68663 0.280613)
        min_style ${style}
        min_style hftn
        minimize ${etol} ${ftol} ${maxiter} ${maxeval}
        minimize 1e-12 ${ftol} ${maxiter} ${maxeval}
        minimize 1e-12 1e-08 ${maxiter} ${maxeval}
        minimize 1e-12 1e-08 10000 ${maxeval}
        minimize 1e-12 1e-08 10000 20000
WARNING: Resetting reneighboring criteria during minimization (../min.cpp:168)
Memory usage per processor = 4.85099 Mbytes
Step PotEng Pxx Pyy Pxy Lx Ly Lz 
       0   -53.441858   0.51453697    1.1885437 2.7419457e-16      3.36736     5.540818   0.56122687 
       1   -53.441858   0.51453697    1.1885437 1.9003428e-16      3.36736     5.540818   0.56122687 
Loop time of 9.4994e-05 on 1 procs for 0 steps with 18 atoms

Minimization stats:
  Stopping criterion = force tolerance
  Energy initial, next-to-last, final = 
        -53.4418582707     -53.4418582707     -53.4418582706
  Force two-norm initial, final = 0.00104364 2.95652e-09
  Force max component initial, final = 0.000264134 9.21003e-10
  Final line search alpha, max atom move = 0 0
  Iterations, force evaluations = 0 7

Pair  time (%) = 3.59629e-05 (37.8581)
Neigh time (%) = 0 (0)
Comm  time (%) = 3.70715e-05 (39.0251)
Outpt time (%) = 0 (0)
Other time (%) = 2.19595e-05 (23.1168)

Nlocal:    18 ave 18 max 18 min
Histogram: 1 0 0 0 0 0 0 0 0 0
Nghost:    65 ave 65 max 65 min
Histogram: 1 0 0 0 0 0 0 0 0 0
Neighs:    162 ave 162 max 162 min
Histogram: 1 0 0 0 0 0 0 0 0 0

Total # of neighbors = 162
Ave neighs/atom = 9
Neighbor list builds = 0
Dangerous builds = 0
        next i
jump SELF loop1

