LAMMPS (28 Jun 2014)
# attempt at getting tensile strain-stress curve for infinite slab

#file prefix
variable prefix string compression_V_brittlenew
variable dumpfile string ${prefix}.*.dump
variable dumpfile string compression_V_brittlenew.*.dump
variable restartfile string ${prefix}.*.equil
variable restartfile string compression_V_brittlenew.*.equil

#Mass (g/mol)
variable m equal 1

# lattice constant (in Angstroms) and orientation of axes (given by lattice vectors)
variable rho equal 0.9165
variable x1 equal 1
variable x2 equal 0
variable x3 equal 0
variable y1 equal 0
variable y2 equal 1
variable y3 equal 0
# length of lattice in different directions (using orientation of lattice vectors)
variable ax equal sqrt(${x1}*${x1}+${x2}*${x2}+${x3}*${x3})
variable ax equal sqrt(1*${x1}+${x2}*${x2}+${x3}*${x3})
variable ax equal sqrt(1*1+${x2}*${x2}+${x3}*${x3})
variable ax equal sqrt(1*1+0*${x2}+${x3}*${x3})
variable ax equal sqrt(1*1+0*0+${x3}*${x3})
variable ax equal sqrt(1*1+0*0+0*${x3})
variable ax equal sqrt(1*1+0*0+0*0)
variable ay equal sqrt(${y1}*${y1}+${y2}*${y2}+${y3}*${y3})
variable ay equal sqrt(0*${y1}+${y2}*${y2}+${y3}*${y3})
variable ay equal sqrt(0*0+${y2}*${y2}+${y3}*${y3})
variable ay equal sqrt(0*0+1*${y2}+${y3}*${y3})
variable ay equal sqrt(0*0+1*1+${y3}*${y3})
variable ay equal sqrt(0*0+1*1+0*${y3})
variable ay equal sqrt(0*0+1*1+0*0)
variable az equal 1

# size of box in lattice units
variable lxpos equal 3
variable lxneg equal 0
variable lypos equal 3
variable lyneg equal 0
variable lzpos equal 0.25
variable lzneg equal -0.25

# Define minimization parameters and damping
variable etol equal 1.0e-12
variable ftol equal 1.0e-8
variable maxiter equal 10000
variable maxeval equal 20000
variable style string cg

# boundary conditions
dimension	2
boundary	p p p
atom_style	atomic

# create geometry
units		lj
lattice         hex ${rho}
lattice         hex 0.9165
Lattice spacing in x,y,z = 1.12245 1.94415 1.12245
region		myregion block ${lxneg} ${lxpos} ${lyneg} ${lypos} ${lzneg} ${lzpos} units lattice
region		myregion block 0 ${lxpos} ${lyneg} ${lypos} ${lzneg} ${lzpos} units lattice
region		myregion block 0 3 ${lyneg} ${lypos} ${lzneg} ${lzpos} units lattice
region		myregion block 0 3 0 ${lypos} ${lzneg} ${lzpos} units lattice
region		myregion block 0 3 0 3 ${lzneg} ${lzpos} units lattice
region		myregion block 0 3 0 3 -0.25 ${lzpos} units lattice
region		myregion block 0 3 0 3 -0.25 0.25 units lattice
create_box	1 myregion
Created orthogonal box = (0 0 -0.280613) to (3.36736 5.83244 0.280613)
  1 by 1 by 1 MPI processor grid
create_atoms	1 box
Created 18 atoms

# define masses
mass * $m
mass * 1

# my fake/morse potential
pair_style      table linear 3001
pair_coeff      * * vpotential_brittlenew dummy
neighbor	0.3 bin
neigh_modify	delay 5

# Setup output
thermo 1
thermo_style custom step pe pxx pyy pxy lx ly lz
thermo_modify norm no

# Compute initial state by relaxing box
min_style ${style}
min_style cg
minimize ${etol} ${ftol} ${maxiter} ${maxeval}
minimize 1e-12 ${ftol} ${maxiter} ${maxeval}
minimize 1e-12 1e-08 ${maxiter} ${maxeval}
minimize 1e-12 1e-08 10000 ${maxeval}
minimize 1e-12 1e-08 10000 20000
WARNING: Resetting reneighboring criteria during minimization (../min.cpp:168)
Memory usage per processor = 3.35099 Mbytes
Step PotEng Pxx Pyy Pxy Lx Ly Lz 
       0   -53.999984 0.0003469208 0.0003469208 1.4825282e-22    3.3673612    5.8324407   0.56122687 
       1   -53.999984 0.0003469208 0.0003469208 -2.4069537e-16    3.3673612    5.8324407   0.56122687 
Loop time of 6.30588e-05 on 1 procs for 1 steps with 18 atoms

Minimization stats:
  Stopping criterion = energy tolerance
  Energy initial, next-to-last, final = 
         -53.999983866      -53.999983866      -53.999983866
  Force two-norm initial, final = 1.11801e-13 1.30891e-11
  Force max component initial, final = 5.05401e-14 5.36567e-12
  Final line search alpha, max atom move = 1 5.36567e-12
  Iterations, force evaluations = 1 1

Pair  time (%) = 1.30496e-05 (20.6943)
Neigh time (%) = 0 (0)
Comm  time (%) = 1.28145e-05 (20.3216)
Outpt time (%) = 0 (0)
Other time (%) = 3.71947e-05 (58.9841)

Nlocal:    18 ave 18 max 18 min
Histogram: 1 0 0 0 0 0 0 0 0 0
Nghost:    65 ave 65 max 65 min
Histogram: 1 0 0 0 0 0 0 0 0 0
Neighs:    162 ave 162 max 162 min
Histogram: 1 0 0 0 0 0 0 0 0 0

Total # of neighbors = 162
Ave neighs/atom = 9
Neighbor list builds = 0
Dangerous builds = 0
reset_timestep 0
write_dump all atom orig.dump

# Energy curve will have nstep steps
variable strainmax equal -0.05
variable strainstep equal -0.0005
variable nsteps equal round(${strainmax}/${strainstep})
variable nsteps equal round(-0.05/${strainstep})
variable nsteps equal round(-0.05/-0.0005)
variable direction string y

variable i loop ${nsteps}
variable i loop 100
label loop1
	read_dump orig.dump 0 x y
  orthogonal box = (0 0 -0.280613) to (3.36736 5.83244 0.280613)
  18 atoms before read
  18 atoms in snapshot
  0 atoms purged
  18 atoms replaced
  0 atoms trimmed
  0 atoms added
  18 atoms after read
        variable stretch equal 1+$i*${strainstep}
        variable stretch equal 1+1*${strainstep}
        variable stretch equal 1+1*-0.0005
        change_box all ${direction} scale ${stretch} remap
        change_box all y scale ${stretch} remap
        change_box all y scale 0.9995 remap
  orthogonal box = (0 0.00145811 -0.280613) to (3.36736 5.83098 0.280613)
        min_style ${style}
        min_style cg
        minimize ${etol} ${ftol} ${maxiter} ${maxeval}
        minimize 1e-12 ${ftol} ${maxiter} ${maxeval}
        minimize 1e-12 1e-08 ${maxiter} ${maxeval}
        minimize 1e-12 1e-08 10000 ${maxeval}
        minimize 1e-12 1e-08 10000 20000
WARNING: Resetting reneighboring criteria during minimization (../min.cpp:168)
Memory usage per processor = 3.35099 Mbytes
Step PotEng Pxx Pyy Pxy Lx Ly Lz 
       0   -53.999886 0.0056837775  0.016310321 -8.4228194e-19      3.36736    5.8295238   0.56122687 
       1   -53.999886 0.0056837775  0.016310321 -8.4228194e-19      3.36736    5.8295238   0.56122687 
Loop time of 5.31038e-05 on 1 procs for 1 steps with 18 atoms

Minimization stats:
  Stopping criterion = linesearch alpha is zero
  Energy initial, next-to-last, final = 
        -53.9998864007     -53.9998864007     -53.9998864007
  Force two-norm initial, final = 0.000858906 0.000858906
  Force max component initial, final = 0.000214646 0.000214646
  Final line search alpha, max atom move = 0.015625 3.35385e-06
  Iterations, force evaluations = 1 7

Pair  time (%) = 3.4301e-05 (64.5923)
Neigh time (%) = 0 (0)
Comm  time (%) = 5.56128e-06 (10.4725)
Outpt time (%) = 0 (0)
Other time (%) = 1.32415e-05 (24.9352)

Nlocal:    18 ave 18 max 18 min
Histogram: 1 0 0 0 0 0 0 0 0 0
Nghost:    65 ave 65 max 65 min
Histogram: 1 0 0 0 0 0 0 0 0 0
Neighs:    162 ave 162 max 162 min
Histogram: 1 0 0 0 0 0 0 0 0 0

Total # of neighbors = 162
Ave neighs/atom = 9
Neighbor list builds = 0
Dangerous builds = 0
        next i
jump SELF loop1
	read_dump orig.dump 0 x y
  orthogonal box = (0 0 -0.280613) to (3.36736 5.83244 0.280613)
  18 atoms before read
  18 atoms in snapshot
  0 atoms purged
  18 atoms replaced
  0 atoms trimmed
  0 atoms added
  18 atoms after read
        variable stretch equal 1+$i*${strainstep}
        variable stretch equal 1+2*${strainstep}
        variable stretch equal 1+2*-0.0005
        change_box all ${direction} scale ${stretch} remap
        change_box all y scale ${stretch} remap
        change_box all y scale 0.999 remap
  orthogonal box = (0 0.00291622 -0.280613) to (3.36736 5.82952 0.280613)
        min_style ${style}
        min_style cg
        minimize ${etol} ${ftol} ${maxiter} ${maxeval}
        minimize 1e-12 ${ftol} ${maxiter} ${maxeval}
        minimize 1e-12 1e-08 ${maxiter} ${maxeval}
        minimize 1e-12 1e-08 10000 ${maxeval}
        minimize 1e-12 1e-08 10000 20000
WARNING: Resetting reneighboring criteria during minimization (../min.cpp:168)
Memory usage per processor = 3.35099 Mbytes
Step PotEng Pxx Pyy Pxy Lx Ly Lz 
       0   -53.999635  0.011039582  0.032328946 2.1488939e-18      3.36736    5.8266076   0.56122687 
       1   -53.999635  0.011039582  0.032328946 2.1488939e-18      3.36736    5.8266076   0.56122687 
Loop time of 1.04494e-06 on 1 procs for 1 steps with 18 atoms

Minimization stats:
  Stopping criterion = linesearch alpha is zero
  Energy initial, next-to-last, final = 
        -53.9996354394     -53.9996354394     -53.9996354394
  Force two-norm initial, final = 0.000863132 0.000863132
  Force max component initial, final = 0.000215903 0.000215903
  Final line search alpha, max atom move = 0.015625 3.37348e-06
  Iterations, force evaluations = 1 7

Pair  time (%) = 6.83824e-07 (65.4412)
Neigh time (%) = 0 (0)
Comm  time (%) = 2.36765e-06 (226.582)
Outpt time (%) = 0 (0)
Other time (%) = -2.00653e-06 (-192.023)

Nlocal:    18 ave 18 max 18 min
Histogram: 1 0 0 0 0 0 0 0 0 0
Nghost:    65 ave 65 max 65 min
Histogram: 1 0 0 0 0 0 0 0 0 0
Neighs:    162 ave 162 max 162 min
Histogram: 1 0 0 0 0 0 0 0 0 0

Total # of neighbors = 162
Ave neighs/atom = 9
Neighbor list builds = 0
Dangerous builds = 0
        next i
jump SELF loop1
	read_dump orig.dump 0 x y
  orthogonal box = (0 0 -0.280613) to (3.36736 5.83244 0.280613)
  18 atoms before read
  18 atoms in snapshot
  0 atoms purged
  18 atoms replaced
  0 atoms trimmed
  0 atoms added
  18 atoms after read
        variable stretch equal 1+$i*${strainstep}
        variable stretch equal 1+3*${strainstep}
        variable stretch equal 1+3*-0.0005
        change_box all ${direction} scale ${stretch} remap
        change_box all y scale ${stretch} remap
        change_box all y scale 0.9985 remap
  orthogonal box = (0 0.00437433 -0.280613) to (3.36736 5.82807 0.280613)
        min_style ${style}
        min_style cg
        minimize ${etol} ${ftol} ${maxiter} ${maxeval}
        minimize 1e-12 ${ftol} ${maxiter} ${maxeval}
        minimize 1e-12 1e-08 ${maxiter} ${maxeval}
        minimize 1e-12 1e-08 10000 ${maxeval}
        minimize 1e-12 1e-08 10000 20000
WARNING: Resetting reneighboring criteria during minimization (../min.cpp:168)
Memory usage per processor = 3.35099 Mbytes
Step PotEng Pxx Pyy Pxy Lx Ly Lz 
       0   -53.999254  0.016422703   0.04839719 6.2377119e-17      3.36736    5.8236913   0.56122687 
       1   -53.999254  0.016422703   0.04839719 6.2377119e-17      3.36736    5.8236913   0.56122687 
Loop time of 5.28883e-05 on 1 procs for 1 steps with 18 atoms

Minimization stats:
  Stopping criterion = linesearch alpha is zero
  Energy initial, next-to-last, final = 
        -53.9992537611     -53.9992537611     -53.9992537611
  Force two-norm initial, final = 0.000867359 0.000867359
  Force max component initial, final = 0.000217159 0.000217159
  Final line search alpha, max atom move = 0.015625 3.3931e-06
  Iterations, force evaluations = 1 7

Pair  time (%) = 3.20544e-05 (60.6077)
Neigh time (%) = 0 (0)
Comm  time (%) = 4.64427e-06 (8.78129)
Outpt time (%) = 0 (0)
Other time (%) = 1.61896e-05 (30.611)

Nlocal:    18 ave 18 max 18 min
Histogram: 1 0 0 0 0 0 0 0 0 0
Nghost:    65 ave 65 max 65 min
Histogram: 1 0 0 0 0 0 0 0 0 0
Neighs:    162 ave 162 max 162 min
Histogram: 1 0 0 0 0 0 0 0 0 0

Total # of neighbors = 162
Ave neighs/atom = 9
Neighbor list builds = 0
Dangerous builds = 0
        next i
jump SELF loop1
	read_dump orig.dump 0 x y
  orthogonal box = (0 0 -0.280613) to (3.36736 5.83244 0.280613)
  18 atoms before read
  18 atoms in snapshot
  0 atoms purged
  18 atoms replaced
  0 atoms trimmed
  0 atoms added
  18 atoms after read
        variable stretch equal 1+$i*${strainstep}
        variable stretch equal 1+4*${strainstep}
        variable stretch equal 1+4*-0.0005
        change_box all ${direction} scale ${stretch} remap
        change_box all y scale ${stretch} remap
        change_box all y scale 0.998 remap
  orthogonal box = (0 0.00583244 -0.280613) to (3.36736 5.82661 0.280613)
        min_style ${style}
        min_style cg
        minimize ${etol} ${ftol} ${maxiter} ${maxeval}
        minimize 1e-12 ${ftol} ${maxiter} ${maxeval}
        minimize 1e-12 1e-08 ${maxiter} ${maxeval}
        minimize 1e-12 1e-08 10000 ${maxeval}
        minimize 1e-12 1e-08 10000 20000
WARNING: Resetting reneighboring criteria during minimization (../min.cpp:168)
Memory usage per processor = 3.35099 Mbytes
Step PotEng Pxx Pyy Pxy Lx Ly Lz 
       0   -53.998711  0.021838761  0.064531626 6.1260937e-18      3.36736    5.8207751   0.56122687 
       1   -53.998711  0.021838761  0.064531626 6.1260937e-18      3.36736    5.8207751   0.56122687 
Loop time of 5.30827e-05 on 1 procs for 1 steps with 18 atoms

Minimization stats:
  Stopping criterion = linesearch alpha is zero
  Energy initial, next-to-last, final = 
        -53.9987112769     -53.9987112769     -53.9987112769
  Force two-norm initial, final = 0.000865943 0.000865943
  Force max component initial, final = 0.000216723 0.000216723
  Final line search alpha, max atom move = 0.015625 3.3863e-06
  Iterations, force evaluations = 1 7

Pair  time (%) = 3.4179e-05 (64.3881)
Neigh time (%) = 0 (0)
Comm  time (%) = 5.27082e-06 (9.92945)
Outpt time (%) = 0 (0)
Other time (%) = 1.36329e-05 (25.6824)

Nlocal:    18 ave 18 max 18 min
Histogram: 1 0 0 0 0 0 0 0 0 0
Nghost:    65 ave 65 max 65 min
Histogram: 1 0 0 0 0 0 0 0 0 0
Neighs:    162 ave 162 max 162 min
Histogram: 1 0 0 0 0 0 0 0 0 0

Total # of neighbors = 162
Ave neighs/atom = 9
Neighbor list builds = 0
Dangerous builds = 0
        next i
jump SELF loop1
	read_dump orig.dump 0 x y
  orthogonal box = (0 0 -0.280613) to (3.36736 5.83244 0.280613)
  18 atoms before read
  18 atoms in snapshot
  0 atoms purged
  18 atoms replaced
  0 atoms trimmed
  0 atoms added
  18 atoms after read
        variable stretch equal 1+$i*${strainstep}
        variable stretch equal 1+5*${strainstep}
        variable stretch equal 1+5*-0.0005
        change_box all ${direction} scale ${stretch} remap
        change_box all y scale ${stretch} remap
        change_box all y scale 0.9975 remap
  orthogonal box = (0 0.00729055 -0.280613) to (3.36736 5.82515 0.280613)
        min_style ${style}
        min_style cg
        minimize ${etol} ${ftol} ${maxiter} ${maxeval}
        minimize 1e-12 ${ftol} ${maxiter} ${maxeval}
        minimize 1e-12 1e-08 ${maxiter} ${maxeval}
        minimize 1e-12 1e-08 10000 ${maxeval}
        minimize 1e-12 1e-08 10000 20000
WARNING: Resetting reneighboring criteria during minimization (../min.cpp:168)
Memory usage per processor = 3.35099 Mbytes
Step PotEng Pxx Pyy Pxy Lx Ly Lz 
       0   -53.997974  0.027294317  0.080751563 1.1305057e-16      3.36736    5.8178589   0.56122687 
       1   -53.997974  0.027294317  0.080751563 1.1305057e-16      3.36736    5.8178589   0.56122687 
Loop time of 5.40975e-05 on 1 procs for 1 steps with 18 atoms

Minimization stats:
  Stopping criterion = linesearch alpha is zero
  Energy initial, next-to-last, final = 
        -53.9979740887     -53.9979740887     -53.9979740887
  Force two-norm initial, final = 0.000870209 0.000870209
  Force max component initial, final = 0.00021799 0.00021799
  Final line search alpha, max atom move = 0.015625 3.4061e-06
  Iterations, force evaluations = 1 7

Pair  time (%) = 3.40985e-05 (63.0316)
Neigh time (%) = 0 (0)
Comm  time (%) = 6.30214e-06 (11.6496)
Outpt time (%) = 0 (0)
Other time (%) = 1.36968e-05 (25.3188)

Nlocal:    18 ave 18 max 18 min
Histogram: 1 0 0 0 0 0 0 0 0 0
Nghost:    65 ave 65 max 65 min
Histogram: 1 0 0 0 0 0 0 0 0 0
Neighs:    162 ave 162 max 162 min
Histogram: 1 0 0 0 0 0 0 0 0 0

Total # of neighbors = 162
Ave neighs/atom = 9
Neighbor list builds = 0
Dangerous builds = 0
        next i
jump SELF loop1
	read_dump orig.dump 0 x y
  orthogonal box = (0 0 -0.280613) to (3.36736 5.83244 0.280613)
  18 atoms before read
  18 atoms in snapshot
  0 atoms purged
  18 atoms replaced
  0 atoms trimmed
  0 atoms added
  18 atoms after read
        variable stretch equal 1+$i*${strainstep}
        variable stretch equal 1+6*${strainstep}
        variable stretch equal 1+6*-0.0005
        change_box all ${direction} scale ${stretch} remap
        change_box all y scale ${stretch} remap
        change_box all y scale 0.997 remap
  orthogonal box = (0 0.00874866 -0.280613) to (3.36736 5.82369 0.280613)
        min_style ${style}
        min_style cg
        minimize ${etol} ${ftol} ${maxiter} ${maxeval}
        minimize 1e-12 ${ftol} ${maxiter} ${maxeval}
        minimize 1e-12 1e-08 ${maxiter} ${maxeval}
        minimize 1e-12 1e-08 10000 ${maxeval}
        minimize 1e-12 1e-08 10000 20000
WARNING: Resetting reneighboring criteria during minimization (../min.cpp:168)
Memory usage per processor = 3.35099 Mbytes
Step PotEng Pxx Pyy Pxy Lx Ly Lz 
       0   -53.997105   0.03277753  0.097021365 7.9483775e-18      3.36736    5.8149427   0.56122687 
       1   -53.997105   0.03277753  0.097021365 7.9483775e-18      3.36736    5.8149427   0.56122687 
Loop time of 5.30683e-05 on 1 procs for 1 steps with 18 atoms

Minimization stats:
  Stopping criterion = linesearch alpha is zero
  Energy initial, next-to-last, final = 
        -53.9971047551     -53.9971047551     -53.9971047551
  Force two-norm initial, final = 0.000874478 0.000874478
  Force max component initial, final = 0.000219257 0.000219257
  Final line search alpha, max atom move = 0.015625 3.42589e-06
  Iterations, force evaluations = 1 7

Pair  time (%) = 3.41629e-05 (64.3754)
Neigh time (%) = 0 (0)
Comm  time (%) = 5.95395e-06 (11.2194)
Outpt time (%) = 0 (0)
Other time (%) = 1.29514e-05 (24.4052)

Nlocal:    18 ave 18 max 18 min
Histogram: 1 0 0 0 0 0 0 0 0 0
Nghost:    65 ave 65 max 65 min
Histogram: 1 0 0 0 0 0 0 0 0 0
Neighs:    162 ave 162 max 162 min
Histogram: 1 0 0 0 0 0 0 0 0 0

Total # of neighbors = 162
Ave neighs/atom = 9
Neighbor list builds = 0
Dangerous builds = 0
        next i
jump SELF loop1
	read_dump orig.dump 0 x y
  orthogonal box = (0 0 -0.280613) to (3.36736 5.83244 0.280613)
  18 atoms before read
  18 atoms in snapshot
  0 atoms purged
  18 atoms replaced
  0 atoms trimmed
  0 atoms added
  18 atoms after read
        variable stretch equal 1+$i*${strainstep}
        variable stretch equal 1+7*${strainstep}
        variable stretch equal 1+7*-0.0005
        change_box all ${direction} scale ${stretch} remap
        change_box all y scale ${stretch} remap
        change_box all y scale 0.9965 remap
  orthogonal box = (0 0.0102068 -0.280613) to (3.36736 5.82223 0.280613)
        min_style ${style}
        min_style cg
        minimize ${etol} ${ftol} ${maxiter} ${maxeval}
        minimize 1e-12 ${ftol} ${maxiter} ${maxeval}
        minimize 1e-12 1e-08 ${maxiter} ${maxeval}
        minimize 1e-12 1e-08 10000 ${maxeval}
        minimize 1e-12 1e-08 10000 20000
WARNING: Resetting reneighboring criteria during minimization (../min.cpp:168)
Memory usage per processor = 3.35099 Mbytes
Step PotEng Pxx Pyy Pxy Lx Ly Lz 
       0   -53.996103  0.038288412   0.11334084 -5.0516634e-17      3.36736    5.8120265   0.56122687 
       1   -53.996103  0.038288412   0.11334084 -5.0516634e-17      3.36736    5.8120265   0.56122687 
Loop time of 5.29804e-05 on 1 procs for 1 steps with 18 atoms

Minimization stats:
  Stopping criterion = linesearch alpha is zero
  Energy initial, next-to-last, final = 
        -53.9961033099     -53.9961033099     -53.9961033099
  Force two-norm initial, final = 0.000878791 0.000878791
  Force max component initial, final = 0.000220536 0.000220536
  Final line search alpha, max atom move = 0.015625 3.44587e-06
  Iterations, force evaluations = 1 7

Pair  time (%) = 3.48435e-05 (65.7667)
Neigh time (%) = 0 (0)
Comm  time (%) = 5.88445e-06 (11.1068)
Outpt time (%) = 0 (0)
Other time (%) = 1.22525e-05 (23.1264)

Nlocal:    18 ave 18 max 18 min
Histogram: 1 0 0 0 0 0 0 0 0 0
Nghost:    65 ave 65 max 65 min
Histogram: 1 0 0 0 0 0 0 0 0 0
Neighs:    162 ave 162 max 162 min
Histogram: 1 0 0 0 0 0 0 0 0 0

Total # of neighbors = 162
Ave neighs/atom = 9
Neighbor list builds = 0
Dangerous builds = 0
        next i
jump SELF loop1
	read_dump orig.dump 0 x y
  orthogonal box = (0 0 -0.280613) to (3.36736 5.83244 0.280613)
  18 atoms before read
  18 atoms in snapshot
  0 atoms purged
  18 atoms replaced
  0 atoms trimmed
  0 atoms added
  18 atoms after read
        variable stretch equal 1+$i*${strainstep}
        variable stretch equal 1+8*${strainstep}
        variable stretch equal 1+8*-0.0005
        change_box all ${direction} scale ${stretch} remap
        change_box all y scale ${stretch} remap
        change_box all y scale 0.996 remap
  orthogonal box = (0 0.0116649 -0.280613) to (3.36736 5.82078 0.280613)
        min_style ${style}
        min_style cg
        minimize ${etol} ${ftol} ${maxiter} ${maxeval}
        minimize 1e-12 ${ftol} ${maxiter} ${maxeval}
        minimize 1e-12 1e-08 ${maxiter} ${maxeval}
        minimize 1e-12 1e-08 10000 ${maxeval}
        minimize 1e-12 1e-08 10000 20000
WARNING: Resetting reneighboring criteria during minimization (../min.cpp:168)
Memory usage per processor = 3.35099 Mbytes
Step PotEng Pxx Pyy Pxy Lx Ly Lz 
       0   -53.994882  0.043843507   0.12975901 8.1432809e-17      3.36736    5.8091102   0.56122687 
       1   -53.994882  0.043843507   0.12975901 8.1432809e-17      3.36736    5.8091102   0.56122687 
Loop time of 5.30134e-05 on 1 procs for 1 steps with 18 atoms

Minimization stats:
  Stopping criterion = linesearch alpha is zero
  Energy initial, next-to-last, final = 
        -53.9948823254     -53.9948823254     -53.9948823254
  Force two-norm initial, final = 0.000877345 0.000877345
  Force max component initial, final = 0.000220092 0.000220092
  Final line search alpha, max atom move = 0.015625 3.43894e-06
  Iterations, force evaluations = 1 7

Pair  time (%) = 3.40085e-05 (64.1508)
Neigh time (%) = 0 (0)
Comm  time (%) = 5.40679e-06 (10.1989)
Outpt time (%) = 0 (0)
Other time (%) = 1.35981e-05 (25.6503)

Nlocal:    18 ave 18 max 18 min
Histogram: 1 0 0 0 0 0 0 0 0 0
Nghost:    65 ave 65 max 65 min
Histogram: 1 0 0 0 0 0 0 0 0 0
Neighs:    162 ave 162 max 162 min
Histogram: 1 0 0 0 0 0 0 0 0 0

Total # of neighbors = 162
Ave neighs/atom = 9
Neighbor list builds = 0
Dangerous builds = 0
        next i
jump SELF loop1
	read_dump orig.dump 0 x y
  orthogonal box = (0 0 -0.280613) to (3.36736 5.83244 0.280613)
  18 atoms before read
  18 atoms in snapshot
  0 atoms purged
  18 atoms replaced
  0 atoms trimmed
  0 atoms added
  18 atoms after read
        variable stretch equal 1+$i*${strainstep}
        variable stretch equal 1+9*${strainstep}
        variable stretch equal 1+9*-0.0005
        change_box all ${direction} scale ${stretch} remap
        change_box all y scale ${stretch} remap
        change_box all y scale 0.9955 remap
  orthogonal box = (0 0.013123 -0.280613) to (3.36736 5.81932 0.280613)
        min_style ${style}
        min_style cg
        minimize ${etol} ${ftol} ${maxiter} ${maxeval}
        minimize 1e-12 ${ftol} ${maxiter} ${maxeval}
        minimize 1e-12 1e-08 ${maxiter} ${maxeval}
        minimize 1e-12 1e-08 10000 ${maxeval}
        minimize 1e-12 1e-08 10000 20000
WARNING: Resetting reneighboring criteria during minimization (../min.cpp:168)
Memory usage per processor = 3.35099 Mbytes
Step PotEng Pxx Pyy Pxy Lx Ly Lz 
       0   -53.993519  0.049428252   0.14623219 -9.010921e-17      3.36736     5.806194   0.56122687 
       1   -53.993519  0.049428252   0.14623219 -9.010921e-17      3.36736     5.806194   0.56122687 
Loop time of 5.29266e-05 on 1 procs for 1 steps with 18 atoms

Minimization stats:
  Stopping criterion = linesearch alpha is zero
  Energy initial, next-to-last, final = 
        -53.9935192651     -53.9935192651     -53.9935192651
  Force two-norm initial, final = 0.000881674 0.000881674
  Force max component initial, final = 0.000221375 0.000221375
  Final line search alpha, max atom move = 0.015625 3.45898e-06
  Iterations, force evaluations = 1 7

Pair  time (%) = 3.37913e-05 (63.8456)
Neigh time (%) = 0 (0)
Comm  time (%) = 5.21087e-06 (9.84546)
Outpt time (%) = 0 (0)
Other time (%) = 1.39244e-05 (26.309)

Nlocal:    18 ave 18 max 18 min
Histogram: 1 0 0 0 0 0 0 0 0 0
Nghost:    65 ave 65 max 65 min
Histogram: 1 0 0 0 0 0 0 0 0 0
Neighs:    162 ave 162 max 162 min
Histogram: 1 0 0 0 0 0 0 0 0 0

Total # of neighbors = 162
Ave neighs/atom = 9
Neighbor list builds = 0
Dangerous builds = 0
        next i
jump SELF loop1
	read_dump orig.dump 0 x y
  orthogonal box = (0 0 -0.280613) to (3.36736 5.83244 0.280613)
  18 atoms before read
  18 atoms in snapshot
  0 atoms purged
  18 atoms replaced
  0 atoms trimmed
  0 atoms added
  18 atoms after read
        variable stretch equal 1+$i*${strainstep}
        variable stretch equal 1+10*${strainstep}
        variable stretch equal 1+10*-0.0005
        change_box all ${direction} scale ${stretch} remap
        change_box all y scale ${stretch} remap
        change_box all y scale 0.995 remap
  orthogonal box = (0 0.0145811 -0.280613) to (3.36736 5.81786 0.280613)
        min_style ${style}
        min_style cg
        minimize ${etol} ${ftol} ${maxiter} ${maxeval}
        minimize 1e-12 ${ftol} ${maxiter} ${maxeval}
        minimize 1e-12 1e-08 ${maxiter} ${maxeval}
        minimize 1e-12 1e-08 10000 ${maxeval}
        minimize 1e-12 1e-08 10000 20000
WARNING: Resetting reneighboring criteria during minimization (../min.cpp:168)
Memory usage per processor = 3.35099 Mbytes
Step PotEng Pxx Pyy Pxy Lx Ly Lz 
       0   -53.992023  0.055041075   0.16275549 -1.351818e-16      3.36736    5.8032778   0.56122687 
       1   -53.992023  0.055041075   0.16275549 -1.351818e-16      3.36736    5.8032778   0.56122687 
Loop time of 5.20061e-05 on 1 procs for 1 steps with 18 atoms

Minimization stats:
  Stopping criterion = linesearch alpha is zero
  Energy initial, next-to-last, final = 
        -53.9920225932     -53.9920225932     -53.9920225932
  Force two-norm initial, final = 0.000886008 0.000886008
  Force max component initial, final = 0.000222658 0.000222658
  Final line search alpha, max atom move = 0.015625 3.47903e-06
  Iterations, force evaluations = 1 7

Pair  time (%) = 3.3857e-05 (65.1019)
Neigh time (%) = 0 (0)
Comm  time (%) = 7.81904e-06 (15.0348)
Outpt time (%) = 0 (0)
Other time (%) = 1.03301e-05 (19.8633)

Nlocal:    18 ave 18 max 18 min
Histogram: 1 0 0 0 0 0 0 0 0 0
Nghost:    65 ave 65 max 65 min
Histogram: 1 0 0 0 0 0 0 0 0 0
Neighs:    162 ave 162 max 162 min
Histogram: 1 0 0 0 0 0 0 0 0 0

Total # of neighbors = 162
Ave neighs/atom = 9
Neighbor list builds = 0
Dangerous builds = 0
        next i
jump SELF loop1
	read_dump orig.dump 0 x y
  orthogonal box = (0 0 -0.280613) to (3.36736 5.83244 0.280613)
  18 atoms before read
  18 atoms in snapshot
  0 atoms purged
  18 atoms replaced
  0 atoms trimmed
  0 atoms added
  18 atoms after read
        variable stretch equal 1+$i*${strainstep}
        variable stretch equal 1+11*${strainstep}
        variable stretch equal 1+11*-0.0005
        change_box all ${direction} scale ${stretch} remap
        change_box all y scale ${stretch} remap
        change_box all y scale 0.9945 remap
  orthogonal box = (0 0.0160392 -0.280613) to (3.36736 5.8164 0.280613)
        min_style ${style}
        min_style cg
        minimize ${etol} ${ftol} ${maxiter} ${maxeval}
        minimize 1e-12 ${ftol} ${maxiter} ${maxeval}
        minimize 1e-12 1e-08 ${maxiter} ${maxeval}
        minimize 1e-12 1e-08 10000 ${maxeval}
        minimize 1e-12 1e-08 10000 20000
WARNING: Resetting reneighboring criteria during minimization (../min.cpp:168)
Memory usage per processor = 3.35099 Mbytes
Step PotEng Pxx Pyy Pxy Lx Ly Lz 
       0   -53.990342  0.060691397   0.17935662 -1.2775463e-16      3.36736    5.8003616   0.56122687 
       1   -53.990342  0.060691397   0.17935662 -1.2775463e-16      3.36736    5.8003616   0.56122687 
Loop time of 5.30854e-05 on 1 procs for 1 steps with 18 atoms

Minimization stats:
  Stopping criterion = linesearch alpha is zero
  Energy initial, next-to-last, final = 
         -53.990342188      -53.990342188      -53.990342188
  Force two-norm initial, final = 0.000884543 0.000884543
  Force max component initial, final = 0.000222209 0.000222209
  Final line search alpha, max atom move = 0.015625 3.47202e-06
  Iterations, force evaluations = 1 7

Pair  time (%) = 3.40085e-05 (64.0638)
Neigh time (%) = 0 (0)
Comm  time (%) = 4.36057e-06 (8.21425)
Outpt time (%) = 0 (0)
Other time (%) = 1.47163e-05 (27.7219)

Nlocal:    18 ave 18 max 18 min
Histogram: 1 0 0 0 0 0 0 0 0 0
Nghost:    65 ave 65 max 65 min
Histogram: 1 0 0 0 0 0 0 0 0 0
Neighs:    162 ave 162 max 162 min
Histogram: 1 0 0 0 0 0 0 0 0 0

Total # of neighbors = 162
Ave neighs/atom = 9
Neighbor list builds = 0
Dangerous builds = 0
        next i
jump SELF loop1
	read_dump orig.dump 0 x y
  orthogonal box = (0 0 -0.280613) to (3.36736 5.83244 0.280613)
  18 atoms before read
  18 atoms in snapshot
  0 atoms purged
  18 atoms replaced
  0 atoms trimmed
  0 atoms added
  18 atoms after read
        variable stretch equal 1+$i*${strainstep}
        variable stretch equal 1+12*${strainstep}
        variable stretch equal 1+12*-0.0005
        change_box all ${direction} scale ${stretch} remap
        change_box all y scale ${stretch} remap
        change_box all y scale 0.994 remap
  orthogonal box = (0 0.0174973 -0.280613) to (3.36736 5.81494 0.280613)
        min_style ${style}
        min_style cg
        minimize ${etol} ${ftol} ${maxiter} ${maxeval}
        minimize 1e-12 ${ftol} ${maxiter} ${maxeval}
        minimize 1e-12 1e-08 ${maxiter} ${maxeval}
        minimize 1e-12 1e-08 10000 ${maxeval}
        minimize 1e-12 1e-08 10000 20000
WARNING: Resetting reneighboring criteria during minimization (../min.cpp:168)
Memory usage per processor = 3.35099 Mbytes
Step PotEng Pxx Pyy Pxy Lx Ly Lz 
       0    -53.98848  0.066378992   0.19603461 -1.5672878e-16      3.36736    5.7974454   0.56122687 
       1    -53.98848  0.066378992   0.19603461 -1.5672878e-16      3.36736    5.7974454   0.56122687 
Loop time of 5.29757e-05 on 1 procs for 1 steps with 18 atoms

Minimization stats:
  Stopping criterion = linesearch alpha is zero
  Energy initial, next-to-last, final = 
        -53.9884797318     -53.9884797318     -53.9884797318
  Force two-norm initial, final = 0.000888912 0.000888912
  Force max component initial, final = 0.000223502 0.000223502
  Final line search alpha, max atom move = 0.015625 3.49222e-06
  Iterations, force evaluations = 1 7

Pair  time (%) = 3.19385e-05 (60.289)
Neigh time (%) = 0 (0)
Comm  time (%) = 5.65115e-06 (10.6674)
Outpt time (%) = 0 (0)
Other time (%) = 1.5386e-05 (29.0436)

Nlocal:    18 ave 18 max 18 min
Histogram: 1 0 0 0 0 0 0 0 0 0
Nghost:    65 ave 65 max 65 min
Histogram: 1 0 0 0 0 0 0 0 0 0
Neighs:    162 ave 162 max 162 min
Histogram: 1 0 0 0 0 0 0 0 0 0

Total # of neighbors = 162
Ave neighs/atom = 9
Neighbor list builds = 0
Dangerous builds = 0
        next i
jump SELF loop1
	read_dump orig.dump 0 x y
  orthogonal box = (0 0 -0.280613) to (3.36736 5.83244 0.280613)
  18 atoms before read
  18 atoms in snapshot
  0 atoms purged
  18 atoms replaced
  0 atoms trimmed
  0 atoms added
  18 atoms after read
        variable stretch equal 1+$i*${strainstep}
        variable stretch equal 1+13*${strainstep}
        variable stretch equal 1+13*-0.0005
        change_box all ${direction} scale ${stretch} remap
        change_box all y scale ${stretch} remap
        change_box all y scale 0.9935 remap
  orthogonal box = (0 0.0189554 -0.280613) to (3.36736 5.81348 0.280613)
        min_style ${style}
        min_style cg
        minimize ${etol} ${ftol} ${maxiter} ${maxeval}
        minimize 1e-12 ${ftol} ${maxiter} ${maxeval}
        minimize 1e-12 1e-08 ${maxiter} ${maxeval}
        minimize 1e-12 1e-08 10000 ${maxeval}
        minimize 1e-12 1e-08 10000 20000
WARNING: Resetting reneighboring criteria during minimization (../min.cpp:168)
Memory usage per processor = 3.35099 Mbytes
Step PotEng Pxx Pyy Pxy Lx Ly Lz 
       0   -53.986482  0.072095044   0.21276304 -1.8951193e-16      3.36736    5.7945291   0.56122687 
       1   -53.986482  0.072095044   0.21276304 -1.8951193e-16      3.36736    5.7945291   0.56122687 
Loop time of 5.30408e-05 on 1 procs for 1 steps with 18 atoms

Minimization stats:
  Stopping criterion = linesearch alpha is zero
  Energy initial, next-to-last, final = 
        -53.9864822051     -53.9864822051     -53.9864822051
  Force two-norm initial, final = 0.0008933 0.0008933
  Force max component initial, final = 0.000224799 0.000224799
  Final line search alpha, max atom move = 0.015625 3.51249e-06
  Iterations, force evaluations = 1 7

Pair  time (%) = 3.185e-05 (60.048)
Neigh time (%) = 0 (0)
Comm  time (%) = 8.5202e-06 (16.0635)
Outpt time (%) = 0 (0)
Other time (%) = 1.26706e-05 (23.8885)

Nlocal:    18 ave 18 max 18 min
Histogram: 1 0 0 0 0 0 0 0 0 0
Nghost:    65 ave 65 max 65 min
Histogram: 1 0 0 0 0 0 0 0 0 0
Neighs:    162 ave 162 max 162 min
Histogram: 1 0 0 0 0 0 0 0 0 0

Total # of neighbors = 162
Ave neighs/atom = 9
Neighbor list builds = 0
Dangerous builds = 0
        next i
jump SELF loop1
	read_dump orig.dump 0 x y
  orthogonal box = (0 0 -0.280613) to (3.36736 5.83244 0.280613)
  18 atoms before read
  18 atoms in snapshot
  0 atoms purged
  18 atoms replaced
  0 atoms trimmed
  0 atoms added
  18 atoms after read
        variable stretch equal 1+$i*${strainstep}
        variable stretch equal 1+14*${strainstep}
        variable stretch equal 1+14*-0.0005
        change_box all ${direction} scale ${stretch} remap
        change_box all y scale ${stretch} remap
        change_box all y scale 0.993 remap
  orthogonal box = (0 0.0204135 -0.280613) to (3.36736 5.81203 0.280613)
        min_style ${style}
        min_style cg
        minimize ${etol} ${ftol} ${maxiter} ${maxeval}
        minimize 1e-12 ${ftol} ${maxiter} ${maxeval}
        minimize 1e-12 1e-08 ${maxiter} ${maxeval}
        minimize 1e-12 1e-08 10000 ${maxeval}
        minimize 1e-12 1e-08 10000 20000
WARNING: Resetting reneighboring criteria during minimization (../min.cpp:168)
Memory usage per processor = 3.35099 Mbytes
Step PotEng Pxx Pyy Pxy Lx Ly Lz 
       0   -53.984336  0.077842057   0.22954909 -1.3704543e-16      3.36736    5.7916129   0.56122687 
       1   -53.984336  0.077842057   0.22954909 -1.3704543e-16      3.36736    5.7916129   0.56122687 
Loop time of 0.000455007 on 1 procs for 1 steps with 18 atoms

Minimization stats:
  Stopping criterion = linesearch alpha is zero
  Energy initial, next-to-last, final = 
        -53.9843364171     -53.9843364171     -53.9843364171
  Force two-norm initial, final = 0.000891816 0.000891816
  Force max component initial, final = 0.000224345 0.000224345
  Final line search alpha, max atom move = 0.015625 3.50539e-06
  Iterations, force evaluations = 1 7

Pair  time (%) = 0.000303958 (66.803)
Neigh time (%) = 0 (0)
Comm  time (%) = 3.24168e-05 (7.12446)
Outpt time (%) = 0 (0)
Other time (%) = 0.000118632 (26.0725)

Nlocal:    18 ave 18 max 18 min
Histogram: 1 0 0 0 0 0 0 0 0 0
Nghost:    65 ave 65 max 65 min
Histogram: 1 0 0 0 0 0 0 0 0 0
Neighs:    162 ave 162 max 162 min
Histogram: 1 0 0 0 0 0 0 0 0 0

Total # of neighbors = 162
Ave neighs/atom = 9
Neighbor list builds = 0
Dangerous builds = 0
        next i
jump SELF loop1
	read_dump orig.dump 0 x y
  orthogonal box = (0 0 -0.280613) to (3.36736 5.83244 0.280613)
  18 atoms before read
  18 atoms in snapshot
  0 atoms purged
  18 atoms replaced
  0 atoms trimmed
  0 atoms added
  18 atoms after read
        variable stretch equal 1+$i*${strainstep}
        variable stretch equal 1+15*${strainstep}
        variable stretch equal 1+15*-0.0005
        change_box all ${direction} scale ${stretch} remap
        change_box all y scale ${stretch} remap
        change_box all y scale 0.9925 remap
  orthogonal box = (0 0.0218716 -0.280613) to (3.36736 5.81057 0.280613)
        min_style ${style}
        min_style cg
        minimize ${etol} ${ftol} ${maxiter} ${maxeval}
        minimize 1e-12 ${ftol} ${maxiter} ${maxeval}
        minimize 1e-12 1e-08 ${maxiter} ${maxeval}
        minimize 1e-12 1e-08 10000 ${maxeval}
        minimize 1e-12 1e-08 10000 20000
WARNING: Resetting reneighboring criteria during minimization (../min.cpp:168)
Memory usage per processor = 3.35099 Mbytes
Step PotEng Pxx Pyy Pxy Lx Ly Lz 
       0   -53.981969  0.083633958   0.24643368 6.8108093e-18      3.36736    5.7886967   0.56122687 
       1   -53.981969  0.083633958   0.24643368 6.8108093e-18      3.36736    5.7886967   0.56122687 
Loop time of 5.80784e-05 on 1 procs for 1 steps with 18 atoms

Minimization stats:
  Stopping criterion = linesearch alpha is zero
  Energy initial, next-to-last, final = 
        -53.9819685392     -53.9819685392     -53.9819685392
  Force two-norm initial, final = 0.00089622 0.00089622
  Force max component initial, final = 0.000225646 0.000225646
  Final line search alpha, max atom move = 0.0078125 1.76286e-06
  Iterations, force evaluations = 1 8

Pair  time (%) = 3.62612e-05 (62.4348)
Neigh time (%) = 0 (0)
Comm  time (%) = 6.95814e-06 (11.9806)
Outpt time (%) = 0 (0)
Other time (%) = 1.48591e-05 (25.5846)

Nlocal:    18 ave 18 max 18 min
Histogram: 1 0 0 0 0 0 0 0 0 0
Nghost:    65 ave 65 max 65 min
Histogram: 1 0 0 0 0 0 0 0 0 0
Neighs:    162 ave 162 max 162 min
Histogram: 1 0 0 0 0 0 0 0 0 0

Total # of neighbors = 162
Ave neighs/atom = 9
Neighbor list builds = 0
Dangerous builds = 0
        next i
jump SELF loop1
	read_dump orig.dump 0 x y
  orthogonal box = (0 0 -0.280613) to (3.36736 5.83244 0.280613)
  18 atoms before read
  18 atoms in snapshot
  0 atoms purged
  18 atoms replaced
  0 atoms trimmed
  0 atoms added
  18 atoms after read
        variable stretch equal 1+$i*${strainstep}
        variable stretch equal 1+16*${strainstep}
        variable stretch equal 1+16*-0.0005
        change_box all ${direction} scale ${stretch} remap
        change_box all y scale ${stretch} remap
        change_box all y scale 0.992 remap
  orthogonal box = (0 0.0233298 -0.280613) to (3.36736 5.80911 0.280613)
        min_style ${style}
        min_style cg
        minimize ${etol} ${ftol} ${maxiter} ${maxeval}
        minimize 1e-12 ${ftol} ${maxiter} ${maxeval}
        minimize 1e-12 1e-08 ${maxiter} ${maxeval}
        minimize 1e-12 1e-08 10000 ${maxeval}
        minimize 1e-12 1e-08 10000 20000
WARNING: Resetting reneighboring criteria during minimization (../min.cpp:168)
Memory usage per processor = 3.35099 Mbytes
Step PotEng Pxx Pyy Pxy Lx Ly Lz 
       0   -53.979464  0.089454698   0.26336903 -6.8826906e-17      3.36736    5.7857805   0.56122687 
       1   -53.979464  0.089454698   0.26336903 -6.8826906e-17      3.36736    5.7857805   0.56122687 
Loop time of 5.70052e-05 on 1 procs for 1 steps with 18 atoms

Minimization stats:
  Stopping criterion = linesearch alpha is zero
  Energy initial, next-to-last, final = 
        -53.9794641423     -53.9794641423     -53.9794641423
  Force two-norm initial, final = 0.000900655 0.000900655
  Force max component initial, final = 0.000226956 0.000226956
  Final line search alpha, max atom move = 0.0078125 1.77309e-06
  Iterations, force evaluations = 1 8

Pair  time (%) = 3.5841e-05 (62.8732)
Neigh time (%) = 0 (0)
Comm  time (%) = 9.50217e-06 (16.6689)
Outpt time (%) = 0 (0)
Other time (%) = 1.1662e-05 (20.4578)

Nlocal:    18 ave 18 max 18 min
Histogram: 1 0 0 0 0 0 0 0 0 0
Nghost:    65 ave 65 max 65 min
Histogram: 1 0 0 0 0 0 0 0 0 0
Neighs:    162 ave 162 max 162 min
Histogram: 1 0 0 0 0 0 0 0 0 0

Total # of neighbors = 162
Ave neighs/atom = 9
Neighbor list builds = 0
Dangerous builds = 0
        next i
jump SELF loop1
	read_dump orig.dump 0 x y
  orthogonal box = (0 0 -0.280613) to (3.36736 5.83244 0.280613)
  18 atoms before read
  18 atoms in snapshot
  0 atoms purged
  18 atoms replaced
  0 atoms trimmed
  0 atoms added
  18 atoms after read
        variable stretch equal 1+$i*${strainstep}
        variable stretch equal 1+17*${strainstep}
        variable stretch equal 1+17*-0.0005
        change_box all ${direction} scale ${stretch} remap
        change_box all y scale ${stretch} remap
        change_box all y scale 0.9915 remap
  orthogonal box = (0 0.0247879 -0.280613) to (3.36736 5.80765 0.280613)
        min_style ${style}
        min_style cg
        minimize ${etol} ${ftol} ${maxiter} ${maxeval}
        minimize 1e-12 ${ftol} ${maxiter} ${maxeval}
        minimize 1e-12 1e-08 ${maxiter} ${maxeval}
        minimize 1e-12 1e-08 10000 ${maxeval}
        minimize 1e-12 1e-08 10000 20000
WARNING: Resetting reneighboring criteria during minimization (../min.cpp:168)
Memory usage per processor = 3.35099 Mbytes
Step PotEng Pxx Pyy Pxy Lx Ly Lz 
       0   -53.976823  0.095304297   0.28035499 2.1046276e-16      3.36736    5.7828643   0.56122687 
       1   -53.976823  0.095304297   0.28035499 2.1046276e-16      3.36736    5.7828643   0.56122687 
Loop time of 5.80304e-05 on 1 procs for 1 steps with 18 atoms

Minimization stats:
  Stopping criterion = linesearch alpha is zero
  Energy initial, next-to-last, final = 
        -53.9768233051     -53.9768233051     -53.9768233051
  Force two-norm initial, final = 0.000905109 0.000905109
  Force max component initial, final = 0.00022827 0.00022827
  Final line search alpha, max atom move = 0.0078125 1.78336e-06
  Iterations, force evaluations = 1 8

Pair  time (%) = 3.70134e-05 (63.7829)
Neigh time (%) = 0 (0)
Comm  time (%) = 4.60201e-06 (7.93036)
Outpt time (%) = 0 (0)
Other time (%) = 1.64149e-05 (28.2868)

Nlocal:    18 ave 18 max 18 min
Histogram: 1 0 0 0 0 0 0 0 0 0
Nghost:    65 ave 65 max 65 min
Histogram: 1 0 0 0 0 0 0 0 0 0
Neighs:    162 ave 162 max 162 min
Histogram: 1 0 0 0 0 0 0 0 0 0

Total # of neighbors = 162
Ave neighs/atom = 9
Neighbor list builds = 0
Dangerous builds = 0
        next i
jump SELF loop1
	read_dump orig.dump 0 x y
  orthogonal box = (0 0 -0.280613) to (3.36736 5.83244 0.280613)
  18 atoms before read
  18 atoms in snapshot
  0 atoms purged
  18 atoms replaced
  0 atoms trimmed
  0 atoms added
  18 atoms after read
        variable stretch equal 1+$i*${strainstep}
        variable stretch equal 1+18*${strainstep}
        variable stretch equal 1+18*-0.0005
        change_box all ${direction} scale ${stretch} remap
        change_box all y scale ${stretch} remap
        change_box all y scale 0.991 remap
  orthogonal box = (0 0.026246 -0.280613) to (3.36736 5.80619 0.280613)
        min_style ${style}
        min_style cg
        minimize ${etol} ${ftol} ${maxiter} ${maxeval}
        minimize 1e-12 ${ftol} ${maxiter} ${maxeval}
        minimize 1e-12 1e-08 ${maxiter} ${maxeval}
        minimize 1e-12 1e-08 10000 ${maxeval}
        minimize 1e-12 1e-08 10000 20000
WARNING: Resetting reneighboring criteria during minimization (../min.cpp:168)
Memory usage per processor = 3.35099 Mbytes
Step PotEng Pxx Pyy Pxy Lx Ly Lz 
       0   -53.973968   0.10119743   0.29743456 -1.9374873e-16      3.36736     5.779948   0.56122687 
       1   -53.973968   0.10119743   0.29743456 -1.9374873e-16      3.36736     5.779948   0.56122687 
Loop time of 5.69571e-05 on 1 procs for 1 steps with 18 atoms

Minimization stats:
  Stopping criterion = linesearch alpha is zero
  Energy initial, next-to-last, final = 
        -53.9739679813     -53.9739679813     -53.9739679813
  Force two-norm initial, final = 0.000903594 0.000903594
  Force max component initial, final = 0.000227807 0.000227807
  Final line search alpha, max atom move = 0.0078125 1.77974e-06
  Iterations, force evaluations = 1 8

Pair  time (%) = 3.68386e-05 (64.6777)
Neigh time (%) = 0 (0)
Comm  time (%) = 8.30553e-06 (14.5821)
Outpt time (%) = 0 (0)
Other time (%) = 1.1813e-05 (20.7402)

Nlocal:    18 ave 18 max 18 min
Histogram: 1 0 0 0 0 0 0 0 0 0
Nghost:    65 ave 65 max 65 min
Histogram: 1 0 0 0 0 0 0 0 0 0
Neighs:    162 ave 162 max 162 min
Histogram: 1 0 0 0 0 0 0 0 0 0

Total # of neighbors = 162
Ave neighs/atom = 9
Neighbor list builds = 0
Dangerous builds = 0
        next i
jump SELF loop1
	read_dump orig.dump 0 x y
  orthogonal box = (0 0 -0.280613) to (3.36736 5.83244 0.280613)
  18 atoms before read
  18 atoms in snapshot
  0 atoms purged
  18 atoms replaced
  0 atoms trimmed
  0 atoms added
  18 atoms after read
        variable stretch equal 1+$i*${strainstep}
        variable stretch equal 1+19*${strainstep}
        variable stretch equal 1+19*-0.0005
        change_box all ${direction} scale ${stretch} remap
        change_box all y scale ${stretch} remap
        change_box all y scale 0.9905 remap
  orthogonal box = (0 0.0277041 -0.280613) to (3.36736 5.80474 0.280613)
        min_style ${style}
        min_style cg
        minimize ${etol} ${ftol} ${maxiter} ${maxeval}
        minimize 1e-12 ${ftol} ${maxiter} ${maxeval}
        minimize 1e-12 1e-08 ${maxiter} ${maxeval}
        minimize 1e-12 1e-08 10000 ${maxeval}
        minimize 1e-12 1e-08 10000 20000
WARNING: Resetting reneighboring criteria during minimization (../min.cpp:168)
Memory usage per processor = 3.35099 Mbytes
Step PotEng Pxx Pyy Pxy Lx Ly Lz 
       0   -53.970951   0.10712432   0.31457856 -9.2868656e-17      3.36736    5.7770318   0.56122687 
       1   -53.970951   0.10712432   0.31457856 -9.2868656e-17      3.36736    5.7770318   0.56122687 
Loop time of 5.79822e-05 on 1 procs for 1 steps with 18 atoms

Minimization stats:
  Stopping criterion = linesearch alpha is zero
  Energy initial, next-to-last, final = 
         -53.970950598      -53.970950598      -53.970950598
  Force two-norm initial, final = 0.000908076 0.000908076
  Force max component initial, final = 0.000229129 0.000229129
  Final line search alpha, max atom move = 0.0078125 1.79007e-06
  Iterations, force evaluations = 1 8

Pair  time (%) = 3.88722e-05 (67.0417)
Neigh time (%) = 0 (0)
Comm  time (%) = 6.88899e-06 (11.8812)
Outpt time (%) = 0 (0)
Other time (%) = 1.22209e-05 (21.0771)

Nlocal:    18 ave 18 max 18 min
Histogram: 1 0 0 0 0 0 0 0 0 0
Nghost:    65 ave 65 max 65 min
Histogram: 1 0 0 0 0 0 0 0 0 0
Neighs:    162 ave 162 max 162 min
Histogram: 1 0 0 0 0 0 0 0 0 0

Total # of neighbors = 162
Ave neighs/atom = 9
Neighbor list builds = 0
Dangerous builds = 0
        next i
jump SELF loop1
	read_dump orig.dump 0 x y
  orthogonal box = (0 0 -0.280613) to (3.36736 5.83244 0.280613)
  18 atoms before read
  18 atoms in snapshot
  0 atoms purged
  18 atoms replaced
  0 atoms trimmed
  0 atoms added
  18 atoms after read
        variable stretch equal 1+$i*${strainstep}
        variable stretch equal 1+20*${strainstep}
        variable stretch equal 1+20*-0.0005
        change_box all ${direction} scale ${stretch} remap
        change_box all y scale ${stretch} remap
        change_box all y scale 0.99 remap
  orthogonal box = (0 0.0291622 -0.280613) to (3.36736 5.80328 0.280613)
        min_style ${style}
        min_style cg
        minimize ${etol} ${ftol} ${maxiter} ${maxeval}
        minimize 1e-12 ${ftol} ${maxiter} ${maxeval}
        minimize 1e-12 1e-08 ${maxiter} ${maxeval}
        minimize 1e-12 1e-08 10000 ${maxeval}
        minimize 1e-12 1e-08 10000 20000
WARNING: Resetting reneighboring criteria during minimization (../min.cpp:168)
Memory usage per processor = 3.35099 Mbytes
Step PotEng Pxx Pyy Pxy Lx Ly Lz 
       0   -53.967795   0.11308043   0.33177346 -2.6148846e-16      3.36736    5.7741156   0.56122687 
       1   -53.967795   0.11308043   0.33177346 -2.6148846e-16      3.36736    5.7741156   0.56122687 
Loop time of 5.99091e-05 on 1 procs for 1 steps with 18 atoms

Minimization stats:
  Stopping criterion = linesearch alpha is zero
  Energy initial, next-to-last, final = 
        -53.9677952481     -53.9677952481     -53.9677952481
  Force two-norm initial, final = 0.000912568 0.000912568
  Force max component initial, final = 0.000230453 0.000230453
  Final line search alpha, max atom move = 0.0078125 1.80042e-06
  Iterations, force evaluations = 1 8

Pair  time (%) = 3.77166e-05 (62.9564)
Neigh time (%) = 0 (0)
Comm  time (%) = 5.39247e-06 (9.0011)
Outpt time (%) = 0 (0)
Other time (%) = 1.68e-05 (28.0425)

Nlocal:    18 ave 18 max 18 min
Histogram: 1 0 0 0 0 0 0 0 0 0
Nghost:    65 ave 65 max 65 min
Histogram: 1 0 0 0 0 0 0 0 0 0
Neighs:    162 ave 162 max 162 min
Histogram: 1 0 0 0 0 0 0 0 0 0

Total # of neighbors = 162
Ave neighs/atom = 9
Neighbor list builds = 0
Dangerous builds = 0
        next i
jump SELF loop1
	read_dump orig.dump 0 x y
  orthogonal box = (0 0 -0.280613) to (3.36736 5.83244 0.280613)
  18 atoms before read
  18 atoms in snapshot
  0 atoms purged
  18 atoms replaced
  0 atoms trimmed
  0 atoms added
  18 atoms after read
        variable stretch equal 1+$i*${strainstep}
        variable stretch equal 1+21*${strainstep}
        variable stretch equal 1+21*-0.0005
        change_box all ${direction} scale ${stretch} remap
        change_box all y scale ${stretch} remap
        change_box all y scale 0.9895 remap
  orthogonal box = (0 0.0306203 -0.280613) to (3.36736 5.80182 0.280613)
        min_style ${style}
        min_style cg
        minimize ${etol} ${ftol} ${maxiter} ${maxeval}
        minimize 1e-12 ${ftol} ${maxiter} ${maxeval}
        minimize 1e-12 1e-08 ${maxiter} ${maxeval}
        minimize 1e-12 1e-08 10000 ${maxeval}
        minimize 1e-12 1e-08 10000 20000
WARNING: Resetting reneighboring criteria during minimization (../min.cpp:168)
Memory usage per processor = 3.35099 Mbytes
Step PotEng Pxx Pyy Pxy Lx Ly Lz 
       0   -53.964459   0.11907375   0.34904244 -2.1200953e-16      3.36736    5.7711994   0.56122687 
       1   -53.964459   0.11907375   0.34904244 -2.1200953e-16      3.36736    5.7711994   0.56122687 
Loop time of 5.81071e-05 on 1 procs for 1 steps with 18 atoms

Minimization stats:
  Stopping criterion = linesearch alpha is zero
  Energy initial, next-to-last, final = 
        -53.9644594348     -53.9644594348     -53.9644594348
  Force two-norm initial, final = 0.000911033 0.000911033
  Force max component initial, final = 0.000229984 0.000229984
  Final line search alpha, max atom move = 0.0078125 1.79675e-06
  Iterations, force evaluations = 1 8

Pair  time (%) = 3.62805e-05 (62.4373)
Neigh time (%) = 0 (0)
Comm  time (%) = 9.28191e-06 (15.9738)
Outpt time (%) = 0 (0)
Other time (%) = 1.25447e-05 (21.5889)

Nlocal:    18 ave 18 max 18 min
Histogram: 1 0 0 0 0 0 0 0 0 0
Nghost:    65 ave 65 max 65 min
Histogram: 1 0 0 0 0 0 0 0 0 0
Neighs:    162 ave 162 max 162 min
Histogram: 1 0 0 0 0 0 0 0 0 0

Total # of neighbors = 162
Ave neighs/atom = 9
Neighbor list builds = 0
Dangerous builds = 0
        next i
jump SELF loop1
	read_dump orig.dump 0 x y
  orthogonal box = (0 0 -0.280613) to (3.36736 5.83244 0.280613)
  18 atoms before read
  18 atoms in snapshot
  0 atoms purged
  18 atoms replaced
  0 atoms trimmed
  0 atoms added
  18 atoms after read
        variable stretch equal 1+$i*${strainstep}
        variable stretch equal 1+22*${strainstep}
        variable stretch equal 1+22*-0.0005
        change_box all ${direction} scale ${stretch} remap
        change_box all y scale ${stretch} remap
        change_box all y scale 0.989 remap
  orthogonal box = (0 0.0320784 -0.280613) to (3.36736 5.80036 0.280613)
        min_style ${style}
        min_style cg
        minimize ${etol} ${ftol} ${maxiter} ${maxeval}
        minimize 1e-12 ${ftol} ${maxiter} ${maxeval}
        minimize 1e-12 1e-08 ${maxiter} ${maxeval}
        minimize 1e-12 1e-08 10000 ${maxeval}
        minimize 1e-12 1e-08 10000 20000
WARNING: Resetting reneighboring criteria during minimization (../min.cpp:168)
Memory usage per processor = 3.35099 Mbytes
Step PotEng Pxx Pyy Pxy Lx Ly Lz 
       0   -53.960923   0.12510824    0.3663968 2.0839924e-16      3.36736    5.7682832   0.56122687 
       1   -53.960923   0.12510824    0.3663968 2.0839924e-16      3.36736    5.7682832   0.56122687 
Loop time of 5.80215e-05 on 1 procs for 1 steps with 18 atoms

Minimization stats:
  Stopping criterion = linesearch alpha is zero
  Energy initial, next-to-last, final = 
        -53.9609230205     -53.9609230205     -53.9609230205
  Force two-norm initial, final = 0.000915562 0.000915562
  Force max component initial, final = 0.000231318 0.000231318
  Final line search alpha, max atom move = 0.0078125 1.80717e-06
  Iterations, force evaluations = 1 8

Pair  time (%) = 3.81265e-05 (65.7109)
Neigh time (%) = 0 (0)
Comm  time (%) = 5.63601e-06 (9.71366)
Outpt time (%) = 0 (0)
Other time (%) = 1.4259e-05 (24.5754)

Nlocal:    18 ave 18 max 18 min
Histogram: 1 0 0 0 0 0 0 0 0 0
Nghost:    65 ave 65 max 65 min
Histogram: 1 0 0 0 0 0 0 0 0 0
Neighs:    162 ave 162 max 162 min
Histogram: 1 0 0 0 0 0 0 0 0 0

Total # of neighbors = 162
Ave neighs/atom = 9
Neighbor list builds = 0
Dangerous builds = 0
        next i
jump SELF loop1
	read_dump orig.dump 0 x y
  orthogonal box = (0 0 -0.280613) to (3.36736 5.83244 0.280613)
  18 atoms before read
  18 atoms in snapshot
  0 atoms purged
  18 atoms replaced
  0 atoms trimmed
  0 atoms added
  18 atoms after read
        variable stretch equal 1+$i*${strainstep}
        variable stretch equal 1+23*${strainstep}
        variable stretch equal 1+23*-0.0005
        change_box all ${direction} scale ${stretch} remap
        change_box all y scale ${stretch} remap
        change_box all y scale 0.9885 remap
  orthogonal box = (0 0.0335365 -0.280613) to (3.36736 5.7989 0.280613)
        min_style ${style}
        min_style cg
        minimize ${etol} ${ftol} ${maxiter} ${maxeval}
        minimize 1e-12 ${ftol} ${maxiter} ${maxeval}
        minimize 1e-12 1e-08 ${maxiter} ${maxeval}
        minimize 1e-12 1e-08 10000 ${maxeval}
        minimize 1e-12 1e-08 10000 20000
WARNING: Resetting reneighboring criteria during minimization (../min.cpp:168)
Memory usage per processor = 3.35099 Mbytes
Step PotEng Pxx Pyy Pxy Lx Ly Lz 
       0   -53.957247   0.13117232   0.38380229 -6.7208132e-17      3.36736    5.7653669   0.56122687 
       1   -53.957247   0.13117232   0.38380229 -6.7208132e-17      3.36736    5.7653669   0.56122687 
Loop time of 5.80015e-05 on 1 procs for 1 steps with 18 atoms

Minimization stats:
  Stopping criterion = linesearch alpha is zero
  Energy initial, next-to-last, final = 
        -53.9572473246     -53.9572473246     -53.9572473246
  Force two-norm initial, final = 0.000920095 0.000920095
  Force max component initial, final = 0.000232653 0.000232653
  Final line search alpha, max atom move = 0.0078125 1.8176e-06
  Iterations, force evaluations = 1 8

Pair  time (%) = 3.78997e-05 (65.3426)
Neigh time (%) = 0 (0)
Comm  time (%) = 5.32821e-06 (9.18634)
Outpt time (%) = 0 (0)
Other time (%) = 1.47736e-05 (25.471)

Nlocal:    18 ave 18 max 18 min
Histogram: 1 0 0 0 0 0 0 0 0 0
Nghost:    65 ave 65 max 65 min
Histogram: 1 0 0 0 0 0 0 0 0 0
Neighs:    162 ave 162 max 162 min
Histogram: 1 0 0 0 0 0 0 0 0 0

Total # of neighbors = 162
Ave neighs/atom = 9
Neighbor list builds = 0
Dangerous builds = 0
        next i
jump SELF loop1
	read_dump orig.dump 0 x y
  orthogonal box = (0 0 -0.280613) to (3.36736 5.83244 0.280613)
  18 atoms before read
  18 atoms in snapshot
  0 atoms purged
  18 atoms replaced
  0 atoms trimmed
  0 atoms added
  18 atoms after read
        variable stretch equal 1+$i*${strainstep}
        variable stretch equal 1+24*${strainstep}
        variable stretch equal 1+24*-0.0005
        change_box all ${direction} scale ${stretch} remap
        change_box all y scale ${stretch} remap
        change_box all y scale 0.988 remap
  orthogonal box = (0 0.0349946 -0.280613) to (3.36736 5.79745 0.280613)
        min_style ${style}
        min_style cg
        minimize ${etol} ${ftol} ${maxiter} ${maxeval}
        minimize 1e-12 ${ftol} ${maxiter} ${maxeval}
        minimize 1e-12 1e-08 ${maxiter} ${maxeval}
        minimize 1e-12 1e-08 10000 ${maxeval}
        minimize 1e-12 1e-08 10000 20000
WARNING: Resetting reneighboring criteria during minimization (../min.cpp:168)
Memory usage per processor = 3.35099 Mbytes
Step PotEng Pxx Pyy Pxy Lx Ly Lz 
       0   -53.953425    0.1372673   0.40126249 8.4962735e-17      3.36736    5.7624507   0.56122687 
       1   -53.953425    0.1372673   0.40126249 8.4962735e-17      3.36736    5.7624507   0.56122687 
Loop time of 5.80153e-05 on 1 procs for 1 steps with 18 atoms

Minimization stats:
  Stopping criterion = linesearch alpha is zero
  Energy initial, next-to-last, final = 
        -53.9534254236     -53.9534254236     -53.9534254236
  Force two-norm initial, final = 0.00091854 0.00091854
  Force max component initial, final = 0.000232178 0.000232178
  Final line search alpha, max atom move = 0.0078125 1.81389e-06
  Iterations, force evaluations = 1 8

Pair  time (%) = 3.59322e-05 (61.9356)
Neigh time (%) = 0 (0)
Comm  time (%) = 9.58517e-06 (16.5218)
Outpt time (%) = 0 (0)
Other time (%) = 1.2498e-05 (21.5426)

Nlocal:    18 ave 18 max 18 min
Histogram: 1 0 0 0 0 0 0 0 0 0
Nghost:    65 ave 65 max 65 min
Histogram: 1 0 0 0 0 0 0 0 0 0
Neighs:    162 ave 162 max 162 min
Histogram: 1 0 0 0 0 0 0 0 0 0

Total # of neighbors = 162
Ave neighs/atom = 9
Neighbor list builds = 0
Dangerous builds = 0
        next i
jump SELF loop1
	read_dump orig.dump 0 x y
  orthogonal box = (0 0 -0.280613) to (3.36736 5.83244 0.280613)
  18 atoms before read
  18 atoms in snapshot
  0 atoms purged
  18 atoms replaced
  0 atoms trimmed
  0 atoms added
  18 atoms after read
        variable stretch equal 1+$i*${strainstep}
        variable stretch equal 1+25*${strainstep}
        variable stretch equal 1+25*-0.0005
        change_box all ${direction} scale ${stretch} remap
        change_box all y scale ${stretch} remap
        change_box all y scale 0.9875 remap
  orthogonal box = (0 0.0364527 -0.280613) to (3.36736 5.79599 0.280613)
        min_style ${style}
        min_style cg
        minimize ${etol} ${ftol} ${maxiter} ${maxeval}
        minimize 1e-12 ${ftol} ${maxiter} ${maxeval}
        minimize 1e-12 1e-08 ${maxiter} ${maxeval}
        minimize 1e-12 1e-08 10000 ${maxeval}
        minimize 1e-12 1e-08 10000 20000
WARNING: Resetting reneighboring criteria during minimization (../min.cpp:168)
Memory usage per processor = 3.35099 Mbytes
Step PotEng Pxx Pyy Pxy Lx Ly Lz 
       0   -53.949364   0.14341087   0.41882893 -1.4089455e-16      3.36736    5.7595345   0.56122687 
       1   -53.949364   0.14341087   0.41882893 -1.4089455e-16      3.36736    5.7595345   0.56122687 
Loop time of 5.69886e-05 on 1 procs for 1 steps with 18 atoms

Minimization stats:
  Stopping criterion = linesearch alpha is zero
  Energy initial, next-to-last, final = 
        -53.9493639011     -53.9493639011     -53.9493639011
  Force two-norm initial, final = 0.000923114 0.000923114
  Force max component initial, final = 0.000233524 0.000233524
  Final line search alpha, max atom move = 0.0078125 1.82441e-06
  Iterations, force evaluations = 1 8

Pair  time (%) = 3.56906e-05 (62.6277)
Neigh time (%) = 0 (0)
Comm  time (%) = 8.00937e-06 (14.0544)
Outpt time (%) = 0 (0)
Other time (%) = 1.32886e-05 (23.318)

Nlocal:    18 ave 18 max 18 min
Histogram: 1 0 0 0 0 0 0 0 0 0
Nghost:    65 ave 65 max 65 min
Histogram: 1 0 0 0 0 0 0 0 0 0
Neighs:    162 ave 162 max 162 min
Histogram: 1 0 0 0 0 0 0 0 0 0

Total # of neighbors = 162
Ave neighs/atom = 9
Neighbor list builds = 0
Dangerous builds = 0
        next i
jump SELF loop1
	read_dump orig.dump 0 x y
  orthogonal box = (0 0 -0.280613) to (3.36736 5.83244 0.280613)
  18 atoms before read
  18 atoms in snapshot
  0 atoms purged
  18 atoms replaced
  0 atoms trimmed
  0 atoms added
  18 atoms after read
        variable stretch equal 1+$i*${strainstep}
        variable stretch equal 1+26*${strainstep}
        variable stretch equal 1+26*-0.0005
        change_box all ${direction} scale ${stretch} remap
        change_box all y scale ${stretch} remap
        change_box all y scale 0.987 remap
  orthogonal box = (0 0.0379109 -0.280613) to (3.36736 5.79453 0.280613)
        min_style ${style}
        min_style cg
        minimize ${etol} ${ftol} ${maxiter} ${maxeval}
        minimize 1e-12 ${ftol} ${maxiter} ${maxeval}
        minimize 1e-12 1e-08 ${maxiter} ${maxeval}
        minimize 1e-12 1e-08 10000 ${maxeval}
        minimize 1e-12 1e-08 10000 20000
WARNING: Resetting reneighboring criteria during minimization (../min.cpp:168)
Memory usage per processor = 3.35099 Mbytes
Step PotEng Pxx Pyy Pxy Lx Ly Lz 
       0   -53.945162   0.14958444   0.43644686 5.3682661e-17      3.36736    5.7566183   0.56122687 
       1   -53.945162   0.14958444   0.43644686 5.3682661e-17      3.36736    5.7566183   0.56122687 
Loop time of 6.70687e-05 on 1 procs for 1 steps with 18 atoms

Minimization stats:
  Stopping criterion = linesearch alpha is zero
  Energy initial, next-to-last, final = 
        -53.9451615163     -53.9451615163     -53.9451615163
  Force two-norm initial, final = 0.000927703 0.000927703
  Force max component initial, final = 0.000234873 0.000234873
  Final line search alpha, max atom move = 0.0078125 1.83494e-06
  Iterations, force evaluations = 1 8

Pair  time (%) = 4.07478e-05 (60.7553)
Neigh time (%) = 0 (0)
Comm  time (%) = 8.87865e-06 (13.2381)
Outpt time (%) = 0 (0)
Other time (%) = 1.74423e-05 (26.0066)

Nlocal:    18 ave 18 max 18 min
Histogram: 1 0 0 0 0 0 0 0 0 0
Nghost:    65 ave 65 max 65 min
Histogram: 1 0 0 0 0 0 0 0 0 0
Neighs:    162 ave 162 max 162 min
Histogram: 1 0 0 0 0 0 0 0 0 0

Total # of neighbors = 162
Ave neighs/atom = 9
Neighbor list builds = 0
Dangerous builds = 0
        next i
jump SELF loop1
	read_dump orig.dump 0 x y
  orthogonal box = (0 0 -0.280613) to (3.36736 5.83244 0.280613)
  18 atoms before read
  18 atoms in snapshot
  0 atoms purged
  18 atoms replaced
  0 atoms trimmed
  0 atoms added
  18 atoms after read
        variable stretch equal 1+$i*${strainstep}
        variable stretch equal 1+27*${strainstep}
        variable stretch equal 1+27*-0.0005
        change_box all ${direction} scale ${stretch} remap
        change_box all y scale ${stretch} remap
        change_box all y scale 0.9865 remap
  orthogonal box = (0 0.039369 -0.280613) to (3.36736 5.79307 0.280613)
        min_style ${style}
        min_style cg
        minimize ${etol} ${ftol} ${maxiter} ${maxeval}
        minimize 1e-12 ${ftol} ${maxiter} ${maxeval}
        minimize 1e-12 1e-08 ${maxiter} ${maxeval}
        minimize 1e-12 1e-08 10000 ${maxeval}
        minimize 1e-12 1e-08 10000 20000
WARNING: Resetting reneighboring criteria during minimization (../min.cpp:168)
Memory usage per processor = 3.35099 Mbytes
Step PotEng Pxx Pyy Pxy Lx Ly Lz 
       0   -53.940818   0.15578802   0.45411606 -5.1118948e-17      3.36736    5.7537021   0.56122687 
       1   -53.940818   0.15578802   0.45411606 -5.1118948e-17      3.36736    5.7537021   0.56122687 
Loop time of 5.90628e-05 on 1 procs for 1 steps with 18 atoms

Minimization stats:
  Stopping criterion = linesearch alpha is zero
  Energy initial, next-to-last, final = 
        -53.9408183908     -53.9408183908     -53.9408183908
  Force two-norm initial, final = 0.000932306 0.000932306
  Force max component initial, final = 0.000236225 0.000236225
  Final line search alpha, max atom move = 0.0078125 1.84551e-06
  Iterations, force evaluations = 1 8

Pair  time (%) = 3.72074e-05 (62.9963)
Neigh time (%) = 0 (0)
Comm  time (%) = 5.13566e-06 (8.69525)
Outpt time (%) = 0 (0)
Other time (%) = 1.67198e-05 (28.3085)

Nlocal:    18 ave 18 max 18 min
Histogram: 1 0 0 0 0 0 0 0 0 0
Nghost:    65 ave 65 max 65 min
Histogram: 1 0 0 0 0 0 0 0 0 0
Neighs:    162 ave 162 max 162 min
Histogram: 1 0 0 0 0 0 0 0 0 0

Total # of neighbors = 162
Ave neighs/atom = 9
Neighbor list builds = 0
Dangerous builds = 0
        next i
jump SELF loop1
	read_dump orig.dump 0 x y
  orthogonal box = (0 0 -0.280613) to (3.36736 5.83244 0.280613)
  18 atoms before read
  18 atoms in snapshot
  0 atoms purged
  18 atoms replaced
  0 atoms trimmed
  0 atoms added
  18 atoms after read
        variable stretch equal 1+$i*${strainstep}
        variable stretch equal 1+28*${strainstep}
        variable stretch equal 1+28*-0.0005
        change_box all ${direction} scale ${stretch} remap
        change_box all y scale ${stretch} remap
        change_box all y scale 0.986 remap
  orthogonal box = (0 0.0408271 -0.280613) to (3.36736 5.79161 0.280613)
        min_style ${style}
        min_style cg
        minimize ${etol} ${ftol} ${maxiter} ${maxeval}
        minimize 1e-12 ${ftol} ${maxiter} ${maxeval}
        minimize 1e-12 1e-08 ${maxiter} ${maxeval}
        minimize 1e-12 1e-08 10000 ${maxeval}
        minimize 1e-12 1e-08 10000 20000
WARNING: Resetting reneighboring criteria during minimization (../min.cpp:168)
Memory usage per processor = 3.35099 Mbytes
Step PotEng Pxx Pyy Pxy Lx Ly Lz 
       0   -53.936254   0.16203668   0.47188027 -1.3147059e-16      3.36736    5.7507858   0.56122687 
       1   -53.936254   0.16203668   0.47188027 -1.3147059e-16      3.36736    5.7507858   0.56122687 
Loop time of 5.79163e-05 on 1 procs for 1 steps with 18 atoms

Minimization stats:
  Stopping criterion = linesearch alpha is zero
  Energy initial, next-to-last, final = 
        -53.9362541115     -53.9362541115     -53.9362541115
  Force two-norm initial, final = 0.000930719 0.000930719
  Force max component initial, final = 0.000235742 0.000235742
  Final line search alpha, max atom move = 0.0078125 1.84173e-06
  Iterations, force evaluations = 1 8

Pair  time (%) = 3.59938e-05 (62.1479)
Neigh time (%) = 0 (0)
Comm  time (%) = 7.42369e-06 (12.818)
Outpt time (%) = 0 (0)
Other time (%) = 1.44988e-05 (25.0341)

Nlocal:    18 ave 18 max 18 min
Histogram: 1 0 0 0 0 0 0 0 0 0
Nghost:    65 ave 65 max 65 min
Histogram: 1 0 0 0 0 0 0 0 0 0
Neighs:    162 ave 162 max 162 min
Histogram: 1 0 0 0 0 0 0 0 0 0

Total # of neighbors = 162
Ave neighs/atom = 9
Neighbor list builds = 0
Dangerous builds = 0
        next i
jump SELF loop1
	read_dump orig.dump 0 x y
  orthogonal box = (0 0 -0.280613) to (3.36736 5.83244 0.280613)
  18 atoms before read
  18 atoms in snapshot
  0 atoms purged
  18 atoms replaced
  0 atoms trimmed
  0 atoms added
  18 atoms after read
        variable stretch equal 1+$i*${strainstep}
        variable stretch equal 1+29*${strainstep}
        variable stretch equal 1+29*-0.0005
        change_box all ${direction} scale ${stretch} remap
        change_box all y scale ${stretch} remap
        change_box all y scale 0.9855 remap
  orthogonal box = (0 0.0422852 -0.280613) to (3.36736 5.79015 0.280613)
        min_style ${style}
        min_style cg
        minimize ${etol} ${ftol} ${maxiter} ${maxeval}
        minimize 1e-12 ${ftol} ${maxiter} ${maxeval}
        minimize 1e-12 1e-08 ${maxiter} ${maxeval}
        minimize 1e-12 1e-08 10000 ${maxeval}
        minimize 1e-12 1e-08 10000 20000
WARNING: Resetting reneighboring criteria during minimization (../min.cpp:168)
Memory usage per processor = 3.35099 Mbytes
Step PotEng Pxx Pyy Pxy Lx Ly Lz 
       0   -53.931519   0.16832116   0.48971212 -7.38966e-17      3.36736    5.7478696   0.56122687 
       1   -53.931519   0.16832116   0.48971212 -7.38966e-17      3.36736    5.7478696   0.56122687 
Loop time of 5.70216e-05 on 1 procs for 1 steps with 18 atoms

Minimization stats:
  Stopping criterion = linesearch alpha is zero
  Energy initial, next-to-last, final = 
          -53.93151897       -53.93151897       -53.93151897
  Force two-norm initial, final = 0.000935366 0.000935366
  Force max component initial, final = 0.000237106 0.000237106
  Final line search alpha, max atom move = 0.0078125 1.85239e-06
  Iterations, force evaluations = 1 8

Pair  time (%) = 3.59883e-05 (63.1134)
Neigh time (%) = 0 (0)
Comm  time (%) = 7.65093e-06 (13.4176)
Outpt time (%) = 0 (0)
Other time (%) = 1.33824e-05 (23.469)

Nlocal:    18 ave 18 max 18 min
Histogram: 1 0 0 0 0 0 0 0 0 0
Nghost:    65 ave 65 max 65 min
Histogram: 1 0 0 0 0 0 0 0 0 0
Neighs:    162 ave 162 max 162 min
Histogram: 1 0 0 0 0 0 0 0 0 0

Total # of neighbors = 162
Ave neighs/atom = 9
Neighbor list builds = 0
Dangerous builds = 0
        next i
jump SELF loop1
	read_dump orig.dump 0 x y
  orthogonal box = (0 0 -0.280613) to (3.36736 5.83244 0.280613)
  18 atoms before read
  18 atoms in snapshot
  0 atoms purged
  18 atoms replaced
  0 atoms trimmed
  0 atoms added
  18 atoms after read
        variable stretch equal 1+$i*${strainstep}
        variable stretch equal 1+30*${strainstep}
        variable stretch equal 1+30*-0.0005
        change_box all ${direction} scale ${stretch} remap
        change_box all y scale ${stretch} remap
        change_box all y scale 0.985 remap
  orthogonal box = (0 0.0437433 -0.280613) to (3.36736 5.7887 0.280613)
        min_style ${style}
        min_style cg
        minimize ${etol} ${ftol} ${maxiter} ${maxeval}
        minimize 1e-12 ${ftol} ${maxiter} ${maxeval}
        minimize 1e-12 1e-08 ${maxiter} ${maxeval}
        minimize 1e-12 1e-08 10000 ${maxeval}
        minimize 1e-12 1e-08 10000 20000
WARNING: Resetting reneighboring criteria during minimization (../min.cpp:168)
Memory usage per processor = 3.35099 Mbytes
Step PotEng Pxx Pyy Pxy Lx Ly Lz 
       0   -53.926642   0.17463606   0.50759559 -9.5359984e-17      3.36736    5.7449534   0.56122687 
       1   -53.926642   0.17463606   0.50759559 -9.5359984e-17      3.36736    5.7449534   0.56122687 
Loop time of 5.79553e-05 on 1 procs for 1 steps with 18 atoms

Minimization stats:
  Stopping criterion = linesearch alpha is zero
  Energy initial, next-to-last, final = 
        -53.9266416631     -53.9266416631     -53.9266416631
  Force two-norm initial, final = 0.000940014 0.000940014
  Force max component initial, final = 0.00023847 0.00023847
  Final line search alpha, max atom move = 0.0078125 1.86305e-06
  Iterations, force evaluations = 1 8

Pair  time (%) = 3.77682e-05 (65.1678)
Neigh time (%) = 0 (0)
Comm  time (%) = 8.97248e-06 (15.4817)
Outpt time (%) = 0 (0)
Other time (%) = 1.12146e-05 (19.3505)

Nlocal:    18 ave 18 max 18 min
Histogram: 1 0 0 0 0 0 0 0 0 0
Nghost:    65 ave 65 max 65 min
Histogram: 1 0 0 0 0 0 0 0 0 0
Neighs:    162 ave 162 max 162 min
Histogram: 1 0 0 0 0 0 0 0 0 0

Total # of neighbors = 162
Ave neighs/atom = 9
Neighbor list builds = 0
Dangerous builds = 0
        next i
jump SELF loop1
	read_dump orig.dump 0 x y
  orthogonal box = (0 0 -0.280613) to (3.36736 5.83244 0.280613)
  18 atoms before read
  18 atoms in snapshot
  0 atoms purged
  18 atoms replaced
  0 atoms trimmed
  0 atoms added
  18 atoms after read
        variable stretch equal 1+$i*${strainstep}
        variable stretch equal 1+31*${strainstep}
        variable stretch equal 1+31*-0.0005
        change_box all ${direction} scale ${stretch} remap
        change_box all y scale ${stretch} remap
        change_box all y scale 0.9845 remap
  orthogonal box = (0 0.0452014 -0.280613) to (3.36736 5.78724 0.280613)
        min_style ${style}
        min_style cg
        minimize ${etol} ${ftol} ${maxiter} ${maxeval}
        minimize 1e-12 ${ftol} ${maxiter} ${maxeval}
        minimize 1e-12 1e-08 ${maxiter} ${maxeval}
        minimize 1e-12 1e-08 10000 ${maxeval}
        minimize 1e-12 1e-08 10000 20000
WARNING: Resetting reneighboring criteria during minimization (../min.cpp:168)
Memory usage per processor = 3.35099 Mbytes
Step PotEng Pxx Pyy Pxy Lx Ly Lz 
       0   -53.921575   0.18099013   0.52555589 -1.3350449e-16      3.36736    5.7420372   0.56122687 
       1   -53.921575   0.18099013   0.52555589 -1.3350449e-16      3.36736    5.7420372   0.56122687 
Loop time of 5.8021e-05 on 1 procs for 1 steps with 18 atoms

Minimization stats:
  Stopping criterion = linesearch alpha is zero
  Energy initial, next-to-last, final = 
        -53.9215754943     -53.9215754943     -53.9215754943
  Force two-norm initial, final = 0.000938407 0.000938407
  Force max component initial, final = 0.000237981 0.000237981
  Final line search alpha, max atom move = 0.0078125 1.85923e-06
  Iterations, force evaluations = 1 8

Pair  time (%) = 3.70757e-05 (63.9005)
Neigh time (%) = 0 (0)
Comm  time (%) = 9.82604e-06 (16.9353)
Outpt time (%) = 0 (0)
Other time (%) = 1.11193e-05 (19.1642)

Nlocal:    18 ave 18 max 18 min
Histogram: 1 0 0 0 0 0 0 0 0 0
Nghost:    65 ave 65 max 65 min
Histogram: 1 0 0 0 0 0 0 0 0 0
Neighs:    162 ave 162 max 162 min
Histogram: 1 0 0 0 0 0 0 0 0 0

Total # of neighbors = 162
Ave neighs/atom = 9
Neighbor list builds = 0
Dangerous builds = 0
        next i
jump SELF loop1
	read_dump orig.dump 0 x y
  orthogonal box = (0 0 -0.280613) to (3.36736 5.83244 0.280613)
  18 atoms before read
  18 atoms in snapshot
  0 atoms purged
  18 atoms replaced
  0 atoms trimmed
  0 atoms added
  18 atoms after read
        variable stretch equal 1+$i*${strainstep}
        variable stretch equal 1+32*${strainstep}
        variable stretch equal 1+32*-0.0005
        change_box all ${direction} scale ${stretch} remap
        change_box all y scale ${stretch} remap
        change_box all y scale 0.984 remap
  orthogonal box = (0 0.0466595 -0.280613) to (3.36736 5.78578 0.280613)
        min_style ${style}
        min_style cg
        minimize ${etol} ${ftol} ${maxiter} ${maxeval}
        minimize 1e-12 ${ftol} ${maxiter} ${maxeval}
        minimize 1e-12 1e-08 ${maxiter} ${maxeval}
        minimize 1e-12 1e-08 10000 ${maxeval}
        minimize 1e-12 1e-08 10000 20000
WARNING: Resetting reneighboring criteria during minimization (../min.cpp:168)
Memory usage per processor = 3.35099 Mbytes
Step PotEng Pxx Pyy Pxy Lx Ly Lz 
       0   -53.916302   0.18738707   0.54360348 -1.7152507e-16      3.36736     5.739121   0.56122687 
       1   -53.916302   0.18738707   0.54360348 -1.7152507e-16      3.36736     5.739121   0.56122687 
Loop time of 5.70473e-05 on 1 procs for 1 steps with 18 atoms

Minimization stats:
  Stopping criterion = linesearch alpha is zero
  Energy initial, next-to-last, final = 
        -53.9163016116     -53.9163016116     -53.9163016116
  Force two-norm initial, final = 0.000943095 0.000943095
  Force max component initial, final = 0.000239356 0.000239356
  Final line search alpha, max atom move = 0.0078125 1.86997e-06
  Iterations, force evaluations = 1 8

Pair  time (%) = 3.78885e-05 (66.4159)
Neigh time (%) = 0 (0)
Comm  time (%) = 3.54415e-06 (6.21264)
Outpt time (%) = 0 (0)
Other time (%) = 1.56147e-05 (27.3714)

Nlocal:    18 ave 18 max 18 min
Histogram: 1 0 0 0 0 0 0 0 0 0
Nghost:    65 ave 65 max 65 min
Histogram: 1 0 0 0 0 0 0 0 0 0
Neighs:    162 ave 162 max 162 min
Histogram: 1 0 0 0 0 0 0 0 0 0

Total # of neighbors = 162
Ave neighs/atom = 9
Neighbor list builds = 0
Dangerous builds = 0
        next i
jump SELF loop1
	read_dump orig.dump 0 x y
  orthogonal box = (0 0 -0.280613) to (3.36736 5.83244 0.280613)
  18 atoms before read
  18 atoms in snapshot
  0 atoms purged
  18 atoms replaced
  0 atoms trimmed
  0 atoms added
  18 atoms after read
        variable stretch equal 1+$i*${strainstep}
        variable stretch equal 1+33*${strainstep}
        variable stretch equal 1+33*-0.0005
        change_box all ${direction} scale ${stretch} remap
        change_box all y scale ${stretch} remap
        change_box all y scale 0.9835 remap
  orthogonal box = (0 0.0481176 -0.280613) to (3.36736 5.78432 0.280613)
        min_style ${style}
        min_style cg
        minimize ${etol} ${ftol} ${maxiter} ${maxeval}
        minimize 1e-12 ${ftol} ${maxiter} ${maxeval}
        minimize 1e-12 1e-08 ${maxiter} ${maxeval}
        minimize 1e-12 1e-08 10000 ${maxeval}
        minimize 1e-12 1e-08 10000 20000
WARNING: Resetting reneighboring criteria during minimization (../min.cpp:168)
Memory usage per processor = 3.35099 Mbytes
Step PotEng Pxx Pyy Pxy Lx Ly Lz 
       0   -53.910884    0.1938148   0.56170291 1.4855401e-16      3.36736    5.7362047   0.56122687 
       1   -53.910884    0.1938148   0.56170291 1.4855401e-16      3.36736    5.7362047   0.56122687 
Loop time of 5.81095e-05 on 1 procs for 1 steps with 18 atoms

Minimization stats:
  Stopping criterion = linesearch alpha is zero
  Energy initial, next-to-last, final = 
        -53.9108840534     -53.9108840534     -53.9108840534
  Force two-norm initial, final = 0.000947791 0.000947791
  Force max component initial, final = 0.000240732 0.000240732
  Final line search alpha, max atom move = 0.0078125 1.88072e-06
  Iterations, force evaluations = 1 8

Pair  time (%) = 3.73025e-05 (64.1934)
Neigh time (%) = 0 (0)
Comm  time (%) = 9.37213e-06 (16.1284)
Outpt time (%) = 0 (0)
Other time (%) = 1.14349e-05 (19.6782)

Nlocal:    18 ave 18 max 18 min
Histogram: 1 0 0 0 0 0 0 0 0 0
Nghost:    65 ave 65 max 65 min
Histogram: 1 0 0 0 0 0 0 0 0 0
Neighs:    162 ave 162 max 162 min
Histogram: 1 0 0 0 0 0 0 0 0 0

Total # of neighbors = 162
Ave neighs/atom = 9
Neighbor list builds = 0
Dangerous builds = 0
        next i
jump SELF loop1
	read_dump orig.dump 0 x y
  orthogonal box = (0 0 -0.280613) to (3.36736 5.83244 0.280613)
  18 atoms before read
  18 atoms in snapshot
  0 atoms purged
  18 atoms replaced
  0 atoms trimmed
  0 atoms added
  18 atoms after read
        variable stretch equal 1+$i*${strainstep}
        variable stretch equal 1+34*${strainstep}
        variable stretch equal 1+34*-0.0005
        change_box all ${direction} scale ${stretch} remap
        change_box all y scale ${stretch} remap
        change_box all y scale 0.983 remap
  orthogonal box = (0 0.0495757 -0.280613) to (3.36736 5.78286 0.280613)
        min_style ${style}
        min_style cg
        minimize ${etol} ${ftol} ${maxiter} ${maxeval}
        minimize 1e-12 ${ftol} ${maxiter} ${maxeval}
        minimize 1e-12 1e-08 ${maxiter} ${maxeval}
        minimize 1e-12 1e-08 10000 ${maxeval}
        minimize 1e-12 1e-08 10000 20000
WARNING: Resetting reneighboring criteria during minimization (../min.cpp:168)
Memory usage per processor = 3.35099 Mbytes
Step PotEng Pxx Pyy Pxy Lx Ly Lz 
       0    -53.90531   0.20027581   0.57986118 7.5713139e-17      3.36736    5.7332885   0.56122687 
       1    -53.90531   0.20027581   0.57986118 7.5713139e-17      3.36736    5.7332885   0.56122687 
Loop time of 6.49415e-05 on 1 procs for 1 steps with 18 atoms

Minimization stats:
  Stopping criterion = linesearch alpha is zero
  Energy initial, next-to-last, final = 
         -53.905309557      -53.905309557      -53.905309557
  Force two-norm initial, final = 0.000946163 0.000946163
  Force max component initial, final = 0.000240237 0.000240237
  Final line search alpha, max atom move = 0.0078125 1.87685e-06
  Iterations, force evaluations = 1 8

Pair  time (%) = 3.98695e-05 (61.3929)
Neigh time (%) = 0 (0)
Comm  time (%) = 5.69143e-06 (8.76394)
Outpt time (%) = 0 (0)
Other time (%) = 1.93806e-05 (29.8432)

Nlocal:    18 ave 18 max 18 min
Histogram: 1 0 0 0 0 0 0 0 0 0
Nghost:    65 ave 65 max 65 min
Histogram: 1 0 0 0 0 0 0 0 0 0
Neighs:    162 ave 162 max 162 min
Histogram: 1 0 0 0 0 0 0 0 0 0

Total # of neighbors = 162
Ave neighs/atom = 9
Neighbor list builds = 0
Dangerous builds = 0
        next i
jump SELF loop1
	read_dump orig.dump 0 x y
  orthogonal box = (0 0 -0.280613) to (3.36736 5.83244 0.280613)
  18 atoms before read
  18 atoms in snapshot
  0 atoms purged
  18 atoms replaced
  0 atoms trimmed
  0 atoms added
  18 atoms after read
        variable stretch equal 1+$i*${strainstep}
        variable stretch equal 1+35*${strainstep}
        variable stretch equal 1+35*-0.0005
        change_box all ${direction} scale ${stretch} remap
        change_box all y scale ${stretch} remap
        change_box all y scale 0.9825 remap
  orthogonal box = (0 0.0510338 -0.280613) to (3.36736 5.78141 0.280613)
        min_style ${style}
        min_style cg
[...]
        min_style ${style}
        min_style cg
        minimize ${etol} ${ftol} ${maxiter} ${maxeval}
        minimize 1e-12 ${ftol} ${maxiter} ${maxeval}
        minimize 1e-12 1e-08 ${maxiter} ${maxeval}
        minimize 1e-12 1e-08 10000 ${maxeval}
        minimize 1e-12 1e-08 10000 20000
WARNING: Resetting reneighboring criteria during minimization (../min.cpp:168)
Memory usage per processor = 3.35099 Mbytes
Step PotEng Pxx Pyy Pxy Lx Ly Lz 
       0   -53.250746   0.64540838    1.7614993 -4.5264955e-16      3.36736    5.5641478   0.56122687 
       1   -53.250746   0.64540803     1.761498 -3.9684376e-16      3.36736    5.5641478   0.56122687 
       2   -53.250746   0.64540803     1.761498 -3.9684376e-16      3.36736    5.5641478   0.56122687 
Loop time of 0.000152068 on 1 procs for 2 steps with 18 atoms

Minimization stats:
  Stopping criterion = linesearch alpha is zero
  Energy initial, next-to-last, final = 
        -53.2507460953     -53.2507463318     -53.2507463318
  Force two-norm initial, final = 0.00112079 0.041281
  Force max component initial, final = 0.000290422 0.01108
  Final line search alpha, max atom move = 3.8147e-06 4.2267e-08
  Iterations, force evaluations = 2 22

Pair  time (%) = 9.71291e-05 (63.8721)
Neigh time (%) = 0 (0)
Comm  time (%) = 2.08118e-05 (13.6858)
Outpt time (%) = 3.98105e-06 (2.61794)
Other time (%) = 3.01462e-05 (19.8241)

Nlocal:    18 ave 18 max 18 min
Histogram: 1 0 0 0 0 0 0 0 0 0
Nghost:    65 ave 65 max 65 min
Histogram: 1 0 0 0 0 0 0 0 0 0
Neighs:    162 ave 162 max 162 min
Histogram: 1 0 0 0 0 0 0 0 0 0

Total # of neighbors = 162
Ave neighs/atom = 9
Neighbor list builds = 0
Dangerous builds = 0
        next i
jump SELF loop1
	read_dump orig.dump 0 x y
  orthogonal box = (0 0 -0.280613) to (3.36736 5.83244 0.280613)
  18 atoms before read
  18 atoms in snapshot
  0 atoms purged
  18 atoms replaced
  0 atoms trimmed
  0 atoms added
  18 atoms after read
        variable stretch equal 1+$i*${strainstep}
        variable stretch equal 1+93*${strainstep}
        variable stretch equal 1+93*-0.0005
        change_box all ${direction} scale ${stretch} remap
        change_box all y scale ${stretch} remap
        change_box all y scale 0.9535 remap
  orthogonal box = (0 0.135604 -0.280613) to (3.36736 5.69684 0.280613)
        min_style ${style}
        min_style cg
        minimize ${etol} ${ftol} ${maxiter} ${maxeval}
        minimize 1e-12 ${ftol} ${maxiter} ${maxeval}
        minimize 1e-12 1e-08 ${maxiter} ${maxeval}
        minimize 1e-12 1e-08 10000 ${maxeval}
        minimize 1e-12 1e-08 10000 20000
WARNING: Resetting reneighboring criteria during minimization (../min.cpp:168)
Memory usage per processor = 3.35099 Mbytes
Step PotEng Pxx Pyy Pxy Lx Ly Lz 
       0   -53.233319    0.6544083    1.7842002 -1.6427456e-16      3.36736    5.5612315   0.56122687 
       1   -53.233319   0.65440795    1.7841988 1.0105195e-16      3.36736    5.5612315   0.56122687 
       2   -53.233319   0.65440795    1.7841988 1.0105195e-16      3.36736    5.5612315   0.56122687 
Loop time of 0.000174934 on 1 procs for 2 steps with 18 atoms

Minimization stats:
  Stopping criterion = linesearch alpha is zero
  Energy initial, next-to-last, final = 
        -53.2333188005     -53.2333190443     -53.2333190443
  Force two-norm initial, final = 0.00112655 0.0417453
  Force max component initial, final = 0.000292073 0.011214
  Final line search alpha, max atom move = 3.8147e-06 4.27781e-08
  Iterations, force evaluations = 2 22

Pair  time (%) = 0.000121099 (69.2255)
Neigh time (%) = 0 (0)
Comm  time (%) = 1.76318e-05 (10.0791)
Outpt time (%) = 6.90669e-06 (3.94817)
Other time (%) = 2.92965e-05 (16.7472)

Nlocal:    18 ave 18 max 18 min
Histogram: 1 0 0 0 0 0 0 0 0 0
Nghost:    65 ave 65 max 65 min
Histogram: 1 0 0 0 0 0 0 0 0 0
Neighs:    162 ave 162 max 162 min
Histogram: 1 0 0 0 0 0 0 0 0 0

Total # of neighbors = 162
Ave neighs/atom = 9
Neighbor list builds = 0
Dangerous builds = 0
        next i
jump SELF loop1
	read_dump orig.dump 0 x y
  orthogonal box = (0 0 -0.280613) to (3.36736 5.83244 0.280613)
  18 atoms before read
  18 atoms in snapshot
  0 atoms purged
  18 atoms replaced
  0 atoms trimmed
  0 atoms added
  18 atoms after read
        variable stretch equal 1+$i*${strainstep}
        variable stretch equal 1+94*${strainstep}
        variable stretch equal 1+94*-0.0005
        change_box all ${direction} scale ${stretch} remap
        change_box all y scale ${stretch} remap
        change_box all y scale 0.953 remap
  orthogonal box = (0 0.137062 -0.280613) to (3.36736 5.69538 0.280613)
        min_style ${style}
        min_style cg
        minimize ${etol} ${ftol} ${maxiter} ${maxeval}
        minimize 1e-12 ${ftol} ${maxiter} ${maxeval}
        minimize 1e-12 1e-08 ${maxiter} ${maxeval}
        minimize 1e-12 1e-08 10000 ${maxeval}
        minimize 1e-12 1e-08 10000 20000
WARNING: Resetting reneighboring criteria during minimization (../min.cpp:168)
Memory usage per processor = 3.35099 Mbytes
Step PotEng Pxx Pyy Pxy Lx Ly Lz 
       0   -53.215722     0.663447    1.8069562 -2.1177941e-16      3.36736    5.5583153   0.56122687 
       1   -53.215722     0.663447    1.8069562 -2.1177941e-16      3.36736    5.5583153   0.56122687 
Loop time of 8.10999e-05 on 1 procs for 1 steps with 18 atoms

Minimization stats:
  Stopping criterion = linesearch alpha is zero
  Energy initial, next-to-last, final = 
        -53.2157218874     -53.2157218874     -53.2157218874
  Force two-norm initial, final = 0.00113231 0.00113231
  Force max component initial, final = 0.000293723 0.000293723
  Final line search alpha, max atom move = 0.0078125 2.29471e-06
  Iterations, force evaluations = 1 8

Pair  time (%) = 5.68909e-05 (70.1491)
Neigh time (%) = 0 (0)
Comm  time (%) = 9.95223e-06 (12.2716)
Outpt time (%) = 0 (0)
Other time (%) = 1.42568e-05 (17.5793)

Nlocal:    18 ave 18 max 18 min
Histogram: 1 0 0 0 0 0 0 0 0 0
Nghost:    65 ave 65 max 65 min
Histogram: 1 0 0 0 0 0 0 0 0 0
Neighs:    162 ave 162 max 162 min
Histogram: 1 0 0 0 0 0 0 0 0 0

Total # of neighbors = 162
Ave neighs/atom = 9
Neighbor list builds = 0
Dangerous builds = 0
        next i
jump SELF loop1
	read_dump orig.dump 0 x y
  orthogonal box = (0 0 -0.280613) to (3.36736 5.83244 0.280613)
  18 atoms before read
  18 atoms in snapshot
  0 atoms purged
  18 atoms replaced
  0 atoms trimmed
  0 atoms added
  18 atoms after read
        variable stretch equal 1+$i*${strainstep}
        variable stretch equal 1+95*${strainstep}
        variable stretch equal 1+95*-0.0005
        change_box all ${direction} scale ${stretch} remap
        change_box all y scale ${stretch} remap
        change_box all y scale 0.9525 remap
  orthogonal box = (0 0.13852 -0.280613) to (3.36736 5.69392 0.280613)
        min_style ${style}
        min_style cg
        minimize ${etol} ${ftol} ${maxiter} ${maxeval}
        minimize 1e-12 ${ftol} ${maxiter} ${maxeval}
        minimize 1e-12 1e-08 ${maxiter} ${maxeval}
        minimize 1e-12 1e-08 10000 ${maxeval}
        minimize 1e-12 1e-08 10000 20000
WARNING: Resetting reneighboring criteria during minimization (../min.cpp:168)
Memory usage per processor = 3.35099 Mbytes
Step PotEng Pxx Pyy Pxy Lx Ly Lz 
       0   -53.197853   0.67254377    1.8298196 -2.4661838e-16      3.36736    5.5553991   0.56122687 
       1   -53.197853   0.67254342    1.8298182 6.0136123e-17      3.36736    5.5553991   0.56122687 
       2   -53.197853   0.67254342    1.8298182 6.0136123e-17      3.36736    5.5553991   0.56122687 
Loop time of 0.000147045 on 1 procs for 2 steps with 18 atoms

Minimization stats:
  Stopping criterion = linesearch alpha is zero
  Energy initial, next-to-last, final = 
        -53.1978531343     -53.1978533845     -53.1978533845
  Force two-norm initial, final = 0.00113019 0.0420645
  Force max component initial, final = 0.000293088 0.0113053
  Final line search alpha, max atom move = 3.8147e-06 4.31263e-08
  Iterations, force evaluations = 2 22

Pair  time (%) = 9.76271e-05 (66.3928)
Neigh time (%) = 0 (0)
Comm  time (%) = 1.53307e-05 (10.4259)
Outpt time (%) = 6.01751e-06 (4.0923)
Other time (%) = 2.80694e-05 (19.089)

Nlocal:    18 ave 18 max 18 min
Histogram: 1 0 0 0 0 0 0 0 0 0
Nghost:    65 ave 65 max 65 min
Histogram: 1 0 0 0 0 0 0 0 0 0
Neighs:    162 ave 162 max 162 min
Histogram: 1 0 0 0 0 0 0 0 0 0

Total # of neighbors = 162
Ave neighs/atom = 9
Neighbor list builds = 0
Dangerous builds = 0
        next i
jump SELF loop1
	read_dump orig.dump 0 x y
  orthogonal box = (0 0 -0.280613) to (3.36736 5.83244 0.280613)
  18 atoms before read
  18 atoms in snapshot
  0 atoms purged
  18 atoms replaced
  0 atoms trimmed
  0 atoms added
  18 atoms after read
        variable stretch equal 1+$i*${strainstep}
        variable stretch equal 1+96*${strainstep}
        variable stretch equal 1+96*-0.0005
        change_box all ${direction} scale ${stretch} remap
        change_box all y scale ${stretch} remap
        change_box all y scale 0.952 remap
  orthogonal box = (0 0.139979 -0.280613) to (3.36736 5.69246 0.280613)
        min_style ${style}
        min_style cg
        minimize ${etol} ${ftol} ${maxiter} ${maxeval}
        minimize 1e-12 ${ftol} ${maxiter} ${maxeval}
        minimize 1e-12 1e-08 ${maxiter} ${maxeval}
        minimize 1e-12 1e-08 10000 ${maxeval}
        minimize 1e-12 1e-08 10000 20000
WARNING: Resetting reneighboring criteria during minimization (../min.cpp:168)
Memory usage per processor = 3.35099 Mbytes
Step PotEng Pxx Pyy Pxy Lx Ly Lz 
       0   -53.179749     0.681692    1.8527719 1.7836918e-17      3.36736    5.5524829   0.56122687 
       1   -53.179749   0.68169164    1.8527705 -2.0049717e-16      3.36736    5.5524829   0.56122687 
       2   -53.179749   0.68169164    1.8527705 -2.0049717e-16      3.36736    5.5524829   0.56122687 
Loop time of 0.000141909 on 1 procs for 2 steps with 18 atoms

Minimization stats:
  Stopping criterion = linesearch alpha is zero
  Energy initial, next-to-last, final = 
        -53.1797488756     -53.1797491335     -53.1797491335
  Force two-norm initial, final = 0.001136 0.0425384
  Force max component initial, final = 0.000294753 0.011442
  Final line search alpha, max atom move = 3.8147e-06 4.36476e-08
  Iterations, force evaluations = 2 22

Pair  time (%) = 9.34043e-05 (65.82)
Neigh time (%) = 0 (0)
Comm  time (%) = 2.13691e-05 (15.0583)
Outpt time (%) = 4.88164e-06 (3.43999)
Other time (%) = 2.22537e-05 (15.6817)

Nlocal:    18 ave 18 max 18 min
Histogram: 1 0 0 0 0 0 0 0 0 0
Nghost:    65 ave 65 max 65 min
Histogram: 1 0 0 0 0 0 0 0 0 0
Neighs:    162 ave 162 max 162 min
Histogram: 1 0 0 0 0 0 0 0 0 0

Total # of neighbors = 162
Ave neighs/atom = 9
Neighbor list builds = 0
Dangerous builds = 0
        next i
jump SELF loop1
	read_dump orig.dump 0 x y
  orthogonal box = (0 0 -0.280613) to (3.36736 5.83244 0.280613)
  18 atoms before read
  18 atoms in snapshot
  0 atoms purged
  18 atoms replaced
  0 atoms trimmed
  0 atoms added
  18 atoms after read
        variable stretch equal 1+$i*${strainstep}
        variable stretch equal 1+97*${strainstep}
        variable stretch equal 1+97*-0.0005
        change_box all ${direction} scale ${stretch} remap
        change_box all y scale ${stretch} remap
        change_box all y scale 0.9515 remap
  orthogonal box = (0 0.141437 -0.280613) to (3.36736 5.691 0.280613)
        min_style ${style}
        min_style cg
        minimize ${etol} ${ftol} ${maxiter} ${maxeval}
        minimize 1e-12 ${ftol} ${maxiter} ${maxeval}
        minimize 1e-12 1e-08 ${maxiter} ${maxeval}
        minimize 1e-12 1e-08 10000 ${maxeval}
        minimize 1e-12 1e-08 10000 20000
WARNING: Resetting reneighboring criteria during minimization (../min.cpp:168)
Memory usage per processor = 3.35099 Mbytes
Step PotEng Pxx Pyy Pxy Lx Ly Lz 
       0   -53.161474   0.69087943    1.8757794 -3.0911912e-16      3.36736    5.5495667   0.56122687 
       1   -53.161474   0.69087943    1.8757794 -3.0911912e-16      3.36736    5.5495667   0.56122687 
Loop time of 5.50672e-05 on 1 procs for 1 steps with 18 atoms

Minimization stats:
  Stopping criterion = linesearch alpha is zero
  Energy initial, next-to-last, final = 
        -53.1614737233     -53.1614737233     -53.1614737233
  Force two-norm initial, final = 0.00114182 0.00114182
  Force max component initial, final = 0.000296417 0.000296417
  Final line search alpha, max atom move = 0.0078125 2.31576e-06
  Iterations, force evaluations = 1 8

Pair  time (%) = 3.59757e-05 (65.3305)
Neigh time (%) = 0 (0)
Comm  time (%) = 5.71844e-06 (10.3845)
Outpt time (%) = 0 (0)
Other time (%) = 1.33731e-05 (24.285)

Nlocal:    18 ave 18 max 18 min
Histogram: 1 0 0 0 0 0 0 0 0 0
Nghost:    65 ave 65 max 65 min
Histogram: 1 0 0 0 0 0 0 0 0 0
Neighs:    162 ave 162 max 162 min
Histogram: 1 0 0 0 0 0 0 0 0 0

Total # of neighbors = 162
Ave neighs/atom = 9
Neighbor list builds = 0
Dangerous builds = 0
        next i
jump SELF loop1
	read_dump orig.dump 0 x y
  orthogonal box = (0 0 -0.280613) to (3.36736 5.83244 0.280613)
  18 atoms before read
  18 atoms in snapshot
  0 atoms purged
  18 atoms replaced
  0 atoms trimmed
  0 atoms added
  18 atoms after read
        variable stretch equal 1+$i*${strainstep}
        variable stretch equal 1+98*${strainstep}
        variable stretch equal 1+98*-0.0005
        change_box all ${direction} scale ${stretch} remap
        change_box all y scale ${stretch} remap
        change_box all y scale 0.951 remap
  orthogonal box = (0 0.142895 -0.280613) to (3.36736 5.68955 0.280613)
        min_style ${style}
        min_style cg
        minimize ${etol} ${ftol} ${maxiter} ${maxeval}
        minimize 1e-12 ${ftol} ${maxiter} ${maxeval}
        minimize 1e-12 1e-08 ${maxiter} ${maxeval}
        minimize 1e-12 1e-08 10000 ${maxeval}
        minimize 1e-12 1e-08 10000 20000
WARNING: Resetting reneighboring criteria during minimization (../min.cpp:168)
Memory usage per processor = 3.35099 Mbytes
Step PotEng Pxx Pyy Pxy Lx Ly Lz 
       0   -53.142936   0.70012336    1.8988889 -2.2139643e-16      3.36736    5.5466504   0.56122687 
       1   -53.142937     0.700123    1.8988874 -1.1184757e-16      3.36736    5.5466504   0.56122687 
       2   -53.142937     0.700123    1.8988874 -1.1184757e-16      3.36736    5.5466504   0.56122687 
Loop time of 0.000116003 on 1 procs for 2 steps with 18 atoms

Minimization stats:
  Stopping criterion = linesearch alpha is zero
  Energy initial, next-to-last, final = 
        -53.1429363406     -53.1429366051     -53.1429366051
  Force two-norm initial, final = 0.00113967 0.0428637
  Force max component initial, final = 0.000295775 0.0115349
  Final line search alpha, max atom move = 3.8147e-06 4.40022e-08
  Iterations, force evaluations = 2 22

Pair  time (%) = 7.95282e-05 (68.5568)
Neigh time (%) = 0 (0)
Comm  time (%) = 1.24382e-05 (10.7222)
Outpt time (%) = -6.33299e-08 (-0.0545932)
Other time (%) = 2.41003e-05 (20.7755)

Nlocal:    18 ave 18 max 18 min
Histogram: 1 0 0 0 0 0 0 0 0 0
Nghost:    65 ave 65 max 65 min
Histogram: 1 0 0 0 0 0 0 0 0 0
Neighs:    162 ave 162 max 162 min
Histogram: 1 0 0 0 0 0 0 0 0 0

Total # of neighbors = 162
Ave neighs/atom = 9
Neighbor list builds = 0
Dangerous builds = 0
        next i
jump SELF loop1
	read_dump orig.dump 0 x y
  orthogonal box = (0 0 -0.280613) to (3.36736 5.83244 0.280613)
  18 atoms before read
  18 atoms in snapshot
  0 atoms purged
  18 atoms replaced
  0 atoms trimmed
  0 atoms added
  18 atoms after read
        variable stretch equal 1+$i*${strainstep}
        variable stretch equal 1+99*${strainstep}
        variable stretch equal 1+99*-0.0005
        change_box all ${direction} scale ${stretch} remap
        change_box all y scale ${stretch} remap
        change_box all y scale 0.9505 remap
  orthogonal box = (0 0.144353 -0.280613) to (3.36736 5.68809 0.280613)
        min_style ${style}
        min_style cg
        minimize ${etol} ${ftol} ${maxiter} ${maxeval}
        minimize 1e-12 ${ftol} ${maxiter} ${maxeval}
        minimize 1e-12 1e-08 ${maxiter} ${maxeval}
        minimize 1e-12 1e-08 10000 ${maxeval}
        minimize 1e-12 1e-08 10000 20000
WARNING: Resetting reneighboring criteria during minimization (../min.cpp:168)
Memory usage per processor = 3.35099 Mbytes
Step PotEng Pxx Pyy Pxy Lx Ly Lz 
       0   -53.124148    0.7094218    1.9220943 -5.0091883e-16      3.36736    5.5437342   0.56122687 
       1   -53.124148   0.70942143    1.9220929 5.4896169e-16      3.36736    5.5437342   0.56122687 
       2   -53.124148   0.70942143    1.9220929 5.4896169e-16      3.36736    5.5437342   0.56122687 
Loop time of 0.00013801 on 1 procs for 2 steps with 18 atoms

Minimization stats:
  Stopping criterion = linesearch alpha is zero
  Energy initial, next-to-last, final = 
        -53.1241482144     -53.1241484869     -53.1241484869
  Force two-norm initial, final = 0.00114554 0.0433471
  Force max component initial, final = 0.000297454 0.0116742
  Final line search alpha, max atom move = 3.8147e-06 4.45337e-08
  Iterations, force evaluations = 2 22

Pair  time (%) = 9.42003e-05 (68.2559)
Neigh time (%) = 0 (0)
Comm  time (%) = 1.8815e-05 (13.6331)
Outpt time (%) = 3.93693e-06 (2.85264)
Other time (%) = 2.10581e-05 (15.2584)

Nlocal:    18 ave 18 max 18 min
Histogram: 1 0 0 0 0 0 0 0 0 0
Nghost:    65 ave 65 max 65 min
Histogram: 1 0 0 0 0 0 0 0 0 0
Neighs:    162 ave 162 max 162 min
Histogram: 1 0 0 0 0 0 0 0 0 0

Total # of neighbors = 162
Ave neighs/atom = 9
Neighbor list builds = 0
Dangerous builds = 0
        next i
jump SELF loop1
	read_dump orig.dump 0 x y
  orthogonal box = (0 0 -0.280613) to (3.36736 5.83244 0.280613)
  18 atoms before read
  18 atoms in snapshot
  0 atoms purged
  18 atoms replaced
  0 atoms trimmed
  0 atoms added
  18 atoms after read
        variable stretch equal 1+$i*${strainstep}
        variable stretch equal 1+100*${strainstep}
        variable stretch equal 1+100*-0.0005
        change_box all ${direction} scale ${stretch} remap
        change_box all y scale ${stretch} remap
        change_box all y scale 0.95 remap
  orthogonal box = (0 0.145811 -0.280613) to (3.36736 5.68663 0.280613)
        min_style ${style}
        min_style cg
        minimize ${etol} ${ftol} ${maxiter} ${maxeval}
        minimize 1e-12 ${ftol} ${maxiter} ${maxeval}
        minimize 1e-12 1e-08 ${maxiter} ${maxeval}
        minimize 1e-12 1e-08 10000 ${maxeval}
        minimize 1e-12 1e-08 10000 20000
WARNING: Resetting reneighboring criteria during minimization (../min.cpp:168)
Memory usage per processor = 3.35099 Mbytes
Step PotEng Pxx Pyy Pxy Lx Ly Lz 
       0   -53.105188   0.71875988    1.9453552 -3.8863607e-16      3.36736     5.540818   0.56122687 
       1   -53.105188   0.71875979    1.9453548 -1.7897714e-17      3.36736     5.540818   0.56122687 
       2   -53.105188   0.71875979    1.9453548 -1.7897714e-17      3.36736     5.540818   0.56122687 
Loop time of 0.000139073 on 1 procs for 2 steps with 18 atoms

Minimization stats:
  Stopping criterion = linesearch alpha is zero
  Energy initial, next-to-last, final = 
        -53.1051878348     -53.1051879011     -53.1051879011
  Force two-norm initial, final = 0.00115141 0.0213421
  Force max component initial, final = 0.000299133 0.00575725
  Final line search alpha, max atom move = 1.52588e-05 8.78487e-08
  Iterations, force evaluations = 2 21

Pair  time (%) = 8.90759e-05 (64.0498)
Neigh time (%) = 0 (0)
Comm  time (%) = 1.57186e-05 (11.3024)
Outpt time (%) = 7.03894e-06 (5.06133)
Other time (%) = 2.72394e-05 (19.5864)

Nlocal:    18 ave 18 max 18 min
Histogram: 1 0 0 0 0 0 0 0 0 0
Nghost:    65 ave 65 max 65 min
Histogram: 1 0 0 0 0 0 0 0 0 0
Neighs:    162 ave 162 max 162 min
Histogram: 1 0 0 0 0 0 0 0 0 0

Total # of neighbors = 162
Ave neighs/atom = 9
Neighbor list builds = 0
Dangerous builds = 0
        next i
jump SELF loop1

