LAMMPS (28 Jun 2014)
# attempt at getting tensile strain-stress curve for infinite slab

#file prefix
variable prefix string compression_V_brittle_twin
variable dumpfile string ${prefix}.*.dump
variable dumpfile string compression_V_brittle_twin.*.dump
variable restartfile string ${prefix}.*.equil
variable restartfile string compression_V_brittle_twin.*.equil

#Mass (g/mol)
variable m equal 1

# lattice constant (in Angstroms) and orientation of axes (given by lattice vectors)
variable rho equal 1.0
variable x1 equal 1
variable x2 equal 0
variable x3 equal 1
variable y1 equal 0
variable y2 equal 1
variable y3 equal 0
variable z1 equal -1
variable z2 equal 0
variable z3 equal 1
# length of lattice in different directions (using orientation of lattice vectors)
variable ax equal sqrt(${x1}*${x1}+${x2}*${x2}+${x3}*${x3})
variable ax equal sqrt(1*${x1}+${x2}*${x2}+${x3}*${x3})
variable ax equal sqrt(1*1+${x2}*${x2}+${x3}*${x3})
variable ax equal sqrt(1*1+0*${x2}+${x3}*${x3})
variable ax equal sqrt(1*1+0*0+${x3}*${x3})
variable ax equal sqrt(1*1+0*0+1*${x3})
variable ax equal sqrt(1*1+0*0+1*1)
variable ay equal sqrt(${y1}*${y1}+${y2}*${y2}+${y3}*${y3})
variable ay equal sqrt(0*${y1}+${y2}*${y2}+${y3}*${y3})
variable ay equal sqrt(0*0+${y2}*${y2}+${y3}*${y3})
variable ay equal sqrt(0*0+1*${y2}+${y3}*${y3})
variable ay equal sqrt(0*0+1*1+${y3}*${y3})
variable ay equal sqrt(0*0+1*1+0*${y3})
variable ay equal sqrt(0*0+1*1+0*0)
variable az equal sqrt(${z1}*${z1}+${z2}*${z2}+${z3}*${z3})
variable az equal sqrt(-1*${z1}+${z2}*${z2}+${z3}*${z3})
variable az equal sqrt(-1*-1+${z2}*${z2}+${z3}*${z3})
variable az equal sqrt(-1*-1+0*${z2}+${z3}*${z3})
variable az equal sqrt(-1*-1+0*0+${z3}*${z3})
variable az equal sqrt(-1*-1+0*0+1*${z3})
variable az equal sqrt(-1*-1+0*0+1*1)

# size of box in lattice units
variable lxpos equal 2
variable lxneg equal 0
variable lypos equal 10
variable lyneg equal 0
variable lzpos equal 2
variable lzneg equal 0

# Define minimization parameters and damping
variable etol equal 1.0e-12
variable ftol equal 1.0e-8
variable maxiter equal 10000
variable maxeval equal 20000
variable style string hftn

# boundary conditions
dimension	3
boundary	p s p
atom_style	atomic

# create geometry
units		lj
lattice         fcc ${rho} orient x 1 1 -2 orient y 1 1 1 orient z 1 -1 0 spacing ${ax} ${ay} ${az}
lattice         fcc 1 orient x 1 1 -2 orient y 1 1 1 orient z 1 -1 0 spacing ${ax} ${ay} ${az}
lattice         fcc 1 orient x 1 1 -2 orient y 1 1 1 orient z 1 -1 0 spacing 1.4142135623731 ${ay} ${az}
lattice         fcc 1 orient x 1 1 -2 orient y 1 1 1 orient z 1 -1 0 spacing 1.4142135623731 1 ${az}
lattice         fcc 1 orient x 1 1 -2 orient y 1 1 1 orient z 1 -1 0 spacing 1.4142135623731 1 1.4142135623731
Lattice spacing in x,y,z = 2.24492 1.5874 2.24492
region		myregion block ${lxneg} ${lxpos} ${lyneg} ${lypos} ${lzneg} ${lzpos} units lattice
region		myregion block 0 ${lxpos} ${lyneg} ${lypos} ${lzneg} ${lzpos} units lattice
region		myregion block 0 2 ${lyneg} ${lypos} ${lzneg} ${lzpos} units lattice
region		myregion block 0 2 0 ${lypos} ${lzneg} ${lzpos} units lattice
region		myregion block 0 2 0 10 ${lzneg} ${lzpos} units lattice
region		myregion block 0 2 0 10 0 ${lzpos} units lattice
region		myregion block 0 2 0 10 0 2 units lattice
create_box	1 myregion
Created orthogonal box = (0 0 0) to (4.48985 15.874 4.48985)
  1 by 1 by 1 MPI processor grid

region		upper block INF INF 0.01 INF INF INF
create_atoms	1 region upper
Created 316 atoms

region		lower block INF INF INF 0.01 INF INF
lattice         fcc ${rho} orient x 1 1 -2 orient y -1 -1 -1 orient z -1 1 0 spacing ${ax} ${ay} ${az}
lattice         fcc 1 orient x 1 1 -2 orient y -1 -1 -1 orient z -1 1 0 spacing ${ax} ${ay} ${az}
lattice         fcc 1 orient x 1 1 -2 orient y -1 -1 -1 orient z -1 1 0 spacing 1.4142135623731 ${ay} ${az}
lattice         fcc 1 orient x 1 1 -2 orient y -1 -1 -1 orient z -1 1 0 spacing 1.4142135623731 1 ${az}
lattice         fcc 1 orient x 1 1 -2 orient y -1 -1 -1 orient z -1 1 0 spacing 1.4142135623731 1 1.4142135623731
Lattice spacing in x,y,z = 2.24492 1.5874 2.24492
create_atoms	1 region lower
Created 20 atoms

# define masses
mass * $m
mass * 1

# my fake/morse potential
pair_style      table linear 3001
pair_coeff      * * vpotential_ductile3d dummy
neighbor	0.3 bin
neigh_modify	delay 5

# Setup output
thermo 1
thermo_style custom step pe pxx pyy pxy lx ly lz
thermo_modify norm no

# Compute initial state by relaxing box
min_style ${style}
min_style hftn
minimize ${etol} ${ftol} ${maxiter} ${maxeval}
minimize 1e-12 ${ftol} ${maxiter} ${maxeval}
minimize 1e-12 1e-08 ${maxiter} ${maxeval}
minimize 1e-12 1e-08 10000 ${maxeval}
minimize 1e-12 1e-08 10000 20000
WARNING: Resetting reneighboring criteria during minimization (../min.cpp:168)
Memory usage per processor = 4.90059 Mbytes
Step PotEng Pxx Pyy Pxy Lx Ly Lz 
       0    37233.257    1007.1235  -0.53928761    0.6103676    4.4898482    15.583444    4.4898482 
       1    12118.034    415.83023   0.12206691   0.78799275    4.4898482    15.583444    4.4898482 
       2    3179.2164    173.82777   0.92298908    1.0547024    4.4898482    15.583444    4.4898482 
       3     54.55666    77.323277    1.9339667    1.3385018    4.4898482    15.583444    4.4898482 
       4     54.55666     77.32242    1.9339452     1.338487    4.4898482    15.583617    4.4898482 
       5   -913.52961    42.766248    2.9501213    1.6286532    4.4898482    15.583617    4.4898482 
       6   -1386.7044      25.1698    3.5688987    1.4158873    4.4898482    15.583617    4.4898482 
       7   -1498.4472    20.947598    4.0084365   0.54691622    4.4898482    15.583617    4.4898482 
       8   -1532.7544    19.276247    3.8178826   0.49608022    4.4898482    15.583617    4.4898482 
       9   -1547.4174    18.258572    3.7798509   0.50961394    4.4898482    15.849361    4.4898482 
      10   -1571.5287    16.373764    4.0247746   0.33802666    4.4898482    15.849361    4.4898482 
      11   -1582.1198    15.846749    3.9995329   0.37530433    4.4898482    15.849361    4.4898482 
      12   -1604.3625    13.796433    4.0114149  0.029551184    4.4898482    16.243845    4.4898482 
      13   -1613.9338     13.21022    4.0492075   0.25484968    4.4898482    16.243845    4.4898482 
      14   -1635.4511    11.454213    4.0196768  -0.15980001    4.4898482    16.243845    4.4898482 
      15    -1646.428    10.417437    3.9894186   0.14740237    4.4898482    16.577769    4.4898482 
      16   -1677.0364    8.3407796    3.8713495  -0.27403409    4.4898482    16.577769    4.4898482 
      17    -1738.014    5.0529349    3.4438923   0.61905074    4.4898482    16.856858    4.4898482 
      18   -1767.7708     4.013963    2.8276916   0.13209202    4.4898482    16.856858    4.4898482 
      19   -1802.9667    2.6367926    2.2401496   0.21908825    4.4898482    16.856858    4.4898482 
      20   -1833.4955    2.0100889    1.4505096 0.0017247694    4.4898482    16.857932    4.4898482 
      21   -1858.2091    1.7793672    0.8395451  -0.37070854    4.4898482    16.857932    4.4898482 
      22   -1870.5163    1.5553707   0.59166301  -0.36788956    4.4898482    16.857932    4.4898482 
      23    -1876.089    1.4679904   0.12845204 -0.0090255423    4.4898482    16.761308    4.4898482 
      24   -1876.3533    1.4271646 0.0092257952 0.00044283254    4.4898482    16.761308    4.4898482 
      25   -1876.3546    1.4241174 4.2208624e-05 -1.2008048e-05    4.4898482    16.761308    4.4898482 
      26   -1876.3546     1.424102 -8.2797363e-09 5.9481856e-09    4.4898482    16.761308    4.4898482 
      27   -1876.3546     1.424102 -1.2318855e-10 -3.3351142e-10    4.4898482    16.761308    4.4898482 
Loop time of 0.359749 on 1 procs for 26 steps with 336 atoms

Minimization stats:
  Stopping criterion = force tolerance
  Energy initial, next-to-last, final = 
         37233.2574749     -1876.35459688     -1876.35459914
  Force two-norm initial, final = 107408 9.86565e-09
  Force max component initial, final = 10964.9 2.59337e-09
  Final line search alpha, max atom move = 0 0
  Iterations, force evaluations = 26 645

Pair  time (%) = 0.313045 (87.0176)
Neigh time (%) = 0.00273517 (0.760298)
Comm  time (%) = 0.0293965 (8.1714)
Outpt time (%) = 0.00180876 (0.502783)
Other time (%) = 0.0127637 (3.54795)

Nlocal:    336 ave 336 max 336 min
Histogram: 1 0 0 0 0 0 0 0 0 0
Nghost:    1092 ave 1092 max 1092 min
Histogram: 1 0 0 0 0 0 0 0 0 0
Neighs:    8504 ave 8504 max 8504 min
Histogram: 1 0 0 0 0 0 0 0 0 0

Total # of neighbors = 8504
Ave neighs/atom = 25.3095
Neighbor list builds = 8
Dangerous builds = 1
reset_timestep 0
write_dump all atom orig.dump

# Energy curve will have nstep steps
variable strainmax equal -0.05
variable strainstep equal -0.0005
variable nsteps equal round(${strainmax}/${strainstep})
variable nsteps equal round(-0.05/${strainstep})
variable nsteps equal round(-0.05/-0.0005)
variable direction string y

variable i loop ${nsteps}
variable i loop 100
label loop1
        read_dump orig.dump 0 x y z
  orthogonal box = (0 -0.606141 0) to (4.48985 16.1864 4.48985)
  336 atoms before read
  336 atoms in snapshot
  0 atoms purged
  336 atoms replaced
  0 atoms trimmed
  0 atoms added
  336 atoms after read
        variable stretch equal 1+$i*${strainstep}
        variable stretch equal 1+1*${strainstep}
        variable stretch equal 1+1*-0.0005
        change_box all ${direction} scale ${stretch} remap
        change_box all y scale ${stretch} remap
        change_box all y scale 0.9995 remap
  orthogonal box = (0 -0.603621 0) to (4.48985 16.1839 4.48985)
        min_style ${style}
        min_style hftn
        minimize ${etol} ${ftol} ${maxiter} ${maxeval}
        minimize 1e-12 ${ftol} ${maxiter} ${maxeval}
        minimize 1e-12 1e-08 ${maxiter} ${maxeval}
        minimize 1e-12 1e-08 10000 ${maxeval}
        minimize 1e-12 1e-08 10000 20000
WARNING: Resetting reneighboring criteria during minimization (../min.cpp:168)
Memory usage per processor = 4.9009 Mbytes
Step PotEng Pxx Pyy Pxy Lx Ly Lz 
       0   -1876.3524    1.4340847  0.038335775 -0.0015516481      4.48985    16.787495      4.48985 
       1   -1876.3548    1.4218935 0.0001024883 0.00014198789      4.48985    16.787495      4.48985 
       2   -1876.3548    1.4218935 0.0001024883 0.00014198789      4.48985    16.787495      4.48985 
       3   -1876.3548    1.4218935 0.0001024883 0.00014198789      4.48985    16.787495      4.48985 
       4   -1876.3548    1.4218935 0.0001024883 0.00014198789      4.48985    16.787495      4.48985 
       5   -1876.3548    1.4218935 0.0001024883 0.00014198789      4.48985    16.787495      4.48985 
       6   -1876.3548    1.4218935 0.0001024883 0.00014198789      4.48985    16.787495      4.48985 
       7   -1876.3548    1.4218935 0.0001024883 0.00014198789      4.48985    16.787495      4.48985 
       8   -1876.3548    1.4218935 0.0001024883 0.00014198789      4.48985    16.787495      4.48985 
       9   -1876.3548    1.4218935 0.0001024866 0.00014198835      4.48985    16.787495      4.48985 
Loop time of 0.0912089 on 1 procs for 8 steps with 336 atoms

Minimization stats:
  Stopping criterion = energy tolerance
  Energy initial, next-to-last, final = 
        -1876.35239811     -1876.35239811     -1876.35481756
  Force two-norm initial, final = 0.344408 0.0230526
  Force max component initial, final = 0.0490714 0.00210811
  Final line search alpha, max atom move = 0 0
  Iterations, force evaluations = 8 181

Pair  time (%) = 0.0762571 (83.6071)
Neigh time (%) = 0 (0)
Comm  time (%) = 0.00924115 (10.1319)
Outpt time (%) = 0.000436892 (0.479002)
Other time (%) = 0.00527373 (5.78203)

Nlocal:    336 ave 336 max 336 min
Histogram: 1 0 0 0 0 0 0 0 0 0
Nghost:    1092 ave 1092 max 1092 min
Histogram: 1 0 0 0 0 0 0 0 0 0
Neighs:    8504 ave 8504 max 8504 min
Histogram: 1 0 0 0 0 0 0 0 0 0

Total # of neighbors = 8504
Ave neighs/atom = 25.3095
Neighbor list builds = 0
Dangerous builds = 0
        next i
jump SELF loop1
        read_dump orig.dump 0 x y z
  orthogonal box = (0 -0.606141 0) to (4.48985 16.1864 4.48985)
  336 atoms before read
  336 atoms in snapshot
  0 atoms purged
  336 atoms replaced
  0 atoms trimmed
  0 atoms added
  336 atoms after read
        variable stretch equal 1+$i*${strainstep}
        variable stretch equal 1+2*${strainstep}
        variable stretch equal 1+2*-0.0005
        change_box all ${direction} scale ${stretch} remap
        change_box all y scale ${stretch} remap
        change_box all y scale 0.999 remap
  orthogonal box = (0 -0.599422 0) to (4.48985 16.1797 4.48985)
        min_style ${style}
        min_style hftn
        minimize ${etol} ${ftol} ${maxiter} ${maxeval}
        minimize 1e-12 ${ftol} ${maxiter} ${maxeval}
        minimize 1e-12 1e-08 ${maxiter} ${maxeval}
        minimize 1e-12 1e-08 10000 ${maxeval}
        minimize 1e-12 1e-08 10000 20000
WARNING: Resetting reneighboring criteria during minimization (../min.cpp:168)
Memory usage per processor = 4.9009 Mbytes
Step PotEng Pxx Pyy Pxy Lx Ly Lz 
       0    -1876.341    1.4553404   0.10261076 -0.0040681011      4.48985    16.779097      4.48985 
       1   -1876.3548    1.4229095 0.00075701078 0.00040608747      4.48985    16.779097      4.48985 
       2   -1876.3548    1.4225186 -2.4193486e-05 1.6687958e-07      4.48985    16.779097      4.48985 
       3   -1876.3548    1.4225186 -2.4193486e-05 1.6687958e-07      4.48985    16.779097      4.48985 
       4   -1876.3548    1.4225202 -2.0840549e-05 1.1205772e-06      4.48985    16.779097      4.48985 
       5   -1876.3548    1.4225202 -2.0840549e-05 1.1205772e-06      4.48985    16.779097      4.48985 
       6   -1876.3548    1.4225202 -2.0840549e-05 1.1205772e-06      4.48985    16.779097      4.48985 
       7   -1876.3548    1.4225202 -2.0840549e-05 1.1205772e-06      4.48985    16.779097      4.48985 
       8   -1876.3548    1.4225202 -2.0840549e-05 1.1205772e-06      4.48985    16.779097      4.48985 
       9   -1876.3548    1.4225202 -2.0832103e-05 1.1203067e-06      4.48985    16.779097      4.48985 
Loop time of 0.136111 on 1 procs for 8 steps with 336 atoms

Minimization stats:
  Stopping criterion = energy tolerance
  Energy initial, next-to-last, final = 
        -1876.34102826     -1876.35481503      -1876.3548152
  Force two-norm initial, final = 0.912771 0.00073398
  Force max component initial, final = 0.128666 6.87046e-05
  Final line search alpha, max atom move = 0 0
  Iterations, force evaluations = 8 263

Pair  time (%) = 0.115657 (84.9725)
Neigh time (%) = 0 (0)
Comm  time (%) = 0.00887035 (6.517)
Outpt time (%) = 0.00729672 (5.36086)
Other time (%) = 0.00428703 (3.14966)

Nlocal:    336 ave 336 max 336 min
Histogram: 1 0 0 0 0 0 0 0 0 0
Nghost:    1092 ave 1092 max 1092 min
Histogram: 1 0 0 0 0 0 0 0 0 0
Neighs:    8504 ave 8504 max 8504 min
Histogram: 1 0 0 0 0 0 0 0 0 0

Total # of neighbors = 8504
Ave neighs/atom = 25.3095
Neighbor list builds = 0
Dangerous builds = 0
        next i
jump SELF loop1
        read_dump orig.dump 0 x y z
  orthogonal box = (0 -0.606141 0) to (4.48985 16.1864 4.48985)
  336 atoms before read
  336 atoms in snapshot
  0 atoms purged
  336 atoms replaced
  0 atoms trimmed
  0 atoms added
  336 atoms after read
        variable stretch equal 1+$i*${strainstep}
        variable stretch equal 1+3*${strainstep}
        variable stretch equal 1+3*-0.0005
        change_box all ${direction} scale ${stretch} remap
        change_box all y scale ${stretch} remap
        change_box all y scale 0.9985 remap
  orthogonal box = (0 -0.595223 0) to (4.48985 16.1755 4.48985)
        min_style ${style}
        min_style hftn
        minimize ${etol} ${ftol} ${maxiter} ${maxeval}
        minimize 1e-12 ${ftol} ${maxiter} ${maxeval}
        minimize 1e-12 1e-08 ${maxiter} ${maxeval}
        minimize 1e-12 1e-08 10000 ${maxeval}
        minimize 1e-12 1e-08 10000 20000
WARNING: Resetting reneighboring criteria during minimization (../min.cpp:168)
Memory usage per processor = 4.9009 Mbytes
Step PotEng Pxx Pyy Pxy Lx Ly Lz 
       0   -1876.3178    1.4767594    0.1673923 -0.0065795452      4.48985    16.770699      4.48985 
       1   -1876.3547    1.4240502 0.0018770674 0.00068435911      4.48985    16.770699      4.48985 
       2   -1876.3548    1.4232131 -7.3438432e-05 3.3180998e-06      4.48985    16.770699      4.48985 
       3   -1876.3548    1.4232131 -7.3438432e-05 3.3180998e-06      4.48985    16.770699      4.48985 
       4   -1876.3548    1.4232131 -7.3438432e-05 3.3180998e-06      4.48985    16.770699      4.48985 
       5   -1876.3548    1.4232131 -7.3438432e-05 3.3180998e-06      4.48985    16.770699      4.48985 
       6   -1876.3548    1.4232131 -7.3438432e-05 3.3180998e-06      4.48985    16.770699      4.48985 
       7   -1876.3548    1.4232131 -7.3438432e-05 3.3180998e-06      4.48985    16.770699      4.48985 
       8   -1876.3548    1.4232131 -7.343017e-05 3.3132182e-06      4.48985    16.770699      4.48985 
Loop time of 0.162455 on 1 procs for 7 steps with 336 atoms

Minimization stats:
  Stopping criterion = energy tolerance
  Energy initial, next-to-last, final = 
        -1876.31775884     -1876.35474098     -1876.35481562
  Force two-norm initial, final = 1.48601 0.00449399
  Force max component initial, final = 0.208878 0.000517272
  Final line search alpha, max atom move = 0 0
  Iterations, force evaluations = 7 246

Pair  time (%) = 0.143551 (88.3636)
Neigh time (%) = 0 (0)
Comm  time (%) = 0.00797431 (4.90863)
Outpt time (%) = 0.00629926 (3.87754)
Other time (%) = 0.00463031 (2.85021)

Nlocal:    336 ave 336 max 336 min
Histogram: 1 0 0 0 0 0 0 0 0 0
Nghost:    1092 ave 1092 max 1092 min
Histogram: 1 0 0 0 0 0 0 0 0 0
Neighs:    8504 ave 8504 max 8504 min
Histogram: 1 0 0 0 0 0 0 0 0 0

Total # of neighbors = 8504
Ave neighs/atom = 25.3095
Neighbor list builds = 0
Dangerous builds = 0
        next i
jump SELF loop1
        read_dump orig.dump 0 x y z
  orthogonal box = (0 -0.606141 0) to (4.48985 16.1864 4.48985)
  336 atoms before read
  336 atoms in snapshot
  0 atoms purged
  336 atoms replaced
  0 atoms trimmed
  0 atoms added
  336 atoms after read
        variable stretch equal 1+$i*${strainstep}
        variable stretch equal 1+4*${strainstep}
        variable stretch equal 1+4*-0.0005
        change_box all ${direction} scale ${stretch} remap
        change_box all y scale ${stretch} remap
        change_box all y scale 0.998 remap
  orthogonal box = (0 -0.591024 0) to (4.48985 16.1713 4.48985)
        min_style ${style}
        min_style hftn
        minimize ${etol} ${ftol} ${maxiter} ${maxeval}
        minimize 1e-12 ${ftol} ${maxiter} ${maxeval}
        minimize 1e-12 1e-08 ${maxiter} ${maxeval}
        minimize 1e-12 1e-08 10000 ${maxeval}
        minimize 1e-12 1e-08 10000 20000
WARNING: Resetting reneighboring criteria during minimization (../min.cpp:168)
Memory usage per processor = 4.9009 Mbytes
Step PotEng Pxx Pyy Pxy Lx Ly Lz 
       0   -1876.2844    1.4983021   0.23261731 -0.0090328926      4.48985    16.762301      4.48985 
       1   -1876.3547    1.4252905 0.0032346469  0.001001219      4.48985    16.762301      4.48985 
       2   -1876.3548    1.4239262 -6.6167067e-05 -3.6909387e-06      4.48985    16.762301      4.48985 
       3   -1876.3548    1.4239262 -6.6167067e-05 -3.6909387e-06      4.48985    16.762301      4.48985 
       4   -1876.3548    1.4239262 -6.6167067e-05 -3.6909387e-06      4.48985    16.762301      4.48985 
       5   -1876.3548    1.4239262 -6.6167067e-05 -3.6909387e-06      4.48985    16.762301      4.48985 
       6   -1876.3548    1.4239262 -6.6167067e-05 -3.6909387e-06      4.48985    16.762301      4.48985 
       7   -1876.3548    1.4239262 -6.6167067e-05 -3.6909387e-06      4.48985    16.762301      4.48985 
       8   -1876.3548    1.4239262 -6.6167067e-05 -3.6909387e-06      4.48985    16.762301      4.48985 
       9   -1876.3548    1.4239262 -6.6165908e-05 -3.6917974e-06      4.48985    16.762301      4.48985 
Loop time of 0.181986 on 1 procs for 8 steps with 336 atoms

Minimization stats:
  Stopping criterion = energy tolerance
  Energy initial, next-to-last, final = 
        -1876.28438269     -1876.35468966     -1876.35481477
  Force two-norm initial, final = 2.06307 0.00547208
  Force max component initial, final = 0.289661 0.000574607
  Final line search alpha, max atom move = 0 0
  Iterations, force evaluations = 8 253

Pair  time (%) = 0.119816 (65.838)
Neigh time (%) = 0 (0)
Comm  time (%) = 0.0287872 (15.8184)
Outpt time (%) = 0.023867 (13.1147)
Other time (%) = 0.00951582 (5.22888)

Nlocal:    336 ave 336 max 336 min
Histogram: 1 0 0 0 0 0 0 0 0 0
Nghost:    1092 ave 1092 max 1092 min
Histogram: 1 0 0 0 0 0 0 0 0 0
Neighs:    8504 ave 8504 max 8504 min
Histogram: 1 0 0 0 0 0 0 0 0 0

Total # of neighbors = 8504
Ave neighs/atom = 25.3095
Neighbor list builds = 0
Dangerous builds = 0
        next i
jump SELF loop1
        read_dump orig.dump 0 x y z
  orthogonal box = (0 -0.606141 0) to (4.48985 16.1864 4.48985)
  336 atoms before read
  336 atoms in snapshot
  0 atoms purged
  336 atoms replaced
  0 atoms trimmed
  0 atoms added
  336 atoms after read
        variable stretch equal 1+$i*${strainstep}
        variable stretch equal 1+5*${strainstep}
        variable stretch equal 1+5*-0.0005
        change_box all ${direction} scale ${stretch} remap
        change_box all y scale ${stretch} remap
        change_box all y scale 0.9975 remap
  orthogonal box = (0 -0.586825 0) to (4.48985 16.1671 4.48985)
        min_style ${style}
        min_style hftn
        minimize ${etol} ${ftol} ${maxiter} ${maxeval}
        minimize 1e-12 ${ftol} ${maxiter} ${maxeval}
        minimize 1e-12 1e-08 ${maxiter} ${maxeval}
        minimize 1e-12 1e-08 10000 ${maxeval}
        minimize 1e-12 1e-08 10000 20000
WARNING: Resetting reneighboring criteria during minimization (../min.cpp:168)
Memory usage per processor = 4.9009 Mbytes
Step PotEng Pxx Pyy Pxy Lx Ly Lz 
       0   -1876.2389     1.520003   0.29836547 -0.011467635      4.48985    16.753903      4.48985 
       1   -1876.3546    1.4267175 0.0052021884  0.001202848      4.48985    16.753903      4.48985 
       2   -1876.3548    1.4246466 -5.2005141e-05 -1.3568167e-05      4.48985    16.753903      4.48985 
       3   -1876.3548     1.424669 1.6704586e-07 -1.3089013e-07      4.48985    16.753903      4.48985 
       4   -1876.3548    1.4246689 -2.2479019e-10 -9.4738207e-11      4.48985    16.753903      4.48985 
       5   -1876.3548    1.4246689 3.3215068e-13 -4.8822402e-13      4.48985    16.753903      4.48985 
Loop time of 0.209523 on 1 procs for 4 steps with 336 atoms

Minimization stats:
  Stopping criterion = force tolerance
  Energy initial, next-to-last, final = 
        -1876.23887104     -1876.35481472     -1876.35481472
  Force two-norm initial, final = 2.6446 8.18275e-11
  Force max component initial, final = 0.371146 1.69962e-11
  Final line search alpha, max atom move = 0 0
  Iterations, force evaluations = 4 414

Pair  time (%) = 0.1841 (87.8663)
Neigh time (%) = 0 (0)
Comm  time (%) = 0.0162483 (7.75491)
Outpt time (%) = 0.000458156 (0.218666)
Other time (%) = 0.00871646 (4.16014)

Nlocal:    336 ave 336 max 336 min
Histogram: 1 0 0 0 0 0 0 0 0 0
Nghost:    1092 ave 1092 max 1092 min
Histogram: 1 0 0 0 0 0 0 0 0 0
Neighs:    8504 ave 8504 max 8504 min
Histogram: 1 0 0 0 0 0 0 0 0 0

Total # of neighbors = 8504
Ave neighs/atom = 25.3095
Neighbor list builds = 0
Dangerous builds = 0
        next i
jump SELF loop1
        read_dump orig.dump 0 x y z
  orthogonal box = (0 -0.606141 0) to (4.48985 16.1864 4.48985)
  336 atoms before read
  336 atoms in snapshot
  0 atoms purged
  336 atoms replaced
  0 atoms trimmed
  0 atoms added
  336 atoms after read
        variable stretch equal 1+$i*${strainstep}
        variable stretch equal 1+6*${strainstep}
        variable stretch equal 1+6*-0.0005
        change_box all ${direction} scale ${stretch} remap
        change_box all y scale ${stretch} remap
        change_box all y scale 0.997 remap
  orthogonal box = (0 -0.582626 0) to (4.48985 16.1629 4.48985)
        min_style ${style}
        min_style hftn
        minimize ${etol} ${ftol} ${maxiter} ${maxeval}
        minimize 1e-12 ${ftol} ${maxiter} ${maxeval}
        minimize 1e-12 1e-08 ${maxiter} ${maxeval}
        minimize 1e-12 1e-08 10000 ${maxeval}
        minimize 1e-12 1e-08 10000 20000
WARNING: Resetting reneighboring criteria during minimization (../min.cpp:168)
Memory usage per processor = 4.9009 Mbytes
Step PotEng Pxx Pyy Pxy Lx Ly Lz 
       0   -1876.1832    1.5418355   0.36455444 -0.013857598      4.48985    16.745505      4.48985 
       1   -1876.3545    1.4283245 0.0076959487 0.0016094747      4.48985    16.745505      4.48985 
       2   -1876.3548    1.4253739 -3.2966171e-05 -1.4640171e-05      4.48985    16.745505      4.48985 
       3   -1876.3548    1.4253834 1.5672299e-07 -5.2644602e-08      4.48985    16.745505      4.48985 
       4   -1876.3548    1.4253834 1.7792718e-09 1.217792e-10      4.48985    16.745505      4.48985 
       5   -1876.3548    1.4253834 5.8153831e-12 -2.8130292e-12      4.48985    16.745505      4.48985 
Loop time of 0.202966 on 1 procs for 4 steps with 336 atoms

Minimization stats:
  Stopping criterion = force tolerance
  Energy initial, next-to-last, final = 
        -1876.18315156     -1876.35480523     -1876.35481472
  Force two-norm initial, final = 3.23 3.9313e-10
  Force max component initial, final = 0.453206 7.16682e-11
  Final line search alpha, max atom move = 0 0
  Iterations, force evaluations = 4 415

Pair  time (%) = 0.179646 (88.5106)
Neigh time (%) = 0 (0)
Comm  time (%) = 0.0126791 (6.24692)
Outpt time (%) = 0.000293196 (0.144456)
Other time (%) = 0.0103473 (5.09805)

Nlocal:    336 ave 336 max 336 min
Histogram: 1 0 0 0 0 0 0 0 0 0
Nghost:    1092 ave 1092 max 1092 min
Histogram: 1 0 0 0 0 0 0 0 0 0
Neighs:    8504 ave 8504 max 8504 min
Histogram: 1 0 0 0 0 0 0 0 0 0

Total # of neighbors = 8504
Ave neighs/atom = 25.3095
Neighbor list builds = 0
Dangerous builds = 0
        next i
jump SELF loop1
        read_dump orig.dump 0 x y z
  orthogonal box = (0 -0.606141 0) to (4.48985 16.1864 4.48985)
  336 atoms before read
  336 atoms in snapshot
  0 atoms purged
  336 atoms replaced
  0 atoms trimmed
  0 atoms added
  336 atoms after read
        variable stretch equal 1+$i*${strainstep}
        variable stretch equal 1+7*${strainstep}
        variable stretch equal 1+7*-0.0005
        change_box all ${direction} scale ${stretch} remap
        change_box all y scale ${stretch} remap
        change_box all y scale 0.9965 remap
  orthogonal box = (0 -0.578427 0) to (4.48985 16.1587 4.48985)
        min_style ${style}
        min_style hftn
        minimize ${etol} ${ftol} ${maxiter} ${maxeval}
        minimize 1e-12 ${ftol} ${maxiter} ${maxeval}
        minimize 1e-12 1e-08 ${maxiter} ${maxeval}
        minimize 1e-12 1e-08 10000 ${maxeval}
        minimize 1e-12 1e-08 10000 20000
WARNING: Resetting reneighboring criteria during minimization (../min.cpp:168)
Memory usage per processor = 4.9009 Mbytes
Step PotEng Pxx Pyy Pxy Lx Ly Lz 
       0   -1876.1158    1.5638184   0.43124401 -0.016222912      4.48985    16.737107      4.48985 
       1   -1876.3542    1.4300285  0.010655032 0.0017946608      4.48985    16.737107      4.48985 
       2   -1876.3548    1.4261008 -1.2316719e-05 -4.5134869e-06      4.48985    16.737107      4.48985 
       3   -1876.3548    1.4261003 4.6439783e-06 1.981829e-07      4.48985    16.737107      4.48985 
       4   -1876.3548    1.4260986 5.9345912e-12 -1.5632359e-11      4.48985    16.737107      4.48985 
Loop time of 0.159 on 1 procs for 3 steps with 336 atoms

Minimization stats:
  Stopping criterion = force tolerance
  Energy initial, next-to-last, final = 
        -1876.11575657     -1876.35481093     -1876.35481472
  Force two-norm initial, final = 3.81946 1.6413e-09
  Force max component initial, final = 0.535831 2.65539e-10
  Final line search alpha, max atom move = 0 0
  Iterations, force evaluations = 3 328

Pair  time (%) = 0.141915 (89.2548)
Neigh time (%) = 0 (0)
Comm  time (%) = 0.011227 (7.06098)
Outpt time (%) = 0.000200173 (0.125895)
Other time (%) = 0.00565771 (3.55831)

Nlocal:    336 ave 336 max 336 min
Histogram: 1 0 0 0 0 0 0 0 0 0
Nghost:    1092 ave 1092 max 1092 min
Histogram: 1 0 0 0 0 0 0 0 0 0
Neighs:    8504 ave 8504 max 8504 min
Histogram: 1 0 0 0 0 0 0 0 0 0

Total # of neighbors = 8504
Ave neighs/atom = 25.3095
Neighbor list builds = 0
Dangerous builds = 0
        next i
jump SELF loop1
        read_dump orig.dump 0 x y z
  orthogonal box = (0 -0.606141 0) to (4.48985 16.1864 4.48985)
  336 atoms before read
  336 atoms in snapshot
  0 atoms purged
  336 atoms replaced
  0 atoms trimmed
  0 atoms added
  336 atoms after read
        variable stretch equal 1+$i*${strainstep}
        variable stretch equal 1+8*${strainstep}
        variable stretch equal 1+8*-0.0005
        change_box all ${direction} scale ${stretch} remap
        change_box all y scale ${stretch} remap
        change_box all y scale 0.996 remap
  orthogonal box = (0 -0.574228 0) to (4.48985 16.1545 4.48985)
        min_style ${style}
        min_style hftn
        minimize ${etol} ${ftol} ${maxiter} ${maxeval}
        minimize 1e-12 ${ftol} ${maxiter} ${maxeval}
        minimize 1e-12 1e-08 ${maxiter} ${maxeval}
        minimize 1e-12 1e-08 10000 ${maxeval}
        minimize 1e-12 1e-08 10000 20000
WARNING: Resetting reneighboring criteria during minimization (../min.cpp:168)
Memory usage per processor = 4.9009 Mbytes
Step PotEng Pxx Pyy Pxy Lx Ly Lz 
       0   -1876.0372    1.5859443   0.49841721 -0.018544868      4.48985    16.728709      4.48985 
       1    -1876.354    1.4317777  0.013412963 0.0023253308      4.48985    16.728709      4.48985 
       2   -1876.3548    1.4268435 2.6870547e-05 3.1923267e-05      4.48985    16.728709      4.48985 
       3   -1876.3548    1.4268159 3.6596937e-06 6.6575434e-07      4.48985    16.728709      4.48985 
       4   -1876.3548    1.4268145 5.7554922e-12 -1.3302544e-11      4.48985    16.728709      4.48985 
Loop time of 0.202828 on 1 procs for 3 steps with 336 atoms

Minimization stats:
  Stopping criterion = force tolerance
  Energy initial, next-to-last, final = 
        -1876.03720528     -1876.35481176     -1876.35481472
  Force two-norm initial, final = 4.4129 1.22195e-09
  Force max component initial, final = 0.619073 2.06833e-10
  Final line search alpha, max atom move = 0 0
  Iterations, force evaluations = 3 324

Pair  time (%) = 0.170789 (84.2041)
Neigh time (%) = 0 (0)
Comm  time (%) = 0.0247082 (12.1818)
Outpt time (%) = 0.000261961 (0.129154)
Other time (%) = 0.00706847 (3.48496)

Nlocal:    336 ave 336 max 336 min
Histogram: 1 0 0 0 0 0 0 0 0 0
Nghost:    1092 ave 1092 max 1092 min
Histogram: 1 0 0 0 0 0 0 0 0 0
Neighs:    8504 ave 8504 max 8504 min
Histogram: 1 0 0 0 0 0 0 0 0 0

Total # of neighbors = 8504
Ave neighs/atom = 25.3095
Neighbor list builds = 0
Dangerous builds = 0
        next i
jump SELF loop1
        read_dump orig.dump 0 x y z
  orthogonal box = (0 -0.606141 0) to (4.48985 16.1864 4.48985)
  336 atoms before read
  336 atoms in snapshot
  0 atoms purged
  336 atoms replaced
  0 atoms trimmed
  0 atoms added
  336 atoms after read
        variable stretch equal 1+$i*${strainstep}
        variable stretch equal 1+9*${strainstep}
        variable stretch equal 1+9*-0.0005
        change_box all ${direction} scale ${stretch} remap
        change_box all y scale ${stretch} remap
        change_box all y scale 0.9955 remap
  orthogonal box = (0 -0.570029 0) to (4.48985 16.1503 4.48985)
        min_style ${style}
        min_style hftn
        minimize ${etol} ${ftol} ${maxiter} ${maxeval}
        minimize 1e-12 ${ftol} ${maxiter} ${maxeval}
        minimize 1e-12 1e-08 ${maxiter} ${maxeval}
        minimize 1e-12 1e-08 10000 ${maxeval}
        minimize 1e-12 1e-08 10000 20000
WARNING: Resetting reneighboring criteria during minimization (../min.cpp:168)
Memory usage per processor = 4.9009 Mbytes
Step PotEng Pxx Pyy Pxy Lx Ly Lz 
       0   -1875.9472    1.6082157   0.56608393 -0.020835533      4.48985    16.720311      4.48985 
       1   -1876.3537    1.4340473  0.017955252  0.002416003      4.48985    16.720311      4.48985 
       2   -1876.3548    1.4275753 8.8706113e-05 5.0137484e-05      4.48985    16.720311      4.48985 
       3   -1876.3548    1.4275339 6.8318885e-06 4.3956231e-07      4.48985    16.720311      4.48985 
       4   -1876.3548    1.4275311 -2.6266021e-12 1.7626884e-12      4.48985    16.720311      4.48985 
Loop time of 0.157632 on 1 procs for 3 steps with 336 atoms

Minimization stats:
  Stopping criterion = force tolerance
  Energy initial, next-to-last, final = 
        -1875.94717239     -1876.35481098     -1876.35481472
  Force two-norm initial, final = 5.0104 4.56685e-09
  Force max component initial, final = 0.70285 8.14427e-10
  Final line search alpha, max atom move = 0 0
  Iterations, force evaluations = 3 314

Pair  time (%) = 0.144495 (91.666)
Neigh time (%) = 0 (0)
Comm  time (%) = 0.00581328 (3.68788)
Outpt time (%) = 0.0015789 (1.00164)
Other time (%) = 0.00574495 (3.64453)

Nlocal:    336 ave 336 max 336 min
Histogram: 1 0 0 0 0 0 0 0 0 0
Nghost:    1092 ave 1092 max 1092 min
Histogram: 1 0 0 0 0 0 0 0 0 0
Neighs:    8504 ave 8504 max 8504 min
Histogram: 1 0 0 0 0 0 0 0 0 0

Total # of neighbors = 8504
Ave neighs/atom = 25.3095
Neighbor list builds = 0
Dangerous builds = 0
        next i
jump SELF loop1
        read_dump orig.dump 0 x y z
  orthogonal box = (0 -0.606141 0) to (4.48985 16.1864 4.48985)
  336 atoms before read
  336 atoms in snapshot
  0 atoms purged
  336 atoms replaced
  0 atoms trimmed
  0 atoms added
  336 atoms after read
        variable stretch equal 1+$i*${strainstep}
        variable stretch equal 1+10*${strainstep}
        variable stretch equal 1+10*-0.0005
        change_box all ${direction} scale ${stretch} remap
        change_box all y scale ${stretch} remap
        change_box all y scale 0.995 remap
  orthogonal box = (0 -0.56583 0) to (4.48985 16.1461 4.48985)
        min_style ${style}
        min_style hftn
        minimize ${etol} ${ftol} ${maxiter} ${maxeval}
        minimize 1e-12 ${ftol} ${maxiter} ${maxeval}
        minimize 1e-12 1e-08 ${maxiter} ${maxeval}
        minimize 1e-12 1e-08 10000 ${maxeval}
        minimize 1e-12 1e-08 10000 20000
WARNING: Resetting reneighboring criteria during minimization (../min.cpp:168)
Memory usage per processor = 4.9009 Mbytes
Step PotEng Pxx Pyy Pxy Lx Ly Lz 
       0   -1875.8456    1.6306336   0.63423896 -0.023083612      4.48985    16.711913      4.48985 
       1   -1876.3532    1.4358386  0.021430513 0.0028366467      4.48985    16.711913      4.48985 
       2   -1876.3548    1.4282608 -5.0794858e-05 7.9751356e-05      4.48985    16.711913      4.48985 
       3   -1876.3548    1.4282608 -5.0794858e-05 7.9751356e-05      4.48985    16.711913      4.48985 
       4   -1876.3548    1.4282608 -5.0794858e-05 7.9751356e-05      4.48985    16.711913      4.48985 
       5   -1876.3548    1.4282608 -5.0794858e-05 7.9751356e-05      4.48985    16.711913      4.48985 
       6   -1876.3548    1.4282608 -5.0794858e-05 7.9751356e-05      4.48985    16.711913      4.48985 
       7   -1876.3548    1.4282608 -5.0794858e-05 7.9751356e-05      4.48985    16.711913      4.48985 
       8   -1876.3548    1.4282608 -5.070825e-05 7.9705158e-05      4.48985    16.711913      4.48985 
Loop time of 0.103436 on 1 procs for 7 steps with 336 atoms

Minimization stats:
  Stopping criterion = energy tolerance
  Energy initial, next-to-last, final = 
        -1875.84558978     -1876.35319983     -1876.35481833
  Force two-norm initial, final = 5.61223 0.0247083
  Force max component initial, final = 0.787352 0.00350251
  Final line search alpha, max atom move = 0 0
  Iterations, force evaluations = 7 210

Pair  time (%) = 0.0933123 (90.2126)
Neigh time (%) = 0 (0)
Comm  time (%) = 0.00632474 (6.11464)
Outpt time (%) = 0.000433673 (0.419267)
Other time (%) = 0.0033653 (3.25351)

Nlocal:    336 ave 336 max 336 min
Histogram: 1 0 0 0 0 0 0 0 0 0
Nghost:    1092 ave 1092 max 1092 min
Histogram: 1 0 0 0 0 0 0 0 0 0
Neighs:    8504 ave 8504 max 8504 min
Histogram: 1 0 0 0 0 0 0 0 0 0

Total # of neighbors = 8504
Ave neighs/atom = 25.3095
Neighbor list builds = 0
Dangerous builds = 0
        next i
jump SELF loop1
        read_dump orig.dump 0 x y z
  orthogonal box = (0 -0.606141 0) to (4.48985 16.1864 4.48985)
  336 atoms before read
  336 atoms in snapshot
  0 atoms purged
  336 atoms replaced
  0 atoms trimmed
  0 atoms added
  336 atoms after read
        variable stretch equal 1+$i*${strainstep}
        variable stretch equal 1+11*${strainstep}
        variable stretch equal 1+11*-0.0005
        change_box all ${direction} scale ${stretch} remap
        change_box all y scale ${stretch} remap
        change_box all y scale 0.9945 remap
  orthogonal box = (0 -0.561631 0) to (4.48985 16.1419 4.48985)
        min_style ${style}
        min_style hftn
        minimize ${etol} ${ftol} ${maxiter} ${maxeval}
        minimize 1e-12 ${ftol} ${maxiter} ${maxeval}
        minimize 1e-12 1e-08 ${maxiter} ${maxeval}
        minimize 1e-12 1e-08 10000 ${maxeval}
        minimize 1e-12 1e-08 10000 20000
WARNING: Resetting reneighboring criteria during minimization (../min.cpp:168)
Memory usage per processor = 4.9009 Mbytes
Step PotEng Pxx Pyy Pxy Lx Ly Lz 
       0   -1875.7326     1.653192   0.70288036 -0.025289694      4.48985    16.703515      4.48985 
       1   -1876.3525     1.438489  0.027166347 0.0032280505      4.48985    16.703515      4.48985 
       2   -1876.3548    1.4290093 1.2669155e-05 0.00013428515      4.48985    16.703515      4.48985 
       3   -1876.3548    1.4290093 1.2669155e-05 0.00013428515      4.48985    16.703515      4.48985 
       4   -1876.3548    1.4290093 1.2669155e-05 0.00013428515      4.48985    16.703515      4.48985 
       5   -1876.3548    1.4290093 1.2669155e-05 0.00013428515      4.48985    16.703515      4.48985 
       6   -1876.3548    1.4290093 1.2669155e-05 0.00013428515      4.48985    16.703515      4.48985 
       7   -1876.3548    1.4290093 1.2669155e-05 0.00013428515      4.48985    16.703515      4.48985 
       8   -1876.3548    1.4290093 1.2669155e-05 0.00013428515      4.48985    16.703515      4.48985 
       9   -1876.3548    1.4290093 1.2669155e-05 0.00013428515      4.48985    16.703515      4.48985 
      10   -1876.3548    1.4290093 1.2670343e-05 0.00013428351      4.48985    16.703515      4.48985 
Loop time of 0.116629 on 1 procs for 9 steps with 336 atoms

Minimization stats:
  Stopping criterion = energy tolerance
  Energy initial, next-to-last, final = 
        -1875.73260672     -1876.35250958     -1876.35482102
  Force two-norm initial, final = 6.21765 0.0315588
  Force max component initial, final = 0.872434 0.00620499
  Final line search alpha, max atom move = 0 0
  Iterations, force evaluations = 9 222

Pair  time (%) = 0.103477 (88.7227)
Neigh time (%) = 0 (0)
Comm  time (%) = 0.00890553 (7.63577)
Outpt time (%) = 0.000504873 (0.432887)
Other time (%) = 0.0037422 (3.20864)

Nlocal:    336 ave 336 max 336 min
Histogram: 1 0 0 0 0 0 0 0 0 0
Nghost:    1092 ave 1092 max 1092 min
Histogram: 1 0 0 0 0 0 0 0 0 0
Neighs:    8504 ave 8504 max 8504 min
Histogram: 1 0 0 0 0 0 0 0 0 0

Total # of neighbors = 8504
Ave neighs/atom = 25.3095
Neighbor list builds = 0
Dangerous builds = 0
        next i
jump SELF loop1
        read_dump orig.dump 0 x y z
  orthogonal box = (0 -0.606141 0) to (4.48985 16.1864 4.48985)
  336 atoms before read
  336 atoms in snapshot
  0 atoms purged
  336 atoms replaced
  0 atoms trimmed
  0 atoms added
  336 atoms after read
        variable stretch equal 1+$i*${strainstep}
        variable stretch equal 1+12*${strainstep}
        variable stretch equal 1+12*-0.0005
        change_box all ${direction} scale ${stretch} remap
        change_box all y scale ${stretch} remap
        change_box all y scale 0.994 remap
  orthogonal box = (0 -0.557432 0) to (4.48985 16.1377 4.48985)
        min_style ${style}
        min_style hftn
        minimize ${etol} ${ftol} ${maxiter} ${maxeval}
        minimize 1e-12 ${ftol} ${maxiter} ${maxeval}
        minimize 1e-12 1e-08 ${maxiter} ${maxeval}
        minimize 1e-12 1e-08 10000 ${maxeval}
        minimize 1e-12 1e-08 10000 20000
WARNING: Resetting reneighboring criteria during minimization (../min.cpp:168)
Memory usage per processor = 4.9009 Mbytes
Step PotEng Pxx Pyy Pxy Lx Ly Lz 
       0   -1875.6076    1.6759017   0.77203188 -0.027459396      4.48985    16.695118      4.48985 
       1   -1876.3522    1.4405823  0.031170712 0.0036964036      4.48985    16.695118      4.48985 
       2   -1876.3548    1.4297662 0.00012049911 0.00014909922      4.48985    16.695118      4.48985 
       3   -1876.3548    1.4297662 0.00012049911 0.00014909922      4.48985    16.695118      4.48985 
       4   -1876.3548    1.4297662 0.00012049911 0.00014909922      4.48985    16.695118      4.48985 
       5   -1876.3548    1.4297662 0.00012049911 0.00014909922      4.48985    16.695118      4.48985 
       6   -1876.3548    1.4297662 0.00012049911 0.00014909922      4.48985    16.695118      4.48985 
       7   -1876.3548    1.4297662 0.00012049911 0.00014909922      4.48985    16.695118      4.48985 
       8   -1876.3548    1.4297662 0.00012049911 0.00014909922      4.48985    16.695118      4.48985 
       9   -1876.3548    1.4297662 0.00012049707 0.00014908874      4.48985    16.695118      4.48985 
Loop time of 0.115815 on 1 procs for 8 steps with 336 atoms

Minimization stats:
  Stopping criterion = energy tolerance
  Energy initial, next-to-last, final = 
        -1875.60762979     -1876.35222291     -1876.35481636
  Force two-norm initial, final = 6.82742 0.022026
  Force max component initial, final = 0.958221 0.00292646
  Final line search alpha, max atom move = 0 0
  Iterations, force evaluations = 8 225

Pair  time (%) = 0.098967 (85.4526)
Neigh time (%) = 0 (0)
Comm  time (%) = 0.0125837 (10.8654)
Outpt time (%) = 0.000517849 (0.447134)
Other time (%) = 0.00374654 (3.23493)

Nlocal:    336 ave 336 max 336 min
Histogram: 1 0 0 0 0 0 0 0 0 0
Nghost:    1092 ave 1092 max 1092 min
Histogram: 1 0 0 0 0 0 0 0 0 0
Neighs:    8504 ave 8504 max 8504 min
Histogram: 1 0 0 0 0 0 0 0 0 0

Total # of neighbors = 8504
Ave neighs/atom = 25.3095
Neighbor list builds = 0
Dangerous builds = 0
        next i
jump SELF loop1
        read_dump orig.dump 0 x y z
  orthogonal box = (0 -0.606141 0) to (4.48985 16.1864 4.48985)
  336 atoms before read
  336 atoms in snapshot
  0 atoms purged
  336 atoms replaced
  0 atoms trimmed
  0 atoms added
  336 atoms after read
        variable stretch equal 1+$i*${strainstep}
        variable stretch equal 1+13*${strainstep}
        variable stretch equal 1+13*-0.0005
        change_box all ${direction} scale ${stretch} remap
        change_box all y scale ${stretch} remap
        change_box all y scale 0.9935 remap
  orthogonal box = (0 -0.553233 0) to (4.48985 16.1335 4.48985)
        min_style ${style}
        min_style hftn
        minimize ${etol} ${ftol} ${maxiter} ${maxeval}
        minimize 1e-12 ${ftol} ${maxiter} ${maxeval}
        minimize 1e-12 1e-08 ${maxiter} ${maxeval}
        minimize 1e-12 1e-08 10000 ${maxeval}
        minimize 1e-12 1e-08 10000 20000
WARNING: Resetting reneighboring criteria during minimization (../min.cpp:168)
Memory usage per processor = 4.9009 Mbytes
Step PotEng Pxx Pyy Pxy Lx Ly Lz 
       0   -1875.4713    1.6987413   0.84165101 -0.029567739      4.48985     16.68672      4.48985 
       1   -1876.3512    1.4432879  0.037119693 0.0038133972      4.48985     16.68672      4.48985 
       2   -1876.3548     1.430493 4.0702939e-05 0.00024727548      4.48985     16.68672      4.48985 
       3   -1876.3548     1.430493 4.0702939e-05 0.00024727548      4.48985     16.68672      4.48985 
       4   -1876.3548     1.430493 4.0702939e-05 0.00024727548      4.48985     16.68672      4.48985 
       5   -1876.3548     1.430493 4.0702939e-05 0.00024727548      4.48985     16.68672      4.48985 
       6   -1876.3548     1.430494 4.2945653e-05 0.00024395054      4.48985     16.68672      4.48985 
       7   -1876.3548     1.430494 4.2945653e-05 0.00024395054      4.48985     16.68672      4.48985 
       8   -1876.3548     1.430494 4.2945653e-05 0.00024395054      4.48985     16.68672      4.48985 
       9   -1876.3548    1.4304941 4.3092389e-05  0.000243738      4.48985     16.68672      4.48985 
Loop time of 0.103984 on 1 procs for 8 steps with 336 atoms

Minimization stats:
  Stopping criterion = energy tolerance
  Energy initial, next-to-last, final = 
        -1875.47132603     -1876.35482055     -1876.35482056
  Force two-norm initial, final = 7.44064 0.0369989
  Force max component initial, final = 1.04448 0.00623267
  Final line search alpha, max atom move = 0 0
  Iterations, force evaluations = 8 211

Pair  time (%) = 0.0885864 (85.1923)
Neigh time (%) = 0 (0)
Comm  time (%) = 0.00878297 (8.44646)
Outpt time (%) = 0.000908124 (0.87333)
Other time (%) = 0.00570657 (5.48792)

Nlocal:    336 ave 336 max 336 min
Histogram: 1 0 0 0 0 0 0 0 0 0
Nghost:    1092 ave 1092 max 1092 min
Histogram: 1 0 0 0 0 0 0 0 0 0
Neighs:    8504 ave 8504 max 8504 min
Histogram: 1 0 0 0 0 0 0 0 0 0

Total # of neighbors = 8504
Ave neighs/atom = 25.3095
Neighbor list builds = 0
Dangerous builds = 0
        next i
jump SELF loop1
        read_dump orig.dump 0 x y z
  orthogonal box = (0 -0.606141 0) to (4.48985 16.1864 4.48985)
  336 atoms before read
  336 atoms in snapshot
  0 atoms purged
  336 atoms replaced
  0 atoms trimmed
  0 atoms added
  336 atoms after read
        variable stretch equal 1+$i*${strainstep}
        variable stretch equal 1+14*${strainstep}
        variable stretch equal 1+14*-0.0005
        change_box all ${direction} scale ${stretch} remap
        change_box all y scale ${stretch} remap
        change_box all y scale 0.993 remap
  orthogonal box = (0 -0.549034 0) to (4.48985 16.1293 4.48985)
        min_style ${style}
        min_style hftn
        minimize ${etol} ${ftol} ${maxiter} ${maxeval}
        minimize 1e-12 ${ftol} ${maxiter} ${maxeval}
        minimize 1e-12 1e-08 ${maxiter} ${maxeval}
        minimize 1e-12 1e-08 10000 ${maxeval}
        minimize 1e-12 1e-08 10000 20000
WARNING: Resetting reneighboring criteria during minimization (../min.cpp:168)
Memory usage per processor = 4.9009 Mbytes
Step PotEng Pxx Pyy Pxy Lx Ly Lz 
       0   -1875.3228    1.7217397   0.91179239 -0.031647947      4.48985    16.678322      4.48985 
       1   -1876.3508    1.4459098  0.042556077 0.0045350317      4.48985    16.678322      4.48985 
       2   -1876.3548    1.4312431  0.000189839 0.00026062663      4.48985    16.678322      4.48985 
       3   -1876.3548    1.4311166 -3.0427277e-05 7.9994273e-06      4.48985    16.678322      4.48985 
       4   -1876.3548    1.4311166 -3.0427277e-05 7.9994273e-06      4.48985    16.678322      4.48985 
       5   -1876.3548    1.4311172 -2.5663047e-05 6.3934842e-06      4.48985    16.678322      4.48985 
       6   -1876.3548    1.4311172 -2.5663047e-05 6.3934842e-06      4.48985    16.678322      4.48985 
       7   -1876.3548    1.4311172 -2.5663047e-05 6.3934842e-06      4.48985    16.678322      4.48985 
       8   -1876.3548    1.4311174 -2.5516605e-05 6.1734083e-06      4.48985    16.678322      4.48985 
       9   -1876.3548    1.4311174 -2.5516605e-05 6.1734083e-06      4.48985    16.678322      4.48985 
      10   -1876.3548    1.4311174 -2.5516605e-05 6.1734083e-06      4.48985    16.678322      4.48985 
      11   -1876.3548    1.4311174 -2.5516605e-05 6.1734083e-06      4.48985    16.678322      4.48985 
      12   -1876.3548    1.4311174 -2.551402e-05 6.1717556e-06      4.48985    16.678322      4.48985 
Loop time of 0.188504 on 1 procs for 11 steps with 336 atoms

Minimization stats:
  Stopping criterion = energy tolerance
  Energy initial, next-to-last, final = 
        -1875.32282328     -1876.35481515     -1876.35481519
  Force two-norm initial, final = 8.05857 0.000195841
  Force max component initial, final = 1.13149 1.92393e-05
  Final line search alpha, max atom move = 0 0
  Iterations, force evaluations = 11 382

Pair  time (%) = 0.166392 (88.2697)
Neigh time (%) = 0 (0)
Comm  time (%) = 0.0138391 (7.34156)
Outpt time (%) = 0.00144904 (0.768706)
Other time (%) = 0.0068239 (3.62003)

Nlocal:    336 ave 336 max 336 min
Histogram: 1 0 0 0 0 0 0 0 0 0
Nghost:    1092 ave 1092 max 1092 min
Histogram: 1 0 0 0 0 0 0 0 0 0
Neighs:    8504 ave 8504 max 8504 min
Histogram: 1 0 0 0 0 0 0 0 0 0

Total # of neighbors = 8504
Ave neighs/atom = 25.3095
Neighbor list builds = 0
Dangerous builds = 0
        next i
jump SELF loop1
        read_dump orig.dump 0 x y z
  orthogonal box = (0 -0.606141 0) to (4.48985 16.1864 4.48985)
  336 atoms before read
  336 atoms in snapshot
  0 atoms purged
  336 atoms replaced
  0 atoms trimmed
  0 atoms added
  336 atoms after read
        variable stretch equal 1+$i*${strainstep}
        variable stretch equal 1+15*${strainstep}
        variable stretch equal 1+15*-0.0005
        change_box all ${direction} scale ${stretch} remap
        change_box all y scale ${stretch} remap
        change_box all y scale 0.9925 remap
  orthogonal box = (0 -0.544835 0) to (4.48985 16.1251 4.48985)
        min_style ${style}
        min_style hftn
        minimize ${etol} ${ftol} ${maxiter} ${maxeval}
        minimize 1e-12 ${ftol} ${maxiter} ${maxeval}
        minimize 1e-12 1e-08 ${maxiter} ${maxeval}
        minimize 1e-12 1e-08 10000 ${maxeval}
        minimize 1e-12 1e-08 10000 20000
WARNING: Resetting reneighboring criteria during minimization (../min.cpp:168)
Memory usage per processor = 4.9009 Mbytes
Step PotEng Pxx Pyy Pxy Lx Ly Lz 
       0   -1875.1626    1.7448652   0.98241604 -0.033658667      4.48985    16.669924      4.48985 
       1   -1876.3498    1.4485654  0.048398463 0.0049304622      4.48985    16.669924      4.48985 
       2   -1876.3548    1.4319842 0.0002719888 0.00024851607      4.48985    16.669924      4.48985 
       3   -1876.3548    1.4318293 -5.9654614e-05 1.3847509e-05      4.48985    16.669924      4.48985 
       4   -1876.3548    1.4318293 -5.9654614e-05 1.3847509e-05      4.48985    16.669924      4.48985 
       5   -1876.3548    1.4318331 -4.299587e-05 1.1611777e-05      4.48985    16.669924      4.48985 
       6   -1876.3548    1.4318331 -4.299587e-05 1.1611777e-05      4.48985    16.669924      4.48985 
       7   -1876.3548    1.4318331 -4.299587e-05 1.1611777e-05      4.48985    16.669924      4.48985 
       8   -1876.3548    1.4318331 -4.299587e-05 1.1611777e-05      4.48985    16.669924      4.48985 
       9   -1876.3548    1.4318331 -4.299587e-05 1.1611777e-05      4.48985    16.669924      4.48985 
      10   -1876.3548    1.4318331 -4.2990116e-05 1.1609795e-05      4.48985    16.669924      4.48985 
Loop time of 0.183152 on 1 procs for 9 steps with 336 atoms

Minimization stats:
  Stopping criterion = energy tolerance
  Energy initial, next-to-last, final = 
        -1875.16264887     -1876.35481543     -1876.35481553
  Force two-norm initial, final = 8.67954 0.000421815
  Force max component initial, final = 1.21895 4.0416e-05
  Final line search alpha, max atom move = 0 0
  Iterations, force evaluations = 9 370

Pair  time (%) = 0.16391 (89.4937)
Neigh time (%) = 0 (0)
Comm  time (%) = 0.00923703 (5.04337)
Outpt time (%) = 0.00289137 (1.57867)
Other time (%) = 0.00711402 (3.88422)

Nlocal:    336 ave 336 max 336 min
Histogram: 1 0 0 0 0 0 0 0 0 0
Nghost:    1092 ave 1092 max 1092 min
Histogram: 1 0 0 0 0 0 0 0 0 0
Neighs:    8504 ave 8504 max 8504 min
Histogram: 1 0 0 0 0 0 0 0 0 0

Total # of neighbors = 8504
Ave neighs/atom = 25.3095
Neighbor list builds = 0
Dangerous builds = 0
        next i
jump SELF loop1
        read_dump orig.dump 0 x y z
  orthogonal box = (0 -0.606141 0) to (4.48985 16.1864 4.48985)
  336 atoms before read
  336 atoms in snapshot
  0 atoms purged
  336 atoms replaced
  0 atoms trimmed
  0 atoms added
  336 atoms after read
        variable stretch equal 1+$i*${strainstep}
        variable stretch equal 1+16*${strainstep}
        variable stretch equal 1+16*-0.0005
        change_box all ${direction} scale ${stretch} remap
        change_box all y scale ${stretch} remap
        change_box all y scale 0.992 remap
  orthogonal box = (0 -0.540636 0) to (4.48985 16.1209 4.48985)
        min_style ${style}
        min_style hftn
        minimize ${etol} ${ftol} ${maxiter} ${maxeval}
        minimize 1e-12 ${ftol} ${maxiter} ${maxeval}
        minimize 1e-12 1e-08 ${maxiter} ${maxeval}
        minimize 1e-12 1e-08 10000 ${maxeval}
        minimize 1e-12 1e-08 10000 20000
WARNING: Resetting reneighboring criteria during minimization (../min.cpp:168)
Memory usage per processor = 4.9009 Mbytes
Step PotEng Pxx Pyy Pxy Lx Ly Lz 
       0   -1874.9902     1.768127    1.0535361 -0.035620364      4.48985    16.661526      4.48985 
       1   -1876.3495    1.4516238  0.054859861 0.0059431007      4.48985    16.661526      4.48985 
       2   -1876.3548    1.4326712 0.00026496849 0.00024685085      4.48985    16.661526      4.48985 
       3   -1876.3548    1.4325549 -3.9999653e-05 5.7345007e-06      4.48985    16.661526      4.48985 
       4   -1876.3548    1.4325549 -3.9999653e-05 5.7345007e-06      4.48985    16.661526      4.48985 
       5   -1876.3548    1.4325549 -3.9999653e-05 5.7345007e-06      4.48985    16.661526      4.48985 
       6   -1876.3548    1.4325549 -3.9999653e-05 5.7345007e-06      4.48985    16.661526      4.48985 
       7   -1876.3548    1.4325549 -3.9999653e-05 5.7345007e-06      4.48985    16.661526      4.48985 
       8   -1876.3548    1.4325549 -3.9999653e-05 5.7345007e-06      4.48985    16.661526      4.48985 
       9   -1876.3548    1.4325549 -4.0001768e-05 5.7406024e-06      4.48985    16.661526      4.48985 
Loop time of 0.219155 on 1 procs for 8 steps with 336 atoms

Minimization stats:
  Stopping criterion = energy tolerance
  Energy initial, next-to-last, final = 
        -1874.99023026     -1876.35481414     -1876.35481522
  Force two-norm initial, final = 9.30462 0.000636201
  Force max component initial, final = 1.30732 0.000102925
  Final line search alpha, max atom move = 0 0
  Iterations, force evaluations = 8 349

Pair  time (%) = 0.17325 (79.0538)
Neigh time (%) = 0 (0)
Comm  time (%) = 0.0325193 (14.8385)
Outpt time (%) = 0.00349466 (1.59461)
Other time (%) = 0.00989069 (4.51311)

Nlocal:    336 ave 336 max 336 min
Histogram: 1 0 0 0 0 0 0 0 0 0
Nghost:    1092 ave 1092 max 1092 min
Histogram: 1 0 0 0 0 0 0 0 0 0
Neighs:    8504 ave 8504 max 8504 min
Histogram: 1 0 0 0 0 0 0 0 0 0

Total # of neighbors = 8504
Ave neighs/atom = 25.3095
Neighbor list builds = 0
Dangerous builds = 0
        next i
jump SELF loop1
        read_dump orig.dump 0 x y z
  orthogonal box = (0 -0.606141 0) to (4.48985 16.1864 4.48985)
  336 atoms before read
  336 atoms in snapshot
  0 atoms purged
  336 atoms replaced
  0 atoms trimmed
  0 atoms added
  336 atoms after read
        variable stretch equal 1+$i*${strainstep}
        variable stretch equal 1+17*${strainstep}
        variable stretch equal 1+17*-0.0005
        change_box all ${direction} scale ${stretch} remap
        change_box all y scale ${stretch} remap
        change_box all y scale 0.9915 remap
  orthogonal box = (0 -0.536437 0) to (4.48985 16.1167 4.48985)
        min_style ${style}
        min_style hftn
        minimize ${etol} ${ftol} ${maxiter} ${maxeval}
        minimize 1e-12 ${ftol} ${maxiter} ${maxeval}
        minimize 1e-12 1e-08 ${maxiter} ${maxeval}
        minimize 1e-12 1e-08 10000 ${maxeval}
        minimize 1e-12 1e-08 10000 20000
WARNING: Resetting reneighboring criteria during minimization (../min.cpp:168)
Memory usage per processor = 4.9009 Mbytes
Step PotEng Pxx Pyy Pxy Lx Ly Lz 
       0   -1874.8062    1.7915208    1.1251373 -0.037516356      4.48985    16.653128      4.48985 
       1   -1876.3472    1.4544334  0.061978366 0.0061187891      4.48985    16.653128      4.48985 
       2   -1876.3548    1.4334411 0.00037250405 0.00031840478      4.48985    16.653128      4.48985 
       3   -1876.3548    1.4334411 0.00037250405 0.00031840478      4.48985    16.653128      4.48985 
       4   -1876.3548    1.4334411 0.00037250405 0.00031840478      4.48985    16.653128      4.48985 
       5   -1876.3548    1.4334365 0.00035350545 0.00030379801      4.48985    16.653128      4.48985 
       6   -1876.3548    1.4334365 0.00035350545 0.00030379801      4.48985    16.653128      4.48985 
       7   -1876.3548    1.4334365 0.00035350545 0.00030379801      4.48985    16.653128      4.48985 
       8   -1876.3548    1.4334363 0.00035234342 0.0003027861      4.48985    16.653128      4.48985 
       9   -1876.3548    1.4334363 0.00035234342 0.0003027861      4.48985    16.653128      4.48985 
      10   -1876.3548    1.4334363 0.00035234342 0.0003027861      4.48985    16.653128      4.48985 
      11   -1876.3548    1.4334363 0.00035227096 0.00030272239      4.48985    16.653128      4.48985 
Loop time of 0.129304 on 1 procs for 10 steps with 336 atoms

Minimization stats:
  Stopping criterion = energy tolerance
  Energy initial, next-to-last, final = 
         -1874.8062278     -1876.35481696     -1876.35481697
  Force two-norm initial, final = 9.93307 0.0256362
  Force max component initial, final = 1.39613 0.00309775
  Final line search alpha, max atom move = 0 0
  Iterations, force evaluations = 10 243

Pair  time (%) = 0.109496 (84.6812)
Neigh time (%) = 0 (0)
Comm  time (%) = 0.0140208 (10.8433)
Outpt time (%) = 0.00150869 (1.16678)
Other time (%) = 0.00427827 (3.3087)

Nlocal:    336 ave 336 max 336 min
Histogram: 1 0 0 0 0 0 0 0 0 0
Nghost:    1092 ave 1092 max 1092 min
Histogram: 1 0 0 0 0 0 0 0 0 0
Neighs:    8504 ave 8504 max 8504 min
Histogram: 1 0 0 0 0 0 0 0 0 0

Total # of neighbors = 8504
Ave neighs/atom = 25.3095
Neighbor list builds = 0
Dangerous builds = 0
        next i
jump SELF loop1
        read_dump orig.dump 0 x y z
  orthogonal box = (0 -0.606141 0) to (4.48985 16.1864 4.48985)
  336 atoms before read
  336 atoms in snapshot
  0 atoms purged
  336 atoms replaced
  0 atoms trimmed
  0 atoms added
  336 atoms after read
        variable stretch equal 1+$i*${strainstep}
        variable stretch equal 1+18*${strainstep}
        variable stretch equal 1+18*-0.0005
        change_box all ${direction} scale ${stretch} remap
        change_box all y scale ${stretch} remap
        change_box all y scale 0.991 remap
  orthogonal box = (0 -0.532239 0) to (4.48985 16.1125 4.48985)
        min_style ${style}
        min_style hftn
        minimize ${etol} ${ftol} ${maxiter} ${maxeval}
        minimize 1e-12 ${ftol} ${maxiter} ${maxeval}
        minimize 1e-12 1e-08 ${maxiter} ${maxeval}
        minimize 1e-12 1e-08 10000 ${maxeval}
        minimize 1e-12 1e-08 10000 20000
WARNING: Resetting reneighboring criteria during minimization (../min.cpp:168)
Memory usage per processor = 4.9009 Mbytes
Step PotEng Pxx Pyy Pxy Lx Ly Lz 
       0   -1874.6093    1.8150475     1.197261 -0.039349535      4.48985     16.64473      4.48985 
       1   -1876.3469    1.4574056   0.06795642 0.0073834423      4.48985     16.64473      4.48985 
       2   -1876.3548    1.4341481 0.00040526094 0.00026342397      4.48985     16.64473      4.48985 
       3   -1876.3548    1.4340134 -2.729317e-06 6.7953584e-07      4.48985     16.64473      4.48985 
       4   -1876.3548    1.4340134 -6.5081606e-11 -1.1857888e-10      4.48985     16.64473      4.48985 
       5   -1876.3548    1.4340134 -7.6957824e-13 1.4262058e-12      4.48985     16.64473      4.48985 
Loop time of 0.205259 on 1 procs for 4 steps with 336 atoms

Minimization stats:
  Stopping criterion = force tolerance
  Energy initial, next-to-last, final = 
        -1874.60926421     -1876.35481433     -1876.35481472
  Force two-norm initial, final = 10.5654 8.94479e-11
  Force max component initial, final = 1.48578 1.51879e-11
  Final line search alpha, max atom move = 0 0
  Iterations, force evaluations = 4 414

Pair  time (%) = 0.177691 (86.5693)
Neigh time (%) = 0 (0)
Comm  time (%) = 0.0178613 (8.70185)
Outpt time (%) = 0.000331342 (0.161426)
Other time (%) = 0.00937495 (4.56738)

Nlocal:    336 ave 336 max 336 min
Histogram: 1 0 0 0 0 0 0 0 0 0
Nghost:    1092 ave 1092 max 1092 min
Histogram: 1 0 0 0 0 0 0 0 0 0
Neighs:    8504 ave 8504 max 8504 min
Histogram: 1 0 0 0 0 0 0 0 0 0

Total # of neighbors = 8504
Ave neighs/atom = 25.3095
Neighbor list builds = 0
Dangerous builds = 0
        next i
jump SELF loop1
        read_dump orig.dump 0 x y z
  orthogonal box = (0 -0.606141 0) to (4.48985 16.1864 4.48985)
  336 atoms before read
  336 atoms in snapshot
  0 atoms purged
  336 atoms replaced
  0 atoms trimmed
  0 atoms added
  336 atoms after read
        variable stretch equal 1+$i*${strainstep}
        variable stretch equal 1+19*${strainstep}
        variable stretch equal 1+19*-0.0005
        change_box all ${direction} scale ${stretch} remap
        change_box all y scale ${stretch} remap
        change_box all y scale 0.9905 remap
  orthogonal box = (0 -0.52804 0) to (4.48985 16.1083 4.48985)
        min_style ${style}
        min_style hftn
        minimize ${etol} ${ftol} ${maxiter} ${maxeval}
        minimize 1e-12 ${ftol} ${maxiter} ${maxeval}
        minimize 1e-12 1e-08 ${maxiter} ${maxeval}
        minimize 1e-12 1e-08 10000 ${maxeval}
        minimize 1e-12 1e-08 10000 20000
WARNING: Resetting reneighboring criteria during minimization (../min.cpp:168)
Memory usage per processor = 4.9009 Mbytes
Step PotEng Pxx Pyy Pxy Lx Ly Lz 
       0   -1874.4007    1.8386819    1.2698452 -0.041092505      4.48985    16.636332      4.48985 
       1   -1876.3433    1.4607511  0.077009127  0.007756337      4.48985    16.636332      4.48985 
       2   -1876.3546    1.4366878 3.961432e-05 0.0069907202      4.48985    16.636332      4.48985 
       3   -1876.3548    1.4347421 2.3654402e-05 -1.0400137e-05      4.48985    16.636332      4.48985 
       4   -1876.3548    1.4347372 1.6805441e-10 -4.0120077e-09      4.48985    16.636332      4.48985 
       5   -1876.3548    1.4347372 1.6765599e-11 -1.6819469e-11      4.48985    16.636332      4.48985 
Loop time of 0.182211 on 1 procs for 4 steps with 336 atoms

Minimization stats:
  Stopping criterion = force tolerance
  Energy initial, next-to-last, final = 
        -1874.40072254     -1876.35481435     -1876.35481472
  Force two-norm initial, final = 11.2004 1.20274e-09
  Force max component initial, final = 1.57585 2.56717e-10
  Final line search alpha, max atom move = 0 0
  Iterations, force evaluations = 4 362

Pair  time (%) = 0.161297 (88.5223)
Neigh time (%) = 0 (0)
Comm  time (%) = 0.0125223 (6.87243)
Outpt time (%) = 0.000255994 (0.140493)
Other time (%) = 0.00813528 (4.46476)

Nlocal:    336 ave 336 max 336 min
Histogram: 1 0 0 0 0 0 0 0 0 0
Nghost:    1092 ave 1092 max 1092 min
Histogram: 1 0 0 0 0 0 0 0 0 0
Neighs:    8504 ave 8504 max 8504 min
Histogram: 1 0 0 0 0 0 0 0 0 0

Total # of neighbors = 8504
Ave neighs/atom = 25.3095
Neighbor list builds = 0
Dangerous builds = 0
        next i
jump SELF loop1
        read_dump orig.dump 0 x y z
  orthogonal box = (0 -0.606141 0) to (4.48985 16.1864 4.48985)
  336 atoms before read
  336 atoms in snapshot
  0 atoms purged
  336 atoms replaced
  0 atoms trimmed
  0 atoms added
  336 atoms after read
        variable stretch equal 1+$i*${strainstep}
        variable stretch equal 1+20*${strainstep}
        variable stretch equal 1+20*-0.0005
        change_box all ${direction} scale ${stretch} remap
        change_box all y scale ${stretch} remap
        change_box all y scale 0.99 remap
  orthogonal box = (0 -0.523841 0) to (4.48985 16.1041 4.48985)
        min_style ${style}
        min_style hftn
        minimize ${etol} ${ftol} ${maxiter} ${maxeval}
        minimize 1e-12 ${ftol} ${maxiter} ${maxeval}
        minimize 1e-12 1e-08 ${maxiter} ${maxeval}
        minimize 1e-12 1e-08 10000 ${maxeval}
        minimize 1e-12 1e-08 10000 20000
WARNING: Resetting reneighboring criteria during minimization (../min.cpp:168)
Memory usage per processor = 4.9009 Mbytes
Step PotEng Pxx Pyy Pxy Lx Ly Lz 
       0   -1874.1794    1.8624675    1.3429479 -0.042793715      4.48985    16.627934      4.48985 
       1   -1876.3418    1.4638752  0.084173131 0.0089996496      4.48985    16.627934      4.48985 
       2   -1876.3546    1.4375519 0.00013643499 0.0073610776      4.48985    16.627934      4.48985 
       3   -1876.3548    1.4354674 3.2159211e-05 -1.4400346e-05      4.48985    16.627934      4.48985 
       4   -1876.3548    1.4354619 -9.6387864e-09 1.5758649e-08      4.48985    16.627934      4.48985 
       5   -1876.3548    1.4354619 5.7542344e-11 -5.6613551e-11      4.48985    16.627934      4.48985 
Loop time of 0.182026 on 1 procs for 4 steps with 336 atoms

Minimization stats:
  Stopping criterion = force tolerance
  Energy initial, next-to-last, final = 
        -1874.17943993     -1876.35481399     -1876.35481472
  Force two-norm initial, final = 11.8397 5.26423e-09
  Force max component initial, final = 1.66675 1.58012e-09
  Final line search alpha, max atom move = 0 0
  Iterations, force evaluations = 4 358

Pair  time (%) = 0.163408 (89.7717)
Neigh time (%) = 0 (0)
Comm  time (%) = 0.0104888 (5.76228)
Outpt time (%) = 0.000477983 (0.262591)
Other time (%) = 0.00765126 (4.20339)

Nlocal:    336 ave 336 max 336 min
Histogram: 1 0 0 0 0 0 0 0 0 0
Nghost:    1092 ave 1092 max 1092 min
Histogram: 1 0 0 0 0 0 0 0 0 0
Neighs:    8504 ave 8504 max 8504 min
Histogram: 1 0 0 0 0 0 0 0 0 0

Total # of neighbors = 8504
Ave neighs/atom = 25.3095
Neighbor list builds = 0
Dangerous builds = 0
        next i
jump SELF loop1
        read_dump orig.dump 0 x y z
  orthogonal box = (0 -0.606141 0) to (4.48985 16.1864 4.48985)
  336 atoms before read
  336 atoms in snapshot
  0 atoms purged
  336 atoms replaced
  0 atoms trimmed
  0 atoms added
  336 atoms after read
        variable stretch equal 1+$i*${strainstep}
        variable stretch equal 1+21*${strainstep}
        variable stretch equal 1+21*-0.0005
        change_box all ${direction} scale ${stretch} remap
        change_box all y scale ${stretch} remap
        change_box all y scale 0.9895 remap
  orthogonal box = (0 -0.519642 0) to (4.48985 16.0999 4.48985)
        min_style ${style}
        min_style hftn
        minimize ${etol} ${ftol} ${maxiter} ${maxeval}
        minimize 1e-12 ${ftol} ${maxiter} ${maxeval}
        minimize 1e-12 1e-08 ${maxiter} ${maxeval}
        minimize 1e-12 1e-08 10000 ${maxeval}
        minimize 1e-12 1e-08 10000 20000
WARNING: Resetting reneighboring criteria during minimization (../min.cpp:168)
Memory usage per processor = 4.9009 Mbytes
Step PotEng Pxx Pyy Pxy Lx Ly Lz 
       0   -1873.9462    1.8863401    1.4165049 -0.044379302      4.48985    16.619536      4.48985 
       1   -1876.3394    1.4669644  0.092008098 0.0096065774      4.48985    16.619536      4.48985 
       2   -1876.3545    1.4386118 0.00043086509 0.0078791282      4.48985    16.619536      4.48985 
       3   -1876.3548    1.4361913 3.4906783e-05 -1.2564156e-05      4.48985    16.619536      4.48985 
       4   -1876.3548    1.4361872 -5.5265343e-09 1.6646617e-08      4.48985    16.619536      4.48985 
       5   -1876.3548    1.4361872 1.2563065e-11 -6.3659549e-11      4.48985    16.619536      4.48985 
Loop time of 0.229664 on 1 procs for 4 steps with 336 atoms

Minimization stats:
  Stopping criterion = force tolerance
  Energy initial, next-to-last, final = 
        -1873.94624969     -1876.35481417     -1876.35481472
  Force two-norm initial, final = 12.4812 4.94421e-09
  Force max component initial, final = 1.75814 1.34736e-09
  Final line search alpha, max atom move = 0 0
  Iterations, force evaluations = 4 356

Pair  time (%) = 0.189286 (82.4188)
Neigh time (%) = 0 (0)
Comm  time (%) = 0.032726 (14.2495)
Outpt time (%) = 0.00058988 (0.256845)
Other time (%) = 0.00706188 (3.07488)

Nlocal:    336 ave 336 max 336 min
Histogram: 1 0 0 0 0 0 0 0 0 0
Nghost:    1092 ave 1092 max 1092 min
Histogram: 1 0 0 0 0 0 0 0 0 0
Neighs:    8504 ave 8504 max 8504 min
Histogram: 1 0 0 0 0 0 0 0 0 0

Total # of neighbors = 8504
Ave neighs/atom = 25.3095
Neighbor list builds = 0
Dangerous builds = 0
        next i
jump SELF loop1
        read_dump orig.dump 0 x y z
  orthogonal box = (0 -0.606141 0) to (4.48985 16.1864 4.48985)
  336 atoms before read
  336 atoms in snapshot
  0 atoms purged
  336 atoms replaced
  0 atoms trimmed
  0 atoms added
  336 atoms after read
        variable stretch equal 1+$i*${strainstep}
        variable stretch equal 1+22*${strainstep}
        variable stretch equal 1+22*-0.0005
        change_box all ${direction} scale ${stretch} remap
        change_box all y scale ${stretch} remap
        change_box all y scale 0.989 remap
  orthogonal box = (0 -0.515443 0) to (4.48985 16.0957 4.48985)
        min_style ${style}
        min_style hftn
        minimize ${etol} ${ftol} ${maxiter} ${maxeval}
        minimize 1e-12 ${ftol} ${maxiter} ${maxeval}
        minimize 1e-12 1e-08 ${maxiter} ${maxeval}
        minimize 1e-12 1e-08 10000 ${maxeval}
        minimize 1e-12 1e-08 10000 20000
WARNING: Resetting reneighboring criteria during minimization (../min.cpp:168)
Memory usage per processor = 4.9009 Mbytes
Step PotEng Pxx Pyy Pxy Lx Ly Lz 
       0   -1873.6998    1.9103682    1.4906027  -0.04591657      4.48985    16.611138      4.48985 
       1   -1876.3372    1.4704451   0.10058745 0.0098840635      4.48985    16.611138      4.48985 
       2   -1876.3544    1.4394698 0.00047954074 0.0082505571      4.48985    16.611138      4.48985 
       3   -1876.3548    1.4369197 4.9518067e-05 -1.9506181e-05      4.48985    16.611138      4.48985 
       4   -1876.3548    1.4369133 -1.7675694e-08 8.3414561e-09      4.48985    16.611138      4.48985 
       5   -1876.3548    1.4369133 6.4740834e-11 -7.5747429e-11      4.48985    16.611138      4.48985 
Loop time of 0.18595 on 1 procs for 4 steps with 336 atoms

Minimization stats:
  Stopping criterion = force tolerance
  Energy initial, next-to-last, final = 
        -1873.69979463     -1876.35481423     -1876.35481472
  Force two-norm initial, final = 13.127 3.3365e-09
  Force max component initial, final = 1.85044 5.74339e-10
  Final line search alpha, max atom move = 0 0
  Iterations, force evaluations = 4 354

Pair  time (%) = 0.159844 (85.9607)
Neigh time (%) = 0 (0)
Comm  time (%) = 0.0162726 (8.75105)
Outpt time (%) = 0.00235711 (1.26761)
Other time (%) = 0.00747646 (4.02068)

Nlocal:    336 ave 336 max 336 min
Histogram: 1 0 0 0 0 0 0 0 0 0
Nghost:    1092 ave 1092 max 1092 min
Histogram: 1 0 0 0 0 0 0 0 0 0
Neighs:    8504 ave 8504 max 8504 min
Histogram: 1 0 0 0 0 0 0 0 0 0

Total # of neighbors = 8504
Ave neighs/atom = 25.3095
Neighbor list builds = 0
Dangerous builds = 0
        next i
jump SELF loop1
        read_dump orig.dump 0 x y z
  orthogonal box = (0 -0.606141 0) to (4.48985 16.1864 4.48985)
  336 atoms before read
  336 atoms in snapshot
  0 atoms purged
  336 atoms replaced
  0 atoms trimmed
  0 atoms added
  336 atoms after read
        variable stretch equal 1+$i*${strainstep}
        variable stretch equal 1+23*${strainstep}
        variable stretch equal 1+23*-0.0005
        change_box all ${direction} scale ${stretch} remap
        change_box all y scale ${stretch} remap
        change_box all y scale 0.9885 remap
  orthogonal box = (0 -0.511244 0) to (4.48985 16.0915 4.48985)
        min_style ${style}
        min_style hftn
        minimize ${etol} ${ftol} ${maxiter} ${maxeval}
        minimize 1e-12 ${ftol} ${maxiter} ${maxeval}
        minimize 1e-12 1e-08 ${maxiter} ${maxeval}
        minimize 1e-12 1e-08 10000 ${maxeval}
        minimize 1e-12 1e-08 10000 20000
WARNING: Resetting reneighboring criteria during minimization (../min.cpp:168)
Memory usage per processor = 4.9009 Mbytes
Step PotEng Pxx Pyy Pxy Lx Ly Lz 
       0   -1873.4413    1.9345235     1.565191 -0.047367152      4.48985     16.60274      4.48985 
       1   -1876.3343    1.4745289   0.10989799  0.011001437      4.48985     16.60274      4.48985 
       2   -1876.3544    1.4402541 0.00048982855 0.0085926707      4.48985     16.60274      4.48985 
       3   -1876.3548    1.4376447 4.1200043e-05 -2.4742688e-05      4.48985     16.60274      4.48985 
       4   -1876.3548    1.4376401 -9.1276111e-09 2.0947847e-09      4.48985     16.60274      4.48985 
       5   -1876.3548    1.4376401 7.4693135e-13 3.7589594e-13      4.48985     16.60274      4.48985 
Loop time of 0.181427 on 1 procs for 4 steps with 336 atoms

Minimization stats:
  Stopping criterion = force tolerance
  Energy initial, next-to-last, final = 
        -1873.44126115      -1876.3548144     -1876.35481472
  Force two-norm initial, final = 13.7764 4.43723e-10
  Force max component initial, final = 1.94324 1.08804e-10
  Final line search alpha, max atom move = 0 0
  Iterations, force evaluations = 4 356

Pair  time (%) = 0.157658 (86.899)
Neigh time (%) = 0 (0)
Comm  time (%) = 0.0149641 (8.24803)
Outpt time (%) = 0.000298846 (0.16472)
Other time (%) = 0.00850584 (4.6883)

Nlocal:    336 ave 336 max 336 min
Histogram: 1 0 0 0 0 0 0 0 0 0
Nghost:    1092 ave 1092 max 1092 min
Histogram: 1 0 0 0 0 0 0 0 0 0
Neighs:    8504 ave 8504 max 8504 min
Histogram: 1 0 0 0 0 0 0 0 0 0

Total # of neighbors = 8504
Ave neighs/atom = 25.3095
Neighbor list builds = 0
Dangerous builds = 0
        next i
jump SELF loop1
        read_dump orig.dump 0 x y z
  orthogonal box = (0 -0.606141 0) to (4.48985 16.1864 4.48985)
  336 atoms before read
  336 atoms in snapshot
  0 atoms purged
  336 atoms replaced
  0 atoms trimmed
  0 atoms added
  336 atoms after read
        variable stretch equal 1+$i*${strainstep}
        variable stretch equal 1+24*${strainstep}
        variable stretch equal 1+24*-0.0005
        change_box all ${direction} scale ${stretch} remap
        change_box all y scale ${stretch} remap
        change_box all y scale 0.988 remap
  orthogonal box = (0 -0.507045 0) to (4.48985 16.0873 4.48985)
        min_style ${style}
        min_style hftn
        minimize ${etol} ${ftol} ${maxiter} ${maxeval}
        minimize 1e-12 ${ftol} ${maxiter} ${maxeval}
        minimize 1e-12 1e-08 ${maxiter} ${maxeval}
        minimize 1e-12 1e-08 10000 ${maxeval}
        minimize 1e-12 1e-08 10000 20000
WARNING: Resetting reneighboring criteria during minimization (../min.cpp:168)
Memory usage per processor = 4.9009 Mbytes
Step PotEng Pxx Pyy Pxy Lx Ly Lz 
       0   -1873.1697    1.9588183       1.6403 -0.048763725      4.48985    16.594342      4.48985 
       1   -1876.3314    1.4782705   0.11944802  0.011592534      4.48985    16.594342      4.48985 
       2   -1876.3543    1.4411172 0.0007118491 0.0089609202      4.48985    16.594342      4.48985 
       3   -1876.3548    1.4383773 6.1319424e-05 -2.4747257e-05      4.48985    16.594342      4.48985 
       4   -1876.3548    1.4383676 -1.3144152e-08 6.0409066e-09      4.48985    16.594342      4.48985 
       5   -1876.3548    1.4383676 4.3360321e-11 -6.1999664e-11      4.48985    16.594342      4.48985 
Loop time of 0.181968 on 1 procs for 4 steps with 336 atoms

Minimization stats:
  Stopping criterion = force tolerance
  Energy initial, next-to-last, final = 
        -1873.16970782     -1876.35481469     -1876.35481472
  Force two-norm initial, final = 14.4299 2.55593e-09
  Force max component initial, final = 2.03679 4.66726e-10
  Final line search alpha, max atom move = 0 0
  Iterations, force evaluations = 4 354

Pair  time (%) = 0.162873 (89.5067)
Neigh time (%) = 0 (0)
Comm  time (%) = 0.0126029 (6.92588)
Outpt time (%) = 0.000287158 (0.157807)
Other time (%) = 0.00620446 (3.40964)

Nlocal:    336 ave 336 max 336 min
Histogram: 1 0 0 0 0 0 0 0 0 0
Nghost:    1092 ave 1092 max 1092 min
Histogram: 1 0 0 0 0 0 0 0 0 0
Neighs:    8504 ave 8504 max 8504 min
Histogram: 1 0 0 0 0 0 0 0 0 0

Total # of neighbors = 8504
Ave neighs/atom = 25.3095
Neighbor list builds = 0
Dangerous builds = 0
        next i
jump SELF loop1
        read_dump orig.dump 0 x y z
  orthogonal box = (0 -0.606141 0) to (4.48985 16.1864 4.48985)
  336 atoms before read
  336 atoms in snapshot
  0 atoms purged
  336 atoms replaced
  0 atoms trimmed
  0 atoms added
  336 atoms after read
        variable stretch equal 1+$i*${strainstep}
        variable stretch equal 1+25*${strainstep}
        variable stretch equal 1+25*-0.0005
        change_box all ${direction} scale ${stretch} remap
        change_box all y scale ${stretch} remap
        change_box all y scale 0.9875 remap
  orthogonal box = (0 -0.502846 0) to (4.48985 16.0831 4.48985)
        min_style ${style}
        min_style hftn
        minimize ${etol} ${ftol} ${maxiter} ${maxeval}
        minimize 1e-12 ${ftol} ${maxiter} ${maxeval}
        minimize 1e-12 1e-08 ${maxiter} ${maxeval}
        minimize 1e-12 1e-08 10000 ${maxeval}
        minimize 1e-12 1e-08 10000 20000
WARNING: Resetting reneighboring criteria during minimization (../min.cpp:168)
Memory usage per processor = 4.9009 Mbytes
Step PotEng Pxx Pyy Pxy Lx Ly Lz 
       0   -1872.8859    1.9832621    1.7159263 -0.050097849      4.48985    16.585944      4.48985 
       1   -1876.3274    1.4824777   0.12996261  0.012393674      4.48985    16.585944      4.48985 
       2   -1876.3543    1.4419152 0.00075753176 0.0092512684      4.48985    16.585944      4.48985 
       3   -1876.3548    1.4391134 8.6381574e-05 -2.7024202e-05      4.48985    16.585944      4.48985 
       4   -1876.3548    1.4391134 8.6381574e-05 -2.7024202e-05      4.48985    16.585944      4.48985 
       5   -1876.3548    1.4391134 8.6381574e-05 -2.7024202e-05      4.48985    16.585944      4.48985 
       6   -1876.3548    1.4391134 8.6381574e-05 -2.7024202e-05      4.48985    16.585944      4.48985 
       7   -1876.3548    1.4391134 8.6381574e-05 -2.7024202e-05      4.48985    16.585944      4.48985 
       8   -1876.3548    1.4391134 8.6381574e-05 -2.7024202e-05      4.48985    16.585944      4.48985 
       9   -1876.3548    1.4391134 8.6381574e-05 -2.7024202e-05      4.48985    16.585944      4.48985 
      10   -1876.3548    1.4391134 8.638234e-05 -2.7029316e-05      4.48985    16.585944      4.48985 
Loop time of 0.163929 on 1 procs for 9 steps with 336 atoms

Minimization stats:
  Stopping criterion = energy tolerance
  Energy initial, next-to-last, final = 
        -1872.88591925     -1876.35431339     -1876.35481545
  Force two-norm initial, final = 15.0873 0.00329063
  Force max component initial, final = 2.13088 0.000418669
  Final line search alpha, max atom move = 0 0
  Iterations, force evaluations = 9 304

Pair  time (%) = 0.145225 (88.5901)
Neigh time (%) = 0 (0)
Comm  time (%) = 0.0103677 (6.32451)
Outpt time (%) = 0.00152479 (0.930154)
Other time (%) = 0.00681163 (4.15524)

Nlocal:    336 ave 336 max 336 min
Histogram: 1 0 0 0 0 0 0 0 0 0
Nghost:    1092 ave 1092 max 1092 min
Histogram: 1 0 0 0 0 0 0 0 0 0
Neighs:    8504 ave 8504 max 8504 min
Histogram: 1 0 0 0 0 0 0 0 0 0

Total # of neighbors = 8504
Ave neighs/atom = 25.3095
Neighbor list builds = 0
Dangerous builds = 0
        next i
jump SELF loop1
        read_dump orig.dump 0 x y z
  orthogonal box = (0 -0.606141 0) to (4.48985 16.1864 4.48985)
  336 atoms before read
  336 atoms in snapshot
  0 atoms purged
  336 atoms replaced
  0 atoms trimmed
  0 atoms added
  336 atoms after read
[...]
Ave neighs/atom = 25.3095
Neighbor list builds = 2
Dangerous builds = 0
        next i
jump SELF loop1
        read_dump orig.dump 0 x y z
  orthogonal box = (0 -0.606141 0) to (4.48985 16.1864 4.48985)
  336 atoms before read
  336 atoms in snapshot
  0 atoms purged
  336 atoms replaced
  0 atoms trimmed
  0 atoms added
  336 atoms after read
        variable stretch equal 1+$i*${strainstep}
        variable stretch equal 1+95*${strainstep}
        variable stretch equal 1+95*-0.0005
        change_box all ${direction} scale ${stretch} remap
        change_box all y scale ${stretch} remap
        change_box all y scale 0.9525 remap
  orthogonal box = (0 -0.208918 0) to (4.48985 15.7892 4.48985)
        min_style ${style}
        min_style hftn
        minimize ${etol} ${ftol} ${maxiter} ${maxeval}
        minimize 1e-12 ${ftol} ${maxiter} ${maxeval}
        minimize 1e-12 1e-08 ${maxiter} ${maxeval}
        minimize 1e-12 1e-08 10000 ${maxeval}
        minimize 1e-12 1e-08 10000 20000
WARNING: Resetting reneighboring criteria during minimization (../min.cpp:168)
Memory usage per processor = 4.9009 Mbytes
Step PotEng Pxx Pyy Pxy Lx Ly Lz 
       0   -1816.1066    4.1064116     8.319936 -0.060407368      4.48985    15.998088      4.48985 
       1   -1833.1083    3.6850546    6.1584642  -0.15028268      4.48985    15.998088      4.48985 
       2   -1842.0618    3.2825723     5.685674 -0.060998888      4.48985    15.998088      4.48985 
       3   -1855.1682    2.8894813    3.4094683  -0.12086637      4.48985    16.404844      4.48985 
       4   -1865.1914    2.4345176    2.8113409  -0.16712357      4.48985    16.404844      4.48985 
       5   -1872.0016    1.9903492    1.4266368 0.0055218187      4.48985    16.404844      4.48985 
       6   -1876.3021    1.4731005   0.12696089   0.03711163      4.48985    16.774942      4.48985 
       7   -1876.3548    1.4236159 0.0020017021 0.00039357312      4.48985    16.774942      4.48985 
       8   -1876.3548    1.4228781 -5.4079469e-06 -3.675145e-06      4.48985    16.774942      4.48985 
       9   -1876.3548    1.4228781 -5.4079469e-06 -3.675145e-06      4.48985    16.774942      4.48985 
      10   -1876.3548    1.4228781 -5.4079469e-06 -3.675145e-06      4.48985    16.774942      4.48985 
      11   -1876.3548    1.4228782 -5.2315819e-06 -3.6808243e-06      4.48985    16.774942      4.48985 
Loop time of 0.218006 on 1 procs for 10 steps with 336 atoms

Minimization stats:
  Stopping criterion = energy tolerance
  Energy initial, next-to-last, final = 
        -1816.10655116     -1876.35477442     -1876.35481476
  Force two-norm initial, final = 71.471 0.000631809
  Force max component initial, final = 10.3343 9.2553e-05
  Final line search alpha, max atom move = 0 0
  Iterations, force evaluations = 10 395

Pair  time (%) = 0.193144 (88.5955)
Neigh time (%) = 0.000897013 (0.411463)
Comm  time (%) = 0.0164192 (7.53155)
Outpt time (%) = 0.000619649 (0.284235)
Other time (%) = 0.00692659 (3.17725)

Nlocal:    336 ave 336 max 336 min
Histogram: 1 0 0 0 0 0 0 0 0 0
Nghost:    1101 ave 1101 max 1101 min
Histogram: 1 0 0 0 0 0 0 0 0 0
Neighs:    8504 ave 8504 max 8504 min
Histogram: 1 0 0 0 0 0 0 0 0 0

Total # of neighbors = 8504
Ave neighs/atom = 25.3095
Neighbor list builds = 2
Dangerous builds = 0
        next i
jump SELF loop1
        read_dump orig.dump 0 x y z
  orthogonal box = (0 -0.606141 0) to (4.48985 16.1864 4.48985)
  336 atoms before read
  336 atoms in snapshot
  0 atoms purged
  336 atoms replaced
  0 atoms trimmed
  0 atoms added
  336 atoms after read
        variable stretch equal 1+$i*${strainstep}
        variable stretch equal 1+96*${strainstep}
        variable stretch equal 1+96*-0.0005
        change_box all ${direction} scale ${stretch} remap
        change_box all y scale ${stretch} remap
        change_box all y scale 0.952 remap
  orthogonal box = (0 -0.204719 0) to (4.48985 15.785 4.48985)
        min_style ${style}
        min_style hftn
        minimize ${etol} ${ftol} ${maxiter} ${maxeval}
        minimize 1e-12 ${ftol} ${maxiter} ${maxeval}
        minimize 1e-12 1e-08 ${maxiter} ${maxeval}
        minimize 1e-12 1e-08 10000 ${maxeval}
        minimize 1e-12 1e-08 10000 20000
WARNING: Resetting reneighboring criteria during minimization (../min.cpp:168)
Memory usage per processor = 4.9009 Mbytes
Step PotEng Pxx Pyy Pxy Lx Ly Lz 
       0   -1814.6883     4.143094    8.4364585 -0.058732061      4.48985     15.98969      4.48985 
       1   -1832.1938    3.7083366     6.245312  -0.14969332      4.48985     15.98969      4.48985 
       2   -1841.3259    3.3035966    5.7496145 -0.057397229      4.48985     15.98969      4.48985 
       3   -1855.3031    2.8864174    3.4190119  -0.12738878      4.48985    16.404589      4.48985 
       4    -1865.204    2.4360624    2.8106055  -0.16310232      4.48985    16.404589      4.48985 
       5   -1871.9872    1.9894579    1.4391558 -0.0031789904      4.48985    16.404589      4.48985 
       6   -1876.3007    1.4734239   0.12872047  0.036813127      4.48985     16.77498      4.48985 
       7   -1876.3547    1.4236212 0.0020688744 0.0003691097      4.48985     16.77498      4.48985 
       8   -1876.3548    1.4228799 1.5891362e-06 3.1275851e-06      4.48985     16.77498      4.48985 
       9   -1876.3548    1.4228789 1.7502375e-09 -2.4212635e-09      4.48985     16.77498      4.48985 
      10   -1876.3548    1.4228789 1.0665806e-11 8.7566882e-12      4.48985     16.77498      4.48985 
Loop time of 0.254026 on 1 procs for 9 steps with 336 atoms

Minimization stats:
  Stopping criterion = force tolerance
  Energy initial, next-to-last, final = 
        -1814.68828974     -1876.35481447     -1876.35481472
  Force two-norm initial, final = 72.4808 1.02051e-09
  Force max component initial, final = 10.4789 1.4842e-10
  Final line search alpha, max atom move = 0 0
  Iterations, force evaluations = 9 477

Pair  time (%) = 0.220812 (86.9248)
Neigh time (%) = 0.00089411 (0.351976)
Comm  time (%) = 0.020693 (8.14603)
Outpt time (%) = 0.000739041 (0.290931)
Other time (%) = 0.0108881 (4.28622)

Nlocal:    336 ave 336 max 336 min
Histogram: 1 0 0 0 0 0 0 0 0 0
Nghost:    1101 ave 1101 max 1101 min
Histogram: 1 0 0 0 0 0 0 0 0 0
Neighs:    8504 ave 8504 max 8504 min
Histogram: 1 0 0 0 0 0 0 0 0 0

Total # of neighbors = 8504
Ave neighs/atom = 25.3095
Neighbor list builds = 2
Dangerous builds = 0
        next i
jump SELF loop1
        read_dump orig.dump 0 x y z
  orthogonal box = (0 -0.606141 0) to (4.48985 16.1864 4.48985)
  336 atoms before read
  336 atoms in snapshot
  0 atoms purged
  336 atoms replaced
  0 atoms trimmed
  0 atoms added
  336 atoms after read
        variable stretch equal 1+$i*${strainstep}
        variable stretch equal 1+97*${strainstep}
        variable stretch equal 1+97*-0.0005
        change_box all ${direction} scale ${stretch} remap
        change_box all y scale ${stretch} remap
        change_box all y scale 0.9515 remap
  orthogonal box = (0 -0.20052 0) to (4.48985 15.7808 4.48985)
        min_style ${style}
        min_style hftn
        minimize ${etol} ${ftol} ${maxiter} ${maxeval}
        minimize 1e-12 ${ftol} ${maxiter} ${maxeval}
        minimize 1e-12 1e-08 ${maxiter} ${maxeval}
        minimize 1e-12 1e-08 10000 ${maxeval}
        minimize 1e-12 1e-08 10000 20000
WARNING: Resetting reneighboring criteria during minimization (../min.cpp:168)
Memory usage per processor = 4.9009 Mbytes
Step PotEng Pxx Pyy Pxy Lx Ly Lz 
       0   -1813.2505    4.1800404    8.5538617 -0.056871035      4.48985    15.981292      4.48985 
       1   -1831.1829    3.7389895    6.3309508  -0.15085167      4.48985    15.981292      4.48985 
       2   -1840.5527    3.3277793    5.8245304 -0.057022275      4.48985    15.981292      4.48985 
       3   -1854.9478    2.9025955    3.4594178  -0.12734285      4.48985    16.400117      4.48985 
       4   -1864.9713    2.4434914    2.8394061  -0.16598361      4.48985    16.400117      4.48985 
       5   -1871.8824     1.997887    1.4633369 0.00053657975      4.48985    16.400117      4.48985 
       6   -1876.2995    1.4741221   0.13162865  0.037587046      4.48985    16.774746      4.48985 
       7   -1876.3547    1.4235545 0.0020334112 0.00022942158      4.48985    16.774746      4.48985 
       8   -1876.3548    1.4228999 2.7737616e-06 2.8150304e-06      4.48985    16.774746      4.48985 
       9   -1876.3548    1.4228988 -2.8148598e-09 -6.8986281e-10      4.48985    16.774746      4.48985 
      10   -1876.3548    1.4228988 -1.2489363e-10 2.1263361e-11      4.48985    16.774746      4.48985 
Loop time of 0.263594 on 1 procs for 9 steps with 336 atoms

Minimization stats:
  Stopping criterion = force tolerance
  Energy initial, next-to-last, final = 
         -1813.2504729     -1876.35481458     -1876.35481472
  Force two-norm initial, final = 73.4957 3.03354e-09
  Force max component initial, final = 10.6248 5.17412e-10
  Final line search alpha, max atom move = 0 0
  Iterations, force evaluations = 9 489

Pair  time (%) = 0.224334 (85.106)
Neigh time (%) = 0.00086388 (0.327731)
Comm  time (%) = 0.0279025 (10.5854)
Outpt time (%) = 0.000592809 (0.224895)
Other time (%) = 0.00990053 (3.75598)

Nlocal:    336 ave 336 max 336 min
Histogram: 1 0 0 0 0 0 0 0 0 0
Nghost:    1101 ave 1101 max 1101 min
Histogram: 1 0 0 0 0 0 0 0 0 0
Neighs:    8504 ave 8504 max 8504 min
Histogram: 1 0 0 0 0 0 0 0 0 0

Total # of neighbors = 8504
Ave neighs/atom = 25.3095
Neighbor list builds = 2
Dangerous builds = 0
        next i
jump SELF loop1
        read_dump orig.dump 0 x y z
  orthogonal box = (0 -0.606141 0) to (4.48985 16.1864 4.48985)
  336 atoms before read
  336 atoms in snapshot
  0 atoms purged
  336 atoms replaced
  0 atoms trimmed
  0 atoms added
  336 atoms after read
        variable stretch equal 1+$i*${strainstep}
        variable stretch equal 1+98*${strainstep}
        variable stretch equal 1+98*-0.0005
        change_box all ${direction} scale ${stretch} remap
        change_box all y scale ${stretch} remap
        change_box all y scale 0.951 remap
  orthogonal box = (0 -0.196321 0) to (4.48985 15.7766 4.48985)
        min_style ${style}
        min_style hftn
        minimize ${etol} ${ftol} ${maxiter} ${maxeval}
        minimize 1e-12 ${ftol} ${maxiter} ${maxeval}
        minimize 1e-12 1e-08 ${maxiter} ${maxeval}
        minimize 1e-12 1e-08 10000 ${maxeval}
        minimize 1e-12 1e-08 10000 20000
WARNING: Resetting reneighboring criteria during minimization (../min.cpp:168)
Memory usage per processor = 4.9009 Mbytes
Step PotEng Pxx Pyy Pxy Lx Ly Lz 
       0    -1811.792    4.2172388     8.672137 -0.054900381      4.48985    15.972894      4.48985 
       1   -1830.2021    3.7643777     6.418239  -0.15072889      4.48985    15.972894      4.48985 
       2   -1839.7638    3.3496717    5.8909266 -0.053009434      4.48985    15.972894      4.48985 
       3   -1855.1292    2.8954686    3.4655601  -0.13136535      4.48985    16.400106      4.48985 
       4   -1865.0666    2.4394306    2.8155213  -0.16401772      4.48985    16.400106      4.48985 
       5   -1871.8768    1.9997021    1.4813391 -0.0069223331      4.48985    16.400106      4.48985 
       6   -1876.2973    1.4749374   0.13413261  0.037493308      4.48985    16.774659      4.48985 
       7   -1876.3548    1.4238412 0.0025074899 0.00047530575      4.48985    16.774659      4.48985 
       8   -1876.3548    1.4229068 1.3038042e-06 -3.8253928e-06      4.48985    16.774659      4.48985 
       9   -1876.3548    1.4229068 1.3038042e-06 -3.8253928e-06      4.48985    16.774659      4.48985 
      10   -1876.3548    1.4229068 1.3038042e-06 -3.8253928e-06      4.48985    16.774659      4.48985 
      11   -1876.3548    1.4229068 1.3038042e-06 -3.8253928e-06      4.48985    16.774659      4.48985 
      12   -1876.3548    1.4229068 1.3038042e-06 -3.8253928e-06      4.48985    16.774659      4.48985 
      13   -1876.3548    1.4229068 1.3038042e-06 -3.8253928e-06      4.48985    16.774659      4.48985 
      14   -1876.3548    1.4229068 1.3041863e-06 -3.8241488e-06      4.48985    16.774659      4.48985 
Loop time of 0.287354 on 1 procs for 13 steps with 336 atoms

Minimization stats:
  Stopping criterion = energy tolerance
  Energy initial, next-to-last, final = 
        -1811.79198498     -1876.35477852     -1876.35481512
  Force two-norm initial, final = 74.5171 0.000689705
  Force max component initial, final = 10.7718 0.000101935
  Final line search alpha, max atom move = 0 0
  Iterations, force evaluations = 13 442

Pair  time (%) = 0.229397 (79.8309)
Neigh time (%) = 0.00407989 (1.41981)
Comm  time (%) = 0.0277319 (9.65077)
Outpt time (%) = 0.018378 (6.39558)
Other time (%) = 0.00776685 (2.70289)

Nlocal:    336 ave 336 max 336 min
Histogram: 1 0 0 0 0 0 0 0 0 0
Nghost:    1101 ave 1101 max 1101 min
Histogram: 1 0 0 0 0 0 0 0 0 0
Neighs:    8504 ave 8504 max 8504 min
Histogram: 1 0 0 0 0 0 0 0 0 0

Total # of neighbors = 8504
Ave neighs/atom = 25.3095
Neighbor list builds = 2
Dangerous builds = 0
        next i
jump SELF loop1
        read_dump orig.dump 0 x y z
  orthogonal box = (0 -0.606141 0) to (4.48985 16.1864 4.48985)
  336 atoms before read
  336 atoms in snapshot
  0 atoms purged
  336 atoms replaced
  0 atoms trimmed
  0 atoms added
  336 atoms after read
        variable stretch equal 1+$i*${strainstep}
        variable stretch equal 1+99*${strainstep}
        variable stretch equal 1+99*-0.0005
        change_box all ${direction} scale ${stretch} remap
        change_box all y scale ${stretch} remap
        change_box all y scale 0.9505 remap
  orthogonal box = (0 -0.192122 0) to (4.48985 15.7724 4.48985)
        min_style ${style}
        min_style hftn
        minimize ${etol} ${ftol} ${maxiter} ${maxeval}
        minimize 1e-12 ${ftol} ${maxiter} ${maxeval}
        minimize 1e-12 1e-08 ${maxiter} ${maxeval}
        minimize 1e-12 1e-08 10000 ${maxeval}
        minimize 1e-12 1e-08 10000 20000
WARNING: Resetting reneighboring criteria during minimization (../min.cpp:168)
Memory usage per processor = 4.9009 Mbytes
Step PotEng Pxx Pyy Pxy Lx Ly Lz 
       0   -1810.3139    4.2546437     8.791186 -0.052846593      4.48985    15.964496      4.48985 
       1   -1829.1621    3.7948496    6.5058331  -0.15081655      4.48985    15.964496      4.48985 
       2    -1838.947    3.3730443      5.96464 -0.052277088      4.48985    15.964496      4.48985 
       3   -1854.8601    2.9076353    3.4983137  -0.13272664      4.48985    16.396446      4.48985 
       4   -1864.8898    2.4462359    2.8405448  -0.16501077      4.48985    16.396446      4.48985 
       5   -1871.8075    2.0032947    1.4949344 -0.0060170199      4.48985    16.396446      4.48985 
       6   -1876.2972    1.4750909   0.13515512  0.037627419      4.48985    16.774576      4.48985 
       7   -1876.3548    1.4238214 0.0023753014 0.00045226216      4.48985    16.774576      4.48985 
       8   -1876.3548    1.4229133 4.1369873e-07 -4.4254362e-06      4.48985    16.774576      4.48985 
       9   -1876.3548    1.4229133 4.1369873e-07 -4.4254362e-06      4.48985    16.774576      4.48985 
      10   -1876.3548    1.4229133 4.1369873e-07 -4.4254362e-06      4.48985    16.774576      4.48985 
      11   -1876.3548    1.4229133 4.1369873e-07 -4.4254362e-06      4.48985    16.774576      4.48985 
      12   -1876.3548    1.4229133 4.1369873e-07 -4.4254362e-06      4.48985    16.774576      4.48985 
      13   -1876.3548    1.4229133 4.1888145e-07 -4.4191675e-06      4.48985    16.774576      4.48985 
Loop time of 0.228882 on 1 procs for 12 steps with 336 atoms

Minimization stats:
  Stopping criterion = energy tolerance
  Energy initial, next-to-last, final = 
        -1810.31394825     -1876.35478353     -1876.35481521
  Force two-norm initial, final = 75.5468 0.00101578
  Force max component initial, final = 10.92 0.000157566
  Final line search alpha, max atom move = 0 0
  Iterations, force evaluations = 12 423

Pair  time (%) = 0.20135 (87.9713)
Neigh time (%) = 0.00059791 (0.261231)
Comm  time (%) = 0.0145298 (6.34817)
Outpt time (%) = 0.00346809 (1.51523)
Other time (%) = 0.00893572 (3.90407)

Nlocal:    336 ave 336 max 336 min
Histogram: 1 0 0 0 0 0 0 0 0 0
Nghost:    1101 ave 1101 max 1101 min
Histogram: 1 0 0 0 0 0 0 0 0 0
Neighs:    8504 ave 8504 max 8504 min
Histogram: 1 0 0 0 0 0 0 0 0 0

Total # of neighbors = 8504
Ave neighs/atom = 25.3095
Neighbor list builds = 2
Dangerous builds = 0
        next i
jump SELF loop1
        read_dump orig.dump 0 x y z
  orthogonal box = (0 -0.606141 0) to (4.48985 16.1864 4.48985)
  336 atoms before read
  336 atoms in snapshot
  0 atoms purged
  336 atoms replaced
  0 atoms trimmed
  0 atoms added
  336 atoms after read
        variable stretch equal 1+$i*${strainstep}
        variable stretch equal 1+100*${strainstep}
        variable stretch equal 1+100*-0.0005
        change_box all ${direction} scale ${stretch} remap
        change_box all y scale ${stretch} remap
        change_box all y scale 0.95 remap
  orthogonal box = (0 -0.187923 0) to (4.48985 15.7682 4.48985)
        min_style ${style}
        min_style hftn
        minimize ${etol} ${ftol} ${maxiter} ${maxeval}
        minimize 1e-12 ${ftol} ${maxiter} ${maxeval}
        minimize 1e-12 1e-08 ${maxiter} ${maxeval}
        minimize 1e-12 1e-08 10000 ${maxeval}
        minimize 1e-12 1e-08 10000 20000
WARNING: Resetting reneighboring criteria during minimization (../min.cpp:168)
Memory usage per processor = 4.9009 Mbytes
Step PotEng Pxx Pyy Pxy Lx Ly Lz 
       0   -1808.8159     4.292239    8.9109906 -0.050747517      4.48985    15.956098      4.48985 
       1   -1828.0836    3.8265869    6.5974181  -0.15231825      4.48985    15.956098      4.48985 
       2   -1838.1209    3.3975444    6.0400526 -0.050057666      4.48985    15.956098      4.48985 
       3   -1854.5546     2.918823    3.5323207  -0.13228107      4.48985    16.393717      4.48985 
       4   -1864.7618    2.4505625    2.8553699  -0.16696254      4.48985    16.393717      4.48985 
       5   -1871.7236     2.009796    1.5171403 -0.0040536823      4.48985    16.393717      4.48985 
       6   -1876.2941    1.4765817   0.13842364  0.037948007      4.48985    16.773979      4.48985 
       7   -1876.3548    1.4239722 0.0026536861 0.00052295817      4.48985    16.773979      4.48985 
       8   -1876.3548    1.4229641 1.0449535e-06 -3.0125472e-06      4.48985    16.773979      4.48985 
       9   -1876.3548    1.4229641 1.0449535e-06 -3.0125472e-06      4.48985    16.773979      4.48985 
      10   -1876.3548    1.4229641 1.0449535e-06 -3.0125472e-06      4.48985    16.773979      4.48985 
      11   -1876.3548    1.4229641 1.0449535e-06 -3.0125472e-06      4.48985    16.773979      4.48985 
      12   -1876.3548    1.4229641 1.0449535e-06 -3.0125472e-06      4.48985    16.773979      4.48985 
      13   -1876.3548    1.4229641 1.0460106e-06 -3.00729e-06      4.48985    16.773979      4.48985 
Loop time of 0.230578 on 1 procs for 12 steps with 336 atoms

Minimization stats:
  Stopping criterion = energy tolerance
  Energy initial, next-to-last, final = 
         -1808.8158624     -1876.35476548     -1876.35481512
  Force two-norm initial, final = 76.5848 0.000741704
  Force max component initial, final = 11.069 0.000121621
  Final line search alpha, max atom move = 0 0
  Iterations, force evaluations = 12 431

Pair  time (%) = 0.202014 (87.6122)
Neigh time (%) = 0.000867906 (0.376405)
Comm  time (%) = 0.0195366 (8.47289)
Outpt time (%) = 0.000863357 (0.374432)
Other time (%) = 0.00729568 (3.16408)

Nlocal:    336 ave 336 max 336 min
Histogram: 1 0 0 0 0 0 0 0 0 0
Nghost:    1101 ave 1101 max 1101 min
Histogram: 1 0 0 0 0 0 0 0 0 0
Neighs:    8504 ave 8504 max 8504 min
Histogram: 1 0 0 0 0 0 0 0 0 0

Total # of neighbors = 8504
Ave neighs/atom = 25.3095
Neighbor list builds = 2
Dangerous builds = 0
        next i
jump SELF loop1

