LAMMPS (28 Jun 2014)
# attempt at getting tensile strain-stress curve for infinite slab

#file prefix
variable prefix string compression_V_inter3new
variable dumpfile string ${prefix}.*.dump
variable dumpfile string compression_V_inter3new.*.dump
variable restartfile string ${prefix}.*.equil
variable restartfile string compression_V_inter3new.*.equil

#Mass (g/mol)
variable m equal 1

# lattice constant (in Angstroms) and orientation of axes (given by lattice vectors)
variable rho equal 0.9165
variable x1 equal 1
variable x2 equal 0
variable x3 equal 0
variable y1 equal 0
variable y2 equal 1
variable y3 equal 0
# length of lattice in different directions (using orientation of lattice vectors)
variable ax equal sqrt(${x1}*${x1}+${x2}*${x2}+${x3}*${x3})
variable ax equal sqrt(1*${x1}+${x2}*${x2}+${x3}*${x3})
variable ax equal sqrt(1*1+${x2}*${x2}+${x3}*${x3})
variable ax equal sqrt(1*1+0*${x2}+${x3}*${x3})
variable ax equal sqrt(1*1+0*0+${x3}*${x3})
variable ax equal sqrt(1*1+0*0+0*${x3})
variable ax equal sqrt(1*1+0*0+0*0)
variable ay equal sqrt(${y1}*${y1}+${y2}*${y2}+${y3}*${y3})
variable ay equal sqrt(0*${y1}+${y2}*${y2}+${y3}*${y3})
variable ay equal sqrt(0*0+${y2}*${y2}+${y3}*${y3})
variable ay equal sqrt(0*0+1*${y2}+${y3}*${y3})
variable ay equal sqrt(0*0+1*1+${y3}*${y3})
variable ay equal sqrt(0*0+1*1+0*${y3})
variable ay equal sqrt(0*0+1*1+0*0)
variable az equal 1

# size of box in lattice units
variable lxpos equal 3
variable lxneg equal 0
variable lypos equal 3
variable lyneg equal 0
variable lzpos equal 0.25
variable lzneg equal -0.25

# Define minimization parameters and damping
variable etol equal 1.0e-12
variable ftol equal 1.0e-8
variable maxiter equal 10000
variable maxeval equal 20000
variable style string cg

# boundary conditions
dimension	2
boundary	p p p
atom_style	atomic

# create geometry
units		lj
lattice         hex ${rho}
lattice         hex 0.9165
Lattice spacing in x,y,z = 1.12245 1.94415 1.12245
region		myregion block ${lxneg} ${lxpos} ${lyneg} ${lypos} ${lzneg} ${lzpos} units lattice
region		myregion block 0 ${lxpos} ${lyneg} ${lypos} ${lzneg} ${lzpos} units lattice
region		myregion block 0 3 ${lyneg} ${lypos} ${lzneg} ${lzpos} units lattice
region		myregion block 0 3 0 ${lypos} ${lzneg} ${lzpos} units lattice
region		myregion block 0 3 0 3 ${lzneg} ${lzpos} units lattice
region		myregion block 0 3 0 3 -0.25 ${lzpos} units lattice
region		myregion block 0 3 0 3 -0.25 0.25 units lattice
create_box	1 myregion
Created orthogonal box = (0 0 -0.280613) to (3.36736 5.83244 0.280613)
  1 by 1 by 1 MPI processor grid
create_atoms	1 box
Created 18 atoms

# define masses
mass * $m
mass * 1

# my fake/morse potential
pair_style      table linear 3001
pair_coeff      * * vpotential_inter3new dummy
neighbor	0.3 bin
neigh_modify	delay 5

# Setup output
thermo 1
thermo_style custom step pe pxx pyy pxy lx ly lz
thermo_modify norm no

# Compute initial state by relaxing box
min_style ${style}
min_style cg
minimize ${etol} ${ftol} ${maxiter} ${maxeval}
minimize 1e-12 ${ftol} ${maxiter} ${maxeval}
minimize 1e-12 1e-08 ${maxiter} ${maxeval}
minimize 1e-12 1e-08 10000 ${maxeval}
minimize 1e-12 1e-08 10000 20000
WARNING: Resetting reneighboring criteria during minimization (../min.cpp:168)
Memory usage per processor = 3.35099 Mbytes
Step PotEng Pxx Pyy Pxy Lx Ly Lz 
       0   -53.999984 0.0003469208 0.0003469208 1.4825282e-22    3.3673612    5.8324407   0.56122687 
       1   -53.999984 0.0003469208 0.0003469208 -2.4069537e-16    3.3673612    5.8324407   0.56122687 
Loop time of 2.49522e-05 on 1 procs for 1 steps with 18 atoms

Minimization stats:
  Stopping criterion = energy tolerance
  Energy initial, next-to-last, final = 
         -53.999983866      -53.999983866      -53.999983866
  Force two-norm initial, final = 1.11801e-13 1.30891e-11
  Force max component initial, final = 5.05401e-14 5.36567e-12
  Final line search alpha, max atom move = 1 5.36567e-12
  Iterations, force evaluations = 1 1

Pair  time (%) = 7.93044e-06 (31.7825)
Neigh time (%) = 0 (0)
Comm  time (%) = 1.66195e-06 (6.66051)
Outpt time (%) = 0 (0)
Other time (%) = 1.53598e-05 (61.557)

Nlocal:    18 ave 18 max 18 min
Histogram: 1 0 0 0 0 0 0 0 0 0
Nghost:    65 ave 65 max 65 min
Histogram: 1 0 0 0 0 0 0 0 0 0
Neighs:    162 ave 162 max 162 min
Histogram: 1 0 0 0 0 0 0 0 0 0

Total # of neighbors = 162
Ave neighs/atom = 9
Neighbor list builds = 0
Dangerous builds = 0
reset_timestep 0
write_dump all atom orig.dump

# Energy curve will have nstep steps
variable strainmax equal -0.05
variable strainstep equal -0.0005
variable nsteps equal round(${strainmax}/${strainstep})
variable nsteps equal round(-0.05/${strainstep})
variable nsteps equal round(-0.05/-0.0005)
variable direction string y

variable i loop ${nsteps}
variable i loop 100
label loop1
	read_dump orig.dump 0 x y
  orthogonal box = (0 0 -0.280613) to (3.36736 5.83244 0.280613)
  18 atoms before read
  18 atoms in snapshot
  0 atoms purged
  18 atoms replaced
  0 atoms trimmed
  0 atoms added
  18 atoms after read
        variable stretch equal 1+$i*${strainstep}
        variable stretch equal 1+1*${strainstep}
        variable stretch equal 1+1*-0.0005
        change_box all ${direction} scale ${stretch} remap
        change_box all y scale ${stretch} remap
        change_box all y scale 0.9995 remap
  orthogonal box = (0 0.00145811 -0.280613) to (3.36736 5.83098 0.280613)
        min_style ${style}
        min_style cg
        minimize ${etol} ${ftol} ${maxiter} ${maxeval}
        minimize 1e-12 ${ftol} ${maxiter} ${maxeval}
        minimize 1e-12 1e-08 ${maxiter} ${maxeval}
        minimize 1e-12 1e-08 10000 ${maxeval}
        minimize 1e-12 1e-08 10000 20000
WARNING: Resetting reneighboring criteria during minimization (../min.cpp:168)
Memory usage per processor = 3.35099 Mbytes
Step PotEng Pxx Pyy Pxy Lx Ly Lz 
       0   -53.999886 0.0056837775  0.016310321 -8.4228194e-19      3.36736    5.8295238   0.56122687 
       1   -53.999886 0.0056837775  0.016310321 -8.4228194e-19      3.36736    5.8295238   0.56122687 
Loop time of 5.39529e-05 on 1 procs for 1 steps with 18 atoms

Minimization stats:
  Stopping criterion = linesearch alpha is zero
  Energy initial, next-to-last, final = 
        -53.9998864007     -53.9998864007     -53.9998864007
  Force two-norm initial, final = 0.000858906 0.000858906
  Force max component initial, final = 0.000214646 0.000214646
  Final line search alpha, max atom move = 0.015625 3.35385e-06
  Iterations, force evaluations = 1 7

Pair  time (%) = 3.27097e-05 (60.6263)
Neigh time (%) = 0 (0)
Comm  time (%) = 5.00132e-06 (9.26978)
Outpt time (%) = 0 (0)
Other time (%) = 1.62419e-05 (30.1039)

Nlocal:    18 ave 18 max 18 min
Histogram: 1 0 0 0 0 0 0 0 0 0
Nghost:    65 ave 65 max 65 min
Histogram: 1 0 0 0 0 0 0 0 0 0
Neighs:    162 ave 162 max 162 min
Histogram: 1 0 0 0 0 0 0 0 0 0

Total # of neighbors = 162
Ave neighs/atom = 9
Neighbor list builds = 0
Dangerous builds = 0
        next i
jump SELF loop1
	read_dump orig.dump 0 x y
  orthogonal box = (0 0 -0.280613) to (3.36736 5.83244 0.280613)
  18 atoms before read
  18 atoms in snapshot
  0 atoms purged
  18 atoms replaced
  0 atoms trimmed
  0 atoms added
  18 atoms after read
        variable stretch equal 1+$i*${strainstep}
        variable stretch equal 1+2*${strainstep}
        variable stretch equal 1+2*-0.0005
        change_box all ${direction} scale ${stretch} remap
        change_box all y scale ${stretch} remap
        change_box all y scale 0.999 remap
  orthogonal box = (0 0.00291622 -0.280613) to (3.36736 5.82952 0.280613)
        min_style ${style}
        min_style cg
        minimize ${etol} ${ftol} ${maxiter} ${maxeval}
        minimize 1e-12 ${ftol} ${maxiter} ${maxeval}
        minimize 1e-12 1e-08 ${maxiter} ${maxeval}
        minimize 1e-12 1e-08 10000 ${maxeval}
        minimize 1e-12 1e-08 10000 20000
WARNING: Resetting reneighboring criteria during minimization (../min.cpp:168)
Memory usage per processor = 3.35099 Mbytes
Step PotEng Pxx Pyy Pxy Lx Ly Lz 
       0   -53.999635  0.011039582  0.032328946 2.1488939e-18      3.36736    5.8266076   0.56122687 
       1   -53.999635  0.011039582  0.032328946 2.1488939e-18      3.36736    5.8266076   0.56122687 
Loop time of 8.50188e-05 on 1 procs for 1 steps with 18 atoms

Minimization stats:
  Stopping criterion = linesearch alpha is zero
  Energy initial, next-to-last, final = 
        -53.9996354394     -53.9996354394     -53.9996354394
  Force two-norm initial, final = 0.000863132 0.000863132
  Force max component initial, final = 0.000215903 0.000215903
  Final line search alpha, max atom move = 0.015625 3.37348e-06
  Iterations, force evaluations = 1 7

Pair  time (%) = 3.48327e-05 (40.9706)
Neigh time (%) = 0 (0)
Comm  time (%) = 6.29365e-06 (7.40265)
Outpt time (%) = 0 (0)
Other time (%) = 4.38924e-05 (51.6267)

Nlocal:    18 ave 18 max 18 min
Histogram: 1 0 0 0 0 0 0 0 0 0
Nghost:    65 ave 65 max 65 min
Histogram: 1 0 0 0 0 0 0 0 0 0
Neighs:    162 ave 162 max 162 min
Histogram: 1 0 0 0 0 0 0 0 0 0

Total # of neighbors = 162
Ave neighs/atom = 9
Neighbor list builds = 0
Dangerous builds = 0
        next i
jump SELF loop1
	read_dump orig.dump 0 x y
  orthogonal box = (0 0 -0.280613) to (3.36736 5.83244 0.280613)
  18 atoms before read
  18 atoms in snapshot
  0 atoms purged
  18 atoms replaced
  0 atoms trimmed
  0 atoms added
  18 atoms after read
        variable stretch equal 1+$i*${strainstep}
        variable stretch equal 1+3*${strainstep}
        variable stretch equal 1+3*-0.0005
        change_box all ${direction} scale ${stretch} remap
        change_box all y scale ${stretch} remap
        change_box all y scale 0.9985 remap
  orthogonal box = (0 0.00437433 -0.280613) to (3.36736 5.82807 0.280613)
        min_style ${style}
        min_style cg
        minimize ${etol} ${ftol} ${maxiter} ${maxeval}
        minimize 1e-12 ${ftol} ${maxiter} ${maxeval}
        minimize 1e-12 1e-08 ${maxiter} ${maxeval}
        minimize 1e-12 1e-08 10000 ${maxeval}
        minimize 1e-12 1e-08 10000 20000
WARNING: Resetting reneighboring criteria during minimization (../min.cpp:168)
Memory usage per processor = 3.35099 Mbytes
Step PotEng Pxx Pyy Pxy Lx Ly Lz 
       0   -53.999254  0.016422703   0.04839719 6.2377119e-17      3.36736    5.8236913   0.56122687 
       1   -53.999254  0.016422703   0.04839719 6.2377119e-17      3.36736    5.8236913   0.56122687 
Loop time of 5.39843e-05 on 1 procs for 1 steps with 18 atoms

Minimization stats:
  Stopping criterion = linesearch alpha is zero
  Energy initial, next-to-last, final = 
        -53.9992537611     -53.9992537611     -53.9992537611
  Force two-norm initial, final = 0.000867359 0.000867359
  Force max component initial, final = 0.000217159 0.000217159
  Final line search alpha, max atom move = 0.015625 3.3931e-06
  Iterations, force evaluations = 1 7

Pair  time (%) = 3.39081e-05 (62.8109)
Neigh time (%) = 0 (0)
Comm  time (%) = 3.6828e-06 (6.82198)
Outpt time (%) = 0 (0)
Other time (%) = 1.63935e-05 (30.3671)

Nlocal:    18 ave 18 max 18 min
Histogram: 1 0 0 0 0 0 0 0 0 0
Nghost:    65 ave 65 max 65 min
Histogram: 1 0 0 0 0 0 0 0 0 0
Neighs:    162 ave 162 max 162 min
Histogram: 1 0 0 0 0 0 0 0 0 0

Total # of neighbors = 162
Ave neighs/atom = 9
Neighbor list builds = 0
Dangerous builds = 0
        next i
jump SELF loop1
	read_dump orig.dump 0 x y
  orthogonal box = (0 0 -0.280613) to (3.36736 5.83244 0.280613)
  18 atoms before read
  18 atoms in snapshot
  0 atoms purged
  18 atoms replaced
  0 atoms trimmed
  0 atoms added
  18 atoms after read
        variable stretch equal 1+$i*${strainstep}
        variable stretch equal 1+4*${strainstep}
        variable stretch equal 1+4*-0.0005
        change_box all ${direction} scale ${stretch} remap
        change_box all y scale ${stretch} remap
        change_box all y scale 0.998 remap
  orthogonal box = (0 0.00583244 -0.280613) to (3.36736 5.82661 0.280613)
        min_style ${style}
        min_style cg
        minimize ${etol} ${ftol} ${maxiter} ${maxeval}
        minimize 1e-12 ${ftol} ${maxiter} ${maxeval}
        minimize 1e-12 1e-08 ${maxiter} ${maxeval}
        minimize 1e-12 1e-08 10000 ${maxeval}
        minimize 1e-12 1e-08 10000 20000
WARNING: Resetting reneighboring criteria during minimization (../min.cpp:168)
Memory usage per processor = 3.35099 Mbytes
Step PotEng Pxx Pyy Pxy Lx Ly Lz 
       0   -53.998711  0.021838761  0.064531626 6.1260937e-18      3.36736    5.8207751   0.56122687 
       1   -53.998711  0.021838761  0.064531626 6.1260937e-18      3.36736    5.8207751   0.56122687 
Loop time of 3.89438e-05 on 1 procs for 1 steps with 18 atoms

Minimization stats:
  Stopping criterion = linesearch alpha is zero
  Energy initial, next-to-last, final = 
        -53.9987112769     -53.9987112769     -53.9987112769
  Force two-norm initial, final = 0.000865943 0.000865943
  Force max component initial, final = 0.000216723 0.000216723
  Final line search alpha, max atom move = 0.015625 3.3863e-06
  Iterations, force evaluations = 1 7

Pair  time (%) = 2.80286e-05 (71.9719)
Neigh time (%) = 0 (0)
Comm  time (%) = 6.45395e-06 (16.5725)
Outpt time (%) = 0 (0)
Other time (%) = 4.46127e-06 (11.4556)

Nlocal:    18 ave 18 max 18 min
Histogram: 1 0 0 0 0 0 0 0 0 0
Nghost:    65 ave 65 max 65 min
Histogram: 1 0 0 0 0 0 0 0 0 0
Neighs:    162 ave 162 max 162 min
Histogram: 1 0 0 0 0 0 0 0 0 0

Total # of neighbors = 162
Ave neighs/atom = 9
Neighbor list builds = 0
Dangerous builds = 0
        next i
jump SELF loop1
	read_dump orig.dump 0 x y
  orthogonal box = (0 0 -0.280613) to (3.36736 5.83244 0.280613)
  18 atoms before read
  18 atoms in snapshot
  0 atoms purged
  18 atoms replaced
  0 atoms trimmed
  0 atoms added
  18 atoms after read
        variable stretch equal 1+$i*${strainstep}
        variable stretch equal 1+5*${strainstep}
        variable stretch equal 1+5*-0.0005
        change_box all ${direction} scale ${stretch} remap
        change_box all y scale ${stretch} remap
        change_box all y scale 0.9975 remap
  orthogonal box = (0 0.00729055 -0.280613) to (3.36736 5.82515 0.280613)
        min_style ${style}
        min_style cg
        minimize ${etol} ${ftol} ${maxiter} ${maxeval}
        minimize 1e-12 ${ftol} ${maxiter} ${maxeval}
        minimize 1e-12 1e-08 ${maxiter} ${maxeval}
        minimize 1e-12 1e-08 10000 ${maxeval}
        minimize 1e-12 1e-08 10000 20000
WARNING: Resetting reneighboring criteria during minimization (../min.cpp:168)
Memory usage per processor = 3.35099 Mbytes
Step PotEng Pxx Pyy Pxy Lx Ly Lz 
       0   -53.997974  0.027294317  0.080751563 1.1305057e-16      3.36736    5.8178589   0.56122687 
       1   -53.997974  0.027294317  0.080751563 1.1305057e-16      3.36736    5.8178589   0.56122687 
Loop time of 7.39454e-05 on 1 procs for 1 steps with 18 atoms

Minimization stats:
  Stopping criterion = linesearch alpha is zero
  Energy initial, next-to-last, final = 
        -53.9979740887     -53.9979740887     -53.9979740887
  Force two-norm initial, final = 0.000870209 0.000870209
  Force max component initial, final = 0.00021799 0.00021799
  Final line search alpha, max atom move = 0.015625 3.4061e-06
  Iterations, force evaluations = 1 7

Pair  time (%) = 5.14803e-05 (69.6193)
Neigh time (%) = 0 (0)
Comm  time (%) = 6.51518e-06 (8.81081)
Outpt time (%) = 0 (0)
Other time (%) = 1.59499e-05 (21.5699)

Nlocal:    18 ave 18 max 18 min
Histogram: 1 0 0 0 0 0 0 0 0 0
Nghost:    65 ave 65 max 65 min
Histogram: 1 0 0 0 0 0 0 0 0 0
Neighs:    162 ave 162 max 162 min
Histogram: 1 0 0 0 0 0 0 0 0 0

Total # of neighbors = 162
Ave neighs/atom = 9
Neighbor list builds = 0
Dangerous builds = 0
        next i
jump SELF loop1
	read_dump orig.dump 0 x y
  orthogonal box = (0 0 -0.280613) to (3.36736 5.83244 0.280613)
  18 atoms before read
  18 atoms in snapshot
  0 atoms purged
  18 atoms replaced
  0 atoms trimmed
  0 atoms added
  18 atoms after read
        variable stretch equal 1+$i*${strainstep}
        variable stretch equal 1+6*${strainstep}
        variable stretch equal 1+6*-0.0005
        change_box all ${direction} scale ${stretch} remap
        change_box all y scale ${stretch} remap
        change_box all y scale 0.997 remap
  orthogonal box = (0 0.00874866 -0.280613) to (3.36736 5.82369 0.280613)
        min_style ${style}
        min_style cg
        minimize ${etol} ${ftol} ${maxiter} ${maxeval}
        minimize 1e-12 ${ftol} ${maxiter} ${maxeval}
        minimize 1e-12 1e-08 ${maxiter} ${maxeval}
        minimize 1e-12 1e-08 10000 ${maxeval}
        minimize 1e-12 1e-08 10000 20000
WARNING: Resetting reneighboring criteria during minimization (../min.cpp:168)
Memory usage per processor = 3.35099 Mbytes
Step PotEng Pxx Pyy Pxy Lx Ly Lz 
       0   -53.997105   0.03277753  0.097021365 7.9483775e-18      3.36736    5.8149427   0.56122687 
       1   -53.997105   0.03277753  0.097021365 7.9483775e-18      3.36736    5.8149427   0.56122687 
Loop time of 5.40236e-05 on 1 procs for 1 steps with 18 atoms

Minimization stats:
  Stopping criterion = linesearch alpha is zero
  Energy initial, next-to-last, final = 
        -53.9971047551     -53.9971047551     -53.9971047551
  Force two-norm initial, final = 0.000874478 0.000874478
  Force max component initial, final = 0.000219257 0.000219257
  Final line search alpha, max atom move = 0.015625 3.42589e-06
  Iterations, force evaluations = 1 7

Pair  time (%) = 3.31297e-05 (61.3245)
Neigh time (%) = 0 (0)
Comm  time (%) = 6.12601e-06 (11.3395)
Outpt time (%) = 0 (0)
Other time (%) = 1.47679e-05 (27.336)

Nlocal:    18 ave 18 max 18 min
Histogram: 1 0 0 0 0 0 0 0 0 0
Nghost:    65 ave 65 max 65 min
Histogram: 1 0 0 0 0 0 0 0 0 0
Neighs:    162 ave 162 max 162 min
Histogram: 1 0 0 0 0 0 0 0 0 0

Total # of neighbors = 162
Ave neighs/atom = 9
Neighbor list builds = 0
Dangerous builds = 0
        next i
jump SELF loop1
	read_dump orig.dump 0 x y
  orthogonal box = (0 0 -0.280613) to (3.36736 5.83244 0.280613)
  18 atoms before read
  18 atoms in snapshot
  0 atoms purged
  18 atoms replaced
  0 atoms trimmed
  0 atoms added
  18 atoms after read
        variable stretch equal 1+$i*${strainstep}
        variable stretch equal 1+7*${strainstep}
        variable stretch equal 1+7*-0.0005
        change_box all ${direction} scale ${stretch} remap
        change_box all y scale ${stretch} remap
        change_box all y scale 0.9965 remap
  orthogonal box = (0 0.0102068 -0.280613) to (3.36736 5.82223 0.280613)
        min_style ${style}
        min_style cg
        minimize ${etol} ${ftol} ${maxiter} ${maxeval}
        minimize 1e-12 ${ftol} ${maxiter} ${maxeval}
        minimize 1e-12 1e-08 ${maxiter} ${maxeval}
        minimize 1e-12 1e-08 10000 ${maxeval}
        minimize 1e-12 1e-08 10000 20000
WARNING: Resetting reneighboring criteria during minimization (../min.cpp:168)
Memory usage per processor = 3.35099 Mbytes
Step PotEng Pxx Pyy Pxy Lx Ly Lz 
       0   -53.996103  0.038288412   0.11334084 -5.0516634e-17      3.36736    5.8120265   0.56122687 
       1   -53.996103  0.038288412   0.11334084 -5.0516634e-17      3.36736    5.8120265   0.56122687 
Loop time of 5.38973e-05 on 1 procs for 1 steps with 18 atoms

Minimization stats:
  Stopping criterion = linesearch alpha is zero
  Energy initial, next-to-last, final = 
        -53.9961033099     -53.9961033099     -53.9961033099
  Force two-norm initial, final = 0.000878791 0.000878791
  Force max component initial, final = 0.000220536 0.000220536
  Final line search alpha, max atom move = 0.015625 3.44587e-06
  Iterations, force evaluations = 1 7

Pair  time (%) = 3.40799e-05 (63.2312)
Neigh time (%) = 0 (0)
Comm  time (%) = 9.02638e-06 (16.7474)
Outpt time (%) = 0 (0)
Other time (%) = 1.0791e-05 (20.0214)

Nlocal:    18 ave 18 max 18 min
Histogram: 1 0 0 0 0 0 0 0 0 0
Nghost:    65 ave 65 max 65 min
Histogram: 1 0 0 0 0 0 0 0 0 0
Neighs:    162 ave 162 max 162 min
Histogram: 1 0 0 0 0 0 0 0 0 0

Total # of neighbors = 162
Ave neighs/atom = 9
Neighbor list builds = 0
Dangerous builds = 0
        next i
jump SELF loop1
	read_dump orig.dump 0 x y
  orthogonal box = (0 0 -0.280613) to (3.36736 5.83244 0.280613)
  18 atoms before read
  18 atoms in snapshot
  0 atoms purged
  18 atoms replaced
  0 atoms trimmed
  0 atoms added
  18 atoms after read
        variable stretch equal 1+$i*${strainstep}
        variable stretch equal 1+8*${strainstep}
        variable stretch equal 1+8*-0.0005
        change_box all ${direction} scale ${stretch} remap
        change_box all y scale ${stretch} remap
        change_box all y scale 0.996 remap
  orthogonal box = (0 0.0116649 -0.280613) to (3.36736 5.82078 0.280613)
        min_style ${style}
        min_style cg
        minimize ${etol} ${ftol} ${maxiter} ${maxeval}
        minimize 1e-12 ${ftol} ${maxiter} ${maxeval}
        minimize 1e-12 1e-08 ${maxiter} ${maxeval}
        minimize 1e-12 1e-08 10000 ${maxeval}
        minimize 1e-12 1e-08 10000 20000
WARNING: Resetting reneighboring criteria during minimization (../min.cpp:168)
Memory usage per processor = 3.35099 Mbytes
Step PotEng Pxx Pyy Pxy Lx Ly Lz 
       0   -53.994882  0.043843507   0.12975901 8.1432809e-17      3.36736    5.8091102   0.56122687 
       1   -53.994882  0.043843507   0.12975901 8.1432809e-17      3.36736    5.8091102   0.56122687 
Loop time of 5.39687e-05 on 1 procs for 1 steps with 18 atoms

Minimization stats:
  Stopping criterion = linesearch alpha is zero
  Energy initial, next-to-last, final = 
        -53.9948823254     -53.9948823254     -53.9948823254
  Force two-norm initial, final = 0.000877345 0.000877345
  Force max component initial, final = 0.000220092 0.000220092
  Final line search alpha, max atom move = 0.015625 3.43894e-06
  Iterations, force evaluations = 1 7

Pair  time (%) = 3.50284e-05 (64.905)
Neigh time (%) = 0 (0)
Comm  time (%) = 6.9699e-06 (12.9147)
Outpt time (%) = 0 (0)
Other time (%) = 1.19704e-05 (22.1803)

Nlocal:    18 ave 18 max 18 min
Histogram: 1 0 0 0 0 0 0 0 0 0
Nghost:    65 ave 65 max 65 min
Histogram: 1 0 0 0 0 0 0 0 0 0
Neighs:    162 ave 162 max 162 min
Histogram: 1 0 0 0 0 0 0 0 0 0

Total # of neighbors = 162
Ave neighs/atom = 9
Neighbor list builds = 0
Dangerous builds = 0
        next i
jump SELF loop1
	read_dump orig.dump 0 x y
  orthogonal box = (0 0 -0.280613) to (3.36736 5.83244 0.280613)
  18 atoms before read
  18 atoms in snapshot
  0 atoms purged
  18 atoms replaced
  0 atoms trimmed
  0 atoms added
  18 atoms after read
        variable stretch equal 1+$i*${strainstep}
        variable stretch equal 1+9*${strainstep}
        variable stretch equal 1+9*-0.0005
        change_box all ${direction} scale ${stretch} remap
        change_box all y scale ${stretch} remap
        change_box all y scale 0.9955 remap
  orthogonal box = (0 0.013123 -0.280613) to (3.36736 5.81932 0.280613)
        min_style ${style}
        min_style cg
        minimize ${etol} ${ftol} ${maxiter} ${maxeval}
        minimize 1e-12 ${ftol} ${maxiter} ${maxeval}
        minimize 1e-12 1e-08 ${maxiter} ${maxeval}
        minimize 1e-12 1e-08 10000 ${maxeval}
        minimize 1e-12 1e-08 10000 20000
WARNING: Resetting reneighboring criteria during minimization (../min.cpp:168)
Memory usage per processor = 3.35099 Mbytes
Step PotEng Pxx Pyy Pxy Lx Ly Lz 
       0   -53.993519  0.049428252   0.14623219 -9.010921e-17      3.36736     5.806194   0.56122687 
       1   -53.993519  0.049428252   0.14623219 -9.010921e-17      3.36736     5.806194   0.56122687 
Loop time of 6.30808e-05 on 1 procs for 1 steps with 18 atoms

Minimization stats:
  Stopping criterion = linesearch alpha is zero
  Energy initial, next-to-last, final = 
        -53.9935192651     -53.9935192651     -53.9935192651
  Force two-norm initial, final = 0.000881674 0.000881674
  Force max component initial, final = 0.000221375 0.000221375
  Final line search alpha, max atom move = 0.015625 3.45898e-06
  Iterations, force evaluations = 1 7

Pair  time (%) = 4.09175e-05 (64.8653)
Neigh time (%) = 0 (0)
Comm  time (%) = 8.54908e-06 (13.5526)
Outpt time (%) = 0 (0)
Other time (%) = 1.36142e-05 (21.5821)

Nlocal:    18 ave 18 max 18 min
Histogram: 1 0 0 0 0 0 0 0 0 0
Nghost:    65 ave 65 max 65 min
Histogram: 1 0 0 0 0 0 0 0 0 0
Neighs:    162 ave 162 max 162 min
Histogram: 1 0 0 0 0 0 0 0 0 0

Total # of neighbors = 162
Ave neighs/atom = 9
Neighbor list builds = 0
Dangerous builds = 0
        next i
jump SELF loop1
	read_dump orig.dump 0 x y
  orthogonal box = (0 0 -0.280613) to (3.36736 5.83244 0.280613)
  18 atoms before read
  18 atoms in snapshot
  0 atoms purged
  18 atoms replaced
  0 atoms trimmed
  0 atoms added
  18 atoms after read
        variable stretch equal 1+$i*${strainstep}
        variable stretch equal 1+10*${strainstep}
        variable stretch equal 1+10*-0.0005
        change_box all ${direction} scale ${stretch} remap
        change_box all y scale ${stretch} remap
        change_box all y scale 0.995 remap
  orthogonal box = (0 0.0145811 -0.280613) to (3.36736 5.81786 0.280613)
        min_style ${style}
        min_style cg
        minimize ${etol} ${ftol} ${maxiter} ${maxeval}
        minimize 1e-12 ${ftol} ${maxiter} ${maxeval}
        minimize 1e-12 1e-08 ${maxiter} ${maxeval}
        minimize 1e-12 1e-08 10000 ${maxeval}
        minimize 1e-12 1e-08 10000 20000
WARNING: Resetting reneighboring criteria during minimization (../min.cpp:168)
Memory usage per processor = 3.35099 Mbytes
Step PotEng Pxx Pyy Pxy Lx Ly Lz 
       0   -53.992023  0.055041075   0.16275549 -1.351818e-16      3.36736    5.8032778   0.56122687 
       1   -53.992023  0.055041075   0.16275549 -1.351818e-16      3.36736    5.8032778   0.56122687 
Loop time of 5.19889e-05 on 1 procs for 1 steps with 18 atoms

Minimization stats:
  Stopping criterion = linesearch alpha is zero
  Energy initial, next-to-last, final = 
        -53.9920225932     -53.9920225932     -53.9920225932
  Force two-norm initial, final = 0.000886008 0.000886008
  Force max component initial, final = 0.000222658 0.000222658
  Final line search alpha, max atom move = 0.015625 3.47903e-06
  Iterations, force evaluations = 1 7

Pair  time (%) = 3.19447e-05 (61.4453)
Neigh time (%) = 0 (0)
Comm  time (%) = 8.90193e-06 (17.1228)
Outpt time (%) = 0 (0)
Other time (%) = 1.11422e-05 (21.4319)

Nlocal:    18 ave 18 max 18 min
Histogram: 1 0 0 0 0 0 0 0 0 0
Nghost:    65 ave 65 max 65 min
Histogram: 1 0 0 0 0 0 0 0 0 0
Neighs:    162 ave 162 max 162 min
Histogram: 1 0 0 0 0 0 0 0 0 0

Total # of neighbors = 162
Ave neighs/atom = 9
Neighbor list builds = 0
Dangerous builds = 0
        next i
jump SELF loop1
	read_dump orig.dump 0 x y
  orthogonal box = (0 0 -0.280613) to (3.36736 5.83244 0.280613)
  18 atoms before read
  18 atoms in snapshot
  0 atoms purged
  18 atoms replaced
  0 atoms trimmed
  0 atoms added
  18 atoms after read
        variable stretch equal 1+$i*${strainstep}
        variable stretch equal 1+11*${strainstep}
        variable stretch equal 1+11*-0.0005
        change_box all ${direction} scale ${stretch} remap
        change_box all y scale ${stretch} remap
        change_box all y scale 0.9945 remap
  orthogonal box = (0 0.0160392 -0.280613) to (3.36736 5.8164 0.280613)
        min_style ${style}
        min_style cg
        minimize ${etol} ${ftol} ${maxiter} ${maxeval}
        minimize 1e-12 ${ftol} ${maxiter} ${maxeval}
        minimize 1e-12 1e-08 ${maxiter} ${maxeval}
        minimize 1e-12 1e-08 10000 ${maxeval}
        minimize 1e-12 1e-08 10000 20000
WARNING: Resetting reneighboring criteria during minimization (../min.cpp:168)
Memory usage per processor = 3.35099 Mbytes
Step PotEng Pxx Pyy Pxy Lx Ly Lz 
       0   -53.990342  0.060691397   0.17935662 -1.2775463e-16      3.36736    5.8003616   0.56122687 
       1   -53.990342  0.060691397   0.17935662 -1.2775463e-16      3.36736    5.8003616   0.56122687 
Loop time of -1.59489e-08 on 1 procs for 1 steps with 18 atoms

Minimization stats:
  Stopping criterion = linesearch alpha is zero
  Energy initial, next-to-last, final = 
         -53.990342188      -53.990342188      -53.990342188
  Force two-norm initial, final = 0.000884543 0.000884543
  Force max component initial, final = 0.000222209 0.000222209
  Final line search alpha, max atom move = 0.015625 3.47202e-06
  Iterations, force evaluations = 1 7

Pair  time (%) = -1.27591e-07 (800)
Neigh time (%) = 0 (-0)
Comm  time (%) = -2.55182e-07 (1600)
Outpt time (%) = 0 (-0)
Other time (%) = 3.66825e-07 (-2300)

Nlocal:    18 ave 18 max 18 min
Histogram: 1 0 0 0 0 0 0 0 0 0
Nghost:    65 ave 65 max 65 min
Histogram: 1 0 0 0 0 0 0 0 0 0
Neighs:    162 ave 162 max 162 min
Histogram: 1 0 0 0 0 0 0 0 0 0

Total # of neighbors = 162
Ave neighs/atom = 9
Neighbor list builds = 0
Dangerous builds = 0
        next i
jump SELF loop1
	read_dump orig.dump 0 x y
  orthogonal box = (0 0 -0.280613) to (3.36736 5.83244 0.280613)
  18 atoms before read
  18 atoms in snapshot
  0 atoms purged
  18 atoms replaced
  0 atoms trimmed
  0 atoms added
  18 atoms after read
        variable stretch equal 1+$i*${strainstep}
        variable stretch equal 1+12*${strainstep}
        variable stretch equal 1+12*-0.0005
        change_box all ${direction} scale ${stretch} remap
        change_box all y scale ${stretch} remap
        change_box all y scale 0.994 remap
  orthogonal box = (0 0.0174973 -0.280613) to (3.36736 5.81494 0.280613)
        min_style ${style}
        min_style cg
        minimize ${etol} ${ftol} ${maxiter} ${maxeval}
        minimize 1e-12 ${ftol} ${maxiter} ${maxeval}
        minimize 1e-12 1e-08 ${maxiter} ${maxeval}
        minimize 1e-12 1e-08 10000 ${maxeval}
        minimize 1e-12 1e-08 10000 20000
WARNING: Resetting reneighboring criteria during minimization (../min.cpp:168)
Memory usage per processor = 3.35099 Mbytes
Step PotEng Pxx Pyy Pxy Lx Ly Lz 
       0    -53.98848  0.066378992   0.19603461 -1.5672878e-16      3.36736    5.7974454   0.56122687 
       1    -53.98848  0.066378992   0.19603461 -1.5672878e-16      3.36736    5.7974454   0.56122687 
Loop time of 7.30448e-05 on 1 procs for 1 steps with 18 atoms

Minimization stats:
  Stopping criterion = linesearch alpha is zero
  Energy initial, next-to-last, final = 
        -53.9884797318     -53.9884797318     -53.9884797318
  Force two-norm initial, final = 0.000888912 0.000888912
  Force max component initial, final = 0.000223502 0.000223502
  Final line search alpha, max atom move = 0.015625 3.49222e-06
  Iterations, force evaluations = 1 7

Pair  time (%) = 4.8032e-05 (65.757)
Neigh time (%) = 0 (0)
Comm  time (%) = 8.81776e-06 (12.0717)
Outpt time (%) = 0 (0)
Other time (%) = 1.6195e-05 (22.1713)

Nlocal:    18 ave 18 max 18 min
Histogram: 1 0 0 0 0 0 0 0 0 0
Nghost:    65 ave 65 max 65 min
Histogram: 1 0 0 0 0 0 0 0 0 0
Neighs:    162 ave 162 max 162 min
Histogram: 1 0 0 0 0 0 0 0 0 0

Total # of neighbors = 162
Ave neighs/atom = 9
Neighbor list builds = 0
Dangerous builds = 0
        next i
jump SELF loop1
	read_dump orig.dump 0 x y
  orthogonal box = (0 0 -0.280613) to (3.36736 5.83244 0.280613)
  18 atoms before read
  18 atoms in snapshot
  0 atoms purged
  18 atoms replaced
  0 atoms trimmed
  0 atoms added
  18 atoms after read
        variable stretch equal 1+$i*${strainstep}
        variable stretch equal 1+13*${strainstep}
        variable stretch equal 1+13*-0.0005
        change_box all ${direction} scale ${stretch} remap
        change_box all y scale ${stretch} remap
        change_box all y scale 0.9935 remap
  orthogonal box = (0 0.0189554 -0.280613) to (3.36736 5.81348 0.280613)
        min_style ${style}
        min_style cg
        minimize ${etol} ${ftol} ${maxiter} ${maxeval}
        minimize 1e-12 ${ftol} ${maxiter} ${maxeval}
        minimize 1e-12 1e-08 ${maxiter} ${maxeval}
        minimize 1e-12 1e-08 10000 ${maxeval}
        minimize 1e-12 1e-08 10000 20000
WARNING: Resetting reneighboring criteria during minimization (../min.cpp:168)
Memory usage per processor = 3.35099 Mbytes
Step PotEng Pxx Pyy Pxy Lx Ly Lz 
       0   -53.986482  0.072095044   0.21276304 -1.8951193e-16      3.36736    5.7945291   0.56122687 
       1   -53.986482  0.072095044   0.21276304 -1.8951193e-16      3.36736    5.7945291   0.56122687 
Loop time of 5.10531e-05 on 1 procs for 1 steps with 18 atoms

Minimization stats:
  Stopping criterion = linesearch alpha is zero
  Energy initial, next-to-last, final = 
        -53.9864822051     -53.9864822051     -53.9864822051
  Force two-norm initial, final = 0.0008933 0.0008933
  Force max component initial, final = 0.000224799 0.000224799
  Final line search alpha, max atom move = 0.015625 3.51249e-06
  Iterations, force evaluations = 1 7

Pair  time (%) = 3.30411e-05 (64.7191)
Neigh time (%) = 0 (0)
Comm  time (%) = 7.85629e-06 (15.3885)
Outpt time (%) = 0 (0)
Other time (%) = 1.01557e-05 (19.8925)

Nlocal:    18 ave 18 max 18 min
Histogram: 1 0 0 0 0 0 0 0 0 0
Nghost:    65 ave 65 max 65 min
Histogram: 1 0 0 0 0 0 0 0 0 0
Neighs:    162 ave 162 max 162 min
Histogram: 1 0 0 0 0 0 0 0 0 0

Total # of neighbors = 162
Ave neighs/atom = 9
Neighbor list builds = 0
Dangerous builds = 0
        next i
jump SELF loop1
	read_dump orig.dump 0 x y
  orthogonal box = (0 0 -0.280613) to (3.36736 5.83244 0.280613)
  18 atoms before read
  18 atoms in snapshot
  0 atoms purged
  18 atoms replaced
  0 atoms trimmed
  0 atoms added
  18 atoms after read
        variable stretch equal 1+$i*${strainstep}
        variable stretch equal 1+14*${strainstep}
        variable stretch equal 1+14*-0.0005
        change_box all ${direction} scale ${stretch} remap
        change_box all y scale ${stretch} remap
        change_box all y scale 0.993 remap
  orthogonal box = (0 0.0204135 -0.280613) to (3.36736 5.81203 0.280613)
        min_style ${style}
        min_style cg
        minimize ${etol} ${ftol} ${maxiter} ${maxeval}
        minimize 1e-12 ${ftol} ${maxiter} ${maxeval}
        minimize 1e-12 1e-08 ${maxiter} ${maxeval}
        minimize 1e-12 1e-08 10000 ${maxeval}
        minimize 1e-12 1e-08 10000 20000
WARNING: Resetting reneighboring criteria during minimization (../min.cpp:168)
Memory usage per processor = 3.35099 Mbytes
Step PotEng Pxx Pyy Pxy Lx Ly Lz 
       0   -53.984336  0.077842057   0.22954909 -1.3704543e-16      3.36736    5.7916129   0.56122687 
       1   -53.984336  0.077842057   0.22954909 -1.3704543e-16      3.36736    5.7916129   0.56122687 
Loop time of 5.10177e-05 on 1 procs for 1 steps with 18 atoms

Minimization stats:
  Stopping criterion = linesearch alpha is zero
  Energy initial, next-to-last, final = 
        -53.9843364171     -53.9843364171     -53.9843364171
  Force two-norm initial, final = 0.000891816 0.000891816
  Force max component initial, final = 0.000224345 0.000224345
  Final line search alpha, max atom move = 0.015625 3.50539e-06
  Iterations, force evaluations = 1 7

Pair  time (%) = 3.41363e-05 (66.9107)
Neigh time (%) = 0 (0)
Comm  time (%) = 2.75509e-06 (5.40025)
Outpt time (%) = 0 (0)
Other time (%) = 1.41263e-05 (27.689)

Nlocal:    18 ave 18 max 18 min
Histogram: 1 0 0 0 0 0 0 0 0 0
Nghost:    65 ave 65 max 65 min
Histogram: 1 0 0 0 0 0 0 0 0 0
Neighs:    162 ave 162 max 162 min
Histogram: 1 0 0 0 0 0 0 0 0 0

Total # of neighbors = 162
Ave neighs/atom = 9
Neighbor list builds = 0
Dangerous builds = 0
        next i
jump SELF loop1
	read_dump orig.dump 0 x y
  orthogonal box = (0 0 -0.280613) to (3.36736 5.83244 0.280613)
  18 atoms before read
  18 atoms in snapshot
  0 atoms purged
  18 atoms replaced
  0 atoms trimmed
  0 atoms added
  18 atoms after read
        variable stretch equal 1+$i*${strainstep}
        variable stretch equal 1+15*${strainstep}
        variable stretch equal 1+15*-0.0005
        change_box all ${direction} scale ${stretch} remap
        change_box all y scale ${stretch} remap
        change_box all y scale 0.9925 remap
  orthogonal box = (0 0.0218716 -0.280613) to (3.36736 5.81057 0.280613)
        min_style ${style}
        min_style cg
        minimize ${etol} ${ftol} ${maxiter} ${maxeval}
        minimize 1e-12 ${ftol} ${maxiter} ${maxeval}
        minimize 1e-12 1e-08 ${maxiter} ${maxeval}
        minimize 1e-12 1e-08 10000 ${maxeval}
        minimize 1e-12 1e-08 10000 20000
WARNING: Resetting reneighboring criteria during minimization (../min.cpp:168)
Memory usage per processor = 3.35099 Mbytes
Step PotEng Pxx Pyy Pxy Lx Ly Lz 
       0   -53.981969  0.083633958   0.24643368 -1.5971612e-17      3.36736    5.7886967   0.56122687 
       1   -53.981969  0.083633958   0.24643368 -1.5971612e-17      3.36736    5.7886967   0.56122687 
Loop time of 5.20693e-05 on 1 procs for 1 steps with 18 atoms

Minimization stats:
  Stopping criterion = linesearch alpha is zero
  Energy initial, next-to-last, final = 
        -53.9819685392     -53.9819685392     -53.9819685392
  Force two-norm initial, final = 0.00089622 0.00089622
  Force max component initial, final = 0.000225646 0.000225646
  Final line search alpha, max atom move = 0.0078125 1.76286e-06
  Iterations, force evaluations = 1 8

Pair  time (%) = 3.43721e-05 (66.0122)
Neigh time (%) = 0 (0)
Comm  time (%) = 5.6572e-06 (10.8648)
Outpt time (%) = 0 (0)
Other time (%) = 1.204e-05 (23.1231)

Nlocal:    18 ave 18 max 18 min
Histogram: 1 0 0 0 0 0 0 0 0 0
Nghost:    65 ave 65 max 65 min
Histogram: 1 0 0 0 0 0 0 0 0 0
Neighs:    162 ave 162 max 162 min
Histogram: 1 0 0 0 0 0 0 0 0 0

Total # of neighbors = 162
Ave neighs/atom = 9
Neighbor list builds = 0
Dangerous builds = 0
        next i
jump SELF loop1
	read_dump orig.dump 0 x y
  orthogonal box = (0 0 -0.280613) to (3.36736 5.83244 0.280613)
  18 atoms before read
  18 atoms in snapshot
  0 atoms purged
  18 atoms replaced
  0 atoms trimmed
  0 atoms added
  18 atoms after read
        variable stretch equal 1+$i*${strainstep}
        variable stretch equal 1+16*${strainstep}
        variable stretch equal 1+16*-0.0005
        change_box all ${direction} scale ${stretch} remap
        change_box all y scale ${stretch} remap
        change_box all y scale 0.992 remap
  orthogonal box = (0 0.0233298 -0.280613) to (3.36736 5.80911 0.280613)
        min_style ${style}
        min_style cg
        minimize ${etol} ${ftol} ${maxiter} ${maxeval}
        minimize 1e-12 ${ftol} ${maxiter} ${maxeval}
        minimize 1e-12 1e-08 ${maxiter} ${maxeval}
        minimize 1e-12 1e-08 10000 ${maxeval}
        minimize 1e-12 1e-08 10000 20000
WARNING: Resetting reneighboring criteria during minimization (../min.cpp:168)
Memory usage per processor = 3.35099 Mbytes
Step PotEng Pxx Pyy Pxy Lx Ly Lz 
       0   -53.979464  0.089454698   0.26336903 -9.7319287e-17      3.36736    5.7857805   0.56122687 
       1   -53.979464  0.089454698   0.26336903 -9.7319287e-17      3.36736    5.7857805   0.56122687 
Loop time of 0.000196945 on 1 procs for 1 steps with 18 atoms

Minimization stats:
  Stopping criterion = linesearch alpha is zero
  Energy initial, next-to-last, final = 
        -53.9794641423     -53.9794641423     -53.9794641423
  Force two-norm initial, final = 0.000900655 0.000900655
  Force max component initial, final = 0.000226956 0.000226956
  Final line search alpha, max atom move = 0.0078125 1.77309e-06
  Iterations, force evaluations = 1 8

Pair  time (%) = 3.7865e-05 (19.2261)
Neigh time (%) = 0 (0)
Comm  time (%) = 6.97421e-06 (3.54119)
Outpt time (%) = 0 (0)
Other time (%) = 0.000152106 (77.2327)

Nlocal:    18 ave 18 max 18 min
Histogram: 1 0 0 0 0 0 0 0 0 0
Nghost:    65 ave 65 max 65 min
Histogram: 1 0 0 0 0 0 0 0 0 0
Neighs:    162 ave 162 max 162 min
Histogram: 1 0 0 0 0 0 0 0 0 0

Total # of neighbors = 162
Ave neighs/atom = 9
Neighbor list builds = 0
Dangerous builds = 0
        next i
jump SELF loop1
	read_dump orig.dump 0 x y
  orthogonal box = (0 0 -0.280613) to (3.36736 5.83244 0.280613)
  18 atoms before read
  18 atoms in snapshot
  0 atoms purged
  18 atoms replaced
  0 atoms trimmed
  0 atoms added
  18 atoms after read
        variable stretch equal 1+$i*${strainstep}
        variable stretch equal 1+17*${strainstep}
        variable stretch equal 1+17*-0.0005
        change_box all ${direction} scale ${stretch} remap
        change_box all y scale ${stretch} remap
        change_box all y scale 0.9915 remap
  orthogonal box = (0 0.0247879 -0.280613) to (3.36736 5.80765 0.280613)
        min_style ${style}
        min_style cg
        minimize ${etol} ${ftol} ${maxiter} ${maxeval}
        minimize 1e-12 ${ftol} ${maxiter} ${maxeval}
        minimize 1e-12 1e-08 ${maxiter} ${maxeval}
        minimize 1e-12 1e-08 10000 ${maxeval}
        minimize 1e-12 1e-08 10000 20000
WARNING: Resetting reneighboring criteria during minimization (../min.cpp:168)
Memory usage per processor = 3.35099 Mbytes
Step PotEng Pxx Pyy Pxy Lx Ly Lz 
       0   -53.976823  0.095304297   0.28035499 2.1616411e-16      3.36736    5.7828643   0.56122687 
       1   -53.976823  0.095304297   0.28035499 2.1616411e-16      3.36736    5.7828643   0.56122687 
Loop time of 5.89826e-05 on 1 procs for 1 steps with 18 atoms

Minimization stats:
  Stopping criterion = linesearch alpha is zero
  Energy initial, next-to-last, final = 
        -53.9768233051     -53.9768233051     -53.9768233051
  Force two-norm initial, final = 0.000905109 0.000905109
  Force max component initial, final = 0.00022827 0.00022827
  Final line search alpha, max atom move = 0.0078125 1.78336e-06
  Iterations, force evaluations = 1 8

Pair  time (%) = 3.82335e-05 (64.8216)
Neigh time (%) = 0 (0)
Comm  time (%) = 9.2804e-06 (15.7341)
Outpt time (%) = 0 (0)
Other time (%) = 1.14688e-05 (19.4443)

Nlocal:    18 ave 18 max 18 min
Histogram: 1 0 0 0 0 0 0 0 0 0
Nghost:    65 ave 65 max 65 min
Histogram: 1 0 0 0 0 0 0 0 0 0
Neighs:    162 ave 162 max 162 min
Histogram: 1 0 0 0 0 0 0 0 0 0

Total # of neighbors = 162
Ave neighs/atom = 9
Neighbor list builds = 0
Dangerous builds = 0
        next i
jump SELF loop1
	read_dump orig.dump 0 x y
  orthogonal box = (0 0 -0.280613) to (3.36736 5.83244 0.280613)
  18 atoms before read
  18 atoms in snapshot
  0 atoms purged
  18 atoms replaced
  0 atoms trimmed
  0 atoms added
  18 atoms after read
        variable stretch equal 1+$i*${strainstep}
        variable stretch equal 1+18*${strainstep}
        variable stretch equal 1+18*-0.0005
        change_box all ${direction} scale ${stretch} remap
        change_box all y scale ${stretch} remap
        change_box all y scale 0.991 remap
  orthogonal box = (0 0.026246 -0.280613) to (3.36736 5.80619 0.280613)
        min_style ${style}
        min_style cg
        minimize ${etol} ${ftol} ${maxiter} ${maxeval}
        minimize 1e-12 ${ftol} ${maxiter} ${maxeval}
        minimize 1e-12 1e-08 ${maxiter} ${maxeval}
        minimize 1e-12 1e-08 10000 ${maxeval}
        minimize 1e-12 1e-08 10000 20000
WARNING: Resetting reneighboring criteria during minimization (../min.cpp:168)
Memory usage per processor = 3.35099 Mbytes
Step PotEng Pxx Pyy Pxy Lx Ly Lz 
       0   -53.973968   0.10119743   0.29743456 -1.5381914e-16      3.36736     5.779948   0.56122687 
       1   -53.973968   0.10119743   0.29743456 -1.5381914e-16      3.36736     5.779948   0.56122687 
Loop time of 9.40046e-05 on 1 procs for 1 steps with 18 atoms

Minimization stats:
  Stopping criterion = linesearch alpha is zero
  Energy initial, next-to-last, final = 
        -53.9739679813     -53.9739679813     -53.9739679813
  Force two-norm initial, final = 0.000903594 0.000903594
  Force max component initial, final = 0.000227807 0.000227807
  Final line search alpha, max atom move = 0.0078125 1.77974e-06
  Iterations, force evaluations = 1 8

Pair  time (%) = 4.69208e-05 (49.9134)
Neigh time (%) = 0 (0)
Comm  time (%) = 3.54904e-06 (3.77539)
Outpt time (%) = 0 (0)
Other time (%) = 4.35347e-05 (46.3112)

Nlocal:    18 ave 18 max 18 min
Histogram: 1 0 0 0 0 0 0 0 0 0
Nghost:    65 ave 65 max 65 min
Histogram: 1 0 0 0 0 0 0 0 0 0
Neighs:    162 ave 162 max 162 min
Histogram: 1 0 0 0 0 0 0 0 0 0

Total # of neighbors = 162
Ave neighs/atom = 9
Neighbor list builds = 0
Dangerous builds = 0
        next i
jump SELF loop1
	read_dump orig.dump 0 x y
  orthogonal box = (0 0 -0.280613) to (3.36736 5.83244 0.280613)
  18 atoms before read
  18 atoms in snapshot
  0 atoms purged
  18 atoms replaced
  0 atoms trimmed
  0 atoms added
  18 atoms after read
        variable stretch equal 1+$i*${strainstep}
        variable stretch equal 1+19*${strainstep}
        variable stretch equal 1+19*-0.0005
        change_box all ${direction} scale ${stretch} remap
        change_box all y scale ${stretch} remap
        change_box all y scale 0.9905 remap
  orthogonal box = (0 0.0277041 -0.280613) to (3.36736 5.80474 0.280613)
        min_style ${style}
        min_style cg
        minimize ${etol} ${ftol} ${maxiter} ${maxeval}
        minimize 1e-12 ${ftol} ${maxiter} ${maxeval}
        minimize 1e-12 1e-08 ${maxiter} ${maxeval}
        minimize 1e-12 1e-08 10000 ${maxeval}
        minimize 1e-12 1e-08 10000 20000
WARNING: Resetting reneighboring criteria during minimization (../min.cpp:168)
Memory usage per processor = 3.35099 Mbytes
Step PotEng Pxx Pyy Pxy Lx Ly Lz 
       0   -53.970951   0.10712432   0.31457856 -8.716155e-17      3.36736    5.7770318   0.56122687 
       1   -53.970951   0.10712432   0.31457856 -8.716155e-17      3.36736    5.7770318   0.56122687 
Loop time of 5.89202e-05 on 1 procs for 1 steps with 18 atoms

Minimization stats:
  Stopping criterion = linesearch alpha is zero
  Energy initial, next-to-last, final = 
         -53.970950598      -53.970950598      -53.970950598
  Force two-norm initial, final = 0.000908076 0.000908076
  Force max component initial, final = 0.000229129 0.000229129
  Final line search alpha, max atom move = 0.0078125 1.79007e-06
  Iterations, force evaluations = 1 8

Pair  time (%) = 3.587e-05 (60.8789)
Neigh time (%) = 0 (0)
Comm  time (%) = 9.69914e-06 (16.4615)
Outpt time (%) = 0 (0)
Other time (%) = 1.33511e-05 (22.6596)

Nlocal:    18 ave 18 max 18 min
Histogram: 1 0 0 0 0 0 0 0 0 0
Nghost:    65 ave 65 max 65 min
Histogram: 1 0 0 0 0 0 0 0 0 0
Neighs:    162 ave 162 max 162 min
Histogram: 1 0 0 0 0 0 0 0 0 0

Total # of neighbors = 162
Ave neighs/atom = 9
Neighbor list builds = 0
Dangerous builds = 0
        next i
jump SELF loop1
	read_dump orig.dump 0 x y
  orthogonal box = (0 0 -0.280613) to (3.36736 5.83244 0.280613)
  18 atoms before read
  18 atoms in snapshot
  0 atoms purged
  18 atoms replaced
  0 atoms trimmed
  0 atoms added
  18 atoms after read
        variable stretch equal 1+$i*${strainstep}
        variable stretch equal 1+20*${strainstep}
        variable stretch equal 1+20*-0.0005
        change_box all ${direction} scale ${stretch} remap
        change_box all y scale ${stretch} remap
        change_box all y scale 0.99 remap
  orthogonal box = (0 0.0291622 -0.280613) to (3.36736 5.80328 0.280613)
        min_style ${style}
        min_style cg
        minimize ${etol} ${ftol} ${maxiter} ${maxeval}
        minimize 1e-12 ${ftol} ${maxiter} ${maxeval}
        minimize 1e-12 1e-08 ${maxiter} ${maxeval}
        minimize 1e-12 1e-08 10000 ${maxeval}
        minimize 1e-12 1e-08 10000 20000
WARNING: Resetting reneighboring criteria during minimization (../min.cpp:168)
Memory usage per processor = 3.35099 Mbytes
Step PotEng Pxx Pyy Pxy Lx Ly Lz 
       0   -53.967795   0.11308043   0.33177346 -2.9574839e-16      3.36736    5.7741156   0.56122687 
       1   -53.967795   0.11308043   0.33177346 -2.9574839e-16      3.36736    5.7741156   0.56122687 
Loop time of 6.59592e-05 on 1 procs for 1 steps with 18 atoms

Minimization stats:
  Stopping criterion = linesearch alpha is zero
  Energy initial, next-to-last, final = 
        -53.9677952481     -53.9677952481     -53.9677952481
  Force two-norm initial, final = 0.000912568 0.000912568
  Force max component initial, final = 0.000230453 0.000230453
  Final line search alpha, max atom move = 0.0078125 1.80042e-06
  Iterations, force evaluations = 1 8

Pair  time (%) = 3.97303e-05 (60.2347)
Neigh time (%) = 0 (0)
Comm  time (%) = 9.12847e-06 (13.8396)
Outpt time (%) = 0 (0)
Other time (%) = 1.71004e-05 (25.9257)

Nlocal:    18 ave 18 max 18 min
Histogram: 1 0 0 0 0 0 0 0 0 0
Nghost:    65 ave 65 max 65 min
Histogram: 1 0 0 0 0 0 0 0 0 0
Neighs:    162 ave 162 max 162 min
Histogram: 1 0 0 0 0 0 0 0 0 0

Total # of neighbors = 162
Ave neighs/atom = 9
Neighbor list builds = 0
Dangerous builds = 0
        next i
jump SELF loop1
	read_dump orig.dump 0 x y
  orthogonal box = (0 0 -0.280613) to (3.36736 5.83244 0.280613)
  18 atoms before read
  18 atoms in snapshot
  0 atoms purged
  18 atoms replaced
  0 atoms trimmed
  0 atoms added
  18 atoms after read
        variable stretch equal 1+$i*${strainstep}
        variable stretch equal 1+21*${strainstep}
        variable stretch equal 1+21*-0.0005
        change_box all ${direction} scale ${stretch} remap
        change_box all y scale ${stretch} remap
        change_box all y scale 0.9895 remap
  orthogonal box = (0 0.0306203 -0.280613) to (3.36736 5.80182 0.280613)
        min_style ${style}
        min_style cg
        minimize ${etol} ${ftol} ${maxiter} ${maxeval}
        minimize 1e-12 ${ftol} ${maxiter} ${maxeval}
        minimize 1e-12 1e-08 ${maxiter} ${maxeval}
        minimize 1e-12 1e-08 10000 ${maxeval}
        minimize 1e-12 1e-08 10000 20000
WARNING: Resetting reneighboring criteria during minimization (../min.cpp:168)
Memory usage per processor = 3.35099 Mbytes
Step PotEng Pxx Pyy Pxy Lx Ly Lz 
       0   -53.964459   0.11907375   0.34904244 -2.6913827e-16      3.36736    5.7711994   0.56122687 
       1   -53.964459   0.11907375   0.34904244 -2.6913827e-16      3.36736    5.7711994   0.56122687 
Loop time of 5.89503e-05 on 1 procs for 1 steps with 18 atoms

Minimization stats:
  Stopping criterion = linesearch alpha is zero
  Energy initial, next-to-last, final = 
        -53.9644594348     -53.9644594348     -53.9644594348
  Force two-norm initial, final = 0.000911033 0.000911033
  Force max component initial, final = 0.000229984 0.000229984
  Final line search alpha, max atom move = 0.0078125 1.79675e-06
  Iterations, force evaluations = 1 8

Pair  time (%) = 3.97239e-05 (67.3855)
Neigh time (%) = 0 (0)
Comm  time (%) = 5.16186e-06 (8.75629)
Outpt time (%) = 0 (0)
Other time (%) = 1.40645e-05 (23.8582)

Nlocal:    18 ave 18 max 18 min
Histogram: 1 0 0 0 0 0 0 0 0 0
Nghost:    65 ave 65 max 65 min
Histogram: 1 0 0 0 0 0 0 0 0 0
Neighs:    162 ave 162 max 162 min
Histogram: 1 0 0 0 0 0 0 0 0 0

Total # of neighbors = 162
Ave neighs/atom = 9
Neighbor list builds = 0
Dangerous builds = 0
        next i
jump SELF loop1
	read_dump orig.dump 0 x y
  orthogonal box = (0 0 -0.280613) to (3.36736 5.83244 0.280613)
  18 atoms before read
  18 atoms in snapshot
  0 atoms purged
  18 atoms replaced
  0 atoms trimmed
  0 atoms added
  18 atoms after read
        variable stretch equal 1+$i*${strainstep}
        variable stretch equal 1+22*${strainstep}
        variable stretch equal 1+22*-0.0005
        change_box all ${direction} scale ${stretch} remap
        change_box all y scale ${stretch} remap
        change_box all y scale 0.989 remap
  orthogonal box = (0 0.0320784 -0.280613) to (3.36736 5.80036 0.280613)
        min_style ${style}
        min_style cg
        minimize ${etol} ${ftol} ${maxiter} ${maxeval}
        minimize 1e-12 ${ftol} ${maxiter} ${maxeval}
        minimize 1e-12 1e-08 ${maxiter} ${maxeval}
        minimize 1e-12 1e-08 10000 ${maxeval}
        minimize 1e-12 1e-08 10000 20000
WARNING: Resetting reneighboring criteria during minimization (../min.cpp:168)
Memory usage per processor = 3.35099 Mbytes
Step PotEng Pxx Pyy Pxy Lx Ly Lz 
       0   -53.960923   0.12510824    0.3663968 1.9125195e-16      3.36736    5.7682832   0.56122687 
       1   -53.960923   0.12510824    0.3663968 1.9125195e-16      3.36736    5.7682832   0.56122687 
Loop time of 5.80093e-05 on 1 procs for 1 steps with 18 atoms

Minimization stats:
  Stopping criterion = linesearch alpha is zero
  Energy initial, next-to-last, final = 
        -53.9609230205     -53.9609230205     -53.9609230205
  Force two-norm initial, final = 0.000915562 0.000915562
  Force max component initial, final = 0.000231318 0.000231318
  Final line search alpha, max atom move = 0.0078125 1.80717e-06
  Iterations, force evaluations = 1 8

Pair  time (%) = 3.90166e-05 (67.2592)
Neigh time (%) = 0 (0)
Comm  time (%) = 4.50888e-06 (7.77269)
Outpt time (%) = 0 (0)
Other time (%) = 1.44838e-05 (24.9681)

Nlocal:    18 ave 18 max 18 min
Histogram: 1 0 0 0 0 0 0 0 0 0
Nghost:    65 ave 65 max 65 min
Histogram: 1 0 0 0 0 0 0 0 0 0
Neighs:    162 ave 162 max 162 min
Histogram: 1 0 0 0 0 0 0 0 0 0

Total # of neighbors = 162
Ave neighs/atom = 9
Neighbor list builds = 0
Dangerous builds = 0
        next i
jump SELF loop1
	read_dump orig.dump 0 x y
  orthogonal box = (0 0 -0.280613) to (3.36736 5.83244 0.280613)
  18 atoms before read
  18 atoms in snapshot
  0 atoms purged
  18 atoms replaced
  0 atoms trimmed
  0 atoms added
  18 atoms after read
        variable stretch equal 1+$i*${strainstep}
        variable stretch equal 1+23*${strainstep}
        variable stretch equal 1+23*-0.0005
        change_box all ${direction} scale ${stretch} remap
        change_box all y scale ${stretch} remap
        change_box all y scale 0.9885 remap
  orthogonal box = (0 0.0335365 -0.280613) to (3.36736 5.7989 0.280613)
        min_style ${style}
        min_style cg
        minimize ${etol} ${ftol} ${maxiter} ${maxeval}
        minimize 1e-12 ${ftol} ${maxiter} ${maxeval}
        minimize 1e-12 1e-08 ${maxiter} ${maxeval}
        minimize 1e-12 1e-08 10000 ${maxeval}
        minimize 1e-12 1e-08 10000 20000
WARNING: Resetting reneighboring criteria during minimization (../min.cpp:168)
Memory usage per processor = 3.35099 Mbytes
Step PotEng Pxx Pyy Pxy Lx Ly Lz 
       0   -53.957247   0.13117232   0.38380229 -5.0052173e-17      3.36736    5.7653669   0.56122687 
       1   -53.957247   0.13117232   0.38380229 -5.0052173e-17      3.36736    5.7653669   0.56122687 
Loop time of 0.00177996 on 1 procs for 1 steps with 18 atoms

Minimization stats:
  Stopping criterion = linesearch alpha is zero
  Energy initial, next-to-last, final = 
        -53.9572473246     -53.9572473246     -53.9572473246
  Force two-norm initial, final = 0.000920095 0.000920095
  Force max component initial, final = 0.000232653 0.000232653
  Final line search alpha, max atom move = 0.0078125 1.8176e-06
  Iterations, force evaluations = 1 8

Pair  time (%) = 3.77946e-05 (2.12334)
Neigh time (%) = 0 (0)
Comm  time (%) = 7.6876e-06 (0.431897)
Outpt time (%) = 0 (0)
Other time (%) = 0.00173448 (97.4448)

Nlocal:    18 ave 18 max 18 min
Histogram: 1 0 0 0 0 0 0 0 0 0
Nghost:    65 ave 65 max 65 min
Histogram: 1 0 0 0 0 0 0 0 0 0
Neighs:    162 ave 162 max 162 min
Histogram: 1 0 0 0 0 0 0 0 0 0

Total # of neighbors = 162
Ave neighs/atom = 9
Neighbor list builds = 0
Dangerous builds = 0
        next i
jump SELF loop1
	read_dump orig.dump 0 x y
  orthogonal box = (0 0 -0.280613) to (3.36736 5.83244 0.280613)
  18 atoms before read
  18 atoms in snapshot
  0 atoms purged
  18 atoms replaced
  0 atoms trimmed
  0 atoms added
  18 atoms after read
        variable stretch equal 1+$i*${strainstep}
        variable stretch equal 1+24*${strainstep}
        variable stretch equal 1+24*-0.0005
        change_box all ${direction} scale ${stretch} remap
        change_box all y scale ${stretch} remap
        change_box all y scale 0.988 remap
  orthogonal box = (0 0.0349946 -0.280613) to (3.36736 5.79745 0.280613)
        min_style ${style}
        min_style cg
        minimize ${etol} ${ftol} ${maxiter} ${maxeval}
        minimize 1e-12 ${ftol} ${maxiter} ${maxeval}
        minimize 1e-12 1e-08 ${maxiter} ${maxeval}
        minimize 1e-12 1e-08 10000 ${maxeval}
        minimize 1e-12 1e-08 10000 20000
WARNING: Resetting reneighboring criteria during minimization (../min.cpp:168)
Memory usage per processor = 3.35099 Mbytes
Step PotEng Pxx Pyy Pxy Lx Ly Lz 
       0   -53.953425    0.1372673   0.40126249 1.1357047e-16      3.36736    5.7624507   0.56122687 
       1   -53.953425    0.1372673   0.40126249 1.1357047e-16      3.36736    5.7624507   0.56122687 
Loop time of 5.89114e-05 on 1 procs for 1 steps with 18 atoms

Minimization stats:
  Stopping criterion = linesearch alpha is zero
  Energy initial, next-to-last, final = 
        -53.9534254236     -53.9534254236     -53.9534254236
  Force two-norm initial, final = 0.00091854 0.00091854
  Force max component initial, final = 0.000232178 0.000232178
  Final line search alpha, max atom move = 0.0078125 1.81389e-06
  Iterations, force evaluations = 1 8

Pair  time (%) = 3.76514e-05 (63.9119)
Neigh time (%) = 0 (0)
Comm  time (%) = 6.83148e-06 (11.5962)
Outpt time (%) = 0 (0)
Other time (%) = 1.44285e-05 (24.4919)

Nlocal:    18 ave 18 max 18 min
Histogram: 1 0 0 0 0 0 0 0 0 0
Nghost:    65 ave 65 max 65 min
Histogram: 1 0 0 0 0 0 0 0 0 0
Neighs:    162 ave 162 max 162 min
Histogram: 1 0 0 0 0 0 0 0 0 0

Total # of neighbors = 162
Ave neighs/atom = 9
Neighbor list builds = 0
Dangerous builds = 0
        next i
jump SELF loop1
	read_dump orig.dump 0 x y
  orthogonal box = (0 0 -0.280613) to (3.36736 5.83244 0.280613)
  18 atoms before read
  18 atoms in snapshot
  0 atoms purged
  18 atoms replaced
  0 atoms trimmed
  0 atoms added
  18 atoms after read
        variable stretch equal 1+$i*${strainstep}
        variable stretch equal 1+25*${strainstep}
        variable stretch equal 1+25*-0.0005
        change_box all ${direction} scale ${stretch} remap
        change_box all y scale ${stretch} remap
        change_box all y scale 0.9875 remap
  orthogonal box = (0 0.0364527 -0.280613) to (3.36736 5.79599 0.280613)
        min_style ${style}
        min_style cg
        minimize ${etol} ${ftol} ${maxiter} ${maxeval}
        minimize 1e-12 ${ftol} ${maxiter} ${maxeval}
        minimize 1e-12 1e-08 ${maxiter} ${maxeval}
        minimize 1e-12 1e-08 10000 ${maxeval}
        minimize 1e-12 1e-08 10000 20000
WARNING: Resetting reneighboring criteria during minimization (../min.cpp:168)
Memory usage per processor = 3.35099 Mbytes
Step PotEng Pxx Pyy Pxy Lx Ly Lz 
       0   -53.949364   0.14341087   0.41882894 -2.2103676e-16      3.36736    5.7595345   0.56122687 
       1   -53.949364   0.14341087   0.41882894 -2.2103676e-16      3.36736    5.7595345   0.56122687 
Loop time of 5.99172e-05 on 1 procs for 1 steps with 18 atoms

Minimization stats:
  Stopping criterion = linesearch alpha is zero
  Energy initial, next-to-last, final = 
        -53.9493639011     -53.9493639011     -53.9493639011
  Force two-norm initial, final = 0.000923115 0.000923115
  Force max component initial, final = 0.000233524 0.000233524
  Final line search alpha, max atom move = 0.0078125 1.82441e-06
  Iterations, force evaluations = 1 8

Pair  time (%) = 3.77441e-05 (62.9937)
Neigh time (%) = 0 (0)
Comm  time (%) = 5.53997e-06 (9.24604)
Outpt time (%) = 0 (0)
Other time (%) = 1.66332e-05 (27.7603)

Nlocal:    18 ave 18 max 18 min
Histogram: 1 0 0 0 0 0 0 0 0 0
Nghost:    65 ave 65 max 65 min
Histogram: 1 0 0 0 0 0 0 0 0 0
Neighs:    162 ave 162 max 162 min
Histogram: 1 0 0 0 0 0 0 0 0 0

Total # of neighbors = 162
Ave neighs/atom = 9
Neighbor list builds = 0
Dangerous builds = 0
        next i
jump SELF loop1
	read_dump orig.dump 0 x y
  orthogonal box = (0 0 -0.280613) to (3.36736 5.83244 0.280613)
  18 atoms before read
  18 atoms in snapshot
  0 atoms purged
  18 atoms replaced
  0 atoms trimmed
  0 atoms added
  18 atoms after read
        variable stretch equal 1+$i*${strainstep}
        variable stretch equal 1+26*${strainstep}
        variable stretch equal 1+26*-0.0005
        change_box all ${direction} scale ${stretch} remap
        change_box all y scale ${stretch} remap
        change_box all y scale 0.987 remap
  orthogonal box = (0 0.0379109 -0.280613) to (3.36736 5.79453 0.280613)
        min_style ${style}
        min_style cg
        minimize ${etol} ${ftol} ${maxiter} ${maxeval}
        minimize 1e-12 ${ftol} ${maxiter} ${maxeval}
        minimize 1e-12 1e-08 ${maxiter} ${maxeval}
        minimize 1e-12 1e-08 10000 ${maxeval}
        minimize 1e-12 1e-08 10000 20000
WARNING: Resetting reneighboring criteria during minimization (../min.cpp:168)
Memory usage per processor = 3.35099 Mbytes
Step PotEng Pxx Pyy Pxy Lx Ly Lz 
       0   -53.945162   0.14958444    0.4364469 -2.0772807e-17      3.36736    5.7566183   0.56122687 
       1   -53.945162   0.14958444    0.4364469 -2.0772807e-17      3.36736    5.7566183   0.56122687 
Loop time of 5.88836e-05 on 1 procs for 1 steps with 18 atoms

Minimization stats:
  Stopping criterion = linesearch alpha is zero
  Energy initial, next-to-last, final = 
        -53.9451615164     -53.9451615164     -53.9451615164
  Force two-norm initial, final = 0.000927708 0.000927708
  Force max component initial, final = 0.000234875 0.000234875
  Final line search alpha, max atom move = 0.0078125 1.83496e-06
  Iterations, force evaluations = 1 8

Pair  time (%) = 3.68786e-05 (62.6297)
Neigh time (%) = 0 (0)
Comm  time (%) = 7.95501e-06 (13.5097)
Outpt time (%) = 0 (0)
Other time (%) = 1.40499e-05 (23.8605)

Nlocal:    18 ave 18 max 18 min
Histogram: 1 0 0 0 0 0 0 0 0 0
Nghost:    65 ave 65 max 65 min
Histogram: 1 0 0 0 0 0 0 0 0 0
Neighs:    162 ave 162 max 162 min
Histogram: 1 0 0 0 0 0 0 0 0 0

Total # of neighbors = 162
Ave neighs/atom = 9
Neighbor list builds = 0
Dangerous builds = 0
        next i
jump SELF loop1
	read_dump orig.dump 0 x y
  orthogonal box = (0 0 -0.280613) to (3.36736 5.83244 0.280613)
  18 atoms before read
  18 atoms in snapshot
  0 atoms purged
  18 atoms replaced
  0 atoms trimmed
  0 atoms added
  18 atoms after read
        variable stretch equal 1+$i*${strainstep}
        variable stretch equal 1+27*${strainstep}
        variable stretch equal 1+27*-0.0005
        change_box all ${direction} scale ${stretch} remap
        change_box all y scale ${stretch} remap
        change_box all y scale 0.9865 remap
  orthogonal box = (0 0.039369 -0.280613) to (3.36736 5.79307 0.280613)
        min_style ${style}
        min_style cg
        minimize ${etol} ${ftol} ${maxiter} ${maxeval}
        minimize 1e-12 ${ftol} ${maxiter} ${maxeval}
        minimize 1e-12 1e-08 ${maxiter} ${maxeval}
        minimize 1e-12 1e-08 10000 ${maxeval}
        minimize 1e-12 1e-08 10000 20000
WARNING: Resetting reneighboring criteria during minimization (../min.cpp:168)
Memory usage per processor = 3.35099 Mbytes
Step PotEng Pxx Pyy Pxy Lx Ly Lz 
       0   -53.940818   0.15578802   0.45411557 -7.4039934e-17      3.36736    5.7537021   0.56122687 
       1   -53.940818   0.15578802   0.45411557 -7.4039934e-17      3.36736    5.7537021   0.56122687 
Loop time of 1.69636e-05 on 1 procs for 1 steps with 18 atoms

Minimization stats:
  Stopping criterion = linesearch alpha is zero
  Energy initial, next-to-last, final = 
        -53.9408183891     -53.9408183891     -53.9408183891
  Force two-norm initial, final = 0.000932325 0.000932325
  Force max component initial, final = 0.000236231 0.000236231
  Final line search alpha, max atom move = 0.0078125 1.84556e-06
  Iterations, force evaluations = 1 8

Pair  time (%) = 9.0719e-06 (53.4787)
Neigh time (%) = 0 (0)
Comm  time (%) = 4.37547e-06 (25.7933)
Outpt time (%) = 0 (0)
Other time (%) = 3.51621e-06 (20.728)

Nlocal:    18 ave 18 max 18 min
Histogram: 1 0 0 0 0 0 0 0 0 0
Nghost:    65 ave 65 max 65 min
Histogram: 1 0 0 0 0 0 0 0 0 0
Neighs:    162 ave 162 max 162 min
Histogram: 1 0 0 0 0 0 0 0 0 0

Total # of neighbors = 162
Ave neighs/atom = 9
Neighbor list builds = 0
Dangerous builds = 0
        next i
jump SELF loop1
	read_dump orig.dump 0 x y
  orthogonal box = (0 0 -0.280613) to (3.36736 5.83244 0.280613)
  18 atoms before read
  18 atoms in snapshot
  0 atoms purged
  18 atoms replaced
  0 atoms trimmed
  0 atoms added
  18 atoms after read
        variable stretch equal 1+$i*${strainstep}
        variable stretch equal 1+28*${strainstep}
        variable stretch equal 1+28*-0.0005
        change_box all ${direction} scale ${stretch} remap
        change_box all y scale ${stretch} remap
        change_box all y scale 0.986 remap
  orthogonal box = (0 0.0408271 -0.280613) to (3.36736 5.79161 0.280613)
        min_style ${style}
        min_style cg
        minimize ${etol} ${ftol} ${maxiter} ${maxeval}
        minimize 1e-12 ${ftol} ${maxiter} ${maxeval}
        minimize 1e-12 1e-08 ${maxiter} ${maxeval}
        minimize 1e-12 1e-08 10000 ${maxeval}
        minimize 1e-12 1e-08 10000 20000
WARNING: Resetting reneighboring criteria during minimization (../min.cpp:168)
Memory usage per processor = 3.35099 Mbytes
Step PotEng Pxx Pyy Pxy Lx Ly Lz 
       0   -53.936254   0.16203668   0.47187805 -2.1173472e-16      3.36736    5.7507858   0.56122687 
       1   -53.936254   0.16203668   0.47187805 -2.1173472e-16      3.36736    5.7507858   0.56122687 
Loop time of 5.80478e-05 on 1 procs for 1 steps with 18 atoms

Minimization stats:
  Stopping criterion = linesearch alpha is zero
  Energy initial, next-to-last, final = 
        -53.9362541034     -53.9362541034     -53.9362541034
  Force two-norm initial, final = 0.000930479 0.000930479
  Force max component initial, final = 0.000235663 0.000235663
  Final line search alpha, max atom move = 0.0078125 1.84112e-06
  Iterations, force evaluations = 1 8

Pair  time (%) = 3.91246e-05 (67.4007)
Neigh time (%) = 0 (0)
Comm  time (%) = 5.91716e-06 (10.1936)
Outpt time (%) = 0 (0)
Other time (%) = 1.3006e-05 (22.4057)

Nlocal:    18 ave 18 max 18 min
Histogram: 1 0 0 0 0 0 0 0 0 0
Nghost:    65 ave 65 max 65 min
Histogram: 1 0 0 0 0 0 0 0 0 0
Neighs:    162 ave 162 max 162 min
Histogram: 1 0 0 0 0 0 0 0 0 0

Total # of neighbors = 162
Ave neighs/atom = 9
Neighbor list builds = 0
Dangerous builds = 0
        next i
jump SELF loop1
	read_dump orig.dump 0 x y
  orthogonal box = (0 0 -0.280613) to (3.36736 5.83244 0.280613)
  18 atoms before read
  18 atoms in snapshot
  0 atoms purged
  18 atoms replaced
  0 atoms trimmed
  0 atoms added
  18 atoms after read
        variable stretch equal 1+$i*${strainstep}
        variable stretch equal 1+29*${strainstep}
        variable stretch equal 1+29*-0.0005
        change_box all ${direction} scale ${stretch} remap
        change_box all y scale ${stretch} remap
        change_box all y scale 0.9855 remap
  orthogonal box = (0 0.0422852 -0.280613) to (3.36736 5.79015 0.280613)
        min_style ${style}
        min_style cg
        minimize ${etol} ${ftol} ${maxiter} ${maxeval}
        minimize 1e-12 ${ftol} ${maxiter} ${maxeval}
        minimize 1e-12 1e-08 ${maxiter} ${maxeval}
        minimize 1e-12 1e-08 10000 ${maxeval}
        minimize 1e-12 1e-08 10000 20000
WARNING: Resetting reneighboring criteria during minimization (../min.cpp:168)
Memory usage per processor = 3.35099 Mbytes
Step PotEng Pxx Pyy Pxy Lx Ly Lz 
       0   -53.931519   0.16832116   0.48974397 -1.6535989e-17      3.36736    5.7478696   0.56122687 
       1   -53.931519   0.16832116   0.48974397 -1.6535989e-17      3.36736    5.7478696   0.56122687 
Loop time of 6.11044e-05 on 1 procs for 1 steps with 18 atoms

Minimization stats:
  Stopping criterion = linesearch alpha is zero
  Energy initial, next-to-last, final = 
        -53.9315190859     -53.9315190859     -53.9315190859
  Force two-norm initial, final = 0.000935934 0.000935934
  Force max component initial, final = 0.000237293 0.000237293
  Final line search alpha, max atom move = 0.0078125 1.85385e-06
  Iterations, force evaluations = 1 8

Pair  time (%) = 3.78591e-05 (61.958)
Neigh time (%) = 0 (0)
Comm  time (%) = 6.24685e-06 (10.2232)
Outpt time (%) = 0 (0)
Other time (%) = 1.69985e-05 (27.8188)

Nlocal:    18 ave 18 max 18 min
Histogram: 1 0 0 0 0 0 0 0 0 0
Nghost:    65 ave 65 max 65 min
Histogram: 1 0 0 0 0 0 0 0 0 0
Neighs:    162 ave 162 max 162 min
Histogram: 1 0 0 0 0 0 0 0 0 0

Total # of neighbors = 162
Ave neighs/atom = 9
Neighbor list builds = 0
Dangerous builds = 0
        next i
jump SELF loop1
	read_dump orig.dump 0 x y
  orthogonal box = (0 0 -0.280613) to (3.36736 5.83244 0.280613)
  18 atoms before read
  18 atoms in snapshot
  0 atoms purged
  18 atoms replaced
  0 atoms trimmed
  0 atoms added
  18 atoms after read
        variable stretch equal 1+$i*${strainstep}
        variable stretch equal 1+30*${strainstep}
        variable stretch equal 1+30*-0.0005
        change_box all ${direction} scale ${stretch} remap
        change_box all y scale ${stretch} remap
        change_box all y scale 0.985 remap
  orthogonal box = (0 0.0437433 -0.280613) to (3.36736 5.7887 0.280613)
        min_style ${style}
        min_style cg
        minimize ${etol} ${ftol} ${maxiter} ${maxeval}
        minimize 1e-12 ${ftol} ${maxiter} ${maxeval}
        minimize 1e-12 1e-08 ${maxiter} ${maxeval}
        minimize 1e-12 1e-08 10000 ${maxeval}
        minimize 1e-12 1e-08 10000 20000
WARNING: Resetting reneighboring criteria during minimization (../min.cpp:168)
Memory usage per processor = 3.35099 Mbytes
Step PotEng Pxx Pyy Pxy Lx Ly Lz 
       0   -53.926643   0.17463606   0.50586948 3.0897419e-17      3.36736    5.7449534   0.56122687 
       1   -53.926643   0.17463606   0.50586948 3.0897419e-17      3.36736    5.7449534   0.56122687 
Loop time of 5.89489e-05 on 1 procs for 1 steps with 18 atoms

Minimization stats:
  Stopping criterion = linesearch alpha is zero
  Energy initial, next-to-last, final = 
        -53.9266430362     -53.9266430362     -53.9266430362
  Force two-norm initial, final = 0.000896745 0.000896745
  Force max component initial, final = 0.000224154 0.000224154
  Final line search alpha, max atom move = 0.0078125 1.7512e-06
  Iterations, force evaluations = 1 8

Pair  time (%) = 3.67967e-05 (62.4213)
Neigh time (%) = 0 (0)
Comm  time (%) = 7.79098e-06 (13.2165)
Outpt time (%) = 0 (0)
Other time (%) = 1.43612e-05 (24.3622)

Nlocal:    18 ave 18 max 18 min
Histogram: 1 0 0 0 0 0 0 0 0 0
Nghost:    65 ave 65 max 65 min
Histogram: 1 0 0 0 0 0 0 0 0 0
Neighs:    162 ave 162 max 162 min
Histogram: 1 0 0 0 0 0 0 0 0 0

Total # of neighbors = 162
Ave neighs/atom = 9
Neighbor list builds = 0
Dangerous builds = 0
        next i
jump SELF loop1
	read_dump orig.dump 0 x y
  orthogonal box = (0 0 -0.280613) to (3.36736 5.83244 0.280613)
  18 atoms before read
  18 atoms in snapshot
  0 atoms purged
  18 atoms replaced
  0 atoms trimmed
  0 atoms added
  18 atoms after read
        variable stretch equal 1+$i*${strainstep}
        variable stretch equal 1+31*${strainstep}
        variable stretch equal 1+31*-0.0005
        change_box all ${direction} scale ${stretch} remap
        change_box all y scale ${stretch} remap
        change_box all y scale 0.9845 remap
  orthogonal box = (0 0.0452014 -0.280613) to (3.36736 5.78724 0.280613)
        min_style ${style}
        min_style cg
        minimize ${etol} ${ftol} ${maxiter} ${maxeval}
        minimize 1e-12 ${ftol} ${maxiter} ${maxeval}
        minimize 1e-12 1e-08 ${maxiter} ${maxeval}
        minimize 1e-12 1e-08 10000 ${maxeval}
        minimize 1e-12 1e-08 10000 20000
WARNING: Resetting reneighboring criteria during minimization (../min.cpp:168)
Memory usage per processor = 3.35099 Mbytes
Step PotEng Pxx Pyy Pxy Lx Ly Lz 
       0   -53.921623   0.18099013   0.51650332 -7.1829667e-18      3.36736    5.7420372   0.56122687 
       1   -53.921623   0.18099013   0.51650332 -7.1829667e-18      3.36736    5.7420372   0.56122687 
Loop time of 5.30474e-05 on 1 procs for 1 steps with 18 atoms

Minimization stats:
  Stopping criterion = linesearch alpha is zero
  Energy initial, next-to-last, final = 
        -53.9216231606     -53.9216231606     -53.9216231606
  Force two-norm initial, final = 0.000849519 0.000849519
  Force max component initial, final = 0.000208305 0.000208305
  Final line search alpha, max atom move = 0.015625 3.25477e-06
  Iterations, force evaluations = 1 7

Pair  time (%) = 3.32737e-05 (62.7244)
Neigh time (%) = 0 (0)
Comm  time (%) = 5.93706e-06 (11.192)
Outpt time (%) = 0 (0)
Other time (%) = 1.38367e-05 (26.0836)

Nlocal:    18 ave 18 max 18 min
Histogram: 1 0 0 0 0 0 0 0 0 0
Nghost:    65 ave 65 max 65 min
Histogram: 1 0 0 0 0 0 0 0 0 0
Neighs:    162 ave 162 max 162 min
Histogram: 1 0 0 0 0 0 0 0 0 0

Total # of neighbors = 162
Ave neighs/atom = 9
Neighbor list builds = 0
Dangerous builds = 0
        next i
jump SELF loop1
	read_dump orig.dump 0 x y
  orthogonal box = (0 0 -0.280613) to (3.36736 5.83244 0.280613)
  18 atoms before read
  18 atoms in snapshot
  0 atoms purged
  18 atoms replaced
  0 atoms trimmed
  0 atoms added
  18 atoms after read
        variable stretch equal 1+$i*${strainstep}
        variable stretch equal 1+32*${strainstep}
        variable stretch equal 1+32*-0.0005
        change_box all ${direction} scale ${stretch} remap
        change_box all y scale ${stretch} remap
        change_box all y scale 0.984 remap
  orthogonal box = (0 0.0466595 -0.280613) to (3.36736 5.78578 0.280613)
        min_style ${style}
        min_style cg
        minimize ${etol} ${ftol} ${maxiter} ${maxeval}
        minimize 1e-12 ${ftol} ${maxiter} ${maxeval}
        minimize 1e-12 1e-08 ${maxiter} ${maxeval}
        minimize 1e-12 1e-08 10000 ${maxeval}
        minimize 1e-12 1e-08 10000 20000
WARNING: Resetting reneighboring criteria during minimization (../min.cpp:168)
Memory usage per processor = 3.35099 Mbytes
Step PotEng Pxx Pyy Pxy Lx Ly Lz 
       0   -53.916481   0.18738707   0.52579117 -2.4046273e-16      3.36736     5.739121   0.56122687 
       1   -53.916481   0.18738707   0.52579117 -2.4046273e-16      3.36736     5.739121   0.56122687 
Loop time of 5.38983e-05 on 1 procs for 1 steps with 18 atoms

Minimization stats:
  Stopping criterion = linesearch alpha is zero
  Energy initial, next-to-last, final = 
        -53.9164811504     -53.9164811504     -53.9164811504
  Force two-norm initial, final = 0.000856401 0.000856401
  Force max component initial, final = 0.000210454 0.000210454
  Final line search alpha, max atom move = 0.015625 3.28834e-06
  Iterations, force evaluations = 1 7

Pair  time (%) = 3.37433e-05 (62.6055)
Neigh time (%) = 0 (0)
Comm  time (%) = 6.11483e-06 (11.3451)
Outpt time (%) = 0 (0)
Other time (%) = 1.40402e-05 (26.0493)

Nlocal:    18 ave 18 max 18 min
Histogram: 1 0 0 0 0 0 0 0 0 0
Nghost:    65 ave 65 max 65 min
Histogram: 1 0 0 0 0 0 0 0 0 0
Neighs:    162 ave 162 max 162 min
Histogram: 1 0 0 0 0 0 0 0 0 0

Total # of neighbors = 162
Ave neighs/atom = 9
Neighbor list builds = 0
Dangerous builds = 0
        next i
jump SELF loop1
	read_dump orig.dump 0 x y
  orthogonal box = (0 0 -0.280613) to (3.36736 5.83244 0.280613)
  18 atoms before read
  18 atoms in snapshot
  0 atoms purged
  18 atoms replaced
  0 atoms trimmed
  0 atoms added
  18 atoms after read
        variable stretch equal 1+$i*${strainstep}
        variable stretch equal 1+33*${strainstep}
        variable stretch equal 1+33*-0.0005
        change_box all ${direction} scale ${stretch} remap
        change_box all y scale ${stretch} remap
        change_box all y scale 0.9835 remap
  orthogonal box = (0 0.0481176 -0.280613) to (3.36736 5.78432 0.280613)
        min_style ${style}
        min_style cg
        minimize ${etol} ${ftol} ${maxiter} ${maxeval}
        minimize 1e-12 ${ftol} ${maxiter} ${maxeval}
        minimize 1e-12 1e-08 ${maxiter} ${maxeval}
        minimize 1e-12 1e-08 10000 ${maxeval}
        minimize 1e-12 1e-08 10000 20000
WARNING: Resetting reneighboring criteria during minimization (../min.cpp:168)
Memory usage per processor = 3.35099 Mbytes
Step PotEng Pxx Pyy Pxy Lx Ly Lz 
       0   -53.911281    0.1938148   0.53516645 1.7154492e-16      3.36736    5.7362047   0.56122687 
       1   -53.911282   0.19381458   0.53516584 8.8365671e-17      3.36736    5.7362047   0.56122687 
       2   -53.911282   0.19381458   0.53516584 8.8365671e-17      3.36736    5.7362047   0.56122687 
Loop time of 0.000134064 on 1 procs for 2 steps with 18 atoms

Minimization stats:
  Stopping criterion = linesearch alpha is zero
  Energy initial, next-to-last, final = 
        -53.9112805894     -53.9112816824     -53.9112816824
  Force two-norm initial, final = 0.000861135 0.0232966
  Force max component initial, final = 0.00021187 0.00565776
  Final line search alpha, max atom move = 1.52588e-05 8.63305e-08
  Iterations, force evaluations = 2 20

Pair  time (%) = 8.99708e-05 (67.1105)
Neigh time (%) = 0 (0)
Comm  time (%) = 1.62172e-05 (12.0967)
Outpt time (%) = 6.99004e-06 (5.21398)
Other time (%) = 2.08855e-05 (15.5788)

Nlocal:    18 ave 18 max 18 min
Histogram: 1 0 0 0 0 0 0 0 0 0
Nghost:    65 ave 65 max 65 min
Histogram: 1 0 0 0 0 0 0 0 0 0
Neighs:    162 ave 162 max 162 min
Histogram: 1 0 0 0 0 0 0 0 0 0

Total # of neighbors = 162
Ave neighs/atom = 9
Neighbor list builds = 0
Dangerous builds = 0
        next i
jump SELF loop1
	read_dump orig.dump 0 x y
  orthogonal box = (0 0 -0.280613) to (3.36736 5.83244 0.280613)
  18 atoms before read
  18 atoms in snapshot
  0 atoms purged
  18 atoms replaced
  0 atoms trimmed
  0 atoms added
  18 atoms after read
        variable stretch equal 1+$i*${strainstep}
        variable stretch equal 1+34*${strainstep}
        variable stretch equal 1+34*-0.0005
        change_box all ${direction} scale ${stretch} remap
        change_box all y scale ${stretch} remap
        change_box all y scale 0.983 remap
  orthogonal box = (0 0.0495757 -0.280613) to (3.36736 5.78286 0.280613)
        min_style ${style}
        min_style cg
        minimize ${etol} ${ftol} ${maxiter} ${maxeval}
        minimize 1e-12 ${ftol} ${maxiter} ${maxeval}
        minimize 1e-12 1e-08 ${maxiter} ${maxeval}
        minimize 1e-12 1e-08 10000 ${maxeval}
        minimize 1e-12 1e-08 10000 20000
WARNING: Resetting reneighboring criteria during minimization (../min.cpp:168)
Memory usage per processor = 3.35099 Mbytes
Step PotEng Pxx Pyy Pxy Lx Ly Lz 
       0    -53.90601   0.20027581   0.54460724 1.4472093e-16      3.36736    5.7332885   0.56122687 
       1    -53.90601   0.20027581   0.54460724 1.4472093e-16      3.36736    5.7332885   0.56122687 
Loop time of 5.30399e-05 on 1 procs for 1 steps with 18 atoms

Minimization stats:
  Stopping criterion = linesearch alpha is zero
  Energy initial, next-to-last, final = 
        -53.9060102844     -53.9060102844     -53.9060102844
  Force two-norm initial, final = 0.00085957 0.00085957
  Force max component initial, final = 0.000211385 0.000211385
  Final line search alpha, max atom move = 0.015625 3.30289e-06
  Iterations, force evaluations = 1 7

Pair  time (%) = 3.22139e-05 (60.7352)
Neigh time (%) = 0 (0)
Comm  time (%) = 6.67863e-06 (12.5917)
Outpt time (%) = 0 (0)
Other time (%) = 1.41474e-05 (26.6731)

Nlocal:    18 ave 18 max 18 min
Histogram: 1 0 0 0 0 0 0 0 0 0
Nghost:    65 ave 65 max 65 min
Histogram: 1 0 0 0 0 0 0 0 0 0
Neighs:    162 ave 162 max 162 min
Histogram: 1 0 0 0 0 0 0 0 0 0

Total # of neighbors = 162
Ave neighs/atom = 9
Neighbor list builds = 0
Dangerous builds = 0
        next i
jump SELF loop1
	read_dump orig.dump 0 x y
  orthogonal box = (0 0 -0.280613) to (3.36736 5.83244 0.280613)
  18 atoms before read
  18 atoms in snapshot
  0 atoms purged
  18 atoms replaced
  0 atoms trimmed
  0 atoms added
  18 atoms after read
        variable stretch equal 1+$i*${strainstep}
        variable stretch equal 1+35*${strainstep}
        variable stretch equal 1+35*-0.0005
        change_box all ${direction} scale ${stretch} remap
        change_box all y scale ${stretch} remap
        change_box all y scale 0.9825 remap
[...]
        change_box all y scale ${stretch} remap
        change_box all y scale 0.954 remap
  orthogonal box = (0 0.134146 -0.280613) to (3.36736 5.69829 0.280613)
        min_style ${style}
        min_style cg
        minimize ${etol} ${ftol} ${maxiter} ${maxeval}
        minimize 1e-12 ${ftol} ${maxiter} ${maxeval}
        minimize 1e-12 1e-08 ${maxiter} ${maxeval}
        minimize 1e-12 1e-08 10000 ${maxeval}
        minimize 1e-12 1e-08 10000 20000
WARNING: Resetting reneighboring criteria during minimization (../min.cpp:168)
Memory usage per processor = 3.35099 Mbytes
Step PotEng Pxx Pyy Pxy Lx Ly Lz 
       0   -53.414925   0.64540838    1.2237182 -4.0824058e-16      3.36736    5.5641478   0.56122687 
       1   -53.414926   0.64540805     1.223717 1.814222e-16      3.36736    5.5641478   0.56122687 
       2   -53.414926   0.64540805     1.223717 1.814222e-16      3.36736    5.5641478   0.56122687 
Loop time of 0.000138949 on 1 procs for 2 steps with 18 atoms

Minimization stats:
  Stopping criterion = linesearch alpha is zero
  Energy initial, next-to-last, final = 
         -53.414924787     -53.4149262117     -53.4149262117
  Force two-norm initial, final = 0.00103561 0.0348215
  Force max component initial, final = 0.000262751 0.00904443
  Final line search alpha, max atom move = 7.62939e-06 6.90035e-08
  Iterations, force evaluations = 2 21

Pair  time (%) = 9.37833e-05 (67.4948)
Neigh time (%) = 0 (0)
Comm  time (%) = 1.81731e-05 (13.079)
Outpt time (%) = 7.11367e-06 (5.11964)
Other time (%) = 1.98787e-05 (14.3065)

Nlocal:    18 ave 18 max 18 min
Histogram: 1 0 0 0 0 0 0 0 0 0
Nghost:    65 ave 65 max 65 min
Histogram: 1 0 0 0 0 0 0 0 0 0
Neighs:    162 ave 162 max 162 min
Histogram: 1 0 0 0 0 0 0 0 0 0

Total # of neighbors = 162
Ave neighs/atom = 9
Neighbor list builds = 0
Dangerous builds = 0
        next i
jump SELF loop1
	read_dump orig.dump 0 x y
  orthogonal box = (0 0 -0.280613) to (3.36736 5.83244 0.280613)
  18 atoms before read
  18 atoms in snapshot
  0 atoms purged
  18 atoms replaced
  0 atoms trimmed
  0 atoms added
  18 atoms after read
        variable stretch equal 1+$i*${strainstep}
        variable stretch equal 1+93*${strainstep}
        variable stretch equal 1+93*-0.0005
        change_box all ${direction} scale ${stretch} remap
        change_box all y scale ${stretch} remap
        change_box all y scale 0.9535 remap
  orthogonal box = (0 0.135604 -0.280613) to (3.36736 5.69684 0.280613)
        min_style ${style}
        min_style cg
        minimize ${etol} ${ftol} ${maxiter} ${maxeval}
        minimize 1e-12 ${ftol} ${maxiter} ${maxeval}
        minimize 1e-12 1e-08 ${maxiter} ${maxeval}
        minimize 1e-12 1e-08 10000 ${maxeval}
        minimize 1e-12 1e-08 10000 20000
WARNING: Resetting reneighboring criteria during minimization (../min.cpp:168)
Memory usage per processor = 3.35099 Mbytes
Step PotEng Pxx Pyy Pxy Lx Ly Lz 
       0   -53.402822    0.6544083    1.2378083 -3.6310564e-16      3.36736    5.5612315   0.56122687 
       1   -53.402822   0.65440797    1.2378072 4.5839305e-16      3.36736    5.5612315   0.56122687 
       2   -53.402822   0.65440797    1.2378072 4.5839305e-16      3.36736    5.5612315   0.56122687 
Loop time of 0.000137952 on 1 procs for 2 steps with 18 atoms

Minimization stats:
  Stopping criterion = linesearch alpha is zero
  Energy initial, next-to-last, final = 
         -53.402821749     -53.4028222737     -53.4028222737
  Force two-norm initial, final = 0.00104141 0.0352422
  Force max component initial, final = 0.000264432 0.0091669
  Final line search alpha, max atom move = 7.62939e-06 6.99379e-08
  Iterations, force evaluations = 2 21

Pair  time (%) = 9.36749e-05 (67.9038)
Neigh time (%) = 0 (0)
Comm  time (%) = 1.69101e-05 (12.258)
Outpt time (%) = 7.11717e-06 (5.15915)
Other time (%) = 2.02501e-05 (14.6791)

Nlocal:    18 ave 18 max 18 min
Histogram: 1 0 0 0 0 0 0 0 0 0
Nghost:    65 ave 65 max 65 min
Histogram: 1 0 0 0 0 0 0 0 0 0
Neighs:    162 ave 162 max 162 min
Histogram: 1 0 0 0 0 0 0 0 0 0

Total # of neighbors = 162
Ave neighs/atom = 9
Neighbor list builds = 0
Dangerous builds = 0
        next i
jump SELF loop1
	read_dump orig.dump 0 x y
  orthogonal box = (0 0 -0.280613) to (3.36736 5.83244 0.280613)
  18 atoms before read
  18 atoms in snapshot
  0 atoms purged
  18 atoms replaced
  0 atoms trimmed
  0 atoms added
  18 atoms after read
        variable stretch equal 1+$i*${strainstep}
        variable stretch equal 1+94*${strainstep}
        variable stretch equal 1+94*-0.0005
        change_box all ${direction} scale ${stretch} remap
        change_box all y scale ${stretch} remap
        change_box all y scale 0.953 remap
  orthogonal box = (0 0.137062 -0.280613) to (3.36736 5.69538 0.280613)
        min_style ${style}
        min_style cg
        minimize ${etol} ${ftol} ${maxiter} ${maxeval}
        minimize 1e-12 ${ftol} ${maxiter} ${maxeval}
        minimize 1e-12 1e-08 ${maxiter} ${maxeval}
        minimize 1e-12 1e-08 10000 ${maxeval}
        minimize 1e-12 1e-08 10000 20000
WARNING: Resetting reneighboring criteria during minimization (../min.cpp:168)
Memory usage per processor = 3.35099 Mbytes
Step PotEng Pxx Pyy Pxy Lx Ly Lz 
       0   -53.390633     0.663447    1.2519555 -2.8652849e-16      3.36736    5.5583153   0.56122687 
       1   -53.390633     0.663447    1.2519555 -2.8652849e-16      3.36736    5.5583153   0.56122687 
Loop time of 5.79015e-05 on 1 procs for 1 steps with 18 atoms

Minimization stats:
  Stopping criterion = linesearch alpha is zero
  Energy initial, next-to-last, final = 
        -53.3906329909     -53.3906329909     -53.3906329909
  Force two-norm initial, final = 0.00104716 0.00104716
  Force max component initial, final = 0.000266098 0.000266098
  Final line search alpha, max atom move = 0.0078125 2.07889e-06
  Iterations, force evaluations = 1 8

Pair  time (%) = 3.79534e-05 (65.5482)
Neigh time (%) = 0 (0)
Comm  time (%) = 8.43545e-06 (14.5686)
Outpt time (%) = 0 (0)
Other time (%) = 1.15127e-05 (19.8832)

Nlocal:    18 ave 18 max 18 min
Histogram: 1 0 0 0 0 0 0 0 0 0
Nghost:    65 ave 65 max 65 min
Histogram: 1 0 0 0 0 0 0 0 0 0
Neighs:    162 ave 162 max 162 min
Histogram: 1 0 0 0 0 0 0 0 0 0

Total # of neighbors = 162
Ave neighs/atom = 9
Neighbor list builds = 0
Dangerous builds = 0
        next i
jump SELF loop1
	read_dump orig.dump 0 x y
  orthogonal box = (0 0 -0.280613) to (3.36736 5.83244 0.280613)
  18 atoms before read
  18 atoms in snapshot
  0 atoms purged
  18 atoms replaced
  0 atoms trimmed
  0 atoms added
  18 atoms after read
        variable stretch equal 1+$i*${strainstep}
        variable stretch equal 1+95*${strainstep}
        variable stretch equal 1+95*-0.0005
        change_box all ${direction} scale ${stretch} remap
        change_box all y scale ${stretch} remap
        change_box all y scale 0.9525 remap
  orthogonal box = (0 0.13852 -0.280613) to (3.36736 5.69392 0.280613)
        min_style ${style}
        min_style cg
        minimize ${etol} ${ftol} ${maxiter} ${maxeval}
        minimize 1e-12 ${ftol} ${maxiter} ${maxeval}
        minimize 1e-12 1e-08 ${maxiter} ${maxeval}
        minimize 1e-12 1e-08 10000 ${maxeval}
        minimize 1e-12 1e-08 10000 20000
WARNING: Resetting reneighboring criteria during minimization (../min.cpp:168)
Memory usage per processor = 3.35099 Mbytes
Step PotEng Pxx Pyy Pxy Lx Ly Lz 
       0   -53.378256   0.67254377     1.266212 -1.7093208e-16      3.36736    5.5553991   0.56122687 
       1   -53.378256   0.67254344    1.2662109 -4.6198666e-17      3.36736    5.5553991   0.56122687 
       2   -53.378256   0.67254344    1.2662109 -4.6198666e-17      3.36736    5.5553991   0.56122687 
Loop time of 0.000142075 on 1 procs for 2 steps with 18 atoms

Minimization stats:
  Stopping criterion = linesearch alpha is zero
  Energy initial, next-to-last, final = 
        -53.3782558644     -53.3782564671     -53.3782564671
  Force two-norm initial, final = 0.00104512 0.0355337
  Force max component initial, final = 0.000265479 0.00925082
  Final line search alpha, max atom move = 7.62939e-06 7.05782e-08
  Iterations, force evaluations = 2 21

Pair  time (%) = 9.42727e-05 (66.3542)
Neigh time (%) = 0 (0)
Comm  time (%) = 1.51981e-05 (10.6973)
Outpt time (%) = 7.09412e-06 (4.99322)
Other time (%) = 2.55101e-05 (17.9554)

Nlocal:    18 ave 18 max 18 min
Histogram: 1 0 0 0 0 0 0 0 0 0
Nghost:    65 ave 65 max 65 min
Histogram: 1 0 0 0 0 0 0 0 0 0
Neighs:    162 ave 162 max 162 min
Histogram: 1 0 0 0 0 0 0 0 0 0

Total # of neighbors = 162
Ave neighs/atom = 9
Neighbor list builds = 0
Dangerous builds = 0
        next i
jump SELF loop1
	read_dump orig.dump 0 x y
  orthogonal box = (0 0 -0.280613) to (3.36736 5.83244 0.280613)
  18 atoms before read
  18 atoms in snapshot
  0 atoms purged
  18 atoms replaced
  0 atoms trimmed
  0 atoms added
  18 atoms after read
        variable stretch equal 1+$i*${strainstep}
        variable stretch equal 1+96*${strainstep}
        variable stretch equal 1+96*-0.0005
        change_box all ${direction} scale ${stretch} remap
        change_box all y scale ${stretch} remap
        change_box all y scale 0.952 remap
  orthogonal box = (0 0.139979 -0.280613) to (3.36736 5.69246 0.280613)
        min_style ${style}
        min_style cg
        minimize ${etol} ${ftol} ${maxiter} ${maxeval}
        minimize 1e-12 ${ftol} ${maxiter} ${maxeval}
        minimize 1e-12 1e-08 ${maxiter} ${maxeval}
        minimize 1e-12 1e-08 10000 ${maxeval}
        minimize 1e-12 1e-08 10000 20000
WARNING: Resetting reneighboring criteria during minimization (../min.cpp:168)
Memory usage per processor = 3.35099 Mbytes
Step PotEng Pxx Pyy Pxy Lx Ly Lz 
       0   -53.365729     0.681692    1.2805591 1.5043769e-16      3.36736    5.5524829   0.56122687 
       1    -53.36573   0.68169166     1.280558 9.6714026e-17      3.36736    5.5524829   0.56122687 
       2    -53.36573   0.68169166     1.280558 9.6714026e-17      3.36736    5.5524829   0.56122687 
Loop time of 0.000139966 on 1 procs for 2 steps with 18 atoms

Minimization stats:
  Stopping criterion = linesearch alpha is zero
  Energy initial, next-to-last, final = 
        -53.3657285556     -53.3657295147     -53.3657295147
  Force two-norm initial, final = 0.00105097 0.0359639
  Force max component initial, final = 0.000267175 0.00937593
  Final line search alpha, max atom move = 7.62939e-06 7.15326e-08
  Iterations, force evaluations = 2 21

Pair  time (%) = 9.0848e-05 (64.9072)
Neigh time (%) = 0 (0)
Comm  time (%) = 1.81636e-05 (12.9771)
Outpt time (%) = 6.9387e-06 (4.95742)
Other time (%) = 2.40157e-05 (17.1582)

Nlocal:    18 ave 18 max 18 min
Histogram: 1 0 0 0 0 0 0 0 0 0
Nghost:    65 ave 65 max 65 min
Histogram: 1 0 0 0 0 0 0 0 0 0
Neighs:    162 ave 162 max 162 min
Histogram: 1 0 0 0 0 0 0 0 0 0

Total # of neighbors = 162
Ave neighs/atom = 9
Neighbor list builds = 0
Dangerous builds = 0
        next i
jump SELF loop1
	read_dump orig.dump 0 x y
  orthogonal box = (0 0 -0.280613) to (3.36736 5.83244 0.280613)
  18 atoms before read
  18 atoms in snapshot
  0 atoms purged
  18 atoms replaced
  0 atoms trimmed
  0 atoms added
  18 atoms after read
        variable stretch equal 1+$i*${strainstep}
        variable stretch equal 1+97*${strainstep}
        variable stretch equal 1+97*-0.0005
        change_box all ${direction} scale ${stretch} remap
        change_box all y scale ${stretch} remap
        change_box all y scale 0.9515 remap
  orthogonal box = (0 0.141437 -0.280613) to (3.36736 5.691 0.280613)
        min_style ${style}
        min_style cg
        minimize ${etol} ${ftol} ${maxiter} ${maxeval}
        minimize 1e-12 ${ftol} ${maxiter} ${maxeval}
        minimize 1e-12 1e-08 ${maxiter} ${maxeval}
        minimize 1e-12 1e-08 10000 ${maxeval}
        minimize 1e-12 1e-08 10000 20000
WARNING: Resetting reneighboring criteria during minimization (../min.cpp:168)
Memory usage per processor = 3.35099 Mbytes
Step PotEng Pxx Pyy Pxy Lx Ly Lz 
       0   -53.353115   0.69087943    1.2949633 1.4081361e-17      3.36736    5.5495667   0.56122687 
       1   -53.353115   0.69087943    1.2949633 1.4081361e-17      3.36736    5.5495667   0.56122687 
Loop time of 5.90947e-05 on 1 procs for 1 steps with 18 atoms

Minimization stats:
  Stopping criterion = linesearch alpha is zero
  Energy initial, next-to-last, final = 
        -53.3531153698     -53.3531153698     -53.3531153698
  Force two-norm initial, final = 0.00105678 0.00105678
  Force max component initial, final = 0.000268855 0.000268855
  Final line search alpha, max atom move = 0.0078125 2.10043e-06
  Iterations, force evaluations = 1 8

Pair  time (%) = 3.70641e-05 (62.7198)
Neigh time (%) = 0 (0)
Comm  time (%) = 7.08736e-06 (11.9932)
Outpt time (%) = 0 (0)
Other time (%) = 1.49433e-05 (25.287)

Nlocal:    18 ave 18 max 18 min
Histogram: 1 0 0 0 0 0 0 0 0 0
Nghost:    65 ave 65 max 65 min
Histogram: 1 0 0 0 0 0 0 0 0 0
Neighs:    162 ave 162 max 162 min
Histogram: 1 0 0 0 0 0 0 0 0 0

Total # of neighbors = 162
Ave neighs/atom = 9
Neighbor list builds = 0
Dangerous builds = 0
        next i
jump SELF loop1
	read_dump orig.dump 0 x y
  orthogonal box = (0 0 -0.280613) to (3.36736 5.83244 0.280613)
  18 atoms before read
  18 atoms in snapshot
  0 atoms purged
  18 atoms replaced
  0 atoms trimmed
  0 atoms added
  18 atoms after read
        variable stretch equal 1+$i*${strainstep}
        variable stretch equal 1+98*${strainstep}
        variable stretch equal 1+98*-0.0005
        change_box all ${direction} scale ${stretch} remap
        change_box all y scale ${stretch} remap
        change_box all y scale 0.951 remap
  orthogonal box = (0 0.142895 -0.280613) to (3.36736 5.68955 0.280613)
        min_style ${style}
        min_style cg
        minimize ${etol} ${ftol} ${maxiter} ${maxeval}
        minimize 1e-12 ${ftol} ${maxiter} ${maxeval}
        minimize 1e-12 1e-08 ${maxiter} ${maxeval}
        minimize 1e-12 1e-08 10000 ${maxeval}
        minimize 1e-12 1e-08 10000 20000
WARNING: Resetting reneighboring criteria during minimization (../min.cpp:168)
Memory usage per processor = 3.35099 Mbytes
Step PotEng Pxx Pyy Pxy Lx Ly Lz 
       0   -53.340323   0.70012336    1.3094712 -1.4474263e-16      3.36736    5.5466504   0.56122687 
       1   -53.340324   0.70012301    1.3094701 -1.3524492e-16      3.36736    5.5466504   0.56122687 
       2   -53.340324   0.70012301    1.3094701 -1.3524492e-16      3.36736    5.5466504   0.56122687 
Loop time of 0.000138014 on 1 procs for 2 steps with 18 atoms

Minimization stats:
  Stopping criterion = linesearch alpha is zero
  Energy initial, next-to-last, final = 
        -53.3403234855     -53.3403236973     -53.3403236973
  Force two-norm initial, final = 0.00105471 0.0362615
  Force max component initial, final = 0.000268229 0.0094615
  Final line search alpha, max atom move = 7.62939e-06 7.21855e-08
  Iterations, force evaluations = 2 21

Pair  time (%) = 8.9953e-05 (65.1765)
Neigh time (%) = 0 (0)
Comm  time (%) = 1.80886e-05 (13.1063)
Outpt time (%) = 5.94079e-06 (4.30447)
Other time (%) = 2.4032e-05 (17.4127)

Nlocal:    18 ave 18 max 18 min
Histogram: 1 0 0 0 0 0 0 0 0 0
Nghost:    65 ave 65 max 65 min
Histogram: 1 0 0 0 0 0 0 0 0 0
Neighs:    162 ave 162 max 162 min
Histogram: 1 0 0 0 0 0 0 0 0 0

Total # of neighbors = 162
Ave neighs/atom = 9
Neighbor list builds = 0
Dangerous builds = 0
        next i
jump SELF loop1
	read_dump orig.dump 0 x y
  orthogonal box = (0 0 -0.280613) to (3.36736 5.83244 0.280613)
  18 atoms before read
  18 atoms in snapshot
  0 atoms purged
  18 atoms replaced
  0 atoms trimmed
  0 atoms added
  18 atoms after read
        variable stretch equal 1+$i*${strainstep}
        variable stretch equal 1+99*${strainstep}
        variable stretch equal 1+99*-0.0005
        change_box all ${direction} scale ${stretch} remap
        change_box all y scale ${stretch} remap
        change_box all y scale 0.9505 remap
  orthogonal box = (0 0.144353 -0.280613) to (3.36736 5.68809 0.280613)
        min_style ${style}
        min_style cg
        minimize ${etol} ${ftol} ${maxiter} ${maxeval}
        minimize 1e-12 ${ftol} ${maxiter} ${maxeval}
        minimize 1e-12 1e-08 ${maxiter} ${maxeval}
        minimize 1e-12 1e-08 10000 ${maxeval}
        minimize 1e-12 1e-08 10000 20000
WARNING: Resetting reneighboring criteria during minimization (../min.cpp:168)
Memory usage per processor = 3.35099 Mbytes
Step PotEng Pxx Pyy Pxy Lx Ly Lz 
       0   -53.327365   0.70942179     1.324077 4.7733477e-18      3.36736    5.5437342   0.56122687 
       1   -53.327366   0.70942144    1.3240758 -6.9522512e-17      3.36736    5.5437342   0.56122687 
       2   -53.327366   0.70942144    1.3240758 -6.9522512e-17      3.36736    5.5437342   0.56122687 
Loop time of 0.000139071 on 1 procs for 2 steps with 18 atoms

Minimization stats:
  Stopping criterion = linesearch alpha is zero
  Energy initial, next-to-last, final = 
        -53.3273650743     -53.3273664091     -53.3273664091
  Force two-norm initial, final = 0.00106061 0.0367007
  Force max component initial, final = 0.000269938 0.00958912
  Final line search alpha, max atom move = 7.62939e-06 7.31592e-08
  Iterations, force evaluations = 2 21

Pair  time (%) = 9.48005e-05 (68.167)
Neigh time (%) = 0 (0)
Comm  time (%) = 1.39625e-05 (10.0398)
Outpt time (%) = 6.99738e-06 (5.03152)
Other time (%) = 2.33105e-05 (16.7616)

Nlocal:    18 ave 18 max 18 min
Histogram: 1 0 0 0 0 0 0 0 0 0
Nghost:    65 ave 65 max 65 min
Histogram: 1 0 0 0 0 0 0 0 0 0
Neighs:    162 ave 162 max 162 min
Histogram: 1 0 0 0 0 0 0 0 0 0

Total # of neighbors = 162
Ave neighs/atom = 9
Neighbor list builds = 0
Dangerous builds = 0
        next i
jump SELF loop1
	read_dump orig.dump 0 x y
  orthogonal box = (0 0 -0.280613) to (3.36736 5.83244 0.280613)
  18 atoms before read
  18 atoms in snapshot
  0 atoms purged
  18 atoms replaced
  0 atoms trimmed
  0 atoms added
  18 atoms after read
        variable stretch equal 1+$i*${strainstep}
        variable stretch equal 1+100*${strainstep}
        variable stretch equal 1+100*-0.0005
        change_box all ${direction} scale ${stretch} remap
        change_box all y scale ${stretch} remap
        change_box all y scale 0.95 remap
  orthogonal box = (0 0.145811 -0.280613) to (3.36736 5.68663 0.280613)
        min_style ${style}
        min_style cg
        minimize ${etol} ${ftol} ${maxiter} ${maxeval}
        minimize 1e-12 ${ftol} ${maxiter} ${maxeval}
        minimize 1e-12 1e-08 ${maxiter} ${maxeval}
        minimize 1e-12 1e-08 10000 ${maxeval}
        minimize 1e-12 1e-08 10000 20000
WARNING: Resetting reneighboring criteria during minimization (../min.cpp:168)
Memory usage per processor = 3.35099 Mbytes
Step PotEng Pxx Pyy Pxy Lx Ly Lz 
       0    -53.31432   0.71875987    1.3387399 -4.9544722e-16      3.36736     5.540818   0.56122687 
       1    -53.31432   0.71875987    1.3387399 -4.9544722e-16      3.36736     5.540818   0.56122687 
Loop time of 6.30144e-05 on 1 procs for 1 steps with 18 atoms

Minimization stats:
  Stopping criterion = linesearch alpha is zero
  Energy initial, next-to-last, final = 
        -53.3143203132     -53.3143203132     -53.3143203132
  Force two-norm initial, final = 0.00106648 0.00106648
  Force max component initial, final = 0.000271633 0.000271633
  Final line search alpha, max atom move = 0.0078125 2.12213e-06
  Iterations, force evaluations = 1 8

Pair  time (%) = 3.96915e-05 (62.9879)
Neigh time (%) = 0 (0)
Comm  time (%) = 7.24266e-06 (11.4937)
Outpt time (%) = 0 (0)
Other time (%) = 1.60803e-05 (25.5185)

Nlocal:    18 ave 18 max 18 min
Histogram: 1 0 0 0 0 0 0 0 0 0
Nghost:    65 ave 65 max 65 min
Histogram: 1 0 0 0 0 0 0 0 0 0
Neighs:    162 ave 162 max 162 min
Histogram: 1 0 0 0 0 0 0 0 0 0

Total # of neighbors = 162
Ave neighs/atom = 9
Neighbor list builds = 0
Dangerous builds = 0
        next i
jump SELF loop1

