LAMMPS (28 Jun 2014)
# attempt at getting tensile strain-stress curve for infinite slab

#file prefix
variable prefix string compression_V_brittle_twin
variable dumpfile string ${prefix}.*.dump
variable dumpfile string compression_V_brittle_twin.*.dump
variable restartfile string ${prefix}.*.equil
variable restartfile string compression_V_brittle_twin.*.equil

#Mass (g/mol)
variable m equal 1

# lattice constant (in Angstroms) and orientation of axes (given by lattice vectors)
variable rho equal 1.0
variable x1 equal 1
variable x2 equal 0
variable x3 equal 1
variable y1 equal 0
variable y2 equal 1
variable y3 equal 0
variable z1 equal -1
variable z2 equal 0
variable z3 equal 1
# length of lattice in different directions (using orientation of lattice vectors)
variable ax equal sqrt(${x1}*${x1}+${x2}*${x2}+${x3}*${x3})
variable ax equal sqrt(1*${x1}+${x2}*${x2}+${x3}*${x3})
variable ax equal sqrt(1*1+${x2}*${x2}+${x3}*${x3})
variable ax equal sqrt(1*1+0*${x2}+${x3}*${x3})
variable ax equal sqrt(1*1+0*0+${x3}*${x3})
variable ax equal sqrt(1*1+0*0+1*${x3})
variable ax equal sqrt(1*1+0*0+1*1)
variable ay equal sqrt(${y1}*${y1}+${y2}*${y2}+${y3}*${y3})
variable ay equal sqrt(0*${y1}+${y2}*${y2}+${y3}*${y3})
variable ay equal sqrt(0*0+${y2}*${y2}+${y3}*${y3})
variable ay equal sqrt(0*0+1*${y2}+${y3}*${y3})
variable ay equal sqrt(0*0+1*1+${y3}*${y3})
variable ay equal sqrt(0*0+1*1+0*${y3})
variable ay equal sqrt(0*0+1*1+0*0)
variable az equal sqrt(${z1}*${z1}+${z2}*${z2}+${z3}*${z3})
variable az equal sqrt(-1*${z1}+${z2}*${z2}+${z3}*${z3})
variable az equal sqrt(-1*-1+${z2}*${z2}+${z3}*${z3})
variable az equal sqrt(-1*-1+0*${z2}+${z3}*${z3})
variable az equal sqrt(-1*-1+0*0+${z3}*${z3})
variable az equal sqrt(-1*-1+0*0+1*${z3})
variable az equal sqrt(-1*-1+0*0+1*1)

# size of box in lattice units
variable lxpos equal 2
variable lxneg equal 0
variable lypos equal 10
variable lyneg equal 0
variable lzpos equal 2
variable lzneg equal 0

# Define minimization parameters and damping
variable etol equal 1.0e-12
variable ftol equal 1.0e-8
variable maxiter equal 10000
variable maxeval equal 20000
variable style string hftn

# boundary conditions
dimension	3
boundary	p s p
atom_style	atomic

# create geometry
units		lj
lattice         fcc ${rho} orient x 1 1 -2 orient y 1 1 1 orient z 1 -1 0 spacing ${ax} ${ay} ${az}
lattice         fcc 1 orient x 1 1 -2 orient y 1 1 1 orient z 1 -1 0 spacing ${ax} ${ay} ${az}
lattice         fcc 1 orient x 1 1 -2 orient y 1 1 1 orient z 1 -1 0 spacing 1.4142135623731 ${ay} ${az}
lattice         fcc 1 orient x 1 1 -2 orient y 1 1 1 orient z 1 -1 0 spacing 1.4142135623731 1 ${az}
lattice         fcc 1 orient x 1 1 -2 orient y 1 1 1 orient z 1 -1 0 spacing 1.4142135623731 1 1.4142135623731
Lattice spacing in x,y,z = 2.24492 1.5874 2.24492
region		myregion block ${lxneg} ${lxpos} ${lyneg} ${lypos} ${lzneg} ${lzpos} units lattice
region		myregion block 0 ${lxpos} ${lyneg} ${lypos} ${lzneg} ${lzpos} units lattice
region		myregion block 0 2 ${lyneg} ${lypos} ${lzneg} ${lzpos} units lattice
region		myregion block 0 2 0 ${lypos} ${lzneg} ${lzpos} units lattice
region		myregion block 0 2 0 10 ${lzneg} ${lzpos} units lattice
region		myregion block 0 2 0 10 0 ${lzpos} units lattice
region		myregion block 0 2 0 10 0 2 units lattice
create_box	1 myregion
Created orthogonal box = (0 0 0) to (4.48985 15.874 4.48985)
  1 by 1 by 1 MPI processor grid

region		upper block INF INF 0.01 INF INF INF
create_atoms	1 region upper
Created 316 atoms

region		lower block INF INF INF 0.01 INF INF
lattice         fcc ${rho} orient x 1 1 -2 orient y -1 -1 -1 orient z -1 1 0 spacing ${ax} ${ay} ${az}
lattice         fcc 1 orient x 1 1 -2 orient y -1 -1 -1 orient z -1 1 0 spacing ${ax} ${ay} ${az}
lattice         fcc 1 orient x 1 1 -2 orient y -1 -1 -1 orient z -1 1 0 spacing 1.4142135623731 ${ay} ${az}
lattice         fcc 1 orient x 1 1 -2 orient y -1 -1 -1 orient z -1 1 0 spacing 1.4142135623731 1 ${az}
lattice         fcc 1 orient x 1 1 -2 orient y -1 -1 -1 orient z -1 1 0 spacing 1.4142135623731 1 1.4142135623731
Lattice spacing in x,y,z = 2.24492 1.5874 2.24492
create_atoms	1 region lower
Created 20 atoms

# define masses
mass * $m
mass * 1

# my fake/morse potential
pair_style      table linear 3001
pair_coeff      * * vpotential_inter33d dummy
neighbor	0.3 bin
neigh_modify	delay 5

# Setup output
thermo 1
thermo_style custom step pe pxx pyy pxy lx ly lz
thermo_modify norm no

# Compute initial state by relaxing box
min_style ${style}
min_style hftn
minimize ${etol} ${ftol} ${maxiter} ${maxeval}
minimize 1e-12 ${ftol} ${maxiter} ${maxeval}
minimize 1e-12 1e-08 ${maxiter} ${maxeval}
minimize 1e-12 1e-08 10000 ${maxeval}
minimize 1e-12 1e-08 10000 20000
WARNING: Resetting reneighboring criteria during minimization (../min.cpp:168)
Memory usage per processor = 4.90059 Mbytes
Step PotEng Pxx Pyy Pxy Lx Ly Lz 
       0    37272.081    1007.4655  -0.04493237    0.1971231    4.4898482    15.583444    4.4898482 
       1    12155.171    416.20681   0.59850933   0.26941712    4.4898482    15.583444    4.4898482 
       2    3227.5863    174.89273    1.4068521   0.50219078    4.4898482    15.583444    4.4898482 
       3    107.93212    78.966561    2.4166985   0.84959823    4.4898482    15.583444    4.4898482 
       4    107.93212    78.965349    2.4166614   0.84958518    4.4898482    15.583683    4.4898482 
       5   -878.35331    44.054413    3.4051392    1.1256027    4.4898482    15.583683    4.4898482 
       6   -1367.0371    26.207401     3.879418   0.83183926    4.4898482    15.583683    4.4898482 
       7   -1489.8013    20.320945     5.233765  -0.53132673    4.4898482    15.858642    4.4898482 
       8    -1534.899    18.103118    4.0327914  -0.38685746    4.4898482    15.858642    4.4898482 
       9   -1545.4839    17.608951    4.0250903  -0.35154641    4.4898482    15.858642    4.4898482 
      10   -1558.5448    15.970817     3.893654  -0.58091362    4.4898482    16.190062    4.4898482 
      11   -1568.9408    15.515354    3.8437898  -0.47148552    4.4898482    16.190062    4.4898482 
      12   -1580.8462    14.168425    3.8158241  -0.68165841    4.4898482    16.190062    4.4898482 
      13   -1589.2094    13.778133    3.6797684  -0.55341455    4.4898482    16.190062    4.4898482 
      14    -1597.907    12.300586    3.5919596   -0.6242627    4.4898482    16.571217    4.4898482 
      15   -1624.3107    10.063374    3.2731929  -0.21745874    4.4898482    16.571217    4.4898482 
      16   -1635.0441    9.0853039    3.2529887  -0.37519492    4.4898482    16.571217    4.4898482 
      17    -1655.807    7.6575421    3.4854237   0.31395232    4.4898482    16.780835    4.4898482 
      18   -1670.4246    6.5947078    3.4035972   0.20612835    4.4898482    16.780835    4.4898482 
      19   -1694.1724    5.5309472    3.6068765   0.90677476    4.4898482    16.780835    4.4898482 
      20   -1731.1704    3.8715121      3.28788   0.46127098    4.4898482    16.879538    4.4898482 
      21   -1769.1619     3.200785    2.8929432   0.80585789    4.4898482    16.879538    4.4898482 
      22   -1795.9522    2.4740686    2.2344981    0.4034008    4.4898482    16.879538    4.4898482 
      23   -1822.4022    2.0677354    1.4286671   0.19769614    4.4898482    16.879538    4.4898482 
      24   -1845.4729    2.0257347   0.62047265  -0.25746162    4.4898482    16.876114    4.4898482 
      25   -1861.7558     1.599735   0.32701275  -0.32525499    4.4898482    16.876114    4.4898482 
      26   -1864.3073     1.519233   0.29285818  -0.38925907    4.4898482    16.876114    4.4898482 
      27   -1869.6431    1.5282228   0.20019004  -0.43788383    4.4898482    16.876114    4.4898482 
      28   -1873.6943     1.572344   0.39991904   -0.3546435    4.4898482    16.718506    4.4898482 
      29   -1875.6653    1.4743009  0.097400306  -0.18593302    4.4898482    16.718506    4.4898482 
      30   -1875.9904    1.4762839 0.0031350936 0.00021252385    4.4898482    16.718506    4.4898482 
      31   -1875.9921    1.4761381 -9.9935392e-05 8.7550992e-05    4.4898482    16.718506    4.4898482 
      32   -1875.9921    1.4761381 -9.9935392e-05 8.7550992e-05    4.4898482    16.718506    4.4898482 
      33   -1875.9921    1.4761381 -9.9935392e-05 8.7550992e-05    4.4898482    16.718506    4.4898482 
      34   -1875.9921    1.4761427 -0.00010542013 9.7074454e-05    4.4898482    16.718506    4.4898482 
      35   -1875.9921    1.4761427 -0.00010542013 9.7074454e-05    4.4898482    16.718506    4.4898482 
      36   -1875.9921    1.4761427 -0.00010542013 9.7074454e-05    4.4898482    16.718506    4.4898482 
      37   -1875.9921    1.4761427 -0.00010542013 9.7074454e-05    4.4898482    16.718506    4.4898482 
      38   -1875.9921    1.4761427 -0.00010542013 9.7074454e-05    4.4898482    16.718506    4.4898482 
      39   -1875.9921    1.4761427 -0.00010542013 9.7074454e-05    4.4898482    16.718506    4.4898482 
      40   -1875.9921    1.4761427 -0.00010542125 9.7080348e-05    4.4898482    16.718506    4.4898482 
Loop time of 0.244577 on 1 procs for 39 steps with 336 atoms

Minimization stats:
  Stopping criterion = energy tolerance
  Energy initial, next-to-last, final = 
           37272.08101     -1875.99207158     -1875.99207219
  Force two-norm initial, final = 107410 0.0223608
  Force max component initial, final = 10963 0.00482612
  Final line search alpha, max atom move = 0 0
  Iterations, force evaluations = 39 600

Pair  time (%) = 0.200927 (82.1528)
Neigh time (%) = 0.00405226 (1.65684)
Comm  time (%) = 0.0218507 (8.93408)
Outpt time (%) = 0.007129 (2.91483)
Other time (%) = 0.0106182 (4.34146)

Nlocal:    336 ave 336 max 336 min
Histogram: 1 0 0 0 0 0 0 0 0 0
Nghost:    1101 ave 1101 max 1101 min
Histogram: 1 0 0 0 0 0 0 0 0 0
Neighs:    8504 ave 8504 max 8504 min
Histogram: 1 0 0 0 0 0 0 0 0 0

Total # of neighbors = 8504
Ave neighs/atom = 25.3095
Neighbor list builds = 9
Dangerous builds = 1
reset_timestep 0
write_dump all atom orig.dump

# Energy curve will have nstep steps
variable strainmax equal -0.05
variable strainstep equal -0.0005
variable nsteps equal round(${strainmax}/${strainstep})
variable nsteps equal round(-0.05/${strainstep})
variable nsteps equal round(-0.05/-0.0005)
variable direction string y

variable i loop ${nsteps}
variable i loop 100
label loop1
        read_dump orig.dump 0 x y z
  orthogonal box = (0 -0.600957 0) to (4.48985 16.1812 4.48985)
  336 atoms before read
  336 atoms in snapshot
  0 atoms purged
  336 atoms replaced
  0 atoms trimmed
  0 atoms added
  336 atoms after read
        variable stretch equal 1+$i*${strainstep}
        variable stretch equal 1+1*${strainstep}
        variable stretch equal 1+1*-0.0005
        change_box all ${direction} scale ${stretch} remap
        change_box all y scale ${stretch} remap
        change_box all y scale 0.9995 remap
  orthogonal box = (0 -0.598438 0) to (4.48985 16.1786 4.48985)
        min_style ${style}
        min_style hftn
        minimize ${etol} ${ftol} ${maxiter} ${maxeval}
        minimize 1e-12 ${ftol} ${maxiter} ${maxeval}
        minimize 1e-12 1e-08 ${maxiter} ${maxeval}
        minimize 1e-12 1e-08 10000 ${maxeval}
        minimize 1e-12 1e-08 10000 20000
WARNING: Resetting reneighboring criteria during minimization (../min.cpp:168)
Memory usage per processor = 4.9009 Mbytes
Step PotEng Pxx Pyy Pxy Lx Ly Lz 
       0   -1875.9902    1.4837894  0.039558684 -0.0013909968      4.48985    16.777097      4.48985 
       1   -1875.9923    1.4710327 0.00012014065 0.00036528525      4.48985    16.777097      4.48985 
       2   -1875.9923    1.4710327 0.00012014065 0.00036528525      4.48985    16.777097      4.48985 
       3   -1875.9923    1.4710444 8.8007751e-05 0.00040879991      4.48985    16.777097      4.48985 
       4   -1875.9923    1.4709601 -9.4408078e-05 0.00018442349      4.48985    16.777097      4.48985 
       5   -1875.9923    1.4709601 -9.4408078e-05 0.00018442349      4.48985    16.777097      4.48985 
       6   -1875.9923    1.4709601 -9.4408078e-05 0.00018442349      4.48985    16.777097      4.48985 
       7   -1875.9923    1.4709601 -9.4408078e-05 0.00018442349      4.48985    16.777097      4.48985 
       8   -1875.9923    1.4709601 -9.4408078e-05 0.00018442349      4.48985    16.777097      4.48985 
       9   -1875.9923    1.4709601 -9.4408078e-05 0.00018442349      4.48985    16.777097      4.48985 
      10   -1875.9923    1.4709601 -9.4408078e-05 0.00018442349      4.48985    16.777097      4.48985 
      11   -1875.9923    1.4709601 -9.4408078e-05 0.00018442349      4.48985    16.777097      4.48985 
      12   -1875.9923    1.4709601 -9.4405922e-05 0.00018442112      4.48985    16.777097      4.48985 
Loop time of 0.125511 on 1 procs for 11 steps with 336 atoms

Minimization stats:
  Stopping criterion = energy tolerance
  Energy initial, next-to-last, final = 
        -1875.99015004      -1875.9922969     -1875.99229724
  Force two-norm initial, final = 0.330703 0.00915457
  Force max component initial, final = 0.0492075 0.00246791
  Final line search alpha, max atom move = 0 0
  Iterations, force evaluations = 11 322

Pair  time (%) = 0.114532 (91.2528)
Neigh time (%) = 0 (0)
Comm  time (%) = 0.00490091 (3.90477)
Outpt time (%) = 0.000668782 (0.532847)
Other time (%) = 0.00540905 (4.30963)

Nlocal:    336 ave 336 max 336 min
Histogram: 1 0 0 0 0 0 0 0 0 0
Nghost:    1110 ave 1110 max 1110 min
Histogram: 1 0 0 0 0 0 0 0 0 0
Neighs:    8504 ave 8504 max 8504 min
Histogram: 1 0 0 0 0 0 0 0 0 0

Total # of neighbors = 8504
Ave neighs/atom = 25.3095
Neighbor list builds = 0
Dangerous builds = 0
        next i
jump SELF loop1
        read_dump orig.dump 0 x y z
  orthogonal box = (0 -0.600957 0) to (4.48985 16.1812 4.48985)
  336 atoms before read
  336 atoms in snapshot
  0 atoms purged
  336 atoms replaced
  0 atoms trimmed
  0 atoms added
  336 atoms after read
        variable stretch equal 1+$i*${strainstep}
        variable stretch equal 1+2*${strainstep}
        variable stretch equal 1+2*-0.0005
        change_box all ${direction} scale ${stretch} remap
        change_box all y scale ${stretch} remap
        change_box all y scale 0.999 remap
  orthogonal box = (0 -0.594242 0) to (4.48985 16.1745 4.48985)
        min_style ${style}
        min_style hftn
        minimize ${etol} ${ftol} ${maxiter} ${maxeval}
        minimize 1e-12 ${ftol} ${maxiter} ${maxeval}
        minimize 1e-12 1e-08 ${maxiter} ${maxeval}
        minimize 1e-12 1e-08 10000 ${maxeval}
        minimize 1e-12 1e-08 10000 20000
WARNING: Resetting reneighboring criteria during minimization (../min.cpp:168)
Memory usage per processor = 4.9009 Mbytes
Step PotEng Pxx Pyy Pxy Lx Ly Lz 
       0   -1875.9778    1.5060609    0.1060293 -0.003853598      4.48985    16.768705      4.48985 
       1   -1875.9923    1.4720089 0.00078107508 0.0007459916      4.48985    16.768705      4.48985 
       2   -1875.9923    1.4716953 -1.2851905e-05 3.1270007e-06      4.48985    16.768705      4.48985 
       3   -1875.9923    1.4716993  1.73159e-09 -7.5564527e-10      4.48985    16.768705      4.48985 
       4   -1875.9923    1.4716993 -2.0752031e-11 9.9892297e-12      4.48985    16.768705      4.48985 
Loop time of 0.126781 on 1 procs for 3 steps with 336 atoms

Minimization stats:
  Stopping criterion = force tolerance
  Energy initial, next-to-last, final = 
        -1875.97781754     -1875.99228954     -1875.99228991
  Force two-norm initial, final = 0.870587 1.48607e-09
  Force max component initial, final = 0.128366 2.98756e-10
  Final line search alpha, max atom move = 0 0
  Iterations, force evaluations = 3 319

Pair  time (%) = 0.110974 (87.5323)
Neigh time (%) = 0 (0)
Comm  time (%) = 0.009812 (7.73933)
Outpt time (%) = 0.000210162 (0.165767)
Other time (%) = 0.00578446 (4.56256)

Nlocal:    336 ave 336 max 336 min
Histogram: 1 0 0 0 0 0 0 0 0 0
Nghost:    1110 ave 1110 max 1110 min
Histogram: 1 0 0 0 0 0 0 0 0 0
Neighs:    8504 ave 8504 max 8504 min
Histogram: 1 0 0 0 0 0 0 0 0 0

Total # of neighbors = 8504
Ave neighs/atom = 25.3095
Neighbor list builds = 0
Dangerous builds = 0
        next i
jump SELF loop1
        read_dump orig.dump 0 x y z
  orthogonal box = (0 -0.600957 0) to (4.48985 16.1812 4.48985)
  336 atoms before read
  336 atoms in snapshot
  0 atoms purged
  336 atoms replaced
  0 atoms trimmed
  0 atoms added
  336 atoms after read
        variable stretch equal 1+$i*${strainstep}
        variable stretch equal 1+3*${strainstep}
        variable stretch equal 1+3*-0.0005
        change_box all ${direction} scale ${stretch} remap
        change_box all y scale ${stretch} remap
        change_box all y scale 0.9985 remap
  orthogonal box = (0 -0.590046 0) to (4.48985 16.1703 4.48985)
        min_style ${style}
        min_style hftn
        minimize ${etol} ${ftol} ${maxiter} ${maxeval}
        minimize 1e-12 ${ftol} ${maxiter} ${maxeval}
        minimize 1e-12 1e-08 ${maxiter} ${maxeval}
        minimize 1e-12 1e-08 10000 ${maxeval}
        minimize 1e-12 1e-08 10000 20000
WARNING: Resetting reneighboring criteria during minimization (../min.cpp:168)
Memory usage per processor = 4.9009 Mbytes
Step PotEng Pxx Pyy Pxy Lx Ly Lz 
       0   -1875.9546    1.5284666   0.17297489 -0.0062665364      4.48985    16.760312      4.48985 
       1   -1875.9922     1.473143 0.0018612304 0.0011205084      4.48985    16.760312      4.48985 
       2   -1875.9923    1.4724263 -6.5097022e-05 9.7674185e-06      4.48985    16.760312      4.48985 
       3   -1875.9923    1.4724363 1.2820739e-08 9.7566192e-10      4.48985    16.760312      4.48985 
       4   -1875.9923    1.4724363 -7.4247232e-11 3.3977944e-11      4.48985    16.760312      4.48985 
Loop time of 0.120348 on 1 procs for 3 steps with 336 atoms

Minimization stats:
  Stopping criterion = force tolerance
  Energy initial, next-to-last, final = 
         -1875.9545965     -1875.99228922     -1875.99228991
  Force two-norm initial, final = 1.41547 5.61701e-09
  Force max component initial, final = 0.208122 7.91409e-10
  Final line search alpha, max atom move = 0 0
  Iterations, force evaluations = 3 309

Pair  time (%) = 0.107373 (89.2192)
Neigh time (%) = 0 (0)
Comm  time (%) = 0.00733235 (6.09263)
Outpt time (%) = 0.000205133 (0.17045)
Other time (%) = 0.005437 (4.51774)

Nlocal:    336 ave 336 max 336 min
Histogram: 1 0 0 0 0 0 0 0 0 0
Nghost:    1110 ave 1110 max 1110 min
Histogram: 1 0 0 0 0 0 0 0 0 0
Neighs:    8504 ave 8504 max 8504 min
Histogram: 1 0 0 0 0 0 0 0 0 0

Total # of neighbors = 8504
Ave neighs/atom = 25.3095
Neighbor list builds = 0
Dangerous builds = 0
        next i
jump SELF loop1
        read_dump orig.dump 0 x y z
  orthogonal box = (0 -0.600957 0) to (4.48985 16.1812 4.48985)
  336 atoms before read
  336 atoms in snapshot
  0 atoms purged
  336 atoms replaced
  0 atoms trimmed
  0 atoms added
  336 atoms after read
        variable stretch equal 1+$i*${strainstep}
        variable stretch equal 1+4*${strainstep}
        variable stretch equal 1+4*-0.0005
        change_box all ${direction} scale ${stretch} remap
        change_box all y scale ${stretch} remap
        change_box all y scale 0.998 remap
  orthogonal box = (0 -0.585849 0) to (4.48985 16.1661 4.48985)
        min_style ${style}
        min_style hftn
        minimize ${etol} ${ftol} ${maxiter} ${maxeval}
        minimize 1e-12 ${ftol} ${maxiter} ${maxeval}
        minimize 1e-12 1e-08 ${maxiter} ${maxeval}
        minimize 1e-12 1e-08 10000 ${maxeval}
        minimize 1e-12 1e-08 10000 20000
WARNING: Resetting reneighboring criteria during minimization (../min.cpp:168)
Memory usage per processor = 4.9009 Mbytes
Step PotEng Pxx Pyy Pxy Lx Ly Lz 
       0   -1875.9195    1.5510028   0.24037287 -0.0086180734      4.48985    16.751919      4.48985 
       1   -1875.9921    1.4740896 0.0028036458 0.0011500976      4.48985    16.751919      4.48985 
       2   -1875.9923    1.4731556 -0.00010140702 2.7210758e-05      4.48985    16.751919      4.48985 
       3   -1875.9923     1.473174 1.8994613e-07 -8.4801361e-08      4.48985    16.751919      4.48985 
       4   -1875.9923     1.473174 -1.8641471e-10 1.216673e-10      4.48985    16.751919      4.48985 
       5   -1875.9923     1.473174 8.1912575e-13 -2.1786869e-13      4.48985    16.751919      4.48985 
Loop time of 0.209316 on 1 procs for 4 steps with 336 atoms

Minimization stats:
  Stopping criterion = force tolerance
  Energy initial, next-to-last, final = 
        -1875.91945234      -1875.9922899     -1875.99228991
  Force two-norm initial, final = 1.96565 7.97846e-11
  Force max component initial, final = 0.288428 1.3695e-11
  Final line search alpha, max atom move = 0 0
  Iterations, force evaluations = 4 404

Pair  time (%) = 0.175207 (83.7044)
Neigh time (%) = 0 (0)
Comm  time (%) = 0.0240117 (11.4715)
Outpt time (%) = 0.000373364 (0.178373)
Other time (%) = 0.00972421 (4.6457)

Nlocal:    336 ave 336 max 336 min
Histogram: 1 0 0 0 0 0 0 0 0 0
Nghost:    1110 ave 1110 max 1110 min
Histogram: 1 0 0 0 0 0 0 0 0 0
Neighs:    8504 ave 8504 max 8504 min
Histogram: 1 0 0 0 0 0 0 0 0 0

Total # of neighbors = 8504
Ave neighs/atom = 25.3095
Neighbor list builds = 0
Dangerous builds = 0
        next i
jump SELF loop1
        read_dump orig.dump 0 x y z
  orthogonal box = (0 -0.600957 0) to (4.48985 16.1812 4.48985)
  336 atoms before read
  336 atoms in snapshot
  0 atoms purged
  336 atoms replaced
  0 atoms trimmed
  0 atoms added
  336 atoms after read
        variable stretch equal 1+$i*${strainstep}
        variable stretch equal 1+5*${strainstep}
        variable stretch equal 1+5*-0.0005
        change_box all ${direction} scale ${stretch} remap
        change_box all y scale ${stretch} remap
        change_box all y scale 0.9975 remap
  orthogonal box = (0 -0.581653 0) to (4.48985 16.1619 4.48985)
        min_style ${style}
        min_style hftn
        minimize ${etol} ${ftol} ${maxiter} ${maxeval}
        minimize 1e-12 ${ftol} ${maxiter} ${maxeval}
        minimize 1e-12 1e-08 ${maxiter} ${maxeval}
        minimize 1e-12 1e-08 10000 ${maxeval}
        minimize 1e-12 1e-08 10000 20000
WARNING: Resetting reneighboring criteria during minimization (../min.cpp:168)
Memory usage per processor = 4.9009 Mbytes
Step PotEng Pxx Pyy Pxy Lx Ly Lz 
       0   -1875.8734    1.5735906   0.30811168 -0.010808947      4.48985    16.743527      4.48985 
       1   -1875.9921    1.4752336 0.0044325497 0.0012998126      4.48985    16.743527      4.48985 
       2   -1875.9923    1.4738909 -8.202545e-05 3.971539e-06      4.48985    16.743527      4.48985 
       3   -1875.9923    1.4739124 3.4800376e-08 -1.7919443e-08      4.48985    16.743527      4.48985 
       4   -1875.9923    1.4739124 -1.2871522e-10 4.6428167e-11      4.48985    16.743527      4.48985 
       5   -1875.9923    1.4739124 4.3586415e-14 -1.6069434e-13      4.48985    16.743527      4.48985 
Loop time of 0.15993 on 1 procs for 4 steps with 336 atoms

Minimization stats:
  Stopping criterion = force tolerance
  Energy initial, next-to-last, final = 
        -1875.87338444     -1875.99226796     -1875.99228991
  Force two-norm initial, final = 2.52184 4.54003e-11
  Force max component initial, final = 0.369303 9.5391e-12
  Final line search alpha, max atom move = 0 0
  Iterations, force evaluations = 4 411

Pair  time (%) = 0.141935 (88.7484)
Neigh time (%) = 0 (0)
Comm  time (%) = 0.00767767 (4.80064)
Outpt time (%) = 0.00271209 (1.6958)
Other time (%) = 0.00760489 (4.75514)

Nlocal:    336 ave 336 max 336 min
Histogram: 1 0 0 0 0 0 0 0 0 0
Nghost:    1110 ave 1110 max 1110 min
Histogram: 1 0 0 0 0 0 0 0 0 0
Neighs:    8504 ave 8504 max 8504 min
Histogram: 1 0 0 0 0 0 0 0 0 0

Total # of neighbors = 8504
Ave neighs/atom = 25.3095
Neighbor list builds = 0
Dangerous builds = 0
        next i
jump SELF loop1
        read_dump orig.dump 0 x y z
  orthogonal box = (0 -0.600957 0) to (4.48985 16.1812 4.48985)
  336 atoms before read
  336 atoms in snapshot
  0 atoms purged
  336 atoms replaced
  0 atoms trimmed
  0 atoms added
  336 atoms after read
        variable stretch equal 1+$i*${strainstep}
        variable stretch equal 1+6*${strainstep}
        variable stretch equal 1+6*-0.0005
        change_box all ${direction} scale ${stretch} remap
        change_box all y scale ${stretch} remap
        change_box all y scale 0.997 remap
  orthogonal box = (0 -0.577457 0) to (4.48985 16.1577 4.48985)
        min_style ${style}
        min_style hftn
        minimize ${etol} ${ftol} ${maxiter} ${maxeval}
        minimize 1e-12 ${ftol} ${maxiter} ${maxeval}
        minimize 1e-12 1e-08 ${maxiter} ${maxeval}
        minimize 1e-12 1e-08 10000 ${maxeval}
        minimize 1e-12 1e-08 10000 20000
WARNING: Resetting reneighboring criteria during minimization (../min.cpp:168)
Memory usage per processor = 4.9009 Mbytes
Step PotEng Pxx Pyy Pxy Lx Ly Lz 
       0    -1875.815    1.5961535   0.37606898 -0.012740427      4.48985    16.735134      4.48985 
       1   -1875.9917    1.4746259 0.0037001139 -9.1379153e-05      4.48985    16.735134      4.48985 
       2   -1875.9923     1.474449 -0.001346523 0.0015281181      4.48985    16.735134      4.48985 
       3   -1875.9923    1.4746515 6.0906202e-07 4.1276577e-08      4.48985    16.735134      4.48985 
       4   -1875.9923    1.4746515 6.0906202e-07 4.1276577e-08      4.48985    16.735134      4.48985 
       5   -1875.9923    1.4746517 4.7429474e-07 2.0939707e-07      4.48985    16.735134      4.48985 
       6   -1875.9923    1.4746519 3.9347326e-07 5.2901423e-07      4.48985    16.735134      4.48985 
       7   -1875.9923    1.4746519 3.9347326e-07 5.2901423e-07      4.48985    16.735134      4.48985 
       8   -1875.9923    1.4746519 3.9347326e-07 5.2901423e-07      4.48985    16.735134      4.48985 
       9   -1875.9923    1.4746519 4.1999512e-07 5.1231929e-07      4.48985    16.735134      4.48985 
      10   -1875.9923    1.4746519 4.6684989e-07 4.7893657e-07      4.48985    16.735134      4.48985 
      11   -1875.9923    1.4746519 4.6684989e-07 4.7893657e-07      4.48985    16.735134      4.48985 
      12   -1875.9923    1.4746519 4.6684989e-07 4.7893657e-07      4.48985    16.735134      4.48985 
      13   -1875.9923    1.4746519 4.6685213e-07 4.791699e-07      4.48985    16.735134      4.48985 
Loop time of 0.236055 on 1 procs for 12 steps with 336 atoms

Minimization stats:
  Stopping criterion = energy tolerance
  Energy initial, next-to-last, final = 
         -1875.8149502        -1875.99229        -1875.99229
  Force two-norm initial, final = 3.08743 8.31491e-05
  Force max component initial, final = 0.450762 1.33024e-05
  Final line search alpha, max atom move = 0 0
  Iterations, force evaluations = 12 471

Pair  time (%) = 0.191232 (81.0117)
Neigh time (%) = 0 (0)
Comm  time (%) = 0.0329805 (13.9715)
Outpt time (%) = 0.0038577 (1.63424)
Other time (%) = 0.00798467 (3.38255)

Nlocal:    336 ave 336 max 336 min
Histogram: 1 0 0 0 0 0 0 0 0 0
Nghost:    1110 ave 1110 max 1110 min
Histogram: 1 0 0 0 0 0 0 0 0 0
Neighs:    8504 ave 8504 max 8504 min
Histogram: 1 0 0 0 0 0 0 0 0 0

Total # of neighbors = 8504
Ave neighs/atom = 25.3095
Neighbor list builds = 0
Dangerous builds = 0
        next i
jump SELF loop1
        read_dump orig.dump 0 x y z
  orthogonal box = (0 -0.600957 0) to (4.48985 16.1812 4.48985)
  336 atoms before read
  336 atoms in snapshot
  0 atoms purged
  336 atoms replaced
  0 atoms trimmed
  0 atoms added
  336 atoms after read
        variable stretch equal 1+$i*${strainstep}
        variable stretch equal 1+7*${strainstep}
        variable stretch equal 1+7*-0.0005
        change_box all ${direction} scale ${stretch} remap
        change_box all y scale ${stretch} remap
        change_box all y scale 0.9965 remap
  orthogonal box = (0 -0.57326 0) to (4.48985 16.1535 4.48985)
        min_style ${style}
        min_style hftn
        minimize ${etol} ${ftol} ${maxiter} ${maxeval}
        minimize 1e-12 ${ftol} ${maxiter} ${maxeval}
        minimize 1e-12 1e-08 ${maxiter} ${maxeval}
        minimize 1e-12 1e-08 10000 ${maxeval}
        minimize 1e-12 1e-08 10000 20000
WARNING: Resetting reneighboring criteria during minimization (../min.cpp:168)
Memory usage per processor = 4.9009 Mbytes
Step PotEng Pxx Pyy Pxy Lx Ly Lz 
       0   -1875.7459    1.6187117   0.44426183 -0.014449859      4.48985    16.726741      4.48985 
       1   -1875.9906    1.4745705 0.0040861055 -0.0015926865      4.48985    16.726741      4.48985 
       2   -1875.9922    1.4763661 0.0014149063 0.0034558649      4.48985    16.726741      4.48985 
       3   -1875.9923    1.4753899 -2.9243558e-06 7.0768273e-07      4.48985    16.726741      4.48985 
       4   -1875.9923    1.4753899 -2.9243558e-06 7.0768273e-07      4.48985    16.726741      4.48985 
       5   -1875.9923     1.475391 -2.5949316e-06 1.7455573e-07      4.48985    16.726741      4.48985 
       6   -1875.9923     1.475391 -2.5949316e-06 1.7455573e-07      4.48985    16.726741      4.48985 
       7   -1875.9923     1.475391 -2.5949316e-06 1.7455573e-07      4.48985    16.726741      4.48985 
       8   -1875.9923     1.475391 -2.5949316e-06 1.7455573e-07      4.48985    16.726741      4.48985 
       9   -1875.9923     1.475391 -2.5949316e-06 1.7455573e-07      4.48985    16.726741      4.48985 
      10   -1875.9923     1.475391 -2.5922282e-06 1.7300304e-07      4.48985    16.726741      4.48985 
Loop time of 0.0984401 on 1 procs for 9 steps with 336 atoms

Minimization stats:
  Stopping criterion = energy tolerance
  Energy initial, next-to-last, final = 
        -1875.74592891      -1875.9922903     -1875.99229036
  Force two-norm initial, final = 3.66141 0.000580149
  Force max component initial, final = 0.532878 0.000134548
  Final line search alpha, max atom move = 0 0
  Iterations, force evaluations = 9 254

Pair  time (%) = 0.0883351 (89.7349)
Neigh time (%) = 0 (0)
Comm  time (%) = 0.00540546 (5.49112)
Outpt time (%) = 0.000462744 (0.470076)
Other time (%) = 0.0042368 (4.30393)

Nlocal:    336 ave 336 max 336 min
Histogram: 1 0 0 0 0 0 0 0 0 0
Nghost:    1110 ave 1110 max 1110 min
Histogram: 1 0 0 0 0 0 0 0 0 0
Neighs:    8504 ave 8504 max 8504 min
Histogram: 1 0 0 0 0 0 0 0 0 0

Total # of neighbors = 8504
Ave neighs/atom = 25.3095
Neighbor list builds = 0
Dangerous builds = 0
        next i
jump SELF loop1
        read_dump orig.dump 0 x y z
  orthogonal box = (0 -0.600957 0) to (4.48985 16.1812 4.48985)
  336 atoms before read
  336 atoms in snapshot
  0 atoms purged
  336 atoms replaced
  0 atoms trimmed
  0 atoms added
  336 atoms after read
        variable stretch equal 1+$i*${strainstep}
        variable stretch equal 1+8*${strainstep}
        variable stretch equal 1+8*-0.0005
        change_box all ${direction} scale ${stretch} remap
        change_box all y scale ${stretch} remap
        change_box all y scale 0.996 remap
  orthogonal box = (0 -0.569064 0) to (4.48985 16.1493 4.48985)
        min_style ${style}
        min_style hftn
        minimize ${etol} ${ftol} ${maxiter} ${maxeval}
        minimize 1e-12 ${ftol} ${maxiter} ${maxeval}
        minimize 1e-12 1e-08 ${maxiter} ${maxeval}
        minimize 1e-12 1e-08 10000 ${maxeval}
        minimize 1e-12 1e-08 10000 20000
WARNING: Resetting reneighboring criteria during minimization (../min.cpp:168)
Memory usage per processor = 4.9009 Mbytes
Step PotEng Pxx Pyy Pxy Lx Ly Lz 
       0   -1875.6651    1.6412763   0.51272132 -0.015950014      4.48985    16.718348      4.48985 
       1   -1875.9899     1.475455 0.0063787334 -0.0024751899      4.48985    16.718348      4.48985 
       2   -1875.9922    1.4777641 0.0030325568 0.0036473661      4.48985    16.718348      4.48985 
       3   -1875.9923     1.476133 1.0044657e-07 2.5540611e-06      4.48985    16.718348      4.48985 
       4   -1875.9923     1.476133 1.0044657e-07 2.5540611e-06      4.48985    16.718348      4.48985 
       5   -1875.9923     1.476133 1.0044657e-07 2.5540611e-06      4.48985    16.718348      4.48985 
       6   -1875.9923     1.476133 1.0044657e-07 2.5540611e-06      4.48985    16.718348      4.48985 
       7   -1875.9923     1.476133 1.0044657e-07 2.5540611e-06      4.48985    16.718348      4.48985 
       8   -1875.9923     1.476133 1.0044657e-07 2.5540611e-06      4.48985    16.718348      4.48985 
       9   -1875.9923     1.476133 1.0176273e-07 2.5540622e-06      4.48985    16.718348      4.48985 
Loop time of 0.112957 on 1 procs for 8 steps with 336 atoms

Minimization stats:
  Stopping criterion = energy tolerance
  Energy initial, next-to-last, final = 
        -1875.66505511     -1875.99222668      -1875.9922907
  Force two-norm initial, final = 4.24541 0.00106256
  Force max component initial, final = 0.615641 0.000133702
  Final line search alpha, max atom move = 0 0
  Iterations, force evaluations = 8 275

Pair  time (%) = 0.0965091 (85.4388)
Neigh time (%) = 0 (0)
Comm  time (%) = 0.00916188 (8.11095)
Outpt time (%) = 0.00246601 (2.18314)
Other time (%) = 0.00482005 (4.26715)

Nlocal:    336 ave 336 max 336 min
Histogram: 1 0 0 0 0 0 0 0 0 0
Nghost:    1110 ave 1110 max 1110 min
Histogram: 1 0 0 0 0 0 0 0 0 0
Neighs:    8504 ave 8504 max 8504 min
Histogram: 1 0 0 0 0 0 0 0 0 0

Total # of neighbors = 8504
Ave neighs/atom = 25.3095
Neighbor list builds = 0
Dangerous builds = 0
        next i
jump SELF loop1
        read_dump orig.dump 0 x y z
  orthogonal box = (0 -0.600957 0) to (4.48985 16.1812 4.48985)
  336 atoms before read
  336 atoms in snapshot
  0 atoms purged
  336 atoms replaced
  0 atoms trimmed
  0 atoms added
  336 atoms after read
        variable stretch equal 1+$i*${strainstep}
        variable stretch equal 1+9*${strainstep}
        variable stretch equal 1+9*-0.0005
        change_box all ${direction} scale ${stretch} remap
        change_box all y scale ${stretch} remap
        change_box all y scale 0.9955 remap
  orthogonal box = (0 -0.564867 0) to (4.48985 16.1451 4.48985)
        min_style ${style}
        min_style hftn
        minimize ${etol} ${ftol} ${maxiter} ${maxeval}
        minimize 1e-12 ${ftol} ${maxiter} ${maxeval}
        minimize 1e-12 1e-08 ${maxiter} ${maxeval}
        minimize 1e-12 1e-08 10000 ${maxeval}
        minimize 1e-12 1e-08 10000 20000
WARNING: Resetting reneighboring criteria during minimization (../min.cpp:168)
Memory usage per processor = 4.9009 Mbytes
Step PotEng Pxx Pyy Pxy Lx Ly Lz 
       0   -1875.5728    1.6639552   0.58162977 -0.017352075      4.48985    16.709956      4.48985 
       1   -1875.9896     1.477023 0.0093808666 -0.0028220029      4.48985    16.709956      4.48985 
       2   -1875.9923    1.4774348 0.00067147237 0.0023927485      4.48985    16.709956      4.48985 
       3   -1875.9923    1.4768708 -1.7169087e-06 -6.9901804e-07      4.48985    16.709956      4.48985 
       4   -1875.9923    1.4768736 -1.1935757e-09 -1.8304433e-09      4.48985    16.709956      4.48985 
       5   -1875.9923    1.4768736 -1.0632612e-11 9.1255204e-13      4.48985    16.709956      4.48985 
Loop time of 0.135061 on 1 procs for 4 steps with 336 atoms

Minimization stats:
  Stopping criterion = force tolerance
  Energy initial, next-to-last, final = 
        -1875.57276691     -1875.99228973     -1875.99228991
  Force two-norm initial, final = 4.83543 9.68841e-10
  Force max component initial, final = 0.698912 2.12089e-10
  Final line search alpha, max atom move = 0 0
  Iterations, force evaluations = 4 348

Pair  time (%) = 0.118098 (87.4407)
Neigh time (%) = 0 (0)
Comm  time (%) = 0.0106569 (7.89043)
Outpt time (%) = 0.000282827 (0.209407)
Other time (%) = 0.006023 (4.45947)

Nlocal:    336 ave 336 max 336 min
Histogram: 1 0 0 0 0 0 0 0 0 0
Nghost:    1110 ave 1110 max 1110 min
Histogram: 1 0 0 0 0 0 0 0 0 0
Neighs:    8504 ave 8504 max 8504 min
Histogram: 1 0 0 0 0 0 0 0 0 0

Total # of neighbors = 8504
Ave neighs/atom = 25.3095
Neighbor list builds = 0
Dangerous builds = 0
        next i
jump SELF loop1
        read_dump orig.dump 0 x y z
  orthogonal box = (0 -0.600957 0) to (4.48985 16.1812 4.48985)
  336 atoms before read
  336 atoms in snapshot
  0 atoms purged
  336 atoms replaced
  0 atoms trimmed
  0 atoms added
  336 atoms after read
        variable stretch equal 1+$i*${strainstep}
        variable stretch equal 1+10*${strainstep}
        variable stretch equal 1+10*-0.0005
        change_box all ${direction} scale ${stretch} remap
        change_box all y scale ${stretch} remap
        change_box all y scale 0.995 remap
  orthogonal box = (0 -0.560671 0) to (4.48985 16.1409 4.48985)
        min_style ${style}
        min_style hftn
        minimize ${etol} ${ftol} ${maxiter} ${maxeval}
        minimize 1e-12 ${ftol} ${maxiter} ${maxeval}
        minimize 1e-12 1e-08 ${maxiter} ${maxeval}
        minimize 1e-12 1e-08 10000 ${maxeval}
        minimize 1e-12 1e-08 10000 20000
WARNING: Resetting reneighboring criteria during minimization (../min.cpp:168)
Memory usage per processor = 4.9009 Mbytes
Step PotEng Pxx Pyy Pxy Lx Ly Lz 
       0   -1875.4681    1.6867807   0.65106049 -0.018711875      4.48985    16.701563      4.48985 
       1   -1875.9894    1.4792048  0.013821071 -0.0030824902      4.48985    16.701563      4.48985 
       2   -1875.9923     1.478134 0.00059329307 0.0022958342      4.48985    16.701563      4.48985 
       3   -1875.9923    1.4776114 -3.8632023e-06 -7.6464891e-07      4.48985    16.701563      4.48985 
       4   -1875.9923    1.4776157 -1.4737647e-09 -3.8148507e-09      4.48985    16.701563      4.48985 
       5   -1875.9923    1.4776157 -8.0276348e-12 -4.4635449e-13      4.48985    16.701563      4.48985 
Loop time of 0.132465 on 1 procs for 4 steps with 336 atoms

Minimization stats:
  Stopping criterion = force tolerance
  Energy initial, next-to-last, final = 
        -1875.46806149     -1875.99228963     -1875.99228991
  Force two-norm initial, final = 5.43046 5.83536e-10
  Force max component initial, final = 0.782864 1.1434e-10
  Final line search alpha, max atom move = 0 0
  Iterations, force evaluations = 4 346

Pair  time (%) = 0.119139 (89.9398)
Neigh time (%) = 0 (0)
Comm  time (%) = 0.00682949 (5.1557)
Outpt time (%) = 0.00044602 (0.336708)
Other time (%) = 0.00605073 (4.5678)

Nlocal:    336 ave 336 max 336 min
Histogram: 1 0 0 0 0 0 0 0 0 0
Nghost:    1110 ave 1110 max 1110 min
Histogram: 1 0 0 0 0 0 0 0 0 0
Neighs:    8504 ave 8504 max 8504 min
Histogram: 1 0 0 0 0 0 0 0 0 0

Total # of neighbors = 8504
Ave neighs/atom = 25.3095
Neighbor list builds = 0
Dangerous builds = 0
        next i
jump SELF loop1
        read_dump orig.dump 0 x y z
  orthogonal box = (0 -0.600957 0) to (4.48985 16.1812 4.48985)
  336 atoms before read
  336 atoms in snapshot
  0 atoms purged
  336 atoms replaced
  0 atoms trimmed
  0 atoms added
  336 atoms after read
        variable stretch equal 1+$i*${strainstep}
        variable stretch equal 1+11*${strainstep}
        variable stretch equal 1+11*-0.0005
        change_box all ${direction} scale ${stretch} remap
        change_box all y scale ${stretch} remap
        change_box all y scale 0.9945 remap
  orthogonal box = (0 -0.556475 0) to (4.48985 16.1367 4.48985)
        min_style ${style}
        min_style hftn
        minimize ${etol} ${ftol} ${maxiter} ${maxeval}
        minimize 1e-12 ${ftol} ${maxiter} ${maxeval}
        minimize 1e-12 1e-08 ${maxiter} ${maxeval}
        minimize 1e-12 1e-08 10000 ${maxeval}
        minimize 1e-12 1e-08 10000 20000
WARNING: Resetting reneighboring criteria during minimization (../min.cpp:168)
Memory usage per processor = 4.9009 Mbytes
Step PotEng Pxx Pyy Pxy Lx Ly Lz 
       0   -1875.3523    1.7097492   0.72095675 -0.020018026      4.48985     16.69317      4.48985 
       1   -1875.9893    1.4816769  0.018980595 -0.0031339323      4.48985     16.69317      4.48985 
       2   -1875.9922    1.4788852 0.0006922566 0.0022050403      4.48985     16.69317      4.48985 
       3   -1875.9923     1.478356 4.6236764e-06 -8.1170367e-07      4.48985     16.69317      4.48985 
       4   -1875.9923    1.4783586 -3.5088909e-09 -7.0294071e-10      4.48985     16.69317      4.48985 
       5   -1875.9923    1.4783586 -1.017043e-11 5.4927433e-13      4.48985     16.69317      4.48985 
Loop time of 0.185577 on 1 procs for 4 steps with 336 atoms

Minimization stats:
  Stopping criterion = force tolerance
  Energy initial, next-to-last, final = 
        -1875.35231622     -1875.99228955     -1875.99228991
  Force two-norm initial, final = 6.02992 7.08718e-10
  Force max component initial, final = 0.867291 1.38251e-10
  Final line search alpha, max atom move = 0 0
  Iterations, force evaluations = 4 342

Pair  time (%) = 0.152582 (82.2205)
Neigh time (%) = 0 (0)
Comm  time (%) = 0.0175978 (9.48276)
Outpt time (%) = 0.00947685 (5.1067)
Other time (%) = 0.00591994 (3.19002)

Nlocal:    336 ave 336 max 336 min
Histogram: 1 0 0 0 0 0 0 0 0 0
Nghost:    1110 ave 1110 max 1110 min
Histogram: 1 0 0 0 0 0 0 0 0 0
Neighs:    8504 ave 8504 max 8504 min
Histogram: 1 0 0 0 0 0 0 0 0 0

Total # of neighbors = 8504
Ave neighs/atom = 25.3095
Neighbor list builds = 0
Dangerous builds = 0
        next i
jump SELF loop1
        read_dump orig.dump 0 x y z
  orthogonal box = (0 -0.600957 0) to (4.48985 16.1812 4.48985)
  336 atoms before read
  336 atoms in snapshot
  0 atoms purged
  336 atoms replaced
  0 atoms trimmed
  0 atoms added
  336 atoms after read
        variable stretch equal 1+$i*${strainstep}
        variable stretch equal 1+12*${strainstep}
        variable stretch equal 1+12*-0.0005
        change_box all ${direction} scale ${stretch} remap
        change_box all y scale ${stretch} remap
        change_box all y scale 0.994 remap
  orthogonal box = (0 -0.552278 0) to (4.48985 16.1325 4.48985)
        min_style ${style}
        min_style hftn
        minimize ${etol} ${ftol} ${maxiter} ${maxeval}
        minimize 1e-12 ${ftol} ${maxiter} ${maxeval}
        minimize 1e-12 1e-08 ${maxiter} ${maxeval}
        minimize 1e-12 1e-08 10000 ${maxeval}
        minimize 1e-12 1e-08 10000 20000
WARNING: Resetting reneighboring criteria during minimization (../min.cpp:168)
Memory usage per processor = 4.9009 Mbytes
Step PotEng Pxx Pyy Pxy Lx Ly Lz 
       0   -1875.2244    1.7328729   0.79136134 -0.021297865      4.48985    16.684777      4.48985 
       1   -1875.9889    1.4843777  0.025283481 -0.0033078168      4.48985    16.684777      4.48985 
       2   -1875.9922     1.479638 0.00077651497 0.0021456471      4.48985    16.684777      4.48985 
       3   -1875.9923    1.4791008 1.2020834e-06 1.3650503e-06      4.48985    16.684777      4.48985 
       4   -1875.9923    1.4791008 1.2020834e-06 1.3650503e-06      4.48985    16.684777      4.48985 
       5   -1875.9923    1.4791008 1.2020834e-06 1.3650503e-06      4.48985    16.684777      4.48985 
       6   -1875.9923    1.4791008 1.2020834e-06 1.3650503e-06      4.48985    16.684777      4.48985 
       7   -1875.9923    1.4791008 1.2020834e-06 1.3650503e-06      4.48985    16.684777      4.48985 
       8   -1875.9923    1.4791008 1.185032e-06 1.359551e-06      4.48985    16.684777      4.48985 
Loop time of 0.106401 on 1 procs for 7 steps with 336 atoms

Minimization stats:
  Stopping criterion = energy tolerance
  Energy initial, next-to-last, final = 
        -1875.22443757     -1875.99222544     -1875.99228996
  Force two-norm initial, final = 6.63363 0.0012114
  Force max component initial, final = 0.952473 0.000176015
  Final line search alpha, max atom move = 0 0
  Iterations, force evaluations = 7 272

Pair  time (%) = 0.0961032 (90.3217)
Neigh time (%) = 0 (0)
Comm  time (%) = 0.00305704 (2.87313)
Outpt time (%) = 0.0026239 (2.46605)
Other time (%) = 0.00461684 (4.3391)

Nlocal:    336 ave 336 max 336 min
Histogram: 1 0 0 0 0 0 0 0 0 0
Nghost:    1110 ave 1110 max 1110 min
Histogram: 1 0 0 0 0 0 0 0 0 0
Neighs:    8504 ave 8504 max 8504 min
Histogram: 1 0 0 0 0 0 0 0 0 0

Total # of neighbors = 8504
Ave neighs/atom = 25.3095
Neighbor list builds = 0
Dangerous builds = 0
        next i
jump SELF loop1
        read_dump orig.dump 0 x y z
  orthogonal box = (0 -0.600957 0) to (4.48985 16.1812 4.48985)
  336 atoms before read
  336 atoms in snapshot
  0 atoms purged
  336 atoms replaced
  0 atoms trimmed
  0 atoms added
  336 atoms after read
        variable stretch equal 1+$i*${strainstep}
        variable stretch equal 1+13*${strainstep}
        variable stretch equal 1+13*-0.0005
        change_box all ${direction} scale ${stretch} remap
        change_box all y scale ${stretch} remap
        change_box all y scale 0.9935 remap
  orthogonal box = (0 -0.548082 0) to (4.48985 16.1283 4.48985)
        min_style ${style}
        min_style hftn
        minimize ${etol} ${ftol} ${maxiter} ${maxeval}
        minimize 1e-12 ${ftol} ${maxiter} ${maxeval}
        minimize 1e-12 1e-08 ${maxiter} ${maxeval}
        minimize 1e-12 1e-08 10000 ${maxeval}
        minimize 1e-12 1e-08 10000 20000
WARNING: Resetting reneighboring criteria during minimization (../min.cpp:168)
Memory usage per processor = 4.9009 Mbytes
Step PotEng Pxx Pyy Pxy Lx Ly Lz 
       0   -1875.0849    1.7561442   0.86226665 -0.022523358      4.48985    16.676385      4.48985 
       1   -1875.9886    1.4864321  0.029413933 -0.0035432375      4.48985    16.676385      4.48985 
       2   -1875.9922    1.4803546 0.00074592347 0.0020991263      4.48985    16.676385      4.48985 
       3   -1875.9923    1.4798459 6.2689383e-06 6.953543e-07      4.48985    16.676385      4.48985 
       4   -1875.9923    1.4798466 4.5645728e-09 5.3008073e-09      4.48985    16.676385      4.48985 
       5   -1875.9923    1.4798466 -5.6336461e-11  6.14319e-12      4.48985    16.676385      4.48985 
Loop time of 0.134264 on 1 procs for 4 steps with 336 atoms

Minimization stats:
  Stopping criterion = force tolerance
  Energy initial, next-to-last, final = 
        -1875.08485377     -1875.99228981     -1875.99228991
  Force two-norm initial, final = 7.24152 1.12394e-09
  Force max component initial, final = 1.03821 1.45197e-10
  Final line search alpha, max atom move = 0 0
  Iterations, force evaluations = 4 346

Pair  time (%) = 0.123375 (91.8898)
Neigh time (%) = 0 (0)
Comm  time (%) = 0.00442485 (3.29563)
Outpt time (%) = 0.000302884 (0.225588)
Other time (%) = 0.0061614 (4.58902)

Nlocal:    336 ave 336 max 336 min
Histogram: 1 0 0 0 0 0 0 0 0 0
Nghost:    1110 ave 1110 max 1110 min
Histogram: 1 0 0 0 0 0 0 0 0 0
Neighs:    8520 ave 8520 max 8520 min
Histogram: 1 0 0 0 0 0 0 0 0 0

Total # of neighbors = 8520
Ave neighs/atom = 25.3571
Neighbor list builds = 0
Dangerous builds = 0
        next i
jump SELF loop1
        read_dump orig.dump 0 x y z
  orthogonal box = (0 -0.600957 0) to (4.48985 16.1812 4.48985)
  336 atoms before read
  336 atoms in snapshot
  0 atoms purged
  336 atoms replaced
  0 atoms trimmed
  0 atoms added
  336 atoms after read
        variable stretch equal 1+$i*${strainstep}
        variable stretch equal 1+14*${strainstep}
        variable stretch equal 1+14*-0.0005
        change_box all ${direction} scale ${stretch} remap
        change_box all y scale ${stretch} remap
        change_box all y scale 0.993 remap
  orthogonal box = (0 -0.543886 0) to (4.48985 16.1241 4.48985)
        min_style ${style}
        min_style hftn
        minimize ${etol} ${ftol} ${maxiter} ${maxeval}
        minimize 1e-12 ${ftol} ${maxiter} ${maxeval}
        minimize 1e-12 1e-08 ${maxiter} ${maxeval}
        minimize 1e-12 1e-08 10000 ${maxeval}
        minimize 1e-12 1e-08 10000 20000
WARNING: Resetting reneighboring criteria during minimization (../min.cpp:168)
Memory usage per processor = 4.9009 Mbytes
Step PotEng Pxx Pyy Pxy Lx Ly Lz 
       0   -1874.9327    1.7795767   0.93370612 -0.023709006      4.48985    16.667992      4.48985 
       1    -1875.988    1.4895282  0.036102792 -0.0037252888      4.48985    16.667992      4.48985 
       2   -1875.9922     1.481074 0.00081067632 0.0019666402      4.48985    16.667992      4.48985 
       3   -1875.9923     1.480589 -5.8474465e-06 4.339887e-08      4.48985    16.667992      4.48985 
       4   -1875.9923     1.480589 -5.8474465e-06 4.339887e-08      4.48985    16.667992      4.48985 
       5   -1875.9923     1.480589 -5.8474465e-06 4.339887e-08      4.48985    16.667992      4.48985 
       6   -1875.9923     1.480589 -5.8474465e-06 4.339887e-08      4.48985    16.667992      4.48985 
       7   -1875.9923     1.480589 -5.8474465e-06 4.339887e-08      4.48985    16.667992      4.48985 
       8   -1875.9923     1.480589 -5.8439951e-06 3.9672908e-08      4.48985    16.667992      4.48985 
Loop time of 0.109213 on 1 procs for 7 steps with 336 atoms

Minimization stats:
  Stopping criterion = energy tolerance
  Energy initial, next-to-last, final = 
        -1874.93267577     -1875.99219463     -1875.99228997
  Force two-norm initial, final = 7.85398 0.000898272
  Force max component initial, final = 1.12472 0.000105256
  Final line search alpha, max atom move = 0 0
  Iterations, force evaluations = 7 280

Pair  time (%) = 0.0970396 (88.8536)
Neigh time (%) = 0 (0)
Comm  time (%) = 0.00392669 (3.59545)
Outpt time (%) = 0.00360714 (3.30285)
Other time (%) = 0.00463947 (4.2481)

Nlocal:    336 ave 336 max 336 min
Histogram: 1 0 0 0 0 0 0 0 0 0
Nghost:    1110 ave 1110 max 1110 min
Histogram: 1 0 0 0 0 0 0 0 0 0
Neighs:    8520 ave 8520 max 8520 min
Histogram: 1 0 0 0 0 0 0 0 0 0

Total # of neighbors = 8520
Ave neighs/atom = 25.3571
Neighbor list builds = 0
Dangerous builds = 0
        next i
jump SELF loop1
        read_dump orig.dump 0 x y z
  orthogonal box = (0 -0.600957 0) to (4.48985 16.1812 4.48985)
  336 atoms before read
  336 atoms in snapshot
  0 atoms purged
  336 atoms replaced
  0 atoms trimmed
  0 atoms added
  336 atoms after read
        variable stretch equal 1+$i*${strainstep}
        variable stretch equal 1+15*${strainstep}
        variable stretch equal 1+15*-0.0005
        change_box all ${direction} scale ${stretch} remap
        change_box all y scale ${stretch} remap
        change_box all y scale 0.9925 remap
  orthogonal box = (0 -0.539689 0) to (4.48985 16.1199 4.48985)
        min_style ${style}
        min_style hftn
        minimize ${etol} ${ftol} ${maxiter} ${maxeval}
        minimize 1e-12 ${ftol} ${maxiter} ${maxeval}
        minimize 1e-12 1e-08 ${maxiter} ${maxeval}
        minimize 1e-12 1e-08 10000 ${maxeval}
        minimize 1e-12 1e-08 10000 20000
WARNING: Resetting reneighboring criteria during minimization (../min.cpp:168)
Memory usage per processor = 4.9009 Mbytes
Step PotEng Pxx Pyy Pxy Lx Ly Lz 
       0   -1874.7688    1.8031551    1.0056424 -0.024838333      4.48985    16.659599      4.48985 
       1   -1875.9873    1.4921563  0.042065482 -0.0037833595      4.48985    16.659599      4.48985 
       2   -1875.9921    1.4818763 0.00094613113 0.0018745968      4.48985    16.659599      4.48985 
       3   -1875.9923    1.4813366 -8.5301657e-06 3.1461941e-06      4.48985    16.659599      4.48985 
       4   -1875.9923    1.4813366 -8.5301657e-06 3.1461941e-06      4.48985    16.659599      4.48985 
       5   -1875.9923    1.4813366 -8.5301657e-06 3.1461941e-06      4.48985    16.659599      4.48985 
       6   -1875.9923    1.4813366 -8.5301657e-06 3.1461941e-06      4.48985    16.659599      4.48985 
       7   -1875.9923    1.4813366 -8.5301657e-06 3.1461941e-06      4.48985    16.659599      4.48985 
       8   -1875.9923    1.4813366 -8.5301657e-06 3.1461941e-06      4.48985    16.659599      4.48985 
       9   -1875.9923    1.4813366 -8.5289656e-06 3.1452353e-06      4.48985    16.659599      4.48985 
Loop time of 0.112002 on 1 procs for 8 steps with 336 atoms

Minimization stats:
  Stopping criterion = energy tolerance
  Energy initial, next-to-last, final = 
        -1874.76881715     -1875.99214804     -1875.99229039
  Force two-norm initial, final = 8.4704 0.00121035
  Force max component initial, final = 1.21164 0.000222602
  Final line search alpha, max atom move = 0 0
  Iterations, force evaluations = 8 277

Pair  time (%) = 0.0959559 (85.6733)
Neigh time (%) = 0 (0)
Comm  time (%) = 0.00959617 (8.56785)
Outpt time (%) = 0.00159305 (1.42234)
Other time (%) = 0.00485694 (4.33648)

Nlocal:    336 ave 336 max 336 min
Histogram: 1 0 0 0 0 0 0 0 0 0
Nghost:    1110 ave 1110 max 1110 min
Histogram: 1 0 0 0 0 0 0 0 0 0
Neighs:    8520 ave 8520 max 8520 min
Histogram: 1 0 0 0 0 0 0 0 0 0

Total # of neighbors = 8520
Ave neighs/atom = 25.3571
Neighbor list builds = 0
Dangerous builds = 0
        next i
jump SELF loop1
        read_dump orig.dump 0 x y z
  orthogonal box = (0 -0.600957 0) to (4.48985 16.1812 4.48985)
  336 atoms before read
  336 atoms in snapshot
  0 atoms purged
  336 atoms replaced
  0 atoms trimmed
  0 atoms added
  336 atoms after read
        variable stretch equal 1+$i*${strainstep}
        variable stretch equal 1+16*${strainstep}
        variable stretch equal 1+16*-0.0005
        change_box all ${direction} scale ${stretch} remap
        change_box all y scale ${stretch} remap
        change_box all y scale 0.992 remap
  orthogonal box = (0 -0.535493 0) to (4.48985 16.1157 4.48985)
        min_style ${style}
        min_style hftn
        minimize ${etol} ${ftol} ${maxiter} ${maxeval}
        minimize 1e-12 ${ftol} ${maxiter} ${maxeval}
        minimize 1e-12 1e-08 ${maxiter} ${maxeval}
        minimize 1e-12 1e-08 10000 ${maxeval}
        minimize 1e-12 1e-08 10000 20000
WARNING: Resetting reneighboring criteria during minimization (../min.cpp:168)
Memory usage per processor = 4.9009 Mbytes
Step PotEng Pxx Pyy Pxy Lx Ly Lz 
       0   -1874.5923    1.8268965     1.078107 -0.025928522      4.48985    16.651206      4.48985 
       1   -1875.9853    1.4951974  0.050288057 -0.0048195993      4.48985    16.651206      4.48985 
       2   -1875.9921    1.4825828 0.00090240566 0.0017590721      4.48985    16.651206      4.48985 
       3   -1875.9923    1.4820857 -6.6411112e-06 3.4387208e-06      4.48985    16.651206      4.48985 
       4   -1875.9923    1.4820857 -6.6411112e-06 3.4387208e-06      4.48985    16.651206      4.48985 
       5   -1875.9923    1.4820857 -6.6411112e-06 3.4387208e-06      4.48985    16.651206      4.48985 
       6   -1875.9923    1.4820857 -6.6411112e-06 3.4387208e-06      4.48985    16.651206      4.48985 
       7   -1875.9923    1.4820857 -6.6411112e-06 3.4387208e-06      4.48985    16.651206      4.48985 
       8   -1875.9923    1.4820857 -6.6406977e-06 3.4384648e-06      4.48985    16.651206      4.48985 
Loop time of 0.107762 on 1 procs for 7 steps with 336 atoms

Minimization stats:
  Stopping criterion = energy tolerance
  Energy initial, next-to-last, final = 
        -1874.59234034     -1875.99214495     -1875.99229024
  Force two-norm initial, final = 9.09116 0.0014574
  Force max component initial, final = 1.29939 0.000279403
  Final line search alpha, max atom move = 0 0
  Iterations, force evaluations = 7 268

Pair  time (%) = 0.0955525 (88.6699)
Neigh time (%) = 0 (0)
Comm  time (%) = 0.0067981 (6.30844)
Outpt time (%) = 0.000622972 (0.578099)
Other time (%) = 0.00478853 (4.44361)

Nlocal:    336 ave 336 max 336 min
Histogram: 1 0 0 0 0 0 0 0 0 0
Nghost:    1110 ave 1110 max 1110 min
Histogram: 1 0 0 0 0 0 0 0 0 0
Neighs:    8536 ave 8536 max 8536 min
Histogram: 1 0 0 0 0 0 0 0 0 0

Total # of neighbors = 8536
Ave neighs/atom = 25.4048
Neighbor list builds = 0
Dangerous builds = 0
        next i
jump SELF loop1
        read_dump orig.dump 0 x y z
  orthogonal box = (0 -0.600957 0) to (4.48985 16.1812 4.48985)
  336 atoms before read
  336 atoms in snapshot
  0 atoms purged
  336 atoms replaced
  0 atoms trimmed
  0 atoms added
  336 atoms after read
        variable stretch equal 1+$i*${strainstep}
        variable stretch equal 1+17*${strainstep}
        variable stretch equal 1+17*-0.0005
        change_box all ${direction} scale ${stretch} remap
        change_box all y scale ${stretch} remap
        change_box all y scale 0.9915 remap
  orthogonal box = (0 -0.531297 0) to (4.48985 16.1115 4.48985)
        min_style ${style}
        min_style hftn
        minimize ${etol} ${ftol} ${maxiter} ${maxeval}
        minimize 1e-12 ${ftol} ${maxiter} ${maxeval}
        minimize 1e-12 1e-08 ${maxiter} ${maxeval}
        minimize 1e-12 1e-08 10000 ${maxeval}
        minimize 1e-12 1e-08 10000 20000
WARNING: Resetting reneighboring criteria during minimization (../min.cpp:168)
Memory usage per processor = 4.9009 Mbytes
Step PotEng Pxx Pyy Pxy Lx Ly Lz 
       0   -1874.4038    1.8507892    1.1510801 -0.026973307      4.48985    16.642814      4.48985 
       1    -1875.984    1.4986311  0.058162208 -0.0049300764      4.48985    16.642814      4.48985 
       2   -1875.9921    1.4833721 0.0012352571 0.0016536581      4.48985    16.642814      4.48985 
       3   -1875.9923    1.4828183 -2.2071442e-05 1.9660094e-06      4.48985    16.642814      4.48985 
       4   -1875.9923    1.4828317 6.1631997e-09 3.9199535e-09      4.48985    16.642814      4.48985 
       5   -1875.9923    1.4828317 -3.844852e-11 5.574775e-12      4.48985    16.642814      4.48985 
Loop time of 0.13127 on 1 procs for 4 steps with 336 atoms

Minimization stats:
  Stopping criterion = force tolerance
  Energy initial, next-to-last, final = 
        -1874.40380542     -1875.99228947     -1875.99228991
  Force two-norm initial, final = 9.71539 3.29469e-09
  Force max component initial, final = 1.38754 6.9453e-10
  Final line search alpha, max atom move = 0 0
  Iterations, force evaluations = 4 332

Pair  time (%) = 0.115983 (88.3543)
Neigh time (%) = 0 (0)
Comm  time (%) = 0.00870513 (6.63147)
Outpt time (%) = 0.000805015 (0.613251)
Other time (%) = 0.00577715 (4.40097)

Nlocal:    336 ave 336 max 336 min
Histogram: 1 0 0 0 0 0 0 0 0 0
Nghost:    1110 ave 1110 max 1110 min
Histogram: 1 0 0 0 0 0 0 0 0 0
Neighs:    8536 ave 8536 max 8536 min
Histogram: 1 0 0 0 0 0 0 0 0 0

Total # of neighbors = 8536
Ave neighs/atom = 25.4048
Neighbor list builds = 0
Dangerous builds = 0
        next i
jump SELF loop1
        read_dump orig.dump 0 x y z
  orthogonal box = (0 -0.600957 0) to (4.48985 16.1812 4.48985)
  336 atoms before read
  336 atoms in snapshot
  0 atoms purged
  336 atoms replaced
  0 atoms trimmed
  0 atoms added
  336 atoms after read
        variable stretch equal 1+$i*${strainstep}
        variable stretch equal 1+18*${strainstep}
        variable stretch equal 1+18*-0.0005
        change_box all ${direction} scale ${stretch} remap
        change_box all y scale ${stretch} remap
        change_box all y scale 0.991 remap
  orthogonal box = (0 -0.5271 0) to (4.48985 16.1073 4.48985)
        min_style ${style}
        min_style hftn
        minimize ${etol} ${ftol} ${maxiter} ${maxeval}
        minimize 1e-12 ${ftol} ${maxiter} ${maxeval}
        minimize 1e-12 1e-08 ${maxiter} ${maxeval}
        minimize 1e-12 1e-08 10000 ${maxeval}
        minimize 1e-12 1e-08 10000 20000
WARNING: Resetting reneighboring criteria during minimization (../min.cpp:168)
Memory usage per processor = 4.9009 Mbytes
Step PotEng Pxx Pyy Pxy Lx Ly Lz 
       0   -1874.2031    1.8748368    1.2245628 -0.027970391      4.48985    16.634421      4.48985 
       1   -1875.9829    1.5021214  0.066318035 -0.0051573696      4.48985    16.634421      4.48985 
       2   -1875.9921    1.4840958 0.0010612245 0.0016664529      4.48985    16.634421      4.48985 
       3   -1875.9923    1.4835768 -1.6733935e-05 4.0380651e-06      4.48985    16.634421      4.48985 
       4   -1875.9923    1.4835768 -1.6733935e-05 4.0380651e-06      4.48985    16.634421      4.48985 
       5   -1875.9923    1.4835768 -1.6733935e-05 4.0380651e-06      4.48985    16.634421      4.48985 
       6   -1875.9923    1.4835768 -1.6733935e-05 4.0380651e-06      4.48985    16.634421      4.48985 
       7   -1875.9923    1.4835768 -1.6733935e-05 4.0380651e-06      4.48985    16.634421      4.48985 
       8   -1875.9923    1.4835768 -1.6737656e-05 4.0315346e-06      4.48985    16.634421      4.48985 
Loop time of 0.106611 on 1 procs for 7 steps with 336 atoms

Minimization stats:
  Stopping criterion = energy tolerance
  Energy initial, next-to-last, final = 
        -1874.20313322      -1875.9920974     -1875.99229031
  Force two-norm initial, final = 10.3444 0.00213613
  Force max component initial, final = 1.4766 0.000336949
  Final line search alpha, max atom move = 0 0
  Iterations, force evaluations = 7 266

Pair  time (%) = 0.0921653 (86.4502)
Neigh time (%) = 0 (0)
Comm  time (%) = 0.0086099 (8.076)
Outpt time (%) = 0.000448622 (0.420803)
Other time (%) = 0.00538706 (5.05301)

Nlocal:    336 ave 336 max 336 min
Histogram: 1 0 0 0 0 0 0 0 0 0
Nghost:    1110 ave 1110 max 1110 min
Histogram: 1 0 0 0 0 0 0 0 0 0
Neighs:    8568 ave 8568 max 8568 min
Histogram: 1 0 0 0 0 0 0 0 0 0

Total # of neighbors = 8568
Ave neighs/atom = 25.5
Neighbor list builds = 0
Dangerous builds = 0
        next i
jump SELF loop1
        read_dump orig.dump 0 x y z
  orthogonal box = (0 -0.600957 0) to (4.48985 16.1812 4.48985)
  336 atoms before read
  336 atoms in snapshot
  0 atoms purged
  336 atoms replaced
  0 atoms trimmed
  0 atoms added
  336 atoms after read
        variable stretch equal 1+$i*${strainstep}
        variable stretch equal 1+19*${strainstep}
        variable stretch equal 1+19*-0.0005
        change_box all ${direction} scale ${stretch} remap
        change_box all y scale ${stretch} remap
        change_box all y scale 0.9905 remap
  orthogonal box = (0 -0.522904 0) to (4.48985 16.1031 4.48985)
        min_style ${style}
        min_style hftn
        minimize ${etol} ${ftol} ${maxiter} ${maxeval}
        minimize 1e-12 ${ftol} ${maxiter} ${maxeval}
        minimize 1e-12 1e-08 ${maxiter} ${maxeval}
        minimize 1e-12 1e-08 10000 ${maxeval}
        minimize 1e-12 1e-08 10000 20000
WARNING: Resetting reneighboring criteria during minimization (../min.cpp:168)
Memory usage per processor = 4.9009 Mbytes
Step PotEng Pxx Pyy Pxy Lx Ly Lz 
       0   -1873.9895    1.8990479    1.2985919 -0.028920855      4.48985    16.626028      4.48985 
       1    -1875.981    1.5048354  0.073093776 -0.0058514644      4.48985    16.626028      4.48985 
       2   -1875.9921     1.484975 0.0010963411 0.0018335692      4.48985    16.626028      4.48985 
       3   -1875.9923    1.4843297 4.7563405e-08 -1.3336469e-06      4.48985    16.626028      4.48985 
       4   -1875.9923    1.4843287 -3.4927738e-09 1.2493495e-09      4.48985    16.626028      4.48985 
       5   -1875.9923    1.4843287 -6.1452508e-13 -8.1626039e-13      4.48985    16.626028      4.48985 
Loop time of 0.13478 on 1 procs for 4 steps with 336 atoms

Minimization stats:
  Stopping criterion = force tolerance
  Energy initial, next-to-last, final = 
        -1873.98951454       -1875.992289     -1875.99228991
  Force two-norm initial, final = 10.9773 1.11441e-09
  Force max component initial, final = 1.56616 2.1863e-10
  Final line search alpha, max atom move = 0 0
  Iterations, force evaluations = 4 346

Pair  time (%) = 0.12336 (91.5266)
Neigh time (%) = 0 (0)
Comm  time (%) = 0.00453093 (3.36172)
Outpt time (%) = 0.000191741 (0.142262)
Other time (%) = 0.00669785 (4.96946)

Nlocal:    336 ave 336 max 336 min
Histogram: 1 0 0 0 0 0 0 0 0 0
Nghost:    1110 ave 1110 max 1110 min
Histogram: 1 0 0 0 0 0 0 0 0 0
Neighs:    8568 ave 8568 max 8568 min
Histogram: 1 0 0 0 0 0 0 0 0 0

Total # of neighbors = 8568
Ave neighs/atom = 25.5
Neighbor list builds = 0
Dangerous builds = 0
        next i
jump SELF loop1
        read_dump orig.dump 0 x y z
  orthogonal box = (0 -0.600957 0) to (4.48985 16.1812 4.48985)
  336 atoms before read
  336 atoms in snapshot
  0 atoms purged
  336 atoms replaced
  0 atoms trimmed
  0 atoms added
  336 atoms after read
        variable stretch equal 1+$i*${strainstep}
        variable stretch equal 1+20*${strainstep}
        variable stretch equal 1+20*-0.0005
        change_box all ${direction} scale ${stretch} remap
        change_box all y scale ${stretch} remap
        change_box all y scale 0.99 remap
  orthogonal box = (0 -0.518707 0) to (4.48985 16.0989 4.48985)
        min_style ${style}
        min_style hftn
        minimize ${etol} ${ftol} ${maxiter} ${maxeval}
        minimize 1e-12 ${ftol} ${maxiter} ${maxeval}
        minimize 1e-12 1e-08 ${maxiter} ${maxeval}
        minimize 1e-12 1e-08 10000 ${maxeval}
        minimize 1e-12 1e-08 10000 20000
WARNING: Resetting reneighboring criteria during minimization (../min.cpp:168)
Memory usage per processor = 4.9009 Mbytes
Step PotEng Pxx Pyy Pxy Lx Ly Lz 
       0   -1873.7633    1.9234124    1.3731578 -0.029813078      4.48985    16.617635      4.48985 
       1   -1875.9791     1.508611  0.082408966 -0.0061512855      4.48985    16.617635      4.48985 
       2   -1875.9921    1.4856675 0.0012461885 0.0017022382      4.48985    16.617635      4.48985 
       3   -1875.9923    1.4850874 -4.260619e-06 6.1239028e-06      4.48985    16.617635      4.48985 
       4   -1875.9923    1.4850874 -4.260619e-06 6.1239028e-06      4.48985    16.617635      4.48985 
       5   -1875.9923    1.4850856 -3.3298258e-06 6.4904262e-06      4.48985    16.617635      4.48985 
       6   -1875.9923    1.4850856 -3.3298258e-06 6.4904262e-06      4.48985    16.617635      4.48985 
       7   -1875.9923    1.4850856 -3.3298258e-06 6.4904262e-06      4.48985    16.617635      4.48985 
       8   -1875.9923    1.4850856 -3.3298258e-06 6.4904262e-06      4.48985    16.617635      4.48985 
       9   -1875.9923    1.4850856 -3.3298258e-06 6.4904262e-06      4.48985    16.617635      4.48985 
      10   -1875.9923    1.4850856 -3.3267165e-06 6.4898515e-06      4.48985    16.617635      4.48985 
Loop time of 0.166515 on 1 procs for 9 steps with 336 atoms

Minimization stats:
  Stopping criterion = energy tolerance
  Energy initial, next-to-last, final = 
        -1873.76329827     -1875.99229075     -1875.99229096
  Force two-norm initial, final = 11.6146 0.0013055
  Force max component initial, final = 1.65651 0.000260239
  Final line search alpha, max atom move = 0 0
  Iterations, force evaluations = 9 280

Pair  time (%) = 0.14917 (89.5836)
Neigh time (%) = 0 (0)
Comm  time (%) = 0.00769376 (4.62046)
Outpt time (%) = 0.004811 (2.88923)
Other time (%) = 0.00484004 (2.90667)

Nlocal:    336 ave 336 max 336 min
Histogram: 1 0 0 0 0 0 0 0 0 0
Nghost:    1110 ave 1110 max 1110 min
Histogram: 1 0 0 0 0 0 0 0 0 0
Neighs:    8568 ave 8568 max 8568 min
Histogram: 1 0 0 0 0 0 0 0 0 0

Total # of neighbors = 8568
Ave neighs/atom = 25.5
Neighbor list builds = 0
Dangerous builds = 0
        next i
jump SELF loop1
        read_dump orig.dump 0 x y z
  orthogonal box = (0 -0.600957 0) to (4.48985 16.1812 4.48985)
  336 atoms before read
  336 atoms in snapshot
  0 atoms purged
  336 atoms replaced
  0 atoms trimmed
  0 atoms added
  336 atoms after read
        variable stretch equal 1+$i*${strainstep}
        variable stretch equal 1+21*${strainstep}
        variable stretch equal 1+21*-0.0005
        change_box all ${direction} scale ${stretch} remap
        change_box all y scale ${stretch} remap
        change_box all y scale 0.9895 remap
  orthogonal box = (0 -0.514511 0) to (4.48985 16.0947 4.48985)
        min_style ${style}
        min_style hftn
        minimize ${etol} ${ftol} ${maxiter} ${maxeval}
        minimize 1e-12 ${ftol} ${maxiter} ${maxeval}
        minimize 1e-12 1e-08 ${maxiter} ${maxeval}
        minimize 1e-12 1e-08 10000 ${maxeval}
        minimize 1e-12 1e-08 10000 20000
WARNING: Resetting reneighboring criteria during minimization (../min.cpp:168)
Memory usage per processor = 4.9009 Mbytes
Step PotEng Pxx Pyy Pxy Lx Ly Lz 
       0   -1873.5245    1.9479394    1.4482459 -0.030664784      4.48985    16.609243      4.48985 
       1   -1875.9773    1.5126457  0.091921551 -0.0059894474      4.48985    16.609243      4.48985 
       2   -1875.9921     1.486605 0.0014067342 0.0018759142      4.48985    16.609243      4.48985 
       3   -1875.9923    1.4858277 -1.5705999e-05 7.3231252e-06      4.48985    16.609243      4.48985 
       4   -1875.9923    1.4858288 -2.8461626e-09 -5.6319907e-09      4.48985    16.609243      4.48985 
       5   -1875.9923    1.4858288 -4.7927823e-11 1.0681491e-11      4.48985    16.609243      4.48985 
Loop time of 0.132844 on 1 procs for 4 steps with 336 atoms

Minimization stats:
  Stopping criterion = force tolerance
  Energy initial, next-to-last, final = 
        -1873.52449908     -1875.99228787     -1875.99228991
  Force two-norm initial, final = 12.2559 2.25348e-09
  Force max component initial, final = 1.74734 4.47155e-10
  Final line search alpha, max atom move = 0 0
  Iterations, force evaluations = 4 346

Pair  time (%) = 0.117255 (88.2649)
Neigh time (%) = 0 (0)
Comm  time (%) = 0.00667644 (5.02577)
Outpt time (%) = 0.000411934 (0.310089)
Other time (%) = 0.00850095 (6.39919)

Nlocal:    336 ave 336 max 336 min
Histogram: 1 0 0 0 0 0 0 0 0 0
Nghost:    1110 ave 1110 max 1110 min
Histogram: 1 0 0 0 0 0 0 0 0 0
Neighs:    8568 ave 8568 max 8568 min
Histogram: 1 0 0 0 0 0 0 0 0 0

Total # of neighbors = 8568
Ave neighs/atom = 25.5
Neighbor list builds = 0
Dangerous builds = 0
        next i
jump SELF loop1
        read_dump orig.dump 0 x y z
  orthogonal box = (0 -0.600957 0) to (4.48985 16.1812 4.48985)
  336 atoms before read
  336 atoms in snapshot
  0 atoms purged
  336 atoms replaced
  0 atoms trimmed
  0 atoms added
  336 atoms after read
        variable stretch equal 1+$i*${strainstep}
        variable stretch equal 1+22*${strainstep}
        variable stretch equal 1+22*-0.0005
        change_box all ${direction} scale ${stretch} remap
        change_box all y scale ${stretch} remap
        change_box all y scale 0.989 remap
  orthogonal box = (0 -0.510315 0) to (4.48985 16.0905 4.48985)
        min_style ${style}
        min_style hftn
        minimize ${etol} ${ftol} ${maxiter} ${maxeval}
        minimize 1e-12 ${ftol} ${maxiter} ${maxeval}
        minimize 1e-12 1e-08 ${maxiter} ${maxeval}
        minimize 1e-12 1e-08 10000 ${maxeval}
        minimize 1e-12 1e-08 10000 20000
WARNING: Resetting reneighboring criteria during minimization (../min.cpp:168)
Memory usage per processor = 4.9009 Mbytes
Step PotEng Pxx Pyy Pxy Lx Ly Lz 
       0   -1873.2733    1.9726206    1.5238556   -0.0314677      4.48985     16.60085      4.48985 
       1   -1875.9743    1.5167292   0.10257411 -0.0063674177      4.48985     16.60085      4.48985 
       2   -1875.9921    1.4874731 0.0017819133 0.0018276038      4.48985     16.60085      4.48985 
       3   -1875.9923    1.4865783 -3.4798546e-06 2.2957653e-06      4.48985     16.60085      4.48985 
       4   -1875.9923    1.4865783 -3.4798546e-06 2.2957653e-06      4.48985     16.60085      4.48985 
       5   -1875.9923    1.4865783 -3.4798546e-06 2.2957653e-06      4.48985     16.60085      4.48985 
       6   -1875.9923    1.4865783 -3.4798546e-06 2.2957653e-06      4.48985     16.60085      4.48985 
       7   -1875.9923    1.4865783 -3.4798546e-06 2.2957653e-06      4.48985     16.60085      4.48985 
       8   -1875.9923    1.4865783 -3.4798546e-06 2.2957653e-06      4.48985     16.60085      4.48985 
       9   -1875.9923    1.4865783 -3.4788095e-06 2.2956394e-06      4.48985     16.60085      4.48985 
Loop time of 0.111622 on 1 procs for 8 steps with 336 atoms

Minimization stats:
  Stopping criterion = energy tolerance
  Energy initial, next-to-last, final = 
        -1873.27327136     -1875.99213398     -1875.99228992
  Force two-norm initial, final = 12.9014 0.00236078
  Force max component initial, final = 1.83892 0.000457589
  Final line search alpha, max atom move = 0 0
  Iterations, force evaluations = 8 277

Pair  time (%) = 0.0968512 (86.7671)
Neigh time (%) = 0 (0)
Comm  time (%) = 0.00918029 (8.22445)
Outpt time (%) = 0.000646917 (0.57956)
Other time (%) = 0.0049436 (4.42887)

Nlocal:    336 ave 336 max 336 min
Histogram: 1 0 0 0 0 0 0 0 0 0
Nghost:    1110 ave 1110 max 1110 min
Histogram: 1 0 0 0 0 0 0 0 0 0
Neighs:    8568 ave 8568 max 8568 min
Histogram: 1 0 0 0 0 0 0 0 0 0

Total # of neighbors = 8568
Ave neighs/atom = 25.5
Neighbor list builds = 0
Dangerous builds = 0
        next i
jump SELF loop1
        read_dump orig.dump 0 x y z
  orthogonal box = (0 -0.600957 0) to (4.48985 16.1812 4.48985)
  336 atoms before read
  336 atoms in snapshot
  0 atoms purged
  336 atoms replaced
  0 atoms trimmed
  0 atoms added
  336 atoms after read
        variable stretch equal 1+$i*${strainstep}
        variable stretch equal 1+23*${strainstep}
        variable stretch equal 1+23*-0.0005
        change_box all ${direction} scale ${stretch} remap
        change_box all y scale ${stretch} remap
        change_box all y scale 0.9885 remap
  orthogonal box = (0 -0.506118 0) to (4.48985 16.0863 4.48985)
        min_style ${style}
        min_style hftn
        minimize ${etol} ${ftol} ${maxiter} ${maxeval}
        minimize 1e-12 ${ftol} ${maxiter} ${maxeval}
        minimize 1e-12 1e-08 ${maxiter} ${maxeval}
        minimize 1e-12 1e-08 10000 ${maxeval}
        minimize 1e-12 1e-08 10000 20000
WARNING: Resetting reneighboring criteria during minimization (../min.cpp:168)
Memory usage per processor = 4.9009 Mbytes
Step PotEng Pxx Pyy Pxy Lx Ly Lz 
       0   -1873.0093    1.9974608    1.6000007 -0.032221971      4.48985    16.592457      4.48985 
       1   -1875.9718    1.5206493   0.11214059 -0.0063467495      4.48985    16.592457      4.48985 
       2   -1875.9921    1.4882805  0.001906355 0.0018408575      4.48985    16.592457      4.48985 
       3   -1875.9923    1.4873317 -1.3036048e-05 6.2694162e-06      4.48985    16.592457      4.48985 
       4   -1875.9923    1.4873319 -1.4277609e-08 -6.8770144e-09      4.48985    16.592457      4.48985 
       5   -1875.9923    1.4873319 -1.3516236e-10 1.848829e-11      4.48985    16.592457      4.48985 
Loop time of 0.136341 on 1 procs for 4 steps with 336 atoms

Minimization stats:
  Stopping criterion = force tolerance
  Energy initial, next-to-last, final = 
        -1873.00927721     -1875.99228821     -1875.99228991
  Force two-norm initial, final = 13.5507 2.02501e-09
  Force max component initial, final = 1.93103 3.41537e-10
  Final line search alpha, max atom move = 0 0
  Iterations, force evaluations = 4 342

Pair  time (%) = 0.125074 (91.7362)
Neigh time (%) = 0 (0)
Comm  time (%) = 0.00492734 (3.61399)
Outpt time (%) = 0.000242956 (0.178198)
Other time (%) = 0.00609665 (4.47162)

Nlocal:    336 ave 336 max 336 min
Histogram: 1 0 0 0 0 0 0 0 0 0
Nghost:    1110 ave 1110 max 1110 min
Histogram: 1 0 0 0 0 0 0 0 0 0
Neighs:    8568 ave 8568 max 8568 min
Histogram: 1 0 0 0 0 0 0 0 0 0

Total # of neighbors = 8568
Ave neighs/atom = 25.5
Neighbor list builds = 0
Dangerous builds = 0
        next i
jump SELF loop1
        read_dump orig.dump 0 x y z
  orthogonal box = (0 -0.600957 0) to (4.48985 16.1812 4.48985)
  336 atoms before read
  336 atoms in snapshot
  0 atoms purged
  336 atoms replaced
  0 atoms trimmed
  0 atoms added
  336 atoms after read
        variable stretch equal 1+$i*${strainstep}
        variable stretch equal 1+24*${strainstep}
        variable stretch equal 1+24*-0.0005
        change_box all ${direction} scale ${stretch} remap
        change_box all y scale ${stretch} remap
        change_box all y scale 0.988 remap
  orthogonal box = (0 -0.501922 0) to (4.48985 16.0821 4.48985)
        min_style ${style}
        min_style hftn
        minimize ${etol} ${ftol} ${maxiter} ${maxeval}
        minimize 1e-12 ${ftol} ${maxiter} ${maxeval}
        minimize 1e-12 1e-08 ${maxiter} ${maxeval}
        minimize 1e-12 1e-08 10000 ${maxeval}
        minimize 1e-12 1e-08 10000 20000
WARNING: Resetting reneighboring criteria during minimization (../min.cpp:168)
Memory usage per processor = 4.9009 Mbytes
Step PotEng Pxx Pyy Pxy Lx Ly Lz 
       0   -1872.7321    2.0224632     1.676701 -0.032918296      4.48985    16.584064      4.48985 
       1   -1875.9688    1.5244409   0.12082908 -0.0070485272      4.48985    16.584064      4.48985 
       2   -1875.9921    1.4891211  0.002133289 0.0017839989      4.48985    16.584064      4.48985 
       3   -1875.9923    1.4880863 -1.2272167e-05 6.5398688e-06      4.48985    16.584064      4.48985 
       4   -1875.9923    1.4880846 -1.7626337e-08 -4.6602732e-09      4.48985    16.584064      4.48985 
       5   -1875.9923    1.4880846 -1.0950639e-10 8.5329069e-12      4.48985    16.584064      4.48985 
Loop time of 0.131374 on 1 procs for 4 steps with 336 atoms

Minimization stats:
  Stopping criterion = force tolerance
  Energy initial, next-to-last, final = 
        -1872.73208044     -1875.99228767     -1875.99228991
  Force two-norm initial, final = 14.2046 3.7612e-09
  Force max component initial, final = 2.024 7.65206e-10
  Final line search alpha, max atom move = 0 0
  Iterations, force evaluations = 4 340

Pair  time (%) = 0.117958 (89.7882)
Neigh time (%) = 0 (0)
Comm  time (%) = 0.00716644 (5.45499)
Outpt time (%) = 0.000205847 (0.156688)
Other time (%) = 0.00604339 (4.60014)

Nlocal:    336 ave 336 max 336 min
Histogram: 1 0 0 0 0 0 0 0 0 0
Nghost:    1110 ave 1110 max 1110 min
Histogram: 1 0 0 0 0 0 0 0 0 0
Neighs:    8568 ave 8568 max 8568 min
Histogram: 1 0 0 0 0 0 0 0 0 0

Total # of neighbors = 8568
Ave neighs/atom = 25.5
Neighbor list builds = 0
Dangerous builds = 0
        next i
jump SELF loop1
        read_dump orig.dump 0 x y z
  orthogonal box = (0 -0.600957 0) to (4.48985 16.1812 4.48985)
  336 atoms before read
  336 atoms in snapshot
  0 atoms purged
  336 atoms replaced
  0 atoms trimmed
  0 atoms added
  336 atoms after read
        variable stretch equal 1+$i*${strainstep}
        variable stretch equal 1+25*${strainstep}
        variable stretch equal 1+25*-0.0005
        change_box all ${direction} scale ${stretch} remap
        change_box all y scale ${stretch} remap
        change_box all y scale 0.9875 remap
  orthogonal box = (0 -0.497726 0) to (4.48985 16.0779 4.48985)
        min_style ${style}
        min_style hftn
        minimize ${etol} ${ftol} ${maxiter} ${maxeval}
        minimize 1e-12 ${ftol} ${maxiter} ${maxeval}
        minimize 1e-12 1e-08 ${maxiter} ${maxeval}
        minimize 1e-12 1e-08 10000 ${maxeval}
        minimize 1e-12 1e-08 10000 20000
WARNING: Resetting reneighboring criteria during minimization (../min.cpp:168)
Memory usage per processor = 4.9009 Mbytes
Step PotEng Pxx Pyy Pxy Lx Ly Lz 
       0   -1872.4419    2.0476291    1.7539505 -0.033560361      4.48985    16.575672      4.48985 
       1   -1875.9654    1.5289633   0.13209261 -0.0068085488      4.48985    16.575672      4.48985 
       2   -1875.9921    1.4899531 0.0022834032  0.001820586      4.48985    16.575672      4.48985 
       3   -1875.9923    1.4888378 -1.6797868e-05 1.0343442e-05      4.48985    16.575672      4.48985 
       4   -1875.9923    1.4888381 -1.413287e-08 -8.4695816e-09      4.48985    16.575672      4.48985 
       5   -1875.9923    1.4888381 -2.0370883e-10 1.144383e-11      4.48985    16.575672      4.48985 
Loop time of 0.129717 on 1 procs for 4 steps with 336 atoms

Minimization stats:
  Stopping criterion = force tolerance
  Energy initial, next-to-last, final = 
        -1872.44187397     -1875.99228764     -1875.99228991
  Force two-norm initial, final = 14.8629 4.24696e-09
  Force max component initial, final = 2.11757 6.42223e-10
  Final line search alpha, max atom move = 0 0
  Iterations, force evaluations = 4 340

Pair  time (%) = 0.117563 (90.6301)
Neigh time (%) = 0 (0)
Comm  time (%) = 0.00568684 (4.38404)
Outpt time (%) = 0.000296898 (0.228881)
Other time (%) = 0.00617059 (4.75697)

Nlocal:    336 ave 336 max 336 min
Histogram: 1 0 0 0 0 0 0 0 0 0
[...]
Outpt time (%) = 0.000520319 (0.26797)
Other time (%) = 0.00930884 (4.79414)

Nlocal:    336 ave 336 max 336 min
Histogram: 1 0 0 0 0 0 0 0 0 0
Nghost:    1110 ave 1110 max 1110 min
Histogram: 1 0 0 0 0 0 0 0 0 0
Neighs:    8504 ave 8504 max 8504 min
Histogram: 1 0 0 0 0 0 0 0 0 0

Total # of neighbors = 8504
Ave neighs/atom = 25.3095
Neighbor list builds = 2
Dangerous builds = 0
        next i
jump SELF loop1
        read_dump orig.dump 0 x y z
  orthogonal box = (0 -0.600957 0) to (4.48985 16.1812 4.48985)
  336 atoms before read
  336 atoms in snapshot
  0 atoms purged
  336 atoms replaced
  0 atoms trimmed
  0 atoms added
  336 atoms after read
        variable stretch equal 1+$i*${strainstep}
        variable stretch equal 1+95*${strainstep}
        variable stretch equal 1+95*-0.0005
        change_box all ${direction} scale ${stretch} remap
        change_box all y scale ${stretch} remap
        change_box all y scale 0.9525 remap
  orthogonal box = (0 -0.20398 0) to (4.48985 15.7842 4.48985)
        min_style ${style}
        min_style hftn
        minimize ${etol} ${ftol} ${maxiter} ${maxeval}
        minimize 1e-12 ${ftol} ${maxiter} ${maxeval}
        minimize 1e-12 1e-08 ${maxiter} ${maxeval}
        minimize 1e-12 1e-08 10000 ${maxeval}
        minimize 1e-12 1e-08 10000 20000
WARNING: Resetting reneighboring criteria during minimization (../min.cpp:168)
Memory usage per processor = 4.9009 Mbytes
Step PotEng Pxx Pyy Pxy Lx Ly Lz 
       0   -1813.9074    4.2614531    8.6715151  0.070591693      4.48985    15.988179      4.48985 
       1   -1831.7456    3.7121743    6.4337517  0.046849628      4.48985    15.988179      4.48985 
       2   -1850.1611     2.995215    4.6380548  0.061876534      4.48985    16.327542      4.48985 
       3    -1862.495    2.4943209    3.1100885  0.034058411      4.48985    16.327542      4.48985 
       4   -1871.3748    1.9906001    1.5341528  0.036507663      4.48985    16.327542      4.48985 
       5    -1875.928    1.5209598   0.14418468  0.004192864      4.48985     16.76412      4.48985 
       6   -1875.9919    1.4719442 0.0010891777 -0.0007585272      4.48985     16.76412      4.48985 
       7   -1875.9923    1.4720536 -0.00014304954 5.3923058e-05      4.48985     16.76412      4.48985 
       8   -1875.9923    1.4721018 6.7702202e-08 -4.6103908e-09      4.48985     16.76412      4.48985 
       9   -1875.9923    1.4721018 -3.218408e-10 1.3019792e-10      4.48985     16.76412      4.48985 
      10   -1875.9923    1.4721018 9.9189345e-13 1.5126055e-13      4.48985     16.76412      4.48985 
Loop time of 0.199125 on 1 procs for 9 steps with 336 atoms

Minimization stats:
  Stopping criterion = force tolerance
  Energy initial, next-to-last, final = 
        -1813.90739938      -1875.9922637     -1875.99228991
  Force two-norm initial, final = 74.0534 1.8515e-10
  Force max component initial, final = 10.6012 6.01252e-11
  Final line search alpha, max atom move = 0 0
  Iterations, force evaluations = 9 516

Pair  time (%) = 0.16875 (84.7459)
Neigh time (%) = 0.000878933 (0.441398)
Comm  time (%) = 0.0199302 (10.0089)
Outpt time (%) = 0.000502828 (0.252519)
Other time (%) = 0.00906281 (4.55132)

Nlocal:    336 ave 336 max 336 min
Histogram: 1 0 0 0 0 0 0 0 0 0
Nghost:    1110 ave 1110 max 1110 min
Histogram: 1 0 0 0 0 0 0 0 0 0
Neighs:    8504 ave 8504 max 8504 min
Histogram: 1 0 0 0 0 0 0 0 0 0

Total # of neighbors = 8504
Ave neighs/atom = 25.3095
Neighbor list builds = 2
Dangerous builds = 0
        next i
jump SELF loop1
        read_dump orig.dump 0 x y z
  orthogonal box = (0 -0.600957 0) to (4.48985 16.1812 4.48985)
  336 atoms before read
  336 atoms in snapshot
  0 atoms purged
  336 atoms replaced
  0 atoms trimmed
  0 atoms added
  336 atoms after read
        variable stretch equal 1+$i*${strainstep}
        variable stretch equal 1+96*${strainstep}
        variable stretch equal 1+96*-0.0005
        change_box all ${direction} scale ${stretch} remap
        change_box all y scale ${stretch} remap
        change_box all y scale 0.952 remap
  orthogonal box = (0 -0.199783 0) to (4.48985 15.78 4.48985)
        min_style ${style}
        min_style hftn
        minimize ${etol} ${ftol} ${maxiter} ${maxeval}
        minimize 1e-12 ${ftol} ${maxiter} ${maxeval}
        minimize 1e-12 1e-08 ${maxiter} ${maxeval}
        minimize 1e-12 1e-08 10000 ${maxeval}
        minimize 1e-12 1e-08 10000 20000
WARNING: Resetting reneighboring criteria during minimization (../min.cpp:168)
Memory usage per processor = 4.9009 Mbytes
Step PotEng Pxx Pyy Pxy Lx Ly Lz 
       0   -1812.4299    4.3007811    8.7957573  0.075382089      4.48985    15.979787      4.48985 
       1   -1830.7146     3.743375    6.5240321  0.048621355      4.48985    15.979787      4.48985 
       2   -1849.6176    3.0142319    4.6978312  0.063579662      4.48985    16.322602      4.48985 
       3   -1862.2077    2.5058472    3.1450702  0.034078599      4.48985    16.322602      4.48985 
       4   -1871.2781    1.9960743    1.5521454  0.036817505      4.48985    16.322602      4.48985 
       5   -1875.9261    1.5214994   0.14674506 0.0033733824      4.48985    16.763981      4.48985 
       6   -1875.9919    1.4719769 0.0011627606 -0.00077078438      4.48985    16.763981      4.48985 
       7   -1875.9923    1.4719941 -0.00045585477 0.00025296057      4.48985    16.763981      4.48985 
       8   -1875.9923     1.472114 9.7222418e-09 1.3783997e-08      4.48985    16.763981      4.48985 
       9   -1875.9923     1.472114 2.1898005e-10 1.9012875e-11      4.48985    16.763981      4.48985 
      10   -1875.9923     1.472114 3.2727499e-13 1.7369206e-13      4.48985    16.763981      4.48985 
Loop time of 0.194753 on 1 procs for 9 steps with 336 atoms

Minimization stats:
  Stopping criterion = force tolerance
  Energy initial, next-to-last, final = 
         -1812.4299106     -1875.99225919     -1875.99228991
  Force two-norm initial, final = 75.1222 5.71246e-11
  Force max component initial, final = 10.7544 1.56891e-11
  Final line search alpha, max atom move = 0 0
  Iterations, force evaluations = 9 498

Pair  time (%) = 0.171128 (87.8692)
Neigh time (%) = 0.000470789 (0.241736)
Comm  time (%) = 0.0129657 (6.65754)
Outpt time (%) = 0.000557426 (0.286222)
Other time (%) = 0.00963116 (4.94532)

Nlocal:    336 ave 336 max 336 min
Histogram: 1 0 0 0 0 0 0 0 0 0
Nghost:    1110 ave 1110 max 1110 min
Histogram: 1 0 0 0 0 0 0 0 0 0
Neighs:    8504 ave 8504 max 8504 min
Histogram: 1 0 0 0 0 0 0 0 0 0

Total # of neighbors = 8504
Ave neighs/atom = 25.3095
Neighbor list builds = 2
Dangerous builds = 0
        next i
jump SELF loop1
        read_dump orig.dump 0 x y z
  orthogonal box = (0 -0.600957 0) to (4.48985 16.1812 4.48985)
  336 atoms before read
  336 atoms in snapshot
  0 atoms purged
  336 atoms replaced
  0 atoms trimmed
  0 atoms added
  336 atoms after read
        variable stretch equal 1+$i*${strainstep}
        variable stretch equal 1+97*${strainstep}
        variable stretch equal 1+97*-0.0005
        change_box all ${direction} scale ${stretch} remap
        change_box all y scale ${stretch} remap
        change_box all y scale 0.9515 remap
  orthogonal box = (0 -0.195587 0) to (4.48985 15.7758 4.48985)
        min_style ${style}
        min_style hftn
        minimize ${etol} ${ftol} ${maxiter} ${maxeval}
        minimize 1e-12 ${ftol} ${maxiter} ${maxeval}
        minimize 1e-12 1e-08 ${maxiter} ${maxeval}
        minimize 1e-12 1e-08 10000 ${maxeval}
        minimize 1e-12 1e-08 10000 20000
WARNING: Resetting reneighboring criteria during minimization (../min.cpp:168)
Memory usage per processor = 4.9009 Mbytes
Step PotEng Pxx Pyy Pxy Lx Ly Lz 
       0   -1810.9317    4.3403598    8.9208024   0.08028658      4.48985    15.971394      4.48985 
       1    -1829.651    3.7754173    6.6177771  0.049988178      4.48985    15.971394      4.48985 
       2   -1849.0887    3.0330008    4.7582633  0.064571291      4.48985    16.317919      4.48985 
       3   -1861.9557    2.5156709    3.1746518   0.03393348      4.48985    16.317919      4.48985 
       4   -1871.1545    2.0045245    1.5765099  0.038330017      4.48985    16.317919      4.48985 
       5   -1875.9208    1.5233955   0.15172086 0.0045401314      4.48985     16.76337      4.48985 
       6   -1875.9919    1.4715286 0.00047947654 -0.0012003976      4.48985     16.76337      4.48985 
       7   -1875.9923     1.472085 -0.00028940452 7.4186578e-05      4.48985     16.76337      4.48985 
       8   -1875.9923    1.4721677 7.1482893e-08 -8.3092339e-08      4.48985     16.76337      4.48985 
       9   -1875.9923    1.4721677 -4.3746672e-10 -3.7092064e-10      4.48985     16.76337      4.48985 
Loop time of 0.157102 on 1 procs for 8 steps with 336 atoms

Minimization stats:
  Stopping criterion = force tolerance
  Energy initial, next-to-last, final = 
        -1810.93172709     -1875.99228491     -1875.99228991
  Force two-norm initial, final = 76.1992 7.50089e-09
  Force max component initial, final = 10.9087 1.28912e-09
  Final line search alpha, max atom move = 0 0
  Iterations, force evaluations = 8 409

Pair  time (%) = 0.138392 (88.0903)
Neigh time (%) = 0.000895823 (0.570217)
Comm  time (%) = 0.00827879 (5.26969)
Outpt time (%) = 0.000589226 (0.37506)
Other time (%) = 0.00894649 (5.6947)

Nlocal:    336 ave 336 max 336 min
Histogram: 1 0 0 0 0 0 0 0 0 0
Nghost:    1110 ave 1110 max 1110 min
Histogram: 1 0 0 0 0 0 0 0 0 0
Neighs:    8504 ave 8504 max 8504 min
Histogram: 1 0 0 0 0 0 0 0 0 0

Total # of neighbors = 8504
Ave neighs/atom = 25.3095
Neighbor list builds = 2
Dangerous builds = 0
        next i
jump SELF loop1
        read_dump orig.dump 0 x y z
  orthogonal box = (0 -0.600957 0) to (4.48985 16.1812 4.48985)
  336 atoms before read
  336 atoms in snapshot
  0 atoms purged
  336 atoms replaced
  0 atoms trimmed
  0 atoms added
  336 atoms after read
        variable stretch equal 1+$i*${strainstep}
        variable stretch equal 1+98*${strainstep}
        variable stretch equal 1+98*-0.0005
        change_box all ${direction} scale ${stretch} remap
        change_box all y scale ${stretch} remap
        change_box all y scale 0.951 remap
  orthogonal box = (0 -0.191391 0) to (4.48985 15.7716 4.48985)
        min_style ${style}
        min_style hftn
        minimize ${etol} ${ftol} ${maxiter} ${maxeval}
        minimize 1e-12 ${ftol} ${maxiter} ${maxeval}
        minimize 1e-12 1e-08 ${maxiter} ${maxeval}
        minimize 1e-12 1e-08 10000 ${maxeval}
        minimize 1e-12 1e-08 10000 20000
WARNING: Resetting reneighboring criteria during minimization (../min.cpp:168)
Memory usage per processor = 4.9009 Mbytes
Step PotEng Pxx Pyy Pxy Lx Ly Lz 
       0   -1809.4118     4.380187    9.0467059  0.085335996      4.48985    15.963001      4.48985 
       1   -1828.5809     3.807918     6.710912  0.051319039      4.48985    15.963001      4.48985 
       2   -1838.5878    3.4587075    6.0995282  0.067161829      4.48985    15.963001      4.48985 
       3   -1853.1937    2.8826628    3.7328985 -0.025190498      4.48985     16.38219      4.48985 
       4    -1862.418    2.6001694    3.3391744 -0.0056366344      4.48985     16.38219      4.48985 
       5   -1868.8316    2.1953867    2.0623809 -0.0050788419      4.48985     16.38219      4.48985 
       6   -1875.0984    1.6533087   0.58567576 -0.031847472      4.48985    16.705159      4.48985 
       7   -1875.9891    1.4845124  0.025395176 -0.0014683855      4.48985    16.705159      4.48985 
       8   -1875.9923    1.4775445 4.0047933e-05 0.0015507271      4.48985    16.705159      4.48985 
       9   -1875.9923    1.4775445 4.0047933e-05 0.0015507271      4.48985    16.705159      4.48985 
      10   -1875.9923    1.4775445 4.0047933e-05 0.0015507271      4.48985    16.705159      4.48985 
      11   -1875.9923    1.4775445 4.0047933e-05 0.0015507271      4.48985    16.705159      4.48985 
      12   -1875.9923    1.4775445 4.0047933e-05 0.0015507271      4.48985    16.705159      4.48985 
      13   -1875.9923    1.4775432 3.6002459e-05 0.0015502395      4.48985    16.705159      4.48985 
      14   -1875.9923    1.4775432 3.6002459e-05 0.0015502395      4.48985    16.705159      4.48985 
      15   -1875.9923    1.4775423 3.3842819e-05 0.0015495954      4.48985    16.705159      4.48985 
Loop time of 0.159726 on 1 procs for 14 steps with 336 atoms

Minimization stats:
  Stopping criterion = energy tolerance
  Energy initial, next-to-last, final = 
        -1809.41180828     -1875.99229102     -1875.99229119
  Force two-norm initial, final = 77.2828 0.00996249
  Force max component initial, final = 11.0639 0.00141537
  Final line search alpha, max atom move = 0 0
  Iterations, force evaluations = 14 317

Pair  time (%) = 0.116805 (73.1285)
Neigh time (%) = 0.000905151 (0.56669)
Comm  time (%) = 0.0218002 (13.6485)
Outpt time (%) = 0.0103917 (6.50598)
Other time (%) = 0.00982371 (6.15035)

Nlocal:    336 ave 336 max 336 min
Histogram: 1 0 0 0 0 0 0 0 0 0
Nghost:    1110 ave 1110 max 1110 min
Histogram: 1 0 0 0 0 0 0 0 0 0
Neighs:    8512 ave 8512 max 8512 min
Histogram: 1 0 0 0 0 0 0 0 0 0

Total # of neighbors = 8512
Ave neighs/atom = 25.3333
Neighbor list builds = 2
Dangerous builds = 0
        next i
jump SELF loop1
        read_dump orig.dump 0 x y z
  orthogonal box = (0 -0.600957 0) to (4.48985 16.1812 4.48985)
  336 atoms before read
  336 atoms in snapshot
  0 atoms purged
  336 atoms replaced
  0 atoms trimmed
  0 atoms added
  336 atoms after read
        variable stretch equal 1+$i*${strainstep}
        variable stretch equal 1+99*${strainstep}
        variable stretch equal 1+99*-0.0005
        change_box all ${direction} scale ${stretch} remap
        change_box all y scale ${stretch} remap
        change_box all y scale 0.9505 remap
  orthogonal box = (0 -0.187194 0) to (4.48985 15.7674 4.48985)
        min_style ${style}
        min_style hftn
        minimize ${etol} ${ftol} ${maxiter} ${maxeval}
        minimize 1e-12 ${ftol} ${maxiter} ${maxeval}
        minimize 1e-12 1e-08 ${maxiter} ${maxeval}
        minimize 1e-12 1e-08 10000 ${maxeval}
        minimize 1e-12 1e-08 10000 20000
WARNING: Resetting reneighboring criteria during minimization (../min.cpp:168)
Memory usage per processor = 4.9009 Mbytes
Step PotEng Pxx Pyy Pxy Lx Ly Lz 
       0   -1807.8701    4.4202819     9.173455  0.090500725      4.48985    15.954608      4.48985 
       1   -1827.5063    3.8398784    6.8021243   0.05323569      4.48985    15.954608      4.48985 
       2   -1837.7423    3.4842159     6.179029  0.070380216      4.48985    15.954608      4.48985 
       3    -1852.771    2.8979744    3.7707482 -0.026343542      4.48985    16.379667      4.48985 
       4   -1862.1121    2.6159835    3.3855421 -0.0070878126      4.48985    16.379667      4.48985 
       5   -1868.7002    2.2017766    2.0831026 -0.0048375471      4.48985    16.379667      4.48985 
       6   -1875.1568    1.6537596   0.57839144 -0.032031697      4.48985    16.706026      4.48985 
       7   -1875.9892    1.4837892  0.023360113 -0.0016548771      4.48985    16.706026      4.48985 
       8   -1875.9923     1.477449 1.2372764e-05 0.0015083821      4.48985    16.706026      4.48985 
       9   -1875.9923     1.477449 1.2372764e-05 0.0015083821      4.48985    16.706026      4.48985 
      10   -1875.9923     1.477449 1.2372764e-05 0.0015083821      4.48985    16.706026      4.48985 
      11   -1875.9923     1.477449 1.2372764e-05 0.0015083821      4.48985    16.706026      4.48985 
      12   -1875.9923     1.477449 1.2372764e-05 0.0015083821      4.48985    16.706026      4.48985 
      13   -1875.9923     1.477449 1.2372764e-05 0.0015083821      4.48985    16.706026      4.48985 
      14   -1875.9923    1.4774487 1.1432903e-05 0.0015079639      4.48985    16.706026      4.48985 
Loop time of 0.134905 on 1 procs for 13 steps with 336 atoms

Minimization stats:
  Stopping criterion = energy tolerance
  Energy initial, next-to-last, final = 
         -1807.8700751     -1875.98915506     -1875.99229062
  Force two-norm initial, final = 78.3736 0.0129301
  Force max component initial, final = 11.2201 0.00180561
  Final line search alpha, max atom move = 0 0
  Iterations, force evaluations = 13 308

Pair  time (%) = 0.107325 (79.5559)
Neigh time (%) = 0.000940907 (0.697458)
Comm  time (%) = 0.00540211 (4.00438)
Outpt time (%) = 0.015808 (11.7179)
Other time (%) = 0.00542907 (4.02436)

Nlocal:    336 ave 336 max 336 min
Histogram: 1 0 0 0 0 0 0 0 0 0
Nghost:    1110 ave 1110 max 1110 min
Histogram: 1 0 0 0 0 0 0 0 0 0
Neighs:    8520 ave 8520 max 8520 min
Histogram: 1 0 0 0 0 0 0 0 0 0

Total # of neighbors = 8520
Ave neighs/atom = 25.3571
Neighbor list builds = 2
Dangerous builds = 0
        next i
jump SELF loop1
        read_dump orig.dump 0 x y z
  orthogonal box = (0 -0.600957 0) to (4.48985 16.1812 4.48985)
  336 atoms before read
  336 atoms in snapshot
  0 atoms purged
  336 atoms replaced
  0 atoms trimmed
  0 atoms added
  336 atoms after read
        variable stretch equal 1+$i*${strainstep}
        variable stretch equal 1+100*${strainstep}
        variable stretch equal 1+100*-0.0005
        change_box all ${direction} scale ${stretch} remap
        change_box all y scale ${stretch} remap
        change_box all y scale 0.95 remap
  orthogonal box = (0 -0.182998 0) to (4.48985 15.7632 4.48985)
        min_style ${style}
        min_style hftn
        minimize ${etol} ${ftol} ${maxiter} ${maxeval}
        minimize 1e-12 ${ftol} ${maxiter} ${maxeval}
        minimize 1e-12 1e-08 ${maxiter} ${maxeval}
        minimize 1e-12 1e-08 10000 ${maxeval}
        minimize 1e-12 1e-08 10000 20000
WARNING: Resetting reneighboring criteria during minimization (../min.cpp:168)
Memory usage per processor = 4.9009 Mbytes
Step PotEng Pxx Pyy Pxy Lx Ly Lz 
       0    -1806.308    4.4606241    9.3009883  0.095788909      4.48985    15.946216      4.48985 
       1   -1826.4131    3.8717972    6.8958893  0.054347133      4.48985    15.946216      4.48985 
       2   -1836.9136    3.5090423    6.2556506  0.073159519      4.48985    15.946216      4.48985 
       3   -1852.1505    2.9226157    3.8361955 -0.027460051      4.48985    16.373178      4.48985 
       4   -1861.7513    2.6329678    3.4318339 -0.0054618413      4.48985    16.373178      4.48985 
       5   -1868.5189    2.2129612    2.1117153 -0.0042756289      4.48985    16.373178      4.48985 
       6   -1875.1254    1.6515846   0.57761515 -0.031505619      4.48985    16.705958      4.48985 
       7   -1875.9895    1.4846463  0.025051186 -0.0010306567      4.48985    16.705958      4.48985 
       8   -1875.9923    1.4772437 2.3848205e-05 1.7086346e-05      4.48985    16.705958      4.48985 
       9   -1875.9923    1.4772269 3.9030147e-08 -9.0095275e-08      4.48985    16.705958      4.48985 
      10   -1875.9923     1.477227 -1.5970102e-12 -1.4449608e-13      4.48985    16.705958      4.48985 
Loop time of 0.167177 on 1 procs for 9 steps with 336 atoms

Minimization stats:
  Stopping criterion = force tolerance
  Energy initial, next-to-last, final = 
        -1806.30796543     -1875.99228928     -1875.99228991
  Force two-norm initial, final = 79.4726 3.10287e-10
  Force max component initial, final = 11.3775 3.34365e-11
  Final line search alpha, max atom move = 0 0
  Iterations, force evaluations = 9 442

Pair  time (%) = 0.149318 (89.3176)
Neigh time (%) = 0.000929983 (0.556287)
Comm  time (%) = 0.00749675 (4.48432)
Outpt time (%) = 0.00121115 (0.724474)
Other time (%) = 0.00822069 (4.91736)

Nlocal:    336 ave 336 max 336 min
Histogram: 1 0 0 0 0 0 0 0 0 0
Nghost:    1110 ave 1110 max 1110 min
Histogram: 1 0 0 0 0 0 0 0 0 0
Neighs:    8520 ave 8520 max 8520 min
Histogram: 1 0 0 0 0 0 0 0 0 0

Total # of neighbors = 8520
Ave neighs/atom = 25.3571
Neighbor list builds = 2
Dangerous builds = 0
        next i
jump SELF loop1

