LAMMPS (28 Jun 2014)
# attempt at getting generalized stacking fault (GSF) energy curve

#file prefix
variable prefix string gsf_V_inter4newnorm
variable dumpfile string ${prefix}.*.dump
variable dumpfile string gsf_V_inter4newnorm.*.dump
variable restartfile string ${prefix}.*.equil
variable restartfile string gsf_V_inter4newnorm.*.equil

#Mass (g/mol)
variable m equal 1

# lattice constant (in Angstroms) and orientation of axes (given by lattice vectors)
variable rho equal 1.1547
variable x1 equal 1
variable x2 equal 0
variable x3 equal 0
variable y1 equal 0
variable y2 equal 1
variable y3 equal 0
# length of lattice in different directions (using orientation of lattice vectors)
variable ax equal sqrt(${x1}*${x1}+${x2}*${x2}+${x3}*${x3})
variable ax equal sqrt(1*${x1}+${x2}*${x2}+${x3}*${x3})
variable ax equal sqrt(1*1+${x2}*${x2}+${x3}*${x3})
variable ax equal sqrt(1*1+0*${x2}+${x3}*${x3})
variable ax equal sqrt(1*1+0*0+${x3}*${x3})
variable ax equal sqrt(1*1+0*0+0*${x3})
variable ax equal sqrt(1*1+0*0+0*0)
variable ay equal sqrt(${y1}*${y1}+${y2}*${y2}+${y3}*${y3})
variable ay equal sqrt(0*${y1}+${y2}*${y2}+${y3}*${y3})
variable ay equal sqrt(0*0+${y2}*${y2}+${y3}*${y3})
variable ay equal sqrt(0*0+1*${y2}+${y3}*${y3})
variable ay equal sqrt(0*0+1*1+${y3}*${y3})
variable ay equal sqrt(0*0+1*1+0*${y3})
variable ay equal sqrt(0*0+1*1+0*0)
variable az equal 1

# size of box in lattice units
variable lxpos equal 1
variable lxneg equal -1*${lxpos}
variable lxneg equal -1*1
variable lypos equal 10
variable lyneg equal -1*${lypos}
variable lyneg equal -1*10
variable lzpos equal 0
variable lzneg equal -1

# Define minimization parameters and damping
variable etol equal 1.0e-12
variable ftol equal 1.0e-8
variable maxiter equal 10000
variable maxeval equal 20000
variable style string cg

# boundary conditions
dimension	2
boundary	p s p
atom_style	atomic

# create geometry
units		lj
lattice         hex ${rho}
lattice         hex 1.1547
Lattice spacing in x,y,z = 1 1.73205 1
region		myregion block ${lxneg} ${lxpos} ${lyneg} ${lypos} ${lzneg} ${lzpos} units lattice
region		myregion block -1 ${lxpos} ${lyneg} ${lypos} ${lzneg} ${lzpos} units lattice
region		myregion block -1 1 ${lyneg} ${lypos} ${lzneg} ${lzpos} units lattice
region		myregion block -1 1 -10 ${lypos} ${lzneg} ${lzpos} units lattice
region		myregion block -1 1 -10 10 ${lzneg} ${lzpos} units lattice
region		myregion block -1 1 -10 10 -1 ${lzpos} units lattice
region		myregion block -1 1 -10 10 -1 0 units lattice
create_box	3 myregion
Created orthogonal box = (-1 -17.3205 -1) to (1 17.3205 0)
  1 by 1 by 1 MPI processor grid
create_atoms	1 box
Created 82 atoms

# define masses
mass * $m
mass * 1

# my fake/morse potential
pair_style      table linear 3001
pair_coeff      * * vpotential_inter4newnorm dummy
neighbor	0.3 bin
neigh_modify	delay 5

# define groups
region	    upper block INF INF 0.01 ${lypos} INF INF units lattice
region	    upper block INF INF 0.01 10 INF INF units lattice
group		upper region upper
40 atoms in group upper

# Setup output
thermo 1
thermo_style custom step temp pe lx ly lz
thermo_modify norm no

# Compute initial state by relaxing box
min_style ${style}
min_style cg
minimize ${etol} ${ftol} ${maxiter} ${maxeval}
minimize 1e-12 ${ftol} ${maxiter} ${maxeval}
minimize 1e-12 1e-08 ${maxiter} ${maxeval}
minimize 1e-12 1e-08 10000 ${maxeval}
minimize 1e-12 1e-08 10000 20000
WARNING: Resetting reneighboring criteria during minimization (../min.cpp:168)
Memory usage per processor = 3.35161 Mbytes
Step Temp PotEng Lx Ly Lz 
       0            0   -241.99991    2.0000005    34.647952    1.0000002 
       1            0   -241.99991    2.0000005    34.647952    1.0000002 
Loop time of 9.6984e-05 on 1 procs for 1 steps with 82 atoms

Minimization stats:
  Stopping criterion = linesearch alpha is zero
  Energy initial, next-to-last, final = 
        -241.999911808     -241.999911808     -241.999911808
  Force two-norm initial, final = 6.11446e-06 6.11446e-06
  Force max component initial, final = 3.05723e-06 3.05723e-06
  Final line search alpha, max atom move = 0.5 1.52862e-06
  Iterations, force evaluations = 1 2

Pair  time (%) = 4.82739e-05 (49.7752)
Neigh time (%) = 0 (0)
Comm  time (%) = 3.00992e-06 (3.10352)
Outpt time (%) = 0 (0)
Other time (%) = 4.57001e-05 (47.1213)

Nlocal:    82 ave 82 max 82 min
Histogram: 1 0 0 0 0 0 0 0 0 0
Nghost:    185 ave 185 max 185 min
Histogram: 1 0 0 0 0 0 0 0 0 0
Neighs:    718 ave 718 max 718 min
Histogram: 1 0 0 0 0 0 0 0 0 0

Total # of neighbors = 718
Ave neighs/atom = 8.7561
Neighbor list builds = 0
Dangerous builds = 0

# don't allow atoms to relax in x-direction
fix 2 all setforce 0.0 NULL 0.0

# GSF energy curve will have 100*2 steps
variable nsteps equal 300
variable sstep1 equal 1.
variable xstep1 equal ${sstep1}/(${ax}*${nsteps})
variable xstep1 equal 1/(${ax}*${nsteps})
variable xstep1 equal 1/(1*${nsteps})
variable xstep1 equal 1/(1*300)

variable i loop ${nsteps}
variable i loop 300
label loop1
        displace_atoms upper move ${xstep1} 0.0 0.0 units lattice
        displace_atoms upper move 0.00333333333333333 0.0 0.0 units lattice
        min_style ${style}
        min_style cg
        minimize ${etol} ${ftol} ${maxiter} ${maxeval}
        minimize 1e-12 ${ftol} ${maxiter} ${maxeval}
        minimize 1e-12 1e-08 ${maxiter} ${maxeval}
        minimize 1e-12 1e-08 10000 ${maxeval}
        minimize 1e-12 1e-08 10000 20000
WARNING: Resetting reneighboring criteria during minimization (../min.cpp:168)
Memory usage per processor = 3.35161 Mbytes
Step Temp PotEng Lx Ly Lz 
       1            0   -241.99973    2.0000005    34.647952    1.0000002 
       2            0   -241.99973    2.0000005    34.647952    1.0000002 
Loop time of 0.000192029 on 1 procs for 1 steps with 82 atoms

Minimization stats:
  Stopping criterion = linesearch alpha is zero
  Energy initial, next-to-last, final = 
        -241.999734982     -241.999734982     -241.999734982
  Force two-norm initial, final = 0.00166994 0.00166994
  Force max component initial, final = 0.000834963 0.000834963
  Final line search alpha, max atom move = 0.00390625 3.26157e-06
  Iterations, force evaluations = 1 9

Pair  time (%) = 0.00016034 (83.498)
Neigh time (%) = 0 (0)
Comm  time (%) = 9.90066e-06 (5.15581)
Outpt time (%) = 0 (0)
Other time (%) = 2.17879e-05 (11.3462)

Nlocal:    82 ave 82 max 82 min
Histogram: 1 0 0 0 0 0 0 0 0 0
Nghost:    185 ave 185 max 185 min
Histogram: 1 0 0 0 0 0 0 0 0 0
Neighs:    718 ave 718 max 718 min
Histogram: 1 0 0 0 0 0 0 0 0 0

Total # of neighbors = 718
Ave neighs/atom = 8.7561
Neighbor list builds = 0
Dangerous builds = 0
        # write_dump all atom ${dumpfile}
        next i
jump SELF loop1
        displace_atoms upper move ${xstep1} 0.0 0.0 units lattice
        displace_atoms upper move 0.00333333333333333 0.0 0.0 units lattice
        min_style ${style}
        min_style cg
        minimize ${etol} ${ftol} ${maxiter} ${maxeval}
        minimize 1e-12 ${ftol} ${maxiter} ${maxeval}
        minimize 1e-12 1e-08 ${maxiter} ${maxeval}
        minimize 1e-12 1e-08 10000 ${maxeval}
        minimize 1e-12 1e-08 10000 20000
WARNING: Resetting reneighboring criteria during minimization (../min.cpp:168)
Memory usage per processor = 3.35161 Mbytes
Step Temp PotEng Lx Ly Lz 
       2            0   -241.99923    2.0000005    34.647952    1.0000002 
       3            0   -241.99923    2.0000005    34.647952    1.0000002 
       4            0   -241.99923    2.0000005    34.647952    1.0000002 
       5            0   -241.99923    2.0000005    34.647952    1.0000002 
Loop time of 0.00213588 on 1 procs for 3 steps with 82 atoms

Minimization stats:
  Stopping criterion = linesearch alpha is zero
  Energy initial, next-to-last, final = 
         -241.99922677     -241.999226919     -241.999226919
  Force two-norm initial, final = 0.00639572 0.00411107
  Force max component initial, final = 0.00319786 0.00202197
  Final line search alpha, max atom move = 0.000488281 9.87289e-07
  Iterations, force evaluations = 3 33

Pair  time (%) = 0.00196852 (92.1641)
Neigh time (%) = 0 (0)
Comm  time (%) = 5.38025e-05 (2.51898)
Outpt time (%) = 2.98743e-05 (1.39868)
Other time (%) = 8.36899e-05 (3.91828)

Nlocal:    82 ave 82 max 82 min
Histogram: 1 0 0 0 0 0 0 0 0 0
Nghost:    185 ave 185 max 185 min
Histogram: 1 0 0 0 0 0 0 0 0 0
Neighs:    718 ave 718 max 718 min
Histogram: 1 0 0 0 0 0 0 0 0 0

Total # of neighbors = 718
Ave neighs/atom = 8.7561
Neighbor list builds = 0
Dangerous builds = 0
        # write_dump all atom ${dumpfile}
        next i
jump SELF loop1
        displace_atoms upper move ${xstep1} 0.0 0.0 units lattice
        displace_atoms upper move 0.00333333333333333 0.0 0.0 units lattice
        min_style ${style}
        min_style cg
        minimize ${etol} ${ftol} ${maxiter} ${maxeval}
        minimize 1e-12 ${ftol} ${maxiter} ${maxeval}
        minimize 1e-12 1e-08 ${maxiter} ${maxeval}
        minimize 1e-12 1e-08 10000 ${maxeval}
        minimize 1e-12 1e-08 10000 20000
WARNING: Resetting reneighboring criteria during minimization (../min.cpp:168)
Memory usage per processor = 3.35161 Mbytes
Step Temp PotEng Lx Ly Lz 
       5            0   -241.99836    2.0000005    34.647952    1.0000002 
       6            0   -241.99836    2.0000005    34.647952    1.0000002 
Loop time of 0.000327071 on 1 procs for 1 steps with 82 atoms

Minimization stats:
  Stopping criterion = linesearch alpha is zero
  Energy initial, next-to-last, final = 
        -241.998363102     -241.998363102     -241.998363102
  Force two-norm initial, final = 0.0121585 0.0121585
  Force max component initial, final = 0.00606797 0.00606797
  Final line search alpha, max atom move = 6.10352e-05 3.7036e-07
  Iterations, force evaluations = 1 15

Pair  time (%) = 0.000273006 (83.47)
Neigh time (%) = 0 (0)
Comm  time (%) = 1.79975e-05 (5.50261)
Outpt time (%) = 0 (0)
Other time (%) = 3.60673e-05 (11.0274)

Nlocal:    82 ave 82 max 82 min
Histogram: 1 0 0 0 0 0 0 0 0 0
Nghost:    185 ave 185 max 185 min
Histogram: 1 0 0 0 0 0 0 0 0 0
Neighs:    718 ave 718 max 718 min
Histogram: 1 0 0 0 0 0 0 0 0 0

Total # of neighbors = 718
Ave neighs/atom = 8.7561
Neighbor list builds = 0
Dangerous builds = 0
        # write_dump all atom ${dumpfile}
        next i
jump SELF loop1
        displace_atoms upper move ${xstep1} 0.0 0.0 units lattice
        displace_atoms upper move 0.00333333333333333 0.0 0.0 units lattice
        min_style ${style}
        min_style cg
        minimize ${etol} ${ftol} ${maxiter} ${maxeval}
        minimize 1e-12 ${ftol} ${maxiter} ${maxeval}
        minimize 1e-12 1e-08 ${maxiter} ${maxeval}
        minimize 1e-12 1e-08 10000 ${maxeval}
        minimize 1e-12 1e-08 10000 20000
WARNING: Resetting reneighboring criteria during minimization (../min.cpp:168)
Memory usage per processor = 3.35161 Mbytes
Step Temp PotEng Lx Ly Lz 
       6            0   -241.99717    2.0000005    34.647952    1.0000002 
       7            0   -241.99717    2.0000005    34.647952    1.0000002 
Loop time of 0.000340936 on 1 procs for 1 steps with 82 atoms

Minimization stats:
  Stopping criterion = linesearch alpha is zero
  Energy initial, next-to-last, final = 
        -241.997168015     -241.997168015     -241.997168015
  Force two-norm initial, final = 0.0232953 0.0232953
  Force max component initial, final = 0.0116418 0.0116418
  Final line search alpha, max atom move = 1.52588e-05 1.7764e-07
  Iterations, force evaluations = 1 17

Pair  time (%) = 0.000285135 (83.6329)
Neigh time (%) = 0 (0)
Comm  time (%) = 2.08104e-05 (6.1039)
Outpt time (%) = 0 (0)
Other time (%) = 3.49911e-05 (10.2632)

Nlocal:    82 ave 82 max 82 min
Histogram: 1 0 0 0 0 0 0 0 0 0
Nghost:    185 ave 185 max 185 min
Histogram: 1 0 0 0 0 0 0 0 0 0
Neighs:    718 ave 718 max 718 min
Histogram: 1 0 0 0 0 0 0 0 0 0

Total # of neighbors = 718
Ave neighs/atom = 8.7561
Neighbor list builds = 0
Dangerous builds = 0
        # write_dump all atom ${dumpfile}
        next i
jump SELF loop1
        displace_atoms upper move ${xstep1} 0.0 0.0 units lattice
        displace_atoms upper move 0.00333333333333333 0.0 0.0 units lattice
        min_style ${style}
        min_style cg
        minimize ${etol} ${ftol} ${maxiter} ${maxeval}
        minimize 1e-12 ${ftol} ${maxiter} ${maxeval}
        minimize 1e-12 1e-08 ${maxiter} ${maxeval}
        minimize 1e-12 1e-08 10000 ${maxeval}
        minimize 1e-12 1e-08 10000 20000
WARNING: Resetting reneighboring criteria during minimization (../min.cpp:168)
Memory usage per processor = 3.35161 Mbytes
Step Temp PotEng Lx Ly Lz 
       7            0   -241.99562    2.0000005    34.647952    1.0000002 
       8            0   -241.99563    2.0000005    34.647952    1.0000002 
       9            0   -241.99563    2.0000005    34.647952    1.0000002 
      10            0   -241.99563    2.0000005    34.647952    1.0000002 
      11            0   -241.99563    2.0000005    34.647952    1.0000002 
Loop time of 0.000731027 on 1 procs for 4 steps with 82 atoms

Minimization stats:
  Stopping criterion = linesearch alpha is zero
  Energy initial, next-to-last, final = 
        -241.995622928     -241.995627731     -241.995627731
  Force two-norm initial, final = 0.0377342 0.00919951
  Force max component initial, final = 0.0188635 0.00345684
  Final line search alpha, max atom move = 0.00012207 4.21977e-07
  Iterations, force evaluations = 4 41

Pair  time (%) = 0.000574972 (78.6527)
Neigh time (%) = 0 (0)
Comm  time (%) = 4.69725e-05 (6.42556)
Outpt time (%) = 1.08741e-05 (1.48751)
Other time (%) = 9.82077e-05 (13.4342)

Nlocal:    82 ave 82 max 82 min
Histogram: 1 0 0 0 0 0 0 0 0 0
Nghost:    185 ave 185 max 185 min
Histogram: 1 0 0 0 0 0 0 0 0 0
Neighs:    718 ave 718 max 718 min
Histogram: 1 0 0 0 0 0 0 0 0 0

Total # of neighbors = 718
Ave neighs/atom = 8.7561
Neighbor list builds = 0
Dangerous builds = 0
        # write_dump all atom ${dumpfile}
        next i
jump SELF loop1
        displace_atoms upper move ${xstep1} 0.0 0.0 units lattice
        displace_atoms upper move 0.00333333333333333 0.0 0.0 units lattice
        min_style ${style}
        min_style cg
        minimize ${etol} ${ftol} ${maxiter} ${maxeval}
        minimize 1e-12 ${ftol} ${maxiter} ${maxeval}
        minimize 1e-12 1e-08 ${maxiter} ${maxeval}
        minimize 1e-12 1e-08 10000 ${maxeval}
        minimize 1e-12 1e-08 10000 20000
WARNING: Resetting reneighboring criteria during minimization (../min.cpp:168)
Memory usage per processor = 3.35161 Mbytes
Step Temp PotEng Lx Ly Lz 
      11            0   -241.99374    2.0000005    34.647952    1.0000002 
      12            0   -241.99374    2.0000005    34.647952    1.0000002 
Loop time of 0.000345958 on 1 procs for 1 steps with 82 atoms

Minimization stats:
  Stopping criterion = linesearch alpha is zero
  Energy initial, next-to-last, final = 
         -241.99374242      -241.99374242      -241.99374242
  Force two-norm initial, final = 0.0243447 0.0243447
  Force max component initial, final = 0.0116117 0.0116117
  Final line search alpha, max atom move = 1.52588e-05 1.7718e-07
  Iterations, force evaluations = 1 17

Pair  time (%) = 0.000291125 (84.1504)
Neigh time (%) = 0 (0)
Comm  time (%) = 2.18294e-05 (6.30984)
Outpt time (%) = 0 (0)
Other time (%) = 3.30035e-05 (9.53976)

Nlocal:    82 ave 82 max 82 min
Histogram: 1 0 0 0 0 0 0 0 0 0
Nghost:    185 ave 185 max 185 min
Histogram: 1 0 0 0 0 0 0 0 0 0
Neighs:    718 ave 718 max 718 min
Histogram: 1 0 0 0 0 0 0 0 0 0

Total # of neighbors = 718
Ave neighs/atom = 8.7561
Neighbor list builds = 0
Dangerous builds = 0
        # write_dump all atom ${dumpfile}
        next i
jump SELF loop1
        displace_atoms upper move ${xstep1} 0.0 0.0 units lattice
        displace_atoms upper move 0.00333333333333333 0.0 0.0 units lattice
        min_style ${style}
        min_style cg
        minimize ${etol} ${ftol} ${maxiter} ${maxeval}
        minimize 1e-12 ${ftol} ${maxiter} ${maxeval}
        minimize 1e-12 1e-08 ${maxiter} ${maxeval}
        minimize 1e-12 1e-08 10000 ${maxeval}
        minimize 1e-12 1e-08 10000 20000
WARNING: Resetting reneighboring criteria during minimization (../min.cpp:168)
Memory usage per processor = 3.35161 Mbytes
Step Temp PotEng Lx Ly Lz 
      12            0   -241.99153    2.0000005    34.647952    1.0000002 
      13            0   -241.99153    2.0000005    34.647952    1.0000002 
Loop time of 0.000383087 on 1 procs for 1 steps with 82 atoms

Minimization stats:
  Stopping criterion = linesearch alpha is zero
  Energy initial, next-to-last, final = 
        -241.991525808     -241.991525808     -241.991525808
  Force two-norm initial, final = 0.0445182 0.0445182
  Force max component initial, final = 0.0219575 0.0219575
  Final line search alpha, max atom move = 3.8147e-06 8.37612e-08
  Iterations, force evaluations = 1 19

Pair  time (%) = 0.000322192 (84.104)
Neigh time (%) = 0 (0)
Comm  time (%) = 2.12542e-05 (5.54813)
Outpt time (%) = 0 (0)
Other time (%) = 3.96413e-05 (10.3478)

Nlocal:    82 ave 82 max 82 min
Histogram: 1 0 0 0 0 0 0 0 0 0
Nghost:    185 ave 185 max 185 min
Histogram: 1 0 0 0 0 0 0 0 0 0
Neighs:    718 ave 718 max 718 min
Histogram: 1 0 0 0 0 0 0 0 0 0

Total # of neighbors = 718
Ave neighs/atom = 8.7561
Neighbor list builds = 0
Dangerous builds = 0
        # write_dump all atom ${dumpfile}
        next i
jump SELF loop1
        displace_atoms upper move ${xstep1} 0.0 0.0 units lattice
        displace_atoms upper move 0.00333333333333333 0.0 0.0 units lattice
        min_style ${style}
        min_style cg
        minimize ${etol} ${ftol} ${maxiter} ${maxeval}
        minimize 1e-12 ${ftol} ${maxiter} ${maxeval}
        minimize 1e-12 1e-08 ${maxiter} ${maxeval}
        minimize 1e-12 1e-08 10000 ${maxeval}
        minimize 1e-12 1e-08 10000 20000
WARNING: Resetting reneighboring criteria during minimization (../min.cpp:168)
Memory usage per processor = 3.35161 Mbytes
Step Temp PotEng Lx Ly Lz 
      13            0   -241.98897    2.0000005    34.647952    1.0000002 
      14            0   -241.98898    2.0000005    34.647952    1.0000002 
      15            0   -241.98898    2.0000005    34.647952    1.0000002 
Loop time of 0.000578957 on 1 procs for 2 steps with 82 atoms

Minimization stats:
  Stopping criterion = linesearch alpha is zero
  Energy initial, next-to-last, final = 
        -241.988967902     -241.988976818     -241.988976818
  Force two-norm initial, final = 0.0681914 0.0364551
  Force max component initial, final = 0.0338996 0.0160244
  Final line search alpha, max atom move = 7.62939e-06 1.22257e-07
  Iterations, force evaluations = 2 27

Pair  time (%) = 0.000472825 (81.6684)
Neigh time (%) = 0 (0)
Comm  time (%) = 3.02842e-05 (5.23082)
Outpt time (%) = 6.05593e-06 (1.04601)
Other time (%) = 6.97919e-05 (12.0548)

Nlocal:    82 ave 82 max 82 min
Histogram: 1 0 0 0 0 0 0 0 0 0
Nghost:    185 ave 185 max 185 min
Histogram: 1 0 0 0 0 0 0 0 0 0
Neighs:    718 ave 718 max 718 min
Histogram: 1 0 0 0 0 0 0 0 0 0

Total # of neighbors = 718
Ave neighs/atom = 8.7561
Neighbor list builds = 0
Dangerous builds = 0
        # write_dump all atom ${dumpfile}
        next i
jump SELF loop1
        displace_atoms upper move ${xstep1} 0.0 0.0 units lattice
        displace_atoms upper move 0.00333333333333333 0.0 0.0 units lattice
        min_style ${style}
        min_style cg
        minimize ${etol} ${ftol} ${maxiter} ${maxeval}
        minimize 1e-12 ${ftol} ${maxiter} ${maxeval}
        minimize 1e-12 1e-08 ${maxiter} ${maxeval}
        minimize 1e-12 1e-08 10000 ${maxeval}
        minimize 1e-12 1e-08 10000 20000
WARNING: Resetting reneighboring criteria during minimization (../min.cpp:168)
Memory usage per processor = 3.35161 Mbytes
Step Temp PotEng Lx Ly Lz 
      15            0   -241.98609    2.0000005    34.647952    1.0000002 
      16            0    -241.9861    2.0000005    34.647952    1.0000002 
      17            0    -241.9861    2.0000005    34.647952    1.0000002 
Loop time of 0.000324977 on 1 procs for 2 steps with 82 atoms

Minimization stats:
  Stopping criterion = linesearch alpha is zero
  Energy initial, next-to-last, final = 
        -241.986086549     -241.986096635     -241.986096635
  Force two-norm initial, final = 0.061566 0.0375728
  Force max component initial, final = 0.0295319 0.0149635
  Final line search alpha, max atom move = 7.62939e-06 1.14162e-07
  Iterations, force evaluations = 2 27

Pair  time (%) = 0.000272612 (83.8864)
Neigh time (%) = 0 (0)
Comm  time (%) = 1.86391e-05 (5.73552)
Outpt time (%) = -8.3819e-08 (-0.0257923)
Other time (%) = 3.38102e-05 (10.4038)

Nlocal:    82 ave 82 max 82 min
Histogram: 1 0 0 0 0 0 0 0 0 0
Nghost:    185 ave 185 max 185 min
Histogram: 1 0 0 0 0 0 0 0 0 0
Neighs:    718 ave 718 max 718 min
Histogram: 1 0 0 0 0 0 0 0 0 0

Total # of neighbors = 718
Ave neighs/atom = 8.7561
Neighbor list builds = 0
Dangerous builds = 0
        # write_dump all atom ${dumpfile}
        next i
jump SELF loop1
        displace_atoms upper move ${xstep1} 0.0 0.0 units lattice
        displace_atoms upper move 0.00333333333333333 0.0 0.0 units lattice
        min_style ${style}
        min_style cg
        minimize ${etol} ${ftol} ${maxiter} ${maxeval}
        minimize 1e-12 ${ftol} ${maxiter} ${maxeval}
        minimize 1e-12 1e-08 ${maxiter} ${maxeval}
        minimize 1e-12 1e-08 10000 ${maxeval}
        minimize 1e-12 1e-08 10000 20000
WARNING: Resetting reneighboring criteria during minimization (../min.cpp:168)
Memory usage per processor = 3.35161 Mbytes
Step Temp PotEng Lx Ly Lz 
      17            0   -241.98289    2.0000005    34.647952    1.0000002 
      18            0   -241.98291    2.0000005    34.647952    1.0000002 
      19            0   -241.98291    2.0000005    34.647952    1.0000002 
Loop time of 0.000533886 on 1 procs for 2 steps with 82 atoms

Minimization stats:
  Stopping criterion = linesearch alpha is zero
  Energy initial, next-to-last, final = 
        -241.982893728     -241.982905038     -241.982905038
  Force two-norm initial, final = 0.0567683 0.0288287
  Force max component initial, final = 0.0260122 0.0133799
  Final line search alpha, max atom move = 7.62939e-06 1.02081e-07
  Iterations, force evaluations = 2 26

Pair  time (%) = 0.000443242 (83.0219)
Neigh time (%) = 0 (0)
Comm  time (%) = 2.71531e-05 (5.08592)
Outpt time (%) = 6.0997e-06 (1.14251)
Other time (%) = 5.73912e-05 (10.7497)

Nlocal:    82 ave 82 max 82 min
Histogram: 1 0 0 0 0 0 0 0 0 0
Nghost:    185 ave 185 max 185 min
Histogram: 1 0 0 0 0 0 0 0 0 0
Neighs:    718 ave 718 max 718 min
Histogram: 1 0 0 0 0 0 0 0 0 0

Total # of neighbors = 718
Ave neighs/atom = 8.7561
Neighbor list builds = 0
Dangerous builds = 0
        # write_dump all atom ${dumpfile}
        next i
jump SELF loop1
        displace_atoms upper move ${xstep1} 0.0 0.0 units lattice
        displace_atoms upper move 0.00333333333333333 0.0 0.0 units lattice
        min_style ${style}
        min_style cg
        minimize ${etol} ${ftol} ${maxiter} ${maxeval}
        minimize 1e-12 ${ftol} ${maxiter} ${maxeval}
        minimize 1e-12 1e-08 ${maxiter} ${maxeval}
        minimize 1e-12 1e-08 10000 ${maxeval}
        minimize 1e-12 1e-08 10000 20000
WARNING: Resetting reneighboring criteria during minimization (../min.cpp:168)
Memory usage per processor = 3.35161 Mbytes
Step Temp PotEng Lx Ly Lz 
      19            0   -241.97944    2.0000005    34.647952    1.0000002 
      20            0   -241.97944    2.0000005    34.647952    1.0000002 
      21            0   -241.97944    2.0000005    34.647952    1.0000002 
Loop time of 0.00134199 on 1 procs for 2 steps with 82 atoms

Minimization stats:
  Stopping criterion = linesearch alpha is zero
  Energy initial, next-to-last, final = 
        -241.979435965     -241.979437334     -241.979437334
  Force two-norm initial, final = 0.0396013 0.0355379
  Force max component initial, final = 0.013718 0.0126379
  Final line search alpha, max atom move = 7.62939e-06 9.64193e-08
  Iterations, force evaluations = 2 28

Pair  time (%) = 0.0010457 (77.9214)
Neigh time (%) = 0 (0)
Comm  time (%) = 0.000125886 (9.38057)
Outpt time (%) = 1.10875e-05 (0.826199)
Other time (%) = 0.000159319 (11.8718)

Nlocal:    82 ave 82 max 82 min
Histogram: 1 0 0 0 0 0 0 0 0 0
Nghost:    185 ave 185 max 185 min
Histogram: 1 0 0 0 0 0 0 0 0 0
Neighs:    718 ave 718 max 718 min
Histogram: 1 0 0 0 0 0 0 0 0 0

Total # of neighbors = 718
Ave neighs/atom = 8.7561
Neighbor list builds = 0
Dangerous builds = 0
        # write_dump all atom ${dumpfile}
        next i
jump SELF loop1
        displace_atoms upper move ${xstep1} 0.0 0.0 units lattice
        displace_atoms upper move 0.00333333333333333 0.0 0.0 units lattice
        min_style ${style}
        min_style cg
        minimize ${etol} ${ftol} ${maxiter} ${maxeval}
        minimize 1e-12 ${ftol} ${maxiter} ${maxeval}
        minimize 1e-12 1e-08 ${maxiter} ${maxeval}
        minimize 1e-12 1e-08 10000 ${maxeval}
        minimize 1e-12 1e-08 10000 20000
WARNING: Resetting reneighboring criteria during minimization (../min.cpp:168)
Memory usage per processor = 3.35161 Mbytes
Step Temp PotEng Lx Ly Lz 
      21            0   -241.97568    2.0000005    34.647952    1.0000002 
      22            0    -241.9757    2.0000005    34.647952    1.0000002 
      23            0    -241.9757    2.0000005    34.647952    1.0000002 
Loop time of 0.00053307 on 1 procs for 2 steps with 82 atoms

Minimization stats:
  Stopping criterion = linesearch alpha is zero
  Energy initial, next-to-last, final = 
        -241.975681468     -241.975696784     -241.975696784
  Force two-norm initial, final = 0.0561821 0.0321815
  Force max component initial, final = 0.0244853 0.0142693
  Final line search alpha, max atom move = 7.62939e-06 1.08866e-07
  Iterations, force evaluations = 2 26

Pair  time (%) = 0.000446049 (83.6756)
Neigh time (%) = 0 (0)
Comm  time (%) = 2.8097e-05 (5.27079)
Outpt time (%) = 5.99818e-06 (1.12522)
Other time (%) = 5.29254e-05 (9.92843)

Nlocal:    82 ave 82 max 82 min
Histogram: 1 0 0 0 0 0 0 0 0 0
Nghost:    185 ave 185 max 185 min
Histogram: 1 0 0 0 0 0 0 0 0 0
Neighs:    718 ave 718 max 718 min
Histogram: 1 0 0 0 0 0 0 0 0 0

Total # of neighbors = 718
Ave neighs/atom = 8.7561
Neighbor list builds = 0
Dangerous builds = 0
        # write_dump all atom ${dumpfile}
        next i
jump SELF loop1
        displace_atoms upper move ${xstep1} 0.0 0.0 units lattice
        displace_atoms upper move 0.00333333333333333 0.0 0.0 units lattice
        min_style ${style}
        min_style cg
        minimize ${etol} ${ftol} ${maxiter} ${maxeval}
        minimize 1e-12 ${ftol} ${maxiter} ${maxeval}
        minimize 1e-12 1e-08 ${maxiter} ${maxeval}
        minimize 1e-12 1e-08 10000 ${maxeval}
        minimize 1e-12 1e-08 10000 20000
WARNING: Resetting reneighboring criteria during minimization (../min.cpp:168)
Memory usage per processor = 3.35161 Mbytes
Step Temp PotEng Lx Ly Lz 
      23            0   -241.97168    2.0000005    34.647952    1.0000002 
      24            0   -241.97169    2.0000005    34.647952    1.0000002 
      25            0   -241.97169    2.0000005    34.647952    1.0000002 
Loop time of 0.000555026 on 1 procs for 2 steps with 82 atoms

Minimization stats:
  Stopping criterion = linesearch alpha is zero
  Energy initial, next-to-last, final = 
        -241.971682712     -241.971687445     -241.971687445
  Force two-norm initial, final = 0.0468164 0.0373929
  Force max component initial, final = 0.0172005 0.013394
  Final line search alpha, max atom move = 7.62939e-06 1.02188e-07
  Iterations, force evaluations = 2 27

Pair  time (%) = 0.000468015 (84.3231)
Neigh time (%) = 0 (0)
Comm  time (%) = 1.92808e-05 (3.47386)
Outpt time (%) = 5.92729e-06 (1.06793)
Other time (%) = 6.18026e-05 (11.1351)

Nlocal:    82 ave 82 max 82 min
Histogram: 1 0 0 0 0 0 0 0 0 0
Nghost:    185 ave 185 max 185 min
Histogram: 1 0 0 0 0 0 0 0 0 0
Neighs:    718 ave 718 max 718 min
Histogram: 1 0 0 0 0 0 0 0 0 0

Total # of neighbors = 718
Ave neighs/atom = 8.7561
Neighbor list builds = 0
Dangerous builds = 0
        # write_dump all atom ${dumpfile}
        next i
jump SELF loop1
        displace_atoms upper move ${xstep1} 0.0 0.0 units lattice
        displace_atoms upper move 0.00333333333333333 0.0 0.0 units lattice
        min_style ${style}
        min_style cg
        minimize ${etol} ${ftol} ${maxiter} ${maxeval}
        minimize 1e-12 ${ftol} ${maxiter} ${maxeval}
        minimize 1e-12 1e-08 ${maxiter} ${maxeval}
        minimize 1e-12 1e-08 10000 ${maxeval}
        minimize 1e-12 1e-08 10000 20000
WARNING: Resetting reneighboring criteria during minimization (../min.cpp:168)
Memory usage per processor = 3.35161 Mbytes
Step Temp PotEng Lx Ly Lz 
      25            0    -241.9674    2.0000005    34.647952    1.0000002 
      26            0   -241.96743    2.0000005    34.647952    1.0000002 
      27            0   -241.96743    2.0000005    34.647952    1.0000002 
      28            0   -241.96743    2.0000005    34.647952    1.0000002 
Loop time of 0.000801001 on 1 procs for 3 steps with 82 atoms

Minimization stats:
  Stopping criterion = linesearch alpha is zero
  Energy initial, next-to-last, final = 
        -241.967399834     -241.967428175     -241.967428175
  Force two-norm initial, final = 0.0614148 0.0582531
  Force max component initial, final = 0.0265247 0.0210363
  Final line search alpha, max atom move = 1.90735e-06 4.01236e-08
  Iterations, force evaluations = 3 39

Pair  time (%) = 0.00066614 (83.1634)
Neigh time (%) = 0 (0)
Comm  time (%) = 4.83774e-05 (6.03962)
Outpt time (%) = 1.08592e-05 (1.35571)
Other time (%) = 7.5625e-05 (9.44131)

Nlocal:    82 ave 82 max 82 min
Histogram: 1 0 0 0 0 0 0 0 0 0
Nghost:    185 ave 185 max 185 min
Histogram: 1 0 0 0 0 0 0 0 0 0
Neighs:    718 ave 718 max 718 min
Histogram: 1 0 0 0 0 0 0 0 0 0

Total # of neighbors = 718
Ave neighs/atom = 8.7561
Neighbor list builds = 0
Dangerous builds = 0
        # write_dump all atom ${dumpfile}
        next i
jump SELF loop1
        displace_atoms upper move ${xstep1} 0.0 0.0 units lattice
        displace_atoms upper move 0.00333333333333333 0.0 0.0 units lattice
        min_style ${style}
        min_style cg
        minimize ${etol} ${ftol} ${maxiter} ${maxeval}
        minimize 1e-12 ${ftol} ${maxiter} ${maxeval}
        minimize 1e-12 1e-08 ${maxiter} ${maxeval}
        minimize 1e-12 1e-08 10000 ${maxeval}
        minimize 1e-12 1e-08 10000 20000
WARNING: Resetting reneighboring criteria during minimization (../min.cpp:168)
Memory usage per processor = 3.35161 Mbytes
Step Temp PotEng Lx Ly Lz 
      28            0    -241.9629    2.0000005    34.647952    1.0000002 
      29            0    -241.9629    2.0000005    34.647952    1.0000002 
Loop time of 0.000466091 on 1 procs for 1 steps with 82 atoms

Minimization stats:
  Stopping criterion = linesearch alpha is zero
  Energy initial, next-to-last, final = 
        -241.962895322     -241.962895322     -241.962895322
  Force two-norm initial, final = 0.0409747 0.0409747
  Force max component initial, final = 0.0174653 0.0174653
  Final line search alpha, max atom move = 3.8147e-06 6.66249e-08
  Iterations, force evaluations = 1 19

Pair  time (%) = 0.000382335 (82.03)
Neigh time (%) = 0 (0)
Comm  time (%) = 2.2724e-05 (4.87545)
Outpt time (%) = 0 (0)
Other time (%) = 6.10327e-05 (13.0946)

Nlocal:    82 ave 82 max 82 min
Histogram: 1 0 0 0 0 0 0 0 0 0
Nghost:    185 ave 185 max 185 min
Histogram: 1 0 0 0 0 0 0 0 0 0
Neighs:    718 ave 718 max 718 min
Histogram: 1 0 0 0 0 0 0 0 0 0

Total # of neighbors = 718
Ave neighs/atom = 8.7561
Neighbor list builds = 0
Dangerous builds = 0
        # write_dump all atom ${dumpfile}
        next i
jump SELF loop1
        displace_atoms upper move ${xstep1} 0.0 0.0 units lattice
        displace_atoms upper move 0.00333333333333333 0.0 0.0 units lattice
        min_style ${style}
        min_style cg
        minimize ${etol} ${ftol} ${maxiter} ${maxeval}
        minimize 1e-12 ${ftol} ${maxiter} ${maxeval}
        minimize 1e-12 1e-08 ${maxiter} ${maxeval}
        minimize 1e-12 1e-08 10000 ${maxeval}
        minimize 1e-12 1e-08 10000 20000
WARNING: Resetting reneighboring criteria during minimization (../min.cpp:168)
Memory usage per processor = 3.35161 Mbytes
Step Temp PotEng Lx Ly Lz 
      29            0    -241.9581    2.0000005    34.647952    1.0000002 
      30            0   -241.95813    2.0000005    34.647952    1.0000002 
      31            0   -241.95813    2.0000005    34.647952    1.0000002 
Loop time of 0.000522064 on 1 procs for 2 steps with 82 atoms

Minimization stats:
  Stopping criterion = linesearch alpha is zero
  Energy initial, next-to-last, final = 
        -241.958099645      -241.95812547      -241.95812547
  Force two-norm initial, final = 0.0501905 0.0344761
  Force max component initial, final = 0.0174653 0.0121016
  Final line search alpha, max atom move = 7.62939e-06 9.23282e-08
  Iterations, force evaluations = 2 25

Pair  time (%) = 0.000433075 (82.9545)
Neigh time (%) = 0 (0)
Comm  time (%) = 3.32624e-05 (6.37133)
Outpt time (%) = 5.96617e-06 (1.1428)
Other time (%) = 4.976e-05 (9.5314)

Nlocal:    82 ave 82 max 82 min
Histogram: 1 0 0 0 0 0 0 0 0 0
Nghost:    185 ave 185 max 185 min
Histogram: 1 0 0 0 0 0 0 0 0 0
Neighs:    718 ave 718 max 718 min
Histogram: 1 0 0 0 0 0 0 0 0 0

Total # of neighbors = 718
Ave neighs/atom = 8.7561
Neighbor list builds = 0
Dangerous builds = 0
        # write_dump all atom ${dumpfile}
        next i
jump SELF loop1
        displace_atoms upper move ${xstep1} 0.0 0.0 units lattice
        displace_atoms upper move 0.00333333333333333 0.0 0.0 units lattice
        min_style ${style}
        min_style cg
        minimize ${etol} ${ftol} ${maxiter} ${maxeval}
        minimize 1e-12 ${ftol} ${maxiter} ${maxeval}
        minimize 1e-12 1e-08 ${maxiter} ${maxeval}
        minimize 1e-12 1e-08 10000 ${maxeval}
        minimize 1e-12 1e-08 10000 20000
WARNING: Resetting reneighboring criteria during minimization (../min.cpp:168)
Memory usage per processor = 3.35161 Mbytes
Step Temp PotEng Lx Ly Lz 
      31            0   -241.95308    2.0000005    34.647952    1.0000002 
      32            0    -241.9531    2.0000005    34.647952    1.0000002 
      33            0    -241.9531    2.0000005    34.647952    1.0000002 
Loop time of 0.024337 on 1 procs for 2 steps with 82 atoms

Minimization stats:
  Stopping criterion = linesearch alpha is zero
  Energy initial, next-to-last, final = 
        -241.953082265     -241.953095408     -241.953095408
  Force two-norm initial, final = 0.0449173 0.0344749
  Force max component initial, final = 0.015181 0.0124448
  Final line search alpha, max atom move = 7.62939e-06 9.49466e-08
  Iterations, force evaluations = 2 26

Pair  time (%) = 0.000331872 (1.36366)
Neigh time (%) = 0 (0)
Comm  time (%) = 2.4277e-05 (0.0997537)
Outpt time (%) = 0.0238841 (98.1391)
Other time (%) = 9.67371e-05 (0.39749)

Nlocal:    82 ave 82 max 82 min
Histogram: 1 0 0 0 0 0 0 0 0 0
Nghost:    185 ave 185 max 185 min
Histogram: 1 0 0 0 0 0 0 0 0 0
Neighs:    718 ave 718 max 718 min
Histogram: 1 0 0 0 0 0 0 0 0 0

Total # of neighbors = 718
Ave neighs/atom = 8.7561
Neighbor list builds = 0
Dangerous builds = 0
        # write_dump all atom ${dumpfile}
        next i
jump SELF loop1
        displace_atoms upper move ${xstep1} 0.0 0.0 units lattice
        displace_atoms upper move 0.00333333333333333 0.0 0.0 units lattice
        min_style ${style}
        min_style cg
        minimize ${etol} ${ftol} ${maxiter} ${maxeval}
        minimize 1e-12 ${ftol} ${maxiter} ${maxeval}
        minimize 1e-12 1e-08 ${maxiter} ${maxeval}
        minimize 1e-12 1e-08 10000 ${maxeval}
        minimize 1e-12 1e-08 10000 20000
WARNING: Resetting reneighboring criteria during minimization (../min.cpp:168)
Memory usage per processor = 3.35161 Mbytes
Step Temp PotEng Lx Ly Lz 
      33            0   -241.94781    2.0000005    34.647952    1.0000002 
      34            0   -241.94781    2.0000005    34.647952    1.0000002 
      35            0   -241.94784    2.0000005    34.647952    1.0000002 
      36            0   -241.94784    2.0000005    34.647952    1.0000002 
      37            0   -241.94784    2.0000005    34.647952    1.0000002 
      38            0   -241.94784    2.0000005    34.647952    1.0000002 
Loop time of 0.000884994 on 1 procs for 5 steps with 82 atoms

Minimization stats:
  Stopping criterion = linesearch alpha is zero
  Energy initial, next-to-last, final = 
        -241.947806032     -241.947844572     -241.947844572
  Force two-norm initial, final = 0.0579542 0.0313637
  Force max component initial, final = 0.0233857 0.00896861
  Final line search alpha, max atom move = 7.62939e-06 6.84251e-08
  Iterations, force evaluations = 5 52

Pair  time (%) = 0.000705737 (79.7448)
Neigh time (%) = 0 (0)
Comm  time (%) = 7.01667e-05 (7.92849)
Outpt time (%) = 2.58497e-05 (2.92089)
Other time (%) = 8.32407e-05 (9.40579)

Nlocal:    82 ave 82 max 82 min
Histogram: 1 0 0 0 0 0 0 0 0 0
Nghost:    185 ave 185 max 185 min
Histogram: 1 0 0 0 0 0 0 0 0 0
Neighs:    718 ave 718 max 718 min
Histogram: 1 0 0 0 0 0 0 0 0 0

Total # of neighbors = 718
Ave neighs/atom = 8.7561
Neighbor list builds = 0
Dangerous builds = 0
        # write_dump all atom ${dumpfile}
        next i
jump SELF loop1
        displace_atoms upper move ${xstep1} 0.0 0.0 units lattice
        displace_atoms upper move 0.00333333333333333 0.0 0.0 units lattice
        min_style ${style}
        min_style cg
        minimize ${etol} ${ftol} ${maxiter} ${maxeval}
        minimize 1e-12 ${ftol} ${maxiter} ${maxeval}
        minimize 1e-12 1e-08 ${maxiter} ${maxeval}
        minimize 1e-12 1e-08 10000 ${maxeval}
        minimize 1e-12 1e-08 10000 20000
WARNING: Resetting reneighboring criteria during minimization (../min.cpp:168)
Memory usage per processor = 3.35161 Mbytes
Step Temp PotEng Lx Ly Lz 
      38            0   -241.94233    2.0000005    34.647952    1.0000002 
      39            0   -241.94234    2.0000005    34.647952    1.0000002 
      40            0   -241.94234    2.0000005    34.647952    1.0000002 
Loop time of 0.000649985 on 1 procs for 2 steps with 82 atoms

Minimization stats:
  Stopping criterion = linesearch alpha is zero
  Energy initial, next-to-last, final = 
        -241.942330517     -241.942341419     -241.942341419
  Force two-norm initial, final = 0.037875 0.0274016
  Force max component initial, final = 0.0137517 0.00831129
  Final line search alpha, max atom move = 7.62939e-06 6.34101e-08
  Iterations, force evaluations = 2 26

Pair  time (%) = 0.000541357 (83.2875)
Neigh time (%) = 0 (0)
Comm  time (%) = 4.15366e-05 (6.3904)
Outpt time (%) = 6.89342e-06 (1.06055)
Other time (%) = 6.01987e-05 (9.26155)

Nlocal:    82 ave 82 max 82 min
Histogram: 1 0 0 0 0 0 0 0 0 0
Nghost:    185 ave 185 max 185 min
Histogram: 1 0 0 0 0 0 0 0 0 0
Neighs:    718 ave 718 max 718 min
Histogram: 1 0 0 0 0 0 0 0 0 0

Total # of neighbors = 718
Ave neighs/atom = 8.7561
Neighbor list builds = 0
Dangerous builds = 0
        # write_dump all atom ${dumpfile}
        next i
jump SELF loop1
        displace_atoms upper move ${xstep1} 0.0 0.0 units lattice
        displace_atoms upper move 0.00333333333333333 0.0 0.0 units lattice
        min_style ${style}
        min_style cg
        minimize ${etol} ${ftol} ${maxiter} ${maxeval}
        minimize 1e-12 ${ftol} ${maxiter} ${maxeval}
        minimize 1e-12 1e-08 ${maxiter} ${maxeval}
        minimize 1e-12 1e-08 10000 ${maxeval}
        minimize 1e-12 1e-08 10000 20000
WARNING: Resetting reneighboring criteria during minimization (../min.cpp:168)
Memory usage per processor = 3.35161 Mbytes
Step Temp PotEng Lx Ly Lz 
      40            0   -241.93659    2.0000005    34.647952    1.0000002 
      41            0    -241.9366    2.0000005    34.647952    1.0000002 
      42            0   -241.93661    2.0000005    34.647952    1.0000002 
      43            0   -241.93661    2.0000005    34.647952    1.0000002 
      44            0   -241.93661    2.0000005    34.647952    1.0000002 
Loop time of 0.000911118 on 1 procs for 4 steps with 82 atoms

Minimization stats:
  Stopping criterion = linesearch alpha is zero
  Energy initial, next-to-last, final = 
        -241.936589731     -241.936613328     -241.936613328
  Force two-norm initial, final = 0.0529464 0.0250899
  Force max component initial, final = 0.0226778 0.00806157
  Final line search alpha, max atom move = 1.52588e-05 1.2301e-07
  Iterations, force evaluations = 4 41

Pair  time (%) = 0.00073466 (80.6328)
Neigh time (%) = 0 (0)
Comm  time (%) = 5.29459e-05 (5.8111)
Outpt time (%) = 1.69149e-05 (1.8565)
Other time (%) = 0.000106597 (11.6996)

Nlocal:    82 ave 82 max 82 min
Histogram: 1 0 0 0 0 0 0 0 0 0
Nghost:    185 ave 185 max 185 min
Histogram: 1 0 0 0 0 0 0 0 0 0
Neighs:    718 ave 718 max 718 min
Histogram: 1 0 0 0 0 0 0 0 0 0

Total # of neighbors = 718
Ave neighs/atom = 8.7561
Neighbor list builds = 0
Dangerous builds = 0
        # write_dump all atom ${dumpfile}
        next i
jump SELF loop1
        displace_atoms upper move ${xstep1} 0.0 0.0 units lattice
        displace_atoms upper move 0.00333333333333333 0.0 0.0 units lattice
        min_style ${style}
        min_style cg
        minimize ${etol} ${ftol} ${maxiter} ${maxeval}
        minimize 1e-12 ${ftol} ${maxiter} ${maxeval}
        minimize 1e-12 1e-08 ${maxiter} ${maxeval}
        minimize 1e-12 1e-08 10000 ${maxeval}
        minimize 1e-12 1e-08 10000 20000
WARNING: Resetting reneighboring criteria during minimization (../min.cpp:168)
Memory usage per processor = 3.35161 Mbytes
Step Temp PotEng Lx Ly Lz 
      44            0   -241.93064    2.0000005    34.647952    1.0000002 
      45            0   -241.93065    2.0000005    34.647952    1.0000002 
      46            0   -241.93067    2.0000005    34.647952    1.0000002 
      47            0   -241.93067    2.0000005    34.647952    1.0000002 
Loop time of 0.0013869 on 1 procs for 3 steps with 82 atoms

Minimization stats:
  Stopping criterion = linesearch alpha is zero
  Energy initial, next-to-last, final = 
        -241.930638577      -241.93067231      -241.93067231
  Force two-norm initial, final = 0.0566968 0.0273859
  Force max component initial, final = 0.0254261 0.0105603
  Final line search alpha, max atom move = 7.62939e-06 8.05686e-08
  Iterations, force evaluations = 3 33

Pair  time (%) = 0.00119805 (86.3838)
Neigh time (%) = 0 (0)
Comm  time (%) = 5.76663e-05 (4.15794)
Outpt time (%) = 1.4002e-05 (1.00959)
Other time (%) = 0.000117174 (8.44865)

Nlocal:    82 ave 82 max 82 min
Histogram: 1 0 0 0 0 0 0 0 0 0
Nghost:    185 ave 185 max 185 min
Histogram: 1 0 0 0 0 0 0 0 0 0
Neighs:    718 ave 718 max 718 min
Histogram: 1 0 0 0 0 0 0 0 0 0

Total # of neighbors = 718
Ave neighs/atom = 8.7561
Neighbor list builds = 0
Dangerous builds = 0
        # write_dump all atom ${dumpfile}
        next i
jump SELF loop1
        displace_atoms upper move ${xstep1} 0.0 0.0 units lattice
        displace_atoms upper move 0.00333333333333333 0.0 0.0 units lattice
        min_style ${style}
        min_style cg
        minimize ${etol} ${ftol} ${maxiter} ${maxeval}
        minimize 1e-12 ${ftol} ${maxiter} ${maxeval}
        minimize 1e-12 1e-08 ${maxiter} ${maxeval}
        minimize 1e-12 1e-08 10000 ${maxeval}
        minimize 1e-12 1e-08 10000 20000
WARNING: Resetting reneighboring criteria during minimization (../min.cpp:168)
Memory usage per processor = 3.35161 Mbytes
Step Temp PotEng Lx Ly Lz 
      47            0   -241.92448    2.0000005    34.647952    1.0000002 
      48            0   -241.92449    2.0000005    34.647952    1.0000002 
      49            0   -241.92449    2.0000005    34.647952    1.0000002 
Loop time of 0.000876968 on 1 procs for 2 steps with 82 atoms

Minimization stats:
  Stopping criterion = linesearch alpha is zero
  Energy initial, next-to-last, final = 
        -241.924480351     -241.924487047     -241.924487047
  Force two-norm initial, final = 0.0606961 0.0478739
  Force max component initial, final = 0.0271014 0.0198111
  Final line search alpha, max atom move = 3.8147e-06 7.55732e-08
  Iterations, force evaluations = 2 29

Pair  time (%) = 0.000528971 (60.3181)
Neigh time (%) = 0 (0)
Comm  time (%) = 3.64539e-05 (4.15682)
Outpt time (%) = 8.11135e-06 (0.924932)
Other time (%) = 0.000303432 (34.6001)

Nlocal:    82 ave 82 max 82 min
Histogram: 1 0 0 0 0 0 0 0 0 0
Nghost:    185 ave 185 max 185 min
Histogram: 1 0 0 0 0 0 0 0 0 0
Neighs:    718 ave 718 max 718 min
Histogram: 1 0 0 0 0 0 0 0 0 0

Total # of neighbors = 718
Ave neighs/atom = 8.7561
Neighbor list builds = 0
Dangerous builds = 0
        # write_dump all atom ${dumpfile}
        next i
jump SELF loop1
        displace_atoms upper move ${xstep1} 0.0 0.0 units lattice
        displace_atoms upper move 0.00333333333333333 0.0 0.0 units lattice
        min_style ${style}
        min_style cg
        minimize ${etol} ${ftol} ${maxiter} ${maxeval}
        minimize 1e-12 ${ftol} ${maxiter} ${maxeval}
        minimize 1e-12 1e-08 ${maxiter} ${maxeval}
        minimize 1e-12 1e-08 10000 ${maxeval}
        minimize 1e-12 1e-08 10000 20000
WARNING: Resetting reneighboring criteria during minimization (../min.cpp:168)
Memory usage per processor = 3.35161 Mbytes
Step Temp PotEng Lx Ly Lz 
      49            0   -241.91806    2.0000005    34.647952    1.0000002 
      50            0   -241.91807    2.0000005    34.647952    1.0000002 
      51            0   -241.91807    2.0000005    34.647952    1.0000002 
Loop time of 0.0006889 on 1 procs for 2 steps with 82 atoms

Minimization stats:
  Stopping criterion = linesearch alpha is zero
  Energy initial, next-to-last, final = 
        -241.918060907     -241.918065792     -241.918065792
  Force two-norm initial, final = 0.0981287 0.0865429
  Force max component initial, final = 0.0471891 0.0409172
  Final line search alpha, max atom move = 9.53674e-07 3.90217e-08
  Iterations, force evaluations = 2 32

Pair  time (%) = 0.000583571 (84.7106)
Neigh time (%) = 0 (0)
Comm  time (%) = 4.12954e-05 (5.9944)
Outpt time (%) = 6.06407e-06 (0.880255)
Other time (%) = 5.79692e-05 (8.41476)

Nlocal:    82 ave 82 max 82 min
Histogram: 1 0 0 0 0 0 0 0 0 0
Nghost:    185 ave 185 max 185 min
Histogram: 1 0 0 0 0 0 0 0 0 0
Neighs:    718 ave 718 max 718 min
Histogram: 1 0 0 0 0 0 0 0 0 0

Total # of neighbors = 718
Ave neighs/atom = 8.7561
Neighbor list builds = 0
Dangerous builds = 0
        # write_dump all atom ${dumpfile}
        next i
jump SELF loop1
        displace_atoms upper move ${xstep1} 0.0 0.0 units lattice
        displace_atoms upper move 0.00333333333333333 0.0 0.0 units lattice
        min_style ${style}
        min_style cg
        minimize ${etol} ${ftol} ${maxiter} ${maxeval}
        minimize 1e-12 ${ftol} ${maxiter} ${maxeval}
        minimize 1e-12 1e-08 ${maxiter} ${maxeval}
        minimize 1e-12 1e-08 10000 ${maxeval}
        minimize 1e-12 1e-08 10000 20000
WARNING: Resetting reneighboring criteria during minimization (../min.cpp:168)
Memory usage per processor = 3.35161 Mbytes
Step Temp PotEng Lx Ly Lz 
      51            0   -241.91141    2.0000005    34.647952    1.0000002 
      52            0   -241.91147    2.0000005    34.647952    1.0000002 
      53            0   -241.91151    2.0000005    34.647952    1.0000002 
      54            0   -241.91156    2.0000005    34.647952    1.0000002 
      55            0   -241.91158    2.0000005    34.647952    1.0000002 
      56            0   -241.91158    2.0000005    34.647952    1.0000002 
Loop time of 0.00112708 on 1 procs for 5 steps with 82 atoms

Minimization stats:
  Stopping criterion = linesearch alpha is zero
  Energy initial, next-to-last, final = 
        -241.911408241     -241.911580437     -241.911580437
  Force two-norm initial, final = 0.141923 0.0312498
  Force max component initial, final = 0.0695509 0.0134279
  Final line search alpha, max atom move = 7.62939e-06 1.02447e-07
  Iterations, force evaluations = 5 47

Pair  time (%) = 0.000946866 (84.0104)
Neigh time (%) = 0 (0)
Comm  time (%) = 6.24175e-05 (5.53797)
Outpt time (%) = 2.20775e-05 (1.95882)
Other time (%) = 9.57215e-05 (8.49285)

Nlocal:    82 ave 82 max 82 min
Histogram: 1 0 0 0 0 0 0 0 0 0
Nghost:    185 ave 185 max 185 min
Histogram: 1 0 0 0 0 0 0 0 0 0
Neighs:    718 ave 718 max 718 min
Histogram: 1 0 0 0 0 0 0 0 0 0

Total # of neighbors = 718
Ave neighs/atom = 8.7561
Neighbor list builds = 0
Dangerous builds = 0
        # write_dump all atom ${dumpfile}
        next i
jump SELF loop1
        displace_atoms upper move ${xstep1} 0.0 0.0 units lattice
        displace_atoms upper move 0.00333333333333333 0.0 0.0 units lattice
        min_style ${style}
        min_style cg
        minimize ${etol} ${ftol} ${maxiter} ${maxeval}
        minimize 1e-12 ${ftol} ${maxiter} ${maxeval}
        minimize 1e-12 1e-08 ${maxiter} ${maxeval}
        minimize 1e-12 1e-08 10000 ${maxeval}
        minimize 1e-12 1e-08 10000 20000
WARNING: Resetting reneighboring criteria during minimization (../min.cpp:168)
Memory usage per processor = 3.35161 Mbytes
Step Temp PotEng Lx Ly Lz 
      56            0   -241.90478    2.0000005    34.647952    1.0000002 
      57            0   -241.90478    2.0000005    34.647952    1.0000002 
      58            0   -241.90478    2.0000005    34.647952    1.0000002 
Loop time of 0.000579957 on 1 procs for 2 steps with 82 atoms

Minimization stats:
  Stopping criterion = linesearch alpha is zero
  Energy initial, next-to-last, final = 
        -241.904776531     -241.904781969     -241.904781969
  Force two-norm initial, final = 0.0690613 0.0538324
  Force max component initial, final = 0.0308048 0.0226598
  Final line search alpha, max atom move = 3.8147e-06 8.64402e-08
  Iterations, force evaluations = 2 29

Pair  time (%) = 0.000484131 (83.4771)
Neigh time (%) = 0 (0)
Comm  time (%) = 3.3545e-05 (5.78404)
Outpt time (%) = 8.10344e-06 (1.39725)
Other time (%) = 5.41775e-05 (9.34164)

Nlocal:    82 ave 82 max 82 min
Histogram: 1 0 0 0 0 0 0 0 0 0
Nghost:    185 ave 185 max 185 min
Histogram: 1 0 0 0 0 0 0 0 0 0
Neighs:    718 ave 718 max 718 min
Histogram: 1 0 0 0 0 0 0 0 0 0

Total # of neighbors = 718
Ave neighs/atom = 8.7561
Neighbor list builds = 0
Dangerous builds = 0
        # write_dump all atom ${dumpfile}
        next i
jump SELF loop1
        displace_atoms upper move ${xstep1} 0.0 0.0 units lattice
        displace_atoms upper move 0.00333333333333333 0.0 0.0 units lattice
        min_style ${style}
        min_style cg
        minimize ${etol} ${ftol} ${maxiter} ${maxeval}
        minimize 1e-12 ${ftol} ${maxiter} ${maxeval}
        minimize 1e-12 1e-08 ${maxiter} ${maxeval}
        minimize 1e-12 1e-08 10000 ${maxeval}
        minimize 1e-12 1e-08 10000 20000
WARNING: Resetting reneighboring criteria during minimization (../min.cpp:168)
Memory usage per processor = 3.35161 Mbytes
Step Temp PotEng Lx Ly Lz 
      58            0   -241.89778    2.0000005    34.647952    1.0000002 
      59            0   -241.89781    2.0000005    34.647952    1.0000002 
      60            0   -241.89783    2.0000005    34.647952    1.0000002 
      61            0   -241.89786    2.0000005    34.647952    1.0000002 
      62            0   -241.89789    2.0000005    34.647952    1.0000002 
      63            0   -241.89793    2.0000005    34.647952    1.0000002 
      64            0   -241.89793    2.0000005    34.647952    1.0000002 
Loop time of 0.00119405 on 1 procs for 6 steps with 82 atoms

Minimization stats:
  Stopping criterion = linesearch alpha is zero
  Energy initial, next-to-last, final = 
        -241.897777083      -241.89792778      -241.89792778
  Force two-norm initial, final = 0.122568 0.0317642
  Force max component initial, final = 0.0595374 0.0112289
  Final line search alpha, max atom move = 7.62939e-06 8.56701e-08
  Iterations, force evaluations = 6 55

Pair  time (%) = 0.000987321 (82.6868)
Neigh time (%) = 0 (0)
Comm  time (%) = 6.85717e-05 (5.74278)
Outpt time (%) = 2.79297e-05 (2.33907)
Other time (%) = 0.000110227 (9.23137)

Nlocal:    82 ave 82 max 82 min
Histogram: 1 0 0 0 0 0 0 0 0 0
Nghost:    185 ave 185 max 185 min
Histogram: 1 0 0 0 0 0 0 0 0 0
Neighs:    718 ave 718 max 718 min
Histogram: 1 0 0 0 0 0 0 0 0 0

Total # of neighbors = 718
Ave neighs/atom = 8.7561
Neighbor list builds = 0
Dangerous builds = 0
        # write_dump all atom ${dumpfile}
        next i
jump SELF loop1
        displace_atoms upper move ${xstep1} 0.0 0.0 units lattice
        displace_atoms upper move 0.00333333333333333 0.0 0.0 units lattice
        min_style ${style}
        min_style cg
        minimize ${etol} ${ftol} ${maxiter} ${maxeval}
        minimize 1e-12 ${ftol} ${maxiter} ${maxeval}
        minimize 1e-12 1e-08 ${maxiter} ${maxeval}
        minimize 1e-12 1e-08 10000 ${maxeval}
        minimize 1e-12 1e-08 10000 20000
WARNING: Resetting reneighboring criteria during minimization (../min.cpp:168)
Memory usage per processor = 3.35161 Mbytes
Step Temp PotEng Lx Ly Lz 
      64            0   -241.89085    2.0000005    34.647952    1.0000002 
      65            0   -241.89087    2.0000005    34.647952    1.0000002 
      66            0   -241.89087    2.0000005    34.647952    1.0000002 
Loop time of 0.000640958 on 1 procs for 2 steps with 82 atoms

Minimization stats:
  Stopping criterion = linesearch alpha is zero
  Energy initial, next-to-last, final = 
        -241.890854077     -241.890867189     -241.890867189
  Force two-norm initial, final = 0.0690099 0.0399073
  Force max component initial, final = 0.0311612 0.0147733
  Final line search alpha, max atom move = 7.62939e-06 1.12712e-07
  Iterations, force evaluations = 2 27

Pair  time (%) = 0.000543137 (84.7383)
Neigh time (%) = 0 (0)
Comm  time (%) = 4.00981e-05 (6.25596)
Outpt time (%) = 7.98365e-06 (1.24558)
Other time (%) = 4.97393e-05 (7.76014)

Nlocal:    82 ave 82 max 82 min
Histogram: 1 0 0 0 0 0 0 0 0 0
Nghost:    185 ave 185 max 185 min
Histogram: 1 0 0 0 0 0 0 0 0 0
Neighs:    718 ave 718 max 718 min
Histogram: 1 0 0 0 0 0 0 0 0 0

Total # of neighbors = 718
Ave neighs/atom = 8.7561
Neighbor list builds = 0
Dangerous builds = 0
        # write_dump all atom ${dumpfile}
        next i
jump SELF loop1
        displace_atoms upper move ${xstep1} 0.0 0.0 units lattice
        displace_atoms upper move 0.00333333333333333 0.0 0.0 units lattice
        min_style ${style}
        min_style cg
        minimize ${etol} ${ftol} ${maxiter} ${maxeval}
        minimize 1e-12 ${ftol} ${maxiter} ${maxeval}
        minimize 1e-12 1e-08 ${maxiter} ${maxeval}
        minimize 1e-12 1e-08 10000 ${maxeval}
        minimize 1e-12 1e-08 10000 20000
WARNING: Resetting reneighboring criteria during minimization (../min.cpp:168)
Memory usage per processor = 3.35161 Mbytes
Step Temp PotEng Lx Ly Lz 
      66            0   -241.88362    2.0000005    34.647952    1.0000002 
      67            0   -241.88365    2.0000005    34.647952    1.0000002 
      68            0   -241.88366    2.0000005    34.647952    1.0000002 
      69            0   -241.88366    2.0000005    34.647952    1.0000002 
      70            0   -241.88366    2.0000005    34.647952    1.0000002 
Loop time of 0.000881005 on 1 procs for 4 steps with 82 atoms

Minimization stats:
  Stopping criterion = linesearch alpha is zero
  Energy initial, next-to-last, final = 
        -241.883619839     -241.883659596     -241.883659596
  Force two-norm initial, final = 0.107887 0.0391568
  Force max component initial, final = 0.0522493 0.0114938
  Final line search alpha, max atom move = 7.62939e-06 8.76907e-08
  Iterations, force evaluations = 4 46

Pair  time (%) = 0.00075503 (85.701)
Neigh time (%) = 0 (0)
Comm  time (%) = 4.14657e-05 (4.70664)
Outpt time (%) = 1.29443e-05 (1.46927)
Other time (%) = 7.15648e-05 (8.12309)

Nlocal:    82 ave 82 max 82 min
Histogram: 1 0 0 0 0 0 0 0 0 0
Nghost:    185 ave 185 max 185 min
Histogram: 1 0 0 0 0 0 0 0 0 0
Neighs:    718 ave 718 max 718 min
Histogram: 1 0 0 0 0 0 0 0 0 0

Total # of neighbors = 718
Ave neighs/atom = 8.7561
Neighbor list builds = 0
Dangerous builds = 0
        # write_dump all atom ${dumpfile}
        next i
jump SELF loop1
        displace_atoms upper move ${xstep1} 0.0 0.0 units lattice
        displace_atoms upper move 0.00333333333333333 0.0 0.0 units lattice
        min_style ${style}
        min_style cg
        minimize ${etol} ${ftol} ${maxiter} ${maxeval}
        minimize 1e-12 ${ftol} ${maxiter} ${maxeval}
        minimize 1e-12 1e-08 ${maxiter} ${maxeval}
        minimize 1e-12 1e-08 10000 ${maxeval}
        minimize 1e-12 1e-08 10000 20000
WARNING: Resetting reneighboring criteria during minimization (../min.cpp:168)
Memory usage per processor = 3.35161 Mbytes
Step Temp PotEng Lx Ly Lz 
      70            0   -241.87627    2.0000005    34.647953    1.0000002 
      71            0   -241.87632    2.0000005    34.647953    1.0000002 
      72            0   -241.87632    2.0000005    34.647953    1.0000002 
Loop time of 0.000671063 on 1 procs for 2 steps with 82 atoms

Minimization stats:
  Stopping criterion = linesearch alpha is zero
  Energy initial, next-to-last, final = 
        -241.876273638     -241.876316312     -241.876316312
  Force two-norm initial, final = 0.103598 0.0503105
  Force max component initial, final = 0.0493145 0.0221543
  Final line search alpha, max atom move = 3.8147e-06 8.45118e-08
  Iterations, force evaluations = 2 27

Pair  time (%) = 0.000576133 (85.8537)
Neigh time (%) = 0 (0)
Comm  time (%) = 3.23263e-05 (4.81718)
Outpt time (%) = 5.97117e-06 (0.889808)
Other time (%) = 5.6633e-05 (8.4393)

Nlocal:    82 ave 82 max 82 min
Histogram: 1 0 0 0 0 0 0 0 0 0
Nghost:    185 ave 185 max 185 min
Histogram: 1 0 0 0 0 0 0 0 0 0
Neighs:    718 ave 718 max 718 min
Histogram: 1 0 0 0 0 0 0 0 0 0

Total # of neighbors = 718
Ave neighs/atom = 8.7561
Neighbor list builds = 0
Dangerous builds = 0
        # write_dump all atom ${dumpfile}
        next i
jump SELF loop1
        displace_atoms upper move ${xstep1} 0.0 0.0 units lattice
        displace_atoms upper move 0.00333333333333333 0.0 0.0 units lattice
        min_style ${style}
        min_style cg
        minimize ${etol} ${ftol} ${maxiter} ${maxeval}
        minimize 1e-12 ${ftol} ${maxiter} ${maxeval}
        minimize 1e-12 1e-08 ${maxiter} ${maxeval}
        minimize 1e-12 1e-08 10000 ${maxeval}
        minimize 1e-12 1e-08 10000 20000
WARNING: Resetting reneighboring criteria during minimization (../min.cpp:168)
Memory usage per processor = 3.35161 Mbytes
Step Temp PotEng Lx Ly Lz 
      72            0    -241.8688    2.0000005    34.647953    1.0000002 
      73            0   -241.86886    2.0000005    34.647953    1.0000002 
      74            0   -241.86888    2.0000005    34.647953    1.0000002 
      75            0   -241.86888    2.0000005    34.647953    1.0000002 
Loop time of 0.00101708 on 1 procs for 3 steps with 82 atoms

Minimization stats:
  Stopping criterion = linesearch alpha is zero
  Energy initial, next-to-last, final = 
         -241.86880279     -241.868875963     -241.868875963
  Force two-norm initial, final = 0.0928037 0.0655124
  Force max component initial, final = 0.0390022 0.0222662
  Final line search alpha, max atom move = 1.90735e-06 4.24694e-08
  Iterations, force evaluations = 3 35

Pair  time (%) = 0.000880155 (86.5378)
Neigh time (%) = 0 (0)
Comm  time (%) = 3.76859e-05 (3.70531)
Outpt time (%) = 1.21152e-05 (1.19118)
Other time (%) = 8.71195e-05 (8.56569)

Nlocal:    82 ave 82 max 82 min
Histogram: 1 0 0 0 0 0 0 0 0 0
Nghost:    185 ave 185 max 185 min
Histogram: 1 0 0 0 0 0 0 0 0 0
Neighs:    718 ave 718 max 718 min
Histogram: 1 0 0 0 0 0 0 0 0 0

Total # of neighbors = 718
Ave neighs/atom = 8.7561
Neighbor list builds = 0
Dangerous builds = 0
        # write_dump all atom ${dumpfile}
        next i
jump SELF loop1
        displace_atoms upper move ${xstep1} 0.0 0.0 units lattice
        displace_atoms upper move 0.00333333333333333 0.0 0.0 units lattice
        min_style ${style}
        min_style cg
        minimize ${etol} ${ftol} ${maxiter} ${maxeval}
        minimize 1e-12 ${ftol} ${maxiter} ${maxeval}
        minimize 1e-12 1e-08 ${maxiter} ${maxeval}
        minimize 1e-12 1e-08 10000 ${maxeval}
        minimize 1e-12 1e-08 10000 20000
WARNING: Resetting reneighboring criteria during minimization (../min.cpp:168)
Memory usage per processor = 3.35161 Mbytes
Step Temp PotEng Lx Ly Lz 
      75            0   -241.86128    2.0000005    34.647955    1.0000002 
      76            0   -241.86131    2.0000005    34.647955    1.0000002 
      77            0   -241.86138    2.0000005    34.647955    1.0000002 
      78            0   -241.86142    2.0000005    34.647955    1.0000002 
      79            0   -241.86147    2.0000005    34.647955    1.0000002 
      80            0   -241.86149    2.0000005    34.647955    1.0000002 
      81            0    -241.8615    2.0000005    34.647955    1.0000002 
      82            0    -241.8615    2.0000005    34.647955    1.0000002 
      83            0    -241.8615    2.0000005    34.647955    1.0000002 
Loop time of 0.00261698 on 1 procs for 8 steps with 82 atoms

Minimization stats:
  Stopping criterion = linesearch alpha is zero
  Energy initial, next-to-last, final = 
        -241.861283589     -241.861504065     -241.861504065
  Force two-norm initial, final = 0.0574461 0.0287311
  Force max component initial, final = 0.0196686 0.00744531
  Final line search alpha, max atom move = 7.62939e-06 5.68032e-08
  Iterations, force evaluations = 8 70

Pair  time (%) = 0.00221248 (84.5432)
Neigh time (%) = 0 (0)
Comm  time (%) = 0.000122728 (4.68967)
Outpt time (%) = 8.09568e-05 (3.09352)
Other time (%) = 0.000200816 (7.67358)

Nlocal:    82 ave 82 max 82 min
Histogram: 1 0 0 0 0 0 0 0 0 0
Nghost:    185 ave 185 max 185 min
Histogram: 1 0 0 0 0 0 0 0 0 0
Neighs:    718 ave 718 max 718 min
Histogram: 1 0 0 0 0 0 0 0 0 0

Total # of neighbors = 718
Ave neighs/atom = 8.7561
Neighbor list builds = 0
Dangerous builds = 0
        # write_dump all atom ${dumpfile}
        next i
jump SELF loop1
        displace_atoms upper move ${xstep1} 0.0 0.0 units lattice
        displace_atoms upper move 0.00333333333333333 0.0 0.0 units lattice
        min_style ${style}
        min_style cg
        minimize ${etol} ${ftol} ${maxiter} ${maxeval}
        minimize 1e-12 ${ftol} ${maxiter} ${maxeval}
        minimize 1e-12 1e-08 ${maxiter} ${maxeval}
        minimize 1e-12 1e-08 10000 ${maxeval}
        minimize 1e-12 1e-08 10000 20000
WARNING: Resetting reneighboring criteria during minimization (../min.cpp:168)
Memory usage per processor = 3.35161 Mbytes
Step Temp PotEng Lx Ly Lz 
      83            0   -241.85379    2.0000005    34.648002    1.0000002 
      84            0   -241.85379    2.0000005    34.648002    1.0000002 
Loop time of 0.000472054 on 1 procs for 1 steps with 82 atoms

Minimization stats:
  Stopping criterion = linesearch alpha is zero
  Energy initial, next-to-last, final = 
         -241.85378988      -241.85378988      -241.85378988
  Force two-norm initial, final = 0.0905316 0.0905316
  Force max component initial, final = 0.0432102 0.0432102
  Final line search alpha, max atom move = 9.53674e-07 4.12085e-08
  Iterations, force evaluations = 1 21

Pair  time (%) = 0.000403644 (85.5079)
Neigh time (%) = 0 (0)
Comm  time (%) = 2.23871e-05 (4.74249)
Outpt time (%) = 0 (0)
Other time (%) = 4.60233e-05 (9.74958)

Nlocal:    82 ave 82 max 82 min
Histogram: 1 0 0 0 0 0 0 0 0 0
Nghost:    185 ave 185 max 185 min
Histogram: 1 0 0 0 0 0 0 0 0 0
Neighs:    718 ave 718 max 718 min
Histogram: 1 0 0 0 0 0 0 0 0 0

Total # of neighbors = 718
Ave neighs/atom = 8.7561
Neighbor list builds = 0
Dangerous builds = 0
        # write_dump all atom ${dumpfile}
        next i
jump SELF loop1
        displace_atoms upper move ${xstep1} 0.0 0.0 units lattice
        displace_atoms upper move 0.00333333333333333 0.0 0.0 units lattice
        min_style ${style}
        min_style cg
        minimize ${etol} ${ftol} ${maxiter} ${maxeval}
        minimize 1e-12 ${ftol} ${maxiter} ${maxeval}
        minimize 1e-12 1e-08 ${maxiter} ${maxeval}
        minimize 1e-12 1e-08 10000 ${maxeval}
        minimize 1e-12 1e-08 10000 20000
WARNING: Resetting reneighboring criteria during minimization (../min.cpp:168)
Memory usage per processor = 3.35161 Mbytes
Step Temp PotEng Lx Ly Lz 
      84            0    -241.8459    2.0000005    34.648002    1.0000002 
      85            0   -241.84599    2.0000005    34.648002    1.0000002 
      86            0     -241.846    2.0000005    34.648002    1.0000002 
      87            0     -241.846    2.0000005    34.648002    1.0000002 
Loop time of 0.000714091 on 1 procs for 3 steps with 82 atoms

Minimization stats:
  Stopping criterion = linesearch alpha is zero
  Energy initial, next-to-last, final = 
        -241.845898408     -241.846000937     -241.846000937
  Force two-norm initial, final = 0.166493 0.0504558
  Force max component initial, final = 0.082147 0.0217194
  Final line search alpha, max atom move = 3.8147e-06 8.28528e-08
  Iterations, force evaluations = 3 36

Pair  time (%) = 0.000604952 (84.7164)
Neigh time (%) = 0 (0)
Comm  time (%) = 3.0885e-05 (4.32508)
Outpt time (%) = 1.5856e-05 (2.22045)
Other time (%) = 6.23978e-05 (8.73808)

Nlocal:    82 ave 82 max 82 min
Histogram: 1 0 0 0 0 0 0 0 0 0
Nghost:    185 ave 185 max 185 min
Histogram: 1 0 0 0 0 0 0 0 0 0
Neighs:    718 ave 718 max 718 min
Histogram: 1 0 0 0 0 0 0 0 0 0

Total # of neighbors = 718
Ave neighs/atom = 8.7561
Neighbor list builds = 0
Dangerous builds = 0
        # write_dump all atom ${dumpfile}
        next i
jump SELF loop1
        displace_atoms upper move ${xstep1} 0.0 0.0 units lattice
        displace_atoms upper move 0.00333333333333333 0.0 0.0 units lattice
        min_style ${style}
        min_style cg
        minimize ${etol} ${ftol} ${maxiter} ${maxeval}
        minimize 1e-12 ${ftol} ${maxiter} ${maxeval}
        minimize 1e-12 1e-08 ${maxiter} ${maxeval}
        minimize 1e-12 1e-08 10000 ${maxeval}
        minimize 1e-12 1e-08 10000 20000
WARNING: Resetting reneighboring criteria during minimization (../min.cpp:168)
Memory usage per processor = 3.35161 Mbytes
Step Temp PotEng Lx Ly Lz 
      87            0   -241.83804    2.0000005     34.64801    1.0000002 
      88            0   -241.83808    2.0000005     34.64801    1.0000002 
      89            0   -241.83809    2.0000005     34.64801    1.0000002 
      90            0   -241.83811    2.0000005     34.64801    1.0000002 
      91            0   -241.83813    2.0000005     34.64801    1.0000002 
      92            0   -241.83813    2.0000005     34.64801    1.0000002 
Loop time of 0.000921059 on 1 procs for 5 steps with 82 atoms

Minimization stats:
  Stopping criterion = linesearch alpha is zero
  Energy initial, next-to-last, final = 
        -241.838043698     -241.838134147     -241.838134147
  Force two-norm initial, final = 0.0839468 0.0891924
  Force max component initial, final = 0.033901 0.0287209
  Final line search alpha, max atom move = 3.8147e-06 1.09562e-07
  Iterations, force evaluations = 5 47

Pair  time (%) = 0.00075774 (82.2684)
Neigh time (%) = 0 (0)
Comm  time (%) = 4.6695e-05 (5.06971)
Outpt time (%) = 3.52184e-05 (3.82369)
Other time (%) = 8.14053e-05 (8.83823)

Nlocal:    82 ave 82 max 82 min
Histogram: 1 0 0 0 0 0 0 0 0 0
Nghost:    185 ave 185 max 185 min
Histogram: 1 0 0 0 0 0 0 0 0 0
Neighs:    718 ave 718 max 718 min
Histogram: 1 0 0 0 0 0 0 0 0 0

Total # of neighbors = 718
Ave neighs/atom = 8.7561
Neighbor list builds = 0
Dangerous builds = 0
        # write_dump all atom ${dumpfile}
        next i
jump SELF loop1
        displace_atoms upper move ${xstep1} 0.0 0.0 units lattice
        displace_atoms upper move 0.00333333333333333 0.0 0.0 units lattice
        min_style ${style}
        min_style cg
        minimize ${etol} ${ftol} ${maxiter} ${maxeval}
        minimize 1e-12 ${ftol} ${maxiter} ${maxeval}
        minimize 1e-12 1e-08 ${maxiter} ${maxeval}
        minimize 1e-12 1e-08 10000 ${maxeval}
        minimize 1e-12 1e-08 10000 20000
WARNING: Resetting reneighboring criteria during minimization (../min.cpp:168)
Memory usage per processor = 3.35161 Mbytes
Step Temp PotEng Lx Ly Lz 
      92            0   -241.83006    2.0000005     34.64808    1.0000002 
      93            0   -241.83011    2.0000005     34.64808    1.0000002 
      94            0   -241.83013    2.0000005     34.64808    1.0000002 
      95            0   -241.83016    2.0000005     34.64808    1.0000002 
      96            0   -241.83016    2.0000005     34.64808    1.0000002 
Loop time of 0.00163605 on 1 procs for 4 steps with 82 atoms

Minimization stats:
  Stopping criterion = linesearch alpha is zero
  Energy initial, next-to-last, final = 
        -241.830064916     -241.830164922     -241.830164922
  Force two-norm initial, final = 0.151675 0.107978
  Force max component initial, final = 0.0677303 0.0404256
  Final line search alpha, max atom move = 3.05176e-05 1.23369e-06
  Iterations, force evaluations = 4 38

Pair  time (%) = 0.00123407 (75.4296)
Neigh time (%) = 0 (0)
Comm  time (%) = 0.000169168 (10.34)
Outpt time (%) = 1.69002e-05 (1.03299)
Other time (%) = 0.000215916 (13.1974)

Nlocal:    82 ave 82 max 82 min
Histogram: 1 0 0 0 0 0 0 0 0 0
Nghost:    185 ave 185 max 185 min
Histogram: 1 0 0 0 0 0 0 0 0 0
Neighs:    718 ave 718 max 718 min
Histogram: 1 0 0 0 0 0 0 0 0 0

Total # of neighbors = 718
Ave neighs/atom = 8.7561
Neighbor list builds = 0
Dangerous builds = 0
        # write_dump all atom ${dumpfile}
        next i
jump SELF loop1
        displace_atoms upper move ${xstep1} 0.0 0.0 units lattice
        displace_atoms upper move 0.00333333333333333 0.0 0.0 units lattice
        min_style ${style}
        min_style cg
        minimize ${etol} ${ftol} ${maxiter} ${maxeval}
        minimize 1e-12 ${ftol} ${maxiter} ${maxeval}
        minimize 1e-12 1e-08 ${maxiter} ${maxeval}
        minimize 1e-12 1e-08 10000 ${maxeval}
        minimize 1e-12 1e-08 10000 20000
WARNING: Resetting reneighboring criteria during minimization (../min.cpp:168)
Memory usage per processor = 3.35161 Mbytes
Step Temp PotEng Lx Ly Lz 
      96            0   -241.82204    2.0000005    34.648176    1.0000002 
      97            0   -241.82206    2.0000005    34.648176    1.0000002 
      98            0   -241.82206    2.0000005    34.648176    1.0000002 
Loop time of 0.000737069 on 1 procs for 2 steps with 82 atoms

Minimization stats:
  Stopping criterion = linesearch alpha is zero
  Energy initial, next-to-last, final = 
        -241.822038696     -241.822057104     -241.822057104
  Force two-norm initial, final = 0.135775 0.0919374
  Force max component initial, final = 0.0412269 0.026312
  Final line search alpha, max atom move = 9.53674e-07 2.50931e-08
  Iterations, force evaluations = 2 31

Pair  time (%) = 0.000628305 (85.2437)
Neigh time (%) = 0 (0)
Comm  time (%) = 3.58017e-05 (4.8573)
Outpt time (%) = 8.00088e-06 (1.0855)
Other time (%) = 6.49618e-05 (8.81353)

Nlocal:    82 ave 82 max 82 min
Histogram: 1 0 0 0 0 0 0 0 0 0
Nghost:    185 ave 185 max 185 min
Histogram: 1 0 0 0 0 0 0 0 0 0
Neighs:    718 ave 718 max 718 min
Histogram: 1 0 0 0 0 0 0 0 0 0

Total # of neighbors = 718
Ave neighs/atom = 8.7561
Neighbor list builds = 0
Dangerous builds = 0
        # write_dump all atom ${dumpfile}
        next i
jump SELF loop1
        displace_atoms upper move ${xstep1} 0.0 0.0 units lattice
        displace_atoms upper move 0.00333333333333333 0.0 0.0 units lattice
        min_style ${style}
        min_style cg
        minimize ${etol} ${ftol} ${maxiter} ${maxeval}
        minimize 1e-12 ${ftol} ${maxiter} ${maxeval}
        minimize 1e-12 1e-08 ${maxiter} ${maxeval}
        minimize 1e-12 1e-08 10000 ${maxeval}
        minimize 1e-12 1e-08 10000 20000
WARNING: Resetting reneighboring criteria during minimization (../min.cpp:168)
Memory usage per processor = 3.35161 Mbytes
Step Temp PotEng Lx Ly Lz 
      98            0   -241.81378    2.0000005    34.648178    1.0000002 
      99            0   -241.81382    2.0000005    34.648178    1.0000002 
     100            0   -241.81384    2.0000005    34.648178    1.0000002 
     101            0   -241.81386    2.0000005    34.648178    1.0000002 
     102            0    -241.8139    2.0000005    34.648178    1.0000002 
     103            0    -241.8139    2.0000005    34.648178    1.0000002 
Loop time of 0.00118709 on 1 procs for 5 steps with 82 atoms

Minimization stats:
  Stopping criterion = linesearch alpha is zero
  Energy initial, next-to-last, final = 
        -241.813775992     -241.813897134     -241.813897134
  Force two-norm initial, final = 0.151463 0.10158
  Force max component initial, final = 0.0656847 0.0323161
  Final line search alpha, max atom move = 3.15044e-06 1.0181e-07
  Iterations, force evaluations = 5 48

Pair  time (%) = 0.00100026 (84.2619)
Neigh time (%) = 0 (0)
Comm  time (%) = 5.97554e-05 (5.03379)
Outpt time (%) = 2.31799e-05 (1.95267)
Other time (%) = 0.00010389 (8.75165)

Nlocal:    82 ave 82 max 82 min
Histogram: 1 0 0 0 0 0 0 0 0 0
Nghost:    185 ave 185 max 185 min
Histogram: 1 0 0 0 0 0 0 0 0 0
Neighs:    718 ave 718 max 718 min
Histogram: 1 0 0 0 0 0 0 0 0 0

Total # of neighbors = 718
Ave neighs/atom = 8.7561
Neighbor list builds = 0
Dangerous builds = 0
        # write_dump all atom ${dumpfile}
        next i
jump SELF loop1
        displace_atoms upper move ${xstep1} 0.0 0.0 units lattice
        displace_atoms upper move 0.00333333333333333 0.0 0.0 units lattice
        min_style ${style}
        min_style cg
        minimize ${etol} ${ftol} ${maxiter} ${maxeval}
        minimize 1e-12 ${ftol} ${maxiter} ${maxeval}
        minimize 1e-12 1e-08 ${maxiter} ${maxeval}
        minimize 1e-12 1e-08 10000 ${maxeval}
        minimize 1e-12 1e-08 10000 20000
WARNING: Resetting reneighboring criteria during minimization (../min.cpp:168)
Memory usage per processor = 3.35161 Mbytes
Step Temp PotEng Lx Ly Lz 
     103            0   -241.80557    2.0000005    34.648351    1.0000002 
     104            0   -241.80559    2.0000005    34.648351    1.0000002 
     105            0   -241.80561    2.0000005    34.648351    1.0000002 
     106            0   -241.80563    2.0000005    34.648351    1.0000002 
     107            0   -241.80566    2.0000005    34.648351    1.0000002 
     108            0   -241.80568    2.0000005    34.648351    1.0000002 
     109            0   -241.80568    2.0000005    34.648351    1.0000002 
     110            0   -241.80571    2.0000005    34.648351    1.0000002 
     111            0   -241.80574    2.0000005    34.648351    1.0000002 
     112            0   -241.80581    2.0000005    34.648351    1.0000002 
     113            0   -241.80587    2.0000005    34.648351    1.0000002 
     114            0   -241.80588    2.0000005    34.648351    1.0000002 
     115            0   -241.80588    2.0000005    34.648351    1.0000002 
Loop time of 0.00197392 on 1 procs for 12 steps with 82 atoms

Minimization stats:
  Stopping criterion = linesearch alpha is zero
  Energy initial, next-to-last, final = 
        -241.805571475      -241.80587507      -241.80587507
  Force two-norm initial, final = 0.105417 0.0318323
  Force max component initial, final = 0.0323161 0.00702188
  Final line search alpha, max atom move = 7.62939e-06 5.35727e-08
  Iterations, force evaluations = 12 98

Pair  time (%) = 0.00164933 (83.5558)
Neigh time (%) = 0 (0)
Comm  time (%) = 0.000106198 (5.38003)
Outpt time (%) = 4.78545e-05 (2.42434)
Other time (%) = 0.000170543 (8.63981)

Nlocal:    82 ave 82 max 82 min
Histogram: 1 0 0 0 0 0 0 0 0 0
Nghost:    185 ave 185 max 185 min
Histogram: 1 0 0 0 0 0 0 0 0 0
Neighs:    718 ave 718 max 718 min
Histogram: 1 0 0 0 0 0 0 0 0 0

Total # of neighbors = 718
Ave neighs/atom = 8.7561
Neighbor list builds = 0
Dangerous builds = 0
        # write_dump all atom ${dumpfile}
        next i
jump SELF loop1
        displace_atoms upper move ${xstep1} 0.0 0.0 units lattice
        displace_atoms upper move 0.00333333333333333 0.0 0.0 units lattice
        min_style ${style}
        min_style cg
        minimize ${etol} ${ftol} ${maxiter} ${maxeval}
        minimize 1e-12 ${ftol} ${maxiter} ${maxeval}
        minimize 1e-12 1e-08 ${maxiter} ${maxeval}
        minimize 1e-12 1e-08 10000 ${maxeval}
        minimize 1e-12 1e-08 10000 20000
WARNING: Resetting reneighboring criteria during minimization (../min.cpp:168)
Memory usage per processor = 3.35161 Mbytes
Step Temp PotEng Lx Ly Lz 
     115            0   -241.79748    2.0000005    34.650006    1.0000002 
     116            0    -241.7975    2.0000005    34.650006    1.0000002 
     117            0   -241.79751    2.0000005    34.650006    1.0000002 
     118            0   -241.79751    2.0000005    34.650006    1.0000002 
     119            0   -241.79753    2.0000005    34.650006    1.0000002 
     120            0   -241.79753    2.0000005    34.650006    1.0000002 
Loop time of 0.00113195 on 1 procs for 5 steps with 82 atoms

Minimization stats:
  Stopping criterion = linesearch alpha is zero
  Energy initial, next-to-last, final = 
        -241.797484656     -241.797527379     -241.797527379
  Force two-norm initial, final = 0.0753941 0.0597206
  Force max component initial, final = 0.0344787 0.0229751
  Final line search alpha, max atom move = 7.62939e-06 1.75286e-07
  Iterations, force evaluations = 5 47

Pair  time (%) = 0.000946262 (83.5954)
Neigh time (%) = 0 (0)
Comm  time (%) = 5.31563e-05 (4.69597)
Outpt time (%) = 3.70378e-05 (3.27202)
Other time (%) = 9.54986e-05 (8.43661)

Nlocal:    82 ave 82 max 82 min
Histogram: 1 0 0 0 0 0 0 0 0 0
Nghost:    185 ave 185 max 185 min
Histogram: 1 0 0 0 0 0 0 0 0 0
Neighs:    718 ave 718 max 718 min
Histogram: 1 0 0 0 0 0 0 0 0 0

Total # of neighbors = 718
Ave neighs/atom = 8.7561
Neighbor list builds = 0
Dangerous builds = 0
        # write_dump all atom ${dumpfile}
        next i
jump SELF loop1
        displace_atoms upper move ${xstep1} 0.0 0.0 units lattice
        displace_atoms upper move 0.00333333333333333 0.0 0.0 units lattice
        min_style ${style}
        min_style cg
        minimize ${etol} ${ftol} ${maxiter} ${maxeval}
        minimize 1e-12 ${ftol} ${maxiter} ${maxeval}
        minimize 1e-12 1e-08 ${maxiter} ${maxeval}
        minimize 1e-12 1e-08 10000 ${maxeval}
        minimize 1e-12 1e-08 10000 20000
WARNING: Resetting reneighboring criteria during minimization (../min.cpp:168)
Memory usage per processor = 3.35161 Mbytes
Step Temp PotEng Lx Ly Lz 
     120            0   -241.78906    2.0000005    34.650637    1.0000002 
     121            0   -241.78908    2.0000005    34.650637    1.0000002 
     122            0   -241.78909    2.0000005    34.650637    1.0000002 
     123            0    -241.7891    2.0000005    34.650637    1.0000002 
     124            0   -241.78913    2.0000005    34.650637    1.0000002 
     125            0   -241.78915    2.0000005    34.650637    1.0000002 
     126            0   -241.78916    2.0000005    34.650637    1.0000002 
     127            0   -241.78917    2.0000005    34.650637    1.0000002 
     128            0   -241.78917    2.0000005    34.650637    1.0000002 
Loop time of 0.00159199 on 1 procs for 8 steps with 82 atoms

Minimization stats:
  Stopping criterion = linesearch alpha is zero
  Energy initial, next-to-last, final = 
[...]
Memory usage per processor = 3.35161 Mbytes
Step Temp PotEng Lx Ly Lz 
    1112            0   -241.98251    2.0000005    34.663686    1.0000002 
    1113            0   -241.98251    2.0000005    34.663686    1.0000002 
Loop time of 0.000324048 on 1 procs for 1 steps with 82 atoms

Minimization stats:
  Stopping criterion = linesearch alpha is zero
  Energy initial, next-to-last, final = 
          -241.9825141       -241.9825141       -241.9825141
  Force two-norm initial, final = 0.0941965 0.0941965
  Force max component initial, final = 0.0221892 0.0221892
  Final line search alpha, max atom move = 9.53674e-07 2.11613e-08
  Iterations, force evaluations = 1 21

Pair  time (%) = 0.000270213 (83.3868)
Neigh time (%) = 0 (0)
Comm  time (%) = 2.52256e-05 (7.78452)
Outpt time (%) = 0 (0)
Other time (%) = 2.86091e-05 (8.82866)

Nlocal:    82 ave 82 max 82 min
Histogram: 1 0 0 0 0 0 0 0 0 0
Nghost:    185 ave 185 max 185 min
Histogram: 1 0 0 0 0 0 0 0 0 0
Neighs:    718 ave 718 max 718 min
Histogram: 1 0 0 0 0 0 0 0 0 0

Total # of neighbors = 718
Ave neighs/atom = 8.7561
Neighbor list builds = 0
Dangerous builds = 0
        # write_dump all atom ${dumpfile}
        next i
jump SELF loop1
        displace_atoms upper move ${xstep1} 0.0 0.0 units lattice
        displace_atoms upper move 0.00333333333333333 0.0 0.0 units lattice
        min_style ${style}
        min_style cg
        minimize ${etol} ${ftol} ${maxiter} ${maxeval}
        minimize 1e-12 ${ftol} ${maxiter} ${maxeval}
        minimize 1e-12 1e-08 ${maxiter} ${maxeval}
        minimize 1e-12 1e-08 10000 ${maxeval}
        minimize 1e-12 1e-08 10000 20000
WARNING: Resetting reneighboring criteria during minimization (../min.cpp:168)
Memory usage per processor = 3.35161 Mbytes
Step Temp PotEng Lx Ly Lz 
    1113            0   -241.98567    2.0000005    34.663686    1.0000002 
    1114            0   -241.98569    2.0000005    34.663686    1.0000002 
    1115            0    -241.9857    2.0000005    34.663686    1.0000002 
    1116            0    -241.9857    2.0000005    34.663686    1.0000002 
Loop time of 0.000855117 on 1 procs for 3 steps with 82 atoms

Minimization stats:
  Stopping criterion = linesearch alpha is zero
  Energy initial, next-to-last, final = 
        -241.985668843     -241.985696085     -241.985696085
  Force two-norm initial, final = 0.107706 0.0438951
  Force max component initial, final = 0.0339541 0.0111335
  Final line search alpha, max atom move = 3.8147e-06 4.2471e-08
  Iterations, force evaluations = 3 37

Pair  time (%) = 0.00064286 (75.178)
Neigh time (%) = 0 (0)
Comm  time (%) = 3.97062e-05 (4.64337)
Outpt time (%) = 5.70033e-05 (6.66615)
Other time (%) = 0.000115547 (13.5125)

Nlocal:    82 ave 82 max 82 min
Histogram: 1 0 0 0 0 0 0 0 0 0
Nghost:    185 ave 185 max 185 min
Histogram: 1 0 0 0 0 0 0 0 0 0
Neighs:    718 ave 718 max 718 min
Histogram: 1 0 0 0 0 0 0 0 0 0

Total # of neighbors = 718
Ave neighs/atom = 8.7561
Neighbor list builds = 0
Dangerous builds = 0
        # write_dump all atom ${dumpfile}
        next i
jump SELF loop1
        displace_atoms upper move ${xstep1} 0.0 0.0 units lattice
        displace_atoms upper move 0.00333333333333333 0.0 0.0 units lattice
        min_style ${style}
        min_style cg
        minimize ${etol} ${ftol} ${maxiter} ${maxeval}
        minimize 1e-12 ${ftol} ${maxiter} ${maxeval}
        minimize 1e-12 1e-08 ${maxiter} ${maxeval}
        minimize 1e-12 1e-08 10000 ${maxeval}
        minimize 1e-12 1e-08 10000 20000
WARNING: Resetting reneighboring criteria during minimization (../min.cpp:168)
Memory usage per processor = 3.35161 Mbytes
Step Temp PotEng Lx Ly Lz 
    1116            0   -241.98854    2.0000005    34.663656    1.0000002 
    1117            0   -241.98856    2.0000005    34.663656    1.0000002 
    1118            0   -241.98856    2.0000005    34.663656    1.0000002 
Loop time of 0.00055009 on 1 procs for 2 steps with 82 atoms

Minimization stats:
  Stopping criterion = linesearch alpha is zero
  Energy initial, next-to-last, final = 
        -241.988537913     -241.988556192     -241.988556192
  Force two-norm initial, final = 0.0615269 0.0306693
  Force max component initial, final = 0.0242148 0.0113813
  Final line search alpha, max atom move = 7.62939e-06 8.68324e-08
  Iterations, force evaluations = 2 26

Pair  time (%) = 0.000459184 (83.4743)
Neigh time (%) = 0 (0)
Comm  time (%) = 2.25847e-05 (4.10563)
Outpt time (%) = 6.07187e-06 (1.1038)
Other time (%) = 6.22497e-05 (11.3163)

Nlocal:    82 ave 82 max 82 min
Histogram: 1 0 0 0 0 0 0 0 0 0
Nghost:    185 ave 185 max 185 min
Histogram: 1 0 0 0 0 0 0 0 0 0
Neighs:    718 ave 718 max 718 min
Histogram: 1 0 0 0 0 0 0 0 0 0

Total # of neighbors = 718
Ave neighs/atom = 8.7561
Neighbor list builds = 0
Dangerous builds = 0
        # write_dump all atom ${dumpfile}
        next i
jump SELF loop1
        displace_atoms upper move ${xstep1} 0.0 0.0 units lattice
        displace_atoms upper move 0.00333333333333333 0.0 0.0 units lattice
        min_style ${style}
        min_style cg
        minimize ${etol} ${ftol} ${maxiter} ${maxeval}
        minimize 1e-12 ${ftol} ${maxiter} ${maxeval}
        minimize 1e-12 1e-08 ${maxiter} ${maxeval}
        minimize 1e-12 1e-08 10000 ${maxeval}
        minimize 1e-12 1e-08 10000 20000
WARNING: Resetting reneighboring criteria during minimization (../min.cpp:168)
Memory usage per processor = 3.35161 Mbytes
Step Temp PotEng Lx Ly Lz 
    1118            0   -241.99108    2.0000005    34.663626    1.0000002 
    1119            0   -241.99109    2.0000005    34.663626    1.0000002 
    1120            0   -241.99109    2.0000005    34.663626    1.0000002 
Loop time of 0.000504074 on 1 procs for 2 steps with 82 atoms

Minimization stats:
  Stopping criterion = linesearch alpha is zero
  Energy initial, next-to-last, final = 
        -241.991078536     -241.991090439     -241.991090439
  Force two-norm initial, final = 0.0411564 0.0256202
  Force max component initial, final = 0.0139382 0.00798353
  Final line search alpha, max atom move = 1.52588e-05 1.21819e-07
  Iterations, force evaluations = 2 24

Pair  time (%) = 0.000415659 (82.4599)
Neigh time (%) = 0 (0)
Comm  time (%) = 3.2165e-05 (6.381)
Outpt time (%) = 5.8905e-06 (1.16858)
Other time (%) = 5.03598e-05 (9.99055)

Nlocal:    82 ave 82 max 82 min
Histogram: 1 0 0 0 0 0 0 0 0 0
Nghost:    185 ave 185 max 185 min
Histogram: 1 0 0 0 0 0 0 0 0 0
Neighs:    718 ave 718 max 718 min
Histogram: 1 0 0 0 0 0 0 0 0 0

Total # of neighbors = 718
Ave neighs/atom = 8.7561
Neighbor list builds = 0
Dangerous builds = 0
        # write_dump all atom ${dumpfile}
        next i
jump SELF loop1
        displace_atoms upper move ${xstep1} 0.0 0.0 units lattice
        displace_atoms upper move 0.00333333333333333 0.0 0.0 units lattice
        min_style ${style}
        min_style cg
        minimize ${etol} ${ftol} ${maxiter} ${maxeval}
        minimize 1e-12 ${ftol} ${maxiter} ${maxeval}
        minimize 1e-12 1e-08 ${maxiter} ${maxeval}
        minimize 1e-12 1e-08 10000 ${maxeval}
        minimize 1e-12 1e-08 10000 20000
WARNING: Resetting reneighboring criteria during minimization (../min.cpp:168)
Memory usage per processor = 3.35161 Mbytes
Step Temp PotEng Lx Ly Lz 
    1120            0   -241.99329    2.0000005    34.663569    1.0000002 
    1121            0   -241.99329    2.0000005    34.663569    1.0000002 
    1122            0   -241.99329    2.0000005    34.663569    1.0000002 
Loop time of 0.000430118 on 1 procs for 2 steps with 82 atoms

Minimization stats:
  Stopping criterion = linesearch alpha is zero
  Energy initial, next-to-last, final = 
        -241.993292933     -241.993294301     -241.993294301
  Force two-norm initial, final = 0.0206656 0.0174463
  Force max component initial, final = 0.00620256 0.00400673
  Final line search alpha, max atom move = 3.05176e-05 1.22276e-07
  Iterations, force evaluations = 2 24

Pair  time (%) = 0.000344039 (79.9871)
Neigh time (%) = 0 (0)
Comm  time (%) = 2.90669e-05 (6.75789)
Outpt time (%) = 6.00726e-06 (1.39665)
Other time (%) = 5.10052e-05 (11.8584)

Nlocal:    82 ave 82 max 82 min
Histogram: 1 0 0 0 0 0 0 0 0 0
Nghost:    185 ave 185 max 185 min
Histogram: 1 0 0 0 0 0 0 0 0 0
Neighs:    718 ave 718 max 718 min
Histogram: 1 0 0 0 0 0 0 0 0 0

Total # of neighbors = 718
Ave neighs/atom = 8.7561
Neighbor list builds = 0
Dangerous builds = 0
        # write_dump all atom ${dumpfile}
        next i
jump SELF loop1
        displace_atoms upper move ${xstep1} 0.0 0.0 units lattice
        displace_atoms upper move 0.00333333333333333 0.0 0.0 units lattice
        min_style ${style}
        min_style cg
        minimize ${etol} ${ftol} ${maxiter} ${maxeval}
        minimize 1e-12 ${ftol} ${maxiter} ${maxeval}
        minimize 1e-12 1e-08 ${maxiter} ${maxeval}
        minimize 1e-12 1e-08 10000 ${maxeval}
        minimize 1e-12 1e-08 10000 20000
WARNING: Resetting reneighboring criteria during minimization (../min.cpp:168)
Memory usage per processor = 3.35161 Mbytes
Step Temp PotEng Lx Ly Lz 
    1122            0   -241.99515    2.0000005    34.663541    1.0000002 
    1123            0   -241.99517    2.0000005    34.663541    1.0000002 
    1124            0   -241.99517    2.0000005    34.663541    1.0000002 
Loop time of 0.00070902 on 1 procs for 2 steps with 82 atoms

Minimization stats:
  Stopping criterion = linesearch alpha is zero
  Energy initial, next-to-last, final = 
        -241.995149231     -241.995165204     -241.995165204
  Force two-norm initial, final = 0.0272731 0.0290138
  Force max component initial, final = 0.0107275 0.00953473
  Final line search alpha, max atom move = 1.52588e-05 1.45488e-07
  Iterations, force evaluations = 2 24

Pair  time (%) = 0.000621095 (87.5991)
Neigh time (%) = 0 (0)
Comm  time (%) = 2.66668e-05 (3.76108)
Outpt time (%) = 5.9827e-06 (0.843798)
Other time (%) = 5.52757e-05 (7.79607)

Nlocal:    82 ave 82 max 82 min
Histogram: 1 0 0 0 0 0 0 0 0 0
Nghost:    185 ave 185 max 185 min
Histogram: 1 0 0 0 0 0 0 0 0 0
Neighs:    718 ave 718 max 718 min
Histogram: 1 0 0 0 0 0 0 0 0 0

Total # of neighbors = 718
Ave neighs/atom = 8.7561
Neighbor list builds = 0
Dangerous builds = 0
        # write_dump all atom ${dumpfile}
        next i
jump SELF loop1
        displace_atoms upper move ${xstep1} 0.0 0.0 units lattice
        displace_atoms upper move 0.00333333333333333 0.0 0.0 units lattice
        min_style ${style}
        min_style cg
        minimize ${etol} ${ftol} ${maxiter} ${maxeval}
        minimize 1e-12 ${ftol} ${maxiter} ${maxeval}
        minimize 1e-12 1e-08 ${maxiter} ${maxeval}
        minimize 1e-12 1e-08 10000 ${maxeval}
        minimize 1e-12 1e-08 10000 20000
WARNING: Resetting reneighboring criteria during minimization (../min.cpp:168)
Memory usage per processor = 3.35161 Mbytes
Step Temp PotEng Lx Ly Lz 
    1124            0   -241.99669    2.0000005    34.663486    1.0000002 
    1125            0   -241.99669    2.0000005    34.663486    1.0000002 
Loop time of 0.00037203 on 1 procs for 1 steps with 82 atoms

Minimization stats:
  Stopping criterion = linesearch alpha is zero
  Energy initial, next-to-last, final = 
        -241.996688146     -241.996688146     -241.996688146
  Force two-norm initial, final = 0.0224652 0.0224652
  Force max component initial, final = 0.00854244 0.00854244
  Final line search alpha, max atom move = 1.52588e-05 1.30347e-07
  Iterations, force evaluations = 1 17

Pair  time (%) = 0.000313561 (84.2837)
Neigh time (%) = 0 (0)
Comm  time (%) = 2.68136e-05 (7.20737)
Outpt time (%) = 0 (0)
Other time (%) = 3.1656e-05 (8.50898)

Nlocal:    82 ave 82 max 82 min
Histogram: 1 0 0 0 0 0 0 0 0 0
Nghost:    185 ave 185 max 185 min
Histogram: 1 0 0 0 0 0 0 0 0 0
Neighs:    718 ave 718 max 718 min
Histogram: 1 0 0 0 0 0 0 0 0 0

Total # of neighbors = 718
Ave neighs/atom = 8.7561
Neighbor list builds = 0
Dangerous builds = 0
        # write_dump all atom ${dumpfile}
        next i
jump SELF loop1
        displace_atoms upper move ${xstep1} 0.0 0.0 units lattice
        displace_atoms upper move 0.00333333333333333 0.0 0.0 units lattice
        min_style ${style}
        min_style cg
        minimize ${etol} ${ftol} ${maxiter} ${maxeval}
        minimize 1e-12 ${ftol} ${maxiter} ${maxeval}
        minimize 1e-12 1e-08 ${maxiter} ${maxeval}
        minimize 1e-12 1e-08 10000 ${maxeval}
        minimize 1e-12 1e-08 10000 20000
WARNING: Resetting reneighboring criteria during minimization (../min.cpp:168)
Memory usage per processor = 3.35161 Mbytes
Step Temp PotEng Lx Ly Lz 
    1125            0   -241.99788    2.0000005    34.663486    1.0000002 
    1126            0   -241.99789    2.0000005    34.663486    1.0000002 
    1127            0    -241.9979    2.0000005    34.663486    1.0000002 
    1128            0   -241.99791    2.0000005    34.663486    1.0000002 
    1129            0   -241.99794    2.0000005    34.663486    1.0000002 
    1130            0   -241.99797    2.0000005    34.663486    1.0000002 
    1131            0   -241.99804    2.0000005    34.663486    1.0000002 
    1132            0   -241.99815    2.0000005    34.663486    1.0000002 
    1133            0   -241.99822    2.0000005    34.663486    1.0000002 
    1134            0   -241.99823    2.0000005    34.663486    1.0000002 
    1135            0   -241.99824    2.0000005    34.663486    1.0000002 
    1136            0   -241.99824    2.0000005    34.663486    1.0000002 
    1137            0   -241.99824    2.0000005    34.663486    1.0000002 
    1138            0   -241.99825    2.0000005    34.663486    1.0000002 
    1139            0   -241.99825    2.0000005    34.663486    1.0000002 
    1140            0   -241.99825    2.0000005    34.663486    1.0000002 
Loop time of 0.00285993 on 1 procs for 15 steps with 82 atoms

Minimization stats:
  Stopping criterion = linesearch alpha is zero
  Energy initial, next-to-last, final = 
        -241.997878735     -241.998251132     -241.998251132
  Force two-norm initial, final = 0.022856 0.0188143
  Force max component initial, final = 0.00854244 0.00534021
  Final line search alpha, max atom move = 1.52588e-05 8.14851e-08
  Iterations, force evaluations = 15 110

Pair  time (%) = 0.00220791 (77.2017)
Neigh time (%) = 0 (0)
Comm  time (%) = 0.000198636 (6.94548)
Outpt time (%) = 0.000137923 (4.82259)
Other time (%) = 0.000315457 (11.0302)

Nlocal:    82 ave 82 max 82 min
Histogram: 1 0 0 0 0 0 0 0 0 0
Nghost:    185 ave 185 max 185 min
Histogram: 1 0 0 0 0 0 0 0 0 0
Neighs:    718 ave 718 max 718 min
Histogram: 1 0 0 0 0 0 0 0 0 0

Total # of neighbors = 718
Ave neighs/atom = 8.7561
Neighbor list builds = 0
Dangerous builds = 0
        # write_dump all atom ${dumpfile}
        next i
jump SELF loop1
        displace_atoms upper move ${xstep1} 0.0 0.0 units lattice
        displace_atoms upper move 0.00333333333333333 0.0 0.0 units lattice
        min_style ${style}
        min_style cg
        minimize ${etol} ${ftol} ${maxiter} ${maxeval}
        minimize 1e-12 ${ftol} ${maxiter} ${maxeval}
        minimize 1e-12 1e-08 ${maxiter} ${maxeval}
        minimize 1e-12 1e-08 10000 ${maxeval}
        minimize 1e-12 1e-08 10000 20000
WARNING: Resetting reneighboring criteria during minimization (../min.cpp:168)
Memory usage per processor = 3.35161 Mbytes
Step Temp PotEng Lx Ly Lz 
    1140            0    -241.9991    2.0000005    34.654018    1.0000002 
    1141            0    -241.9991    2.0000005    34.654018    1.0000002 
Loop time of 0.000859112 on 1 procs for 1 steps with 82 atoms

Minimization stats:
  Stopping criterion = linesearch alpha is zero
  Energy initial, next-to-last, final = 
        -241.999102753     -241.999102753     -241.999102753
  Force two-norm initial, final = 0.0215013 0.0215013
  Force max component initial, final = 0.00544866 0.00544866
  Final line search alpha, max atom move = 1.52588e-05 8.314e-08
  Iterations, force evaluations = 1 17

Pair  time (%) = 0.000793368 (92.3475)
Neigh time (%) = 0 (0)
Comm  time (%) = 2.23529e-05 (2.60186)
Outpt time (%) = 0 (0)
Other time (%) = 4.33903e-05 (5.0506)

Nlocal:    82 ave 82 max 82 min
Histogram: 1 0 0 0 0 0 0 0 0 0
Nghost:    185 ave 185 max 185 min
Histogram: 1 0 0 0 0 0 0 0 0 0
Neighs:    718 ave 718 max 718 min
Histogram: 1 0 0 0 0 0 0 0 0 0

Total # of neighbors = 718
Ave neighs/atom = 8.7561
Neighbor list builds = 0
Dangerous builds = 0
        # write_dump all atom ${dumpfile}
        next i
jump SELF loop1
        displace_atoms upper move ${xstep1} 0.0 0.0 units lattice
        displace_atoms upper move 0.00333333333333333 0.0 0.0 units lattice
        min_style ${style}
        min_style cg
        minimize ${etol} ${ftol} ${maxiter} ${maxeval}
        minimize 1e-12 ${ftol} ${maxiter} ${maxeval}
        minimize 1e-12 1e-08 ${maxiter} ${maxeval}
        minimize 1e-12 1e-08 10000 ${maxeval}
        minimize 1e-12 1e-08 10000 20000
WARNING: Resetting reneighboring criteria during minimization (../min.cpp:168)
Memory usage per processor = 3.35161 Mbytes
Step Temp PotEng Lx Ly Lz 
    1141            0   -241.99962    2.0000005    34.654018    1.0000002 
    1142            0   -241.99962    2.0000005    34.654018    1.0000002 
Loop time of 0.000380904 on 1 procs for 1 steps with 82 atoms

Minimization stats:
  Stopping criterion = linesearch alpha is zero
  Energy initial, next-to-last, final = 
        -241.999617825     -241.999617825     -241.999617825
  Force two-norm initial, final = 0.0242795 0.0242795
  Force max component initial, final = 0.00785755 0.00785755
  Final line search alpha, max atom move = 1.52588e-05 1.19897e-07
  Iterations, force evaluations = 1 17

Pair  time (%) = 0.000317664 (83.3975)
Neigh time (%) = 0 (0)
Comm  time (%) = 2.7875e-05 (7.31811)
Outpt time (%) = 0 (0)
Other time (%) = 3.53645e-05 (9.28437)

Nlocal:    82 ave 82 max 82 min
Histogram: 1 0 0 0 0 0 0 0 0 0
Nghost:    185 ave 185 max 185 min
Histogram: 1 0 0 0 0 0 0 0 0 0
Neighs:    718 ave 718 max 718 min
Histogram: 1 0 0 0 0 0 0 0 0 0

Total # of neighbors = 718
Ave neighs/atom = 8.7561
Neighbor list builds = 0
Dangerous builds = 0
        # write_dump all atom ${dumpfile}
        next i
jump SELF loop1
        displace_atoms upper move ${xstep1} 0.0 0.0 units lattice
        displace_atoms upper move 0.00333333333333333 0.0 0.0 units lattice
        min_style ${style}
        min_style cg
        minimize ${etol} ${ftol} ${maxiter} ${maxeval}
        minimize 1e-12 ${ftol} ${maxiter} ${maxeval}
        minimize 1e-12 1e-08 ${maxiter} ${maxeval}
        minimize 1e-12 1e-08 10000 ${maxeval}
        minimize 1e-12 1e-08 10000 20000
WARNING: Resetting reneighboring criteria during minimization (../min.cpp:168)
Memory usage per processor = 3.35161 Mbytes
Step Temp PotEng Lx Ly Lz 
    1142            0   -241.99979    2.0000005    34.654018    1.0000002 
    1143            0   -241.99979    2.0000005    34.654018    1.0000002 
Loop time of 0.00033599 on 1 procs for 1 steps with 82 atoms

Minimization stats:
  Stopping criterion = linesearch alpha is zero
  Energy initial, next-to-last, final = 
         -241.99978717      -241.99978717      -241.99978717
  Force two-norm initial, final = 0.0253212 0.0253212
  Force max component initial, final = 0.00864534 0.00864534
  Final line search alpha, max atom move = 1.52588e-05 1.31917e-07
  Iterations, force evaluations = 1 17

Pair  time (%) = 0.000281165 (83.6824)
Neigh time (%) = 0 (0)
Comm  time (%) = 1.62548e-05 (4.83789)
Outpt time (%) = 0 (0)
Other time (%) = 3.85706e-05 (11.4797)

Nlocal:    82 ave 82 max 82 min
Histogram: 1 0 0 0 0 0 0 0 0 0
Nghost:    185 ave 185 max 185 min
Histogram: 1 0 0 0 0 0 0 0 0 0
Neighs:    718 ave 718 max 718 min
Histogram: 1 0 0 0 0 0 0 0 0 0

Total # of neighbors = 718
Ave neighs/atom = 8.7561
Neighbor list builds = 0
Dangerous builds = 0
        # write_dump all atom ${dumpfile}
        next i
jump SELF loop1


