LAMMPS (28 Jun 2014)
# attempt at getting generalized stacking fault (GSF) energy curve

#file prefix
variable prefix string gsf_V_inter2newnorm
variable dumpfile string ${prefix}.*.dump
variable dumpfile string gsf_V_inter2newnorm.*.dump
variable restartfile string ${prefix}.*.equil
variable restartfile string gsf_V_inter2newnorm.*.equil

#Mass (g/mol)
variable m equal 1

# lattice constant (in Angstroms) and orientation of axes (given by lattice vectors)
variable rho equal 1.1547
variable x1 equal 1
variable x2 equal 0
variable x3 equal 0
variable y1 equal 0
variable y2 equal 1
variable y3 equal 0
# length of lattice in different directions (using orientation of lattice vectors)
variable ax equal sqrt(${x1}*${x1}+${x2}*${x2}+${x3}*${x3})
variable ax equal sqrt(1*${x1}+${x2}*${x2}+${x3}*${x3})
variable ax equal sqrt(1*1+${x2}*${x2}+${x3}*${x3})
variable ax equal sqrt(1*1+0*${x2}+${x3}*${x3})
variable ax equal sqrt(1*1+0*0+${x3}*${x3})
variable ax equal sqrt(1*1+0*0+0*${x3})
variable ax equal sqrt(1*1+0*0+0*0)
variable ay equal sqrt(${y1}*${y1}+${y2}*${y2}+${y3}*${y3})
variable ay equal sqrt(0*${y1}+${y2}*${y2}+${y3}*${y3})
variable ay equal sqrt(0*0+${y2}*${y2}+${y3}*${y3})
variable ay equal sqrt(0*0+1*${y2}+${y3}*${y3})
variable ay equal sqrt(0*0+1*1+${y3}*${y3})
variable ay equal sqrt(0*0+1*1+0*${y3})
variable ay equal sqrt(0*0+1*1+0*0)
variable az equal 1

# size of box in lattice units
variable lxpos equal 1
variable lxneg equal -1*${lxpos}
variable lxneg equal -1*1
variable lypos equal 10
variable lyneg equal -1*${lypos}
variable lyneg equal -1*10
variable lzpos equal 0
variable lzneg equal -1

# Define minimization parameters and damping
variable etol equal 1.0e-12
variable ftol equal 1.0e-8
variable maxiter equal 10000
variable maxeval equal 20000
variable style string cg

# boundary conditions
dimension	2
boundary	p s p
atom_style	atomic

# create geometry
units		lj
lattice         hex ${rho}
lattice         hex 1.1547
Lattice spacing in x,y,z = 1 1.73205 1
region		myregion block ${lxneg} ${lxpos} ${lyneg} ${lypos} ${lzneg} ${lzpos} units lattice
region		myregion block -1 ${lxpos} ${lyneg} ${lypos} ${lzneg} ${lzpos} units lattice
region		myregion block -1 1 ${lyneg} ${lypos} ${lzneg} ${lzpos} units lattice
region		myregion block -1 1 -10 ${lypos} ${lzneg} ${lzpos} units lattice
region		myregion block -1 1 -10 10 ${lzneg} ${lzpos} units lattice
region		myregion block -1 1 -10 10 -1 ${lzpos} units lattice
region		myregion block -1 1 -10 10 -1 0 units lattice
create_box	3 myregion
Created orthogonal box = (-1 -17.3205 -1) to (1 17.3205 0)
  1 by 1 by 1 MPI processor grid
create_atoms	1 box
Created 82 atoms

# define masses
mass * $m
mass * 1

# my fake/morse potential
pair_style      table linear 3001
pair_coeff      * * vpotential_inter2newnorm dummy
neighbor	0.3 bin
neigh_modify	delay 5

# define groups
region	    upper block INF INF 0.01 ${lypos} INF INF units lattice
region	    upper block INF INF 0.01 10 INF INF units lattice
group		upper region upper
40 atoms in group upper

# Setup output
thermo 1
thermo_style custom step temp pe lx ly lz
thermo_modify norm no

# Compute initial state by relaxing box
min_style ${style}
min_style cg
minimize ${etol} ${ftol} ${maxiter} ${maxeval}
minimize 1e-12 ${ftol} ${maxiter} ${maxeval}
minimize 1e-12 1e-08 ${maxiter} ${maxeval}
minimize 1e-12 1e-08 10000 ${maxeval}
minimize 1e-12 1e-08 10000 20000
WARNING: Resetting reneighboring criteria during minimization (../min.cpp:168)
Memory usage per processor = 3.35161 Mbytes
Step Temp PotEng Lx Ly Lz 
       0            0   -241.99991    2.0000005    34.647952    1.0000002 
       1            0   -241.99991    2.0000005    34.647952    1.0000002 
Loop time of 0.00014104 on 1 procs for 1 steps with 82 atoms

Minimization stats:
  Stopping criterion = linesearch alpha is zero
  Energy initial, next-to-last, final = 
        -241.999911808     -241.999911808     -241.999911808
  Force two-norm initial, final = 6.11446e-06 6.11446e-06
  Force max component initial, final = 3.05723e-06 3.05723e-06
  Final line search alpha, max atom move = 0.5 1.52862e-06
  Iterations, force evaluations = 1 2

Pair  time (%) = 0.000105873 (75.0659)
Neigh time (%) = 0 (0)
Comm  time (%) = 4.17989e-06 (2.96362)
Outpt time (%) = 0 (0)
Other time (%) = 3.09872e-05 (21.9705)

Nlocal:    82 ave 82 max 82 min
Histogram: 1 0 0 0 0 0 0 0 0 0
Nghost:    185 ave 185 max 185 min
Histogram: 1 0 0 0 0 0 0 0 0 0
Neighs:    718 ave 718 max 718 min
Histogram: 1 0 0 0 0 0 0 0 0 0

Total # of neighbors = 718
Ave neighs/atom = 8.7561
Neighbor list builds = 0
Dangerous builds = 0

# don't allow atoms to relax in x-direction
fix 2 all setforce 0.0 NULL 0.0

# GSF energy curve will have 100*2 steps
variable nsteps equal 300
variable sstep1 equal 1.
variable xstep1 equal ${sstep1}/(${ax}*${nsteps})
variable xstep1 equal 1/(${ax}*${nsteps})
variable xstep1 equal 1/(1*${nsteps})
variable xstep1 equal 1/(1*300)

variable i loop ${nsteps}
variable i loop 300
label loop1
        displace_atoms upper move ${xstep1} 0.0 0.0 units lattice
        displace_atoms upper move 0.00333333333333333 0.0 0.0 units lattice
        min_style ${style}
        min_style cg
        minimize ${etol} ${ftol} ${maxiter} ${maxeval}
        minimize 1e-12 ${ftol} ${maxiter} ${maxeval}
        minimize 1e-12 1e-08 ${maxiter} ${maxeval}
        minimize 1e-12 1e-08 10000 ${maxeval}
        minimize 1e-12 1e-08 10000 20000
WARNING: Resetting reneighboring criteria during minimization (../min.cpp:168)
Memory usage per processor = 3.35161 Mbytes
Step Temp PotEng Lx Ly Lz 
       1            0   -241.99973    2.0000005    34.647952    1.0000002 
       2            0   -241.99973    2.0000005    34.647952    1.0000002 
Loop time of 0.000193078 on 1 procs for 1 steps with 82 atoms

Minimization stats:
  Stopping criterion = linesearch alpha is zero
  Energy initial, next-to-last, final = 
        -241.999734982     -241.999734982     -241.999734982
  Force two-norm initial, final = 0.00166994 0.00166994
  Force max component initial, final = 0.000834963 0.000834963
  Final line search alpha, max atom move = 0.00390625 3.26157e-06
  Iterations, force evaluations = 1 9

Pair  time (%) = 0.000154344 (79.9386)
Neigh time (%) = 0 (0)
Comm  time (%) = 1.21604e-05 (6.29816)
Outpt time (%) = 0 (0)
Other time (%) = 2.65739e-05 (13.7633)

Nlocal:    82 ave 82 max 82 min
Histogram: 1 0 0 0 0 0 0 0 0 0
Nghost:    185 ave 185 max 185 min
Histogram: 1 0 0 0 0 0 0 0 0 0
Neighs:    718 ave 718 max 718 min
Histogram: 1 0 0 0 0 0 0 0 0 0

Total # of neighbors = 718
Ave neighs/atom = 8.7561
Neighbor list builds = 0
Dangerous builds = 0
        # write_dump all atom ${dumpfile}
        next i
jump SELF loop1
        displace_atoms upper move ${xstep1} 0.0 0.0 units lattice
        displace_atoms upper move 0.00333333333333333 0.0 0.0 units lattice
        min_style ${style}
        min_style cg
        minimize ${etol} ${ftol} ${maxiter} ${maxeval}
        minimize 1e-12 ${ftol} ${maxiter} ${maxeval}
        minimize 1e-12 1e-08 ${maxiter} ${maxeval}
        minimize 1e-12 1e-08 10000 ${maxeval}
        minimize 1e-12 1e-08 10000 20000
WARNING: Resetting reneighboring criteria during minimization (../min.cpp:168)
Memory usage per processor = 3.35161 Mbytes
Step Temp PotEng Lx Ly Lz 
       2            0   -241.99923    2.0000005    34.647952    1.0000002 
       3            0   -241.99923    2.0000005    34.647952    1.0000002 
       4            0   -241.99923    2.0000005    34.647952    1.0000002 
       5            0   -241.99923    2.0000005    34.647952    1.0000002 
Loop time of 0.000655059 on 1 procs for 3 steps with 82 atoms

Minimization stats:
  Stopping criterion = linesearch alpha is zero
  Energy initial, next-to-last, final = 
         -241.99922677     -241.999226919     -241.999226919
  Force two-norm initial, final = 0.00639572 0.00411107
  Force max component initial, final = 0.00319786 0.00202197
  Final line search alpha, max atom move = 0.000488281 9.87289e-07
  Iterations, force evaluations = 3 33

Pair  time (%) = 0.000532038 (81.2199)
Neigh time (%) = 0 (0)
Comm  time (%) = 4.30201e-05 (6.56736)
Outpt time (%) = 1.00323e-05 (1.53151)
Other time (%) = 6.99684e-05 (10.6812)

Nlocal:    82 ave 82 max 82 min
Histogram: 1 0 0 0 0 0 0 0 0 0
Nghost:    185 ave 185 max 185 min
Histogram: 1 0 0 0 0 0 0 0 0 0
Neighs:    718 ave 718 max 718 min
Histogram: 1 0 0 0 0 0 0 0 0 0

Total # of neighbors = 718
Ave neighs/atom = 8.7561
Neighbor list builds = 0
Dangerous builds = 0
        # write_dump all atom ${dumpfile}
        next i
jump SELF loop1
        displace_atoms upper move ${xstep1} 0.0 0.0 units lattice
        displace_atoms upper move 0.00333333333333333 0.0 0.0 units lattice
        min_style ${style}
        min_style cg
        minimize ${etol} ${ftol} ${maxiter} ${maxeval}
        minimize 1e-12 ${ftol} ${maxiter} ${maxeval}
        minimize 1e-12 1e-08 ${maxiter} ${maxeval}
        minimize 1e-12 1e-08 10000 ${maxeval}
        minimize 1e-12 1e-08 10000 20000
WARNING: Resetting reneighboring criteria during minimization (../min.cpp:168)
Memory usage per processor = 3.35161 Mbytes
Step Temp PotEng Lx Ly Lz 
       5            0   -241.99836    2.0000005    34.647952    1.0000002 
       6            0   -241.99836    2.0000005    34.647952    1.0000002 
Loop time of 0.000304069 on 1 procs for 1 steps with 82 atoms

Minimization stats:
  Stopping criterion = linesearch alpha is zero
  Energy initial, next-to-last, final = 
        -241.998363102     -241.998363102     -241.998363102
  Force two-norm initial, final = 0.0121585 0.0121585
  Force max component initial, final = 0.00606797 0.00606797
  Final line search alpha, max atom move = 6.10352e-05 3.7036e-07
  Iterations, force evaluations = 1 15

Pair  time (%) = 0.000253025 (83.213)
Neigh time (%) = 0 (0)
Comm  time (%) = 1.98239e-05 (6.51953)
Outpt time (%) = 0 (0)
Other time (%) = 3.12203e-05 (10.2675)

Nlocal:    82 ave 82 max 82 min
Histogram: 1 0 0 0 0 0 0 0 0 0
Nghost:    185 ave 185 max 185 min
Histogram: 1 0 0 0 0 0 0 0 0 0
Neighs:    718 ave 718 max 718 min
Histogram: 1 0 0 0 0 0 0 0 0 0

Total # of neighbors = 718
Ave neighs/atom = 8.7561
Neighbor list builds = 0
Dangerous builds = 0
        # write_dump all atom ${dumpfile}
        next i
jump SELF loop1
        displace_atoms upper move ${xstep1} 0.0 0.0 units lattice
        displace_atoms upper move 0.00333333333333333 0.0 0.0 units lattice
        min_style ${style}
        min_style cg
        minimize ${etol} ${ftol} ${maxiter} ${maxeval}
        minimize 1e-12 ${ftol} ${maxiter} ${maxeval}
        minimize 1e-12 1e-08 ${maxiter} ${maxeval}
        minimize 1e-12 1e-08 10000 ${maxeval}
        minimize 1e-12 1e-08 10000 20000
WARNING: Resetting reneighboring criteria during minimization (../min.cpp:168)
Memory usage per processor = 3.35161 Mbytes
Step Temp PotEng Lx Ly Lz 
       6            0   -241.99717    2.0000005    34.647952    1.0000002 
       7            0   -241.99717    2.0000005    34.647952    1.0000002 
Loop time of 0.000548994 on 1 procs for 1 steps with 82 atoms

Minimization stats:
  Stopping criterion = linesearch alpha is zero
  Energy initial, next-to-last, final = 
        -241.997168015     -241.997168015     -241.997168015
  Force two-norm initial, final = 0.0232953 0.0232953
  Force max component initial, final = 0.0116418 0.0116418
  Final line search alpha, max atom move = 1.52588e-05 1.7764e-07
  Iterations, force evaluations = 1 17

Pair  time (%) = 0.000285913 (52.0795)
Neigh time (%) = 0 (0)
Comm  time (%) = 2.2321e-05 (4.0658)
Outpt time (%) = 0 (0)
Other time (%) = 0.000240759 (43.8547)

Nlocal:    82 ave 82 max 82 min
Histogram: 1 0 0 0 0 0 0 0 0 0
Nghost:    185 ave 185 max 185 min
Histogram: 1 0 0 0 0 0 0 0 0 0
Neighs:    718 ave 718 max 718 min
Histogram: 1 0 0 0 0 0 0 0 0 0

Total # of neighbors = 718
Ave neighs/atom = 8.7561
Neighbor list builds = 0
Dangerous builds = 0
        # write_dump all atom ${dumpfile}
        next i
jump SELF loop1
        displace_atoms upper move ${xstep1} 0.0 0.0 units lattice
        displace_atoms upper move 0.00333333333333333 0.0 0.0 units lattice
        min_style ${style}
        min_style cg
        minimize ${etol} ${ftol} ${maxiter} ${maxeval}
        minimize 1e-12 ${ftol} ${maxiter} ${maxeval}
        minimize 1e-12 1e-08 ${maxiter} ${maxeval}
        minimize 1e-12 1e-08 10000 ${maxeval}
        minimize 1e-12 1e-08 10000 20000
WARNING: Resetting reneighboring criteria during minimization (../min.cpp:168)
Memory usage per processor = 3.35161 Mbytes
Step Temp PotEng Lx Ly Lz 
       7            0   -241.99562    2.0000005    34.647952    1.0000002 
       8            0   -241.99563    2.0000005    34.647952    1.0000002 
       9            0   -241.99563    2.0000005    34.647952    1.0000002 
      10            0   -241.99563    2.0000005    34.647952    1.0000002 
      11            0   -241.99563    2.0000005    34.647952    1.0000002 
Loop time of 0.00150204 on 1 procs for 4 steps with 82 atoms

Minimization stats:
  Stopping criterion = linesearch alpha is zero
  Energy initial, next-to-last, final = 
        -241.995622928     -241.995627731     -241.995627731
  Force two-norm initial, final = 0.0377342 0.00919951
  Force max component initial, final = 0.0188635 0.00345684
  Final line search alpha, max atom move = 0.00012207 4.21977e-07
  Iterations, force evaluations = 4 41

Pair  time (%) = 0.00113003 (75.2331)
Neigh time (%) = 0 (0)
Comm  time (%) = 0.000161997 (10.7852)
Outpt time (%) = 2.49138e-05 (1.65867)
Other time (%) = 0.000185097 (12.3231)

Nlocal:    82 ave 82 max 82 min
Histogram: 1 0 0 0 0 0 0 0 0 0
Nghost:    185 ave 185 max 185 min
Histogram: 1 0 0 0 0 0 0 0 0 0
Neighs:    718 ave 718 max 718 min
Histogram: 1 0 0 0 0 0 0 0 0 0

Total # of neighbors = 718
Ave neighs/atom = 8.7561
Neighbor list builds = 0
Dangerous builds = 0
        # write_dump all atom ${dumpfile}
        next i
jump SELF loop1
        displace_atoms upper move ${xstep1} 0.0 0.0 units lattice
        displace_atoms upper move 0.00333333333333333 0.0 0.0 units lattice
        min_style ${style}
        min_style cg
        minimize ${etol} ${ftol} ${maxiter} ${maxeval}
        minimize 1e-12 ${ftol} ${maxiter} ${maxeval}
        minimize 1e-12 1e-08 ${maxiter} ${maxeval}
        minimize 1e-12 1e-08 10000 ${maxeval}
        minimize 1e-12 1e-08 10000 20000
WARNING: Resetting reneighboring criteria during minimization (../min.cpp:168)
Memory usage per processor = 3.35161 Mbytes
Step Temp PotEng Lx Ly Lz 
      11            0   -241.99374    2.0000005    34.647952    1.0000002 
      12            0   -241.99374    2.0000005    34.647952    1.0000002 
Loop time of 0.000373908 on 1 procs for 1 steps with 82 atoms

Minimization stats:
  Stopping criterion = linesearch alpha is zero
  Energy initial, next-to-last, final = 
         -241.99374242      -241.99374242      -241.99374242
  Force two-norm initial, final = 0.0243447 0.0243447
  Force max component initial, final = 0.0116117 0.0116117
  Final line search alpha, max atom move = 1.52588e-05 1.7718e-07
  Iterations, force evaluations = 1 17

Pair  time (%) = 0.000314977 (84.2391)
Neigh time (%) = 0 (0)
Comm  time (%) = 1.97378e-05 (5.27878)
Outpt time (%) = 0 (0)
Other time (%) = 3.91934e-05 (10.4821)

Nlocal:    82 ave 82 max 82 min
Histogram: 1 0 0 0 0 0 0 0 0 0
Nghost:    185 ave 185 max 185 min
Histogram: 1 0 0 0 0 0 0 0 0 0
Neighs:    718 ave 718 max 718 min
Histogram: 1 0 0 0 0 0 0 0 0 0

Total # of neighbors = 718
Ave neighs/atom = 8.7561
Neighbor list builds = 0
Dangerous builds = 0
        # write_dump all atom ${dumpfile}
        next i
jump SELF loop1
        displace_atoms upper move ${xstep1} 0.0 0.0 units lattice
        displace_atoms upper move 0.00333333333333333 0.0 0.0 units lattice
        min_style ${style}
        min_style cg
        minimize ${etol} ${ftol} ${maxiter} ${maxeval}
        minimize 1e-12 ${ftol} ${maxiter} ${maxeval}
        minimize 1e-12 1e-08 ${maxiter} ${maxeval}
        minimize 1e-12 1e-08 10000 ${maxeval}
        minimize 1e-12 1e-08 10000 20000
WARNING: Resetting reneighboring criteria during minimization (../min.cpp:168)
Memory usage per processor = 3.35161 Mbytes
Step Temp PotEng Lx Ly Lz 
      12            0   -241.99153    2.0000005    34.647952    1.0000002 
      13            0   -241.99153    2.0000005    34.647952    1.0000002 
Loop time of 0.000437016 on 1 procs for 1 steps with 82 atoms

Minimization stats:
  Stopping criterion = linesearch alpha is zero
  Energy initial, next-to-last, final = 
        -241.991525808     -241.991525808     -241.991525808
  Force two-norm initial, final = 0.0445182 0.0445182
  Force max component initial, final = 0.0219575 0.0219575
  Final line search alpha, max atom move = 3.8147e-06 8.37612e-08
  Iterations, force evaluations = 1 19

Pair  time (%) = 0.000372016 (85.1264)
Neigh time (%) = 0 (0)
Comm  time (%) = 2.5364e-05 (5.80391)
Outpt time (%) = 0 (0)
Other time (%) = 3.9636e-05 (9.0697)

Nlocal:    82 ave 82 max 82 min
Histogram: 1 0 0 0 0 0 0 0 0 0
Nghost:    185 ave 185 max 185 min
Histogram: 1 0 0 0 0 0 0 0 0 0
Neighs:    718 ave 718 max 718 min
Histogram: 1 0 0 0 0 0 0 0 0 0

Total # of neighbors = 718
Ave neighs/atom = 8.7561
Neighbor list builds = 0
Dangerous builds = 0
        # write_dump all atom ${dumpfile}
        next i
jump SELF loop1
        displace_atoms upper move ${xstep1} 0.0 0.0 units lattice
        displace_atoms upper move 0.00333333333333333 0.0 0.0 units lattice
        min_style ${style}
        min_style cg
        minimize ${etol} ${ftol} ${maxiter} ${maxeval}
        minimize 1e-12 ${ftol} ${maxiter} ${maxeval}
        minimize 1e-12 1e-08 ${maxiter} ${maxeval}
        minimize 1e-12 1e-08 10000 ${maxeval}
        minimize 1e-12 1e-08 10000 20000
WARNING: Resetting reneighboring criteria during minimization (../min.cpp:168)
Memory usage per processor = 3.35161 Mbytes
Step Temp PotEng Lx Ly Lz 
      13            0   -241.98897    2.0000005    34.647952    1.0000002 
      14            0   -241.98898    2.0000005    34.647952    1.0000002 
      15            0   -241.98898    2.0000005    34.647952    1.0000002 
Loop time of 0.000577897 on 1 procs for 2 steps with 82 atoms

Minimization stats:
  Stopping criterion = linesearch alpha is zero
  Energy initial, next-to-last, final = 
        -241.988967902     -241.988976818     -241.988976818
  Force two-norm initial, final = 0.0681915 0.036455
  Force max component initial, final = 0.0338996 0.0160244
  Final line search alpha, max atom move = 7.62939e-06 1.22256e-07
  Iterations, force evaluations = 2 27

Pair  time (%) = 0.000453118 (78.4081)
Neigh time (%) = 0 (0)
Comm  time (%) = 6.92274e-05 (11.9792)
Outpt time (%) = 5.9437e-06 (1.02851)
Other time (%) = 4.96079e-05 (8.58423)

Nlocal:    82 ave 82 max 82 min
Histogram: 1 0 0 0 0 0 0 0 0 0
Nghost:    185 ave 185 max 185 min
Histogram: 1 0 0 0 0 0 0 0 0 0
Neighs:    718 ave 718 max 718 min
Histogram: 1 0 0 0 0 0 0 0 0 0

Total # of neighbors = 718
Ave neighs/atom = 8.7561
Neighbor list builds = 0
Dangerous builds = 0
        # write_dump all atom ${dumpfile}
        next i
jump SELF loop1
        displace_atoms upper move ${xstep1} 0.0 0.0 units lattice
        displace_atoms upper move 0.00333333333333333 0.0 0.0 units lattice
        min_style ${style}
        min_style cg
        minimize ${etol} ${ftol} ${maxiter} ${maxeval}
        minimize 1e-12 ${ftol} ${maxiter} ${maxeval}
        minimize 1e-12 1e-08 ${maxiter} ${maxeval}
        minimize 1e-12 1e-08 10000 ${maxeval}
        minimize 1e-12 1e-08 10000 20000
WARNING: Resetting reneighboring criteria during minimization (../min.cpp:168)
Memory usage per processor = 3.35161 Mbytes
Step Temp PotEng Lx Ly Lz 
      15            0   -241.98609    2.0000005    34.647952    1.0000002 
      16            0    -241.9861    2.0000005    34.647952    1.0000002 
      17            0    -241.9861    2.0000005    34.647952    1.0000002 
Loop time of 0.000530999 on 1 procs for 2 steps with 82 atoms

Minimization stats:
  Stopping criterion = linesearch alpha is zero
  Energy initial, next-to-last, final = 
        -241.986086463      -241.98609656      -241.98609656
  Force two-norm initial, final = 0.0616181 0.0376212
  Force max component initial, final = 0.029559 0.0149902
  Final line search alpha, max atom move = 7.62939e-06 1.14366e-07
  Iterations, force evaluations = 2 27

Pair  time (%) = 0.00043794 (82.4748)
Neigh time (%) = 0 (0)
Comm  time (%) = 3.47934e-05 (6.55244)
Outpt time (%) = 8.88202e-06 (1.6727)
Other time (%) = 4.93831e-05 (9.30005)

Nlocal:    82 ave 82 max 82 min
Histogram: 1 0 0 0 0 0 0 0 0 0
Nghost:    185 ave 185 max 185 min
Histogram: 1 0 0 0 0 0 0 0 0 0
Neighs:    718 ave 718 max 718 min
Histogram: 1 0 0 0 0 0 0 0 0 0

Total # of neighbors = 718
Ave neighs/atom = 8.7561
Neighbor list builds = 0
Dangerous builds = 0
        # write_dump all atom ${dumpfile}
        next i
jump SELF loop1
        displace_atoms upper move ${xstep1} 0.0 0.0 units lattice
        displace_atoms upper move 0.00333333333333333 0.0 0.0 units lattice
        min_style ${style}
        min_style cg
        minimize ${etol} ${ftol} ${maxiter} ${maxeval}
        minimize 1e-12 ${ftol} ${maxiter} ${maxeval}
        minimize 1e-12 1e-08 ${maxiter} ${maxeval}
        minimize 1e-12 1e-08 10000 ${maxeval}
        minimize 1e-12 1e-08 10000 20000
WARNING: Resetting reneighboring criteria during minimization (../min.cpp:168)
Memory usage per processor = 3.35161 Mbytes
Step Temp PotEng Lx Ly Lz 
      17            0   -241.98293    2.0000005    34.647952    1.0000002 
      18            0   -241.98294    2.0000005    34.647952    1.0000002 
      19            0   -241.98294    2.0000005    34.647952    1.0000002 
Loop time of 0.000549963 on 1 procs for 2 steps with 82 atoms

Minimization stats:
  Stopping criterion = linesearch alpha is zero
  Energy initial, next-to-last, final = 
        -241.982929202     -241.982936686     -241.982936686
  Force two-norm initial, final = 0.0436801 0.0243664
  Force max component initial, final = 0.0186509 0.0107103
  Final line search alpha, max atom move = 1.52588e-05 1.63427e-07
  Iterations, force evaluations = 2 25

Pair  time (%) = 0.000427124 (77.6642)
Neigh time (%) = 0 (0)
Comm  time (%) = 3.69441e-05 (6.71755)
Outpt time (%) = 4.89142e-06 (0.889409)
Other time (%) = 8.10031e-05 (14.7288)

Nlocal:    82 ave 82 max 82 min
Histogram: 1 0 0 0 0 0 0 0 0 0
Nghost:    185 ave 185 max 185 min
Histogram: 1 0 0 0 0 0 0 0 0 0
Neighs:    718 ave 718 max 718 min
Histogram: 1 0 0 0 0 0 0 0 0 0

Total # of neighbors = 718
Ave neighs/atom = 8.7561
Neighbor list builds = 0
Dangerous builds = 0
        # write_dump all atom ${dumpfile}
        next i
jump SELF loop1
        displace_atoms upper move ${xstep1} 0.0 0.0 units lattice
        displace_atoms upper move 0.00333333333333333 0.0 0.0 units lattice
        min_style ${style}
        min_style cg
        minimize ${etol} ${ftol} ${maxiter} ${maxeval}
        minimize 1e-12 ${ftol} ${maxiter} ${maxeval}
        minimize 1e-12 1e-08 ${maxiter} ${maxeval}
        minimize 1e-12 1e-08 10000 ${maxeval}
        minimize 1e-12 1e-08 10000 20000
WARNING: Resetting reneighboring criteria during minimization (../min.cpp:168)
Memory usage per processor = 3.35161 Mbytes
Step Temp PotEng Lx Ly Lz 
      19            0   -241.97959    2.0000005    34.647952    1.0000002 
      20            0   -241.97959    2.0000005    34.647952    1.0000002 
      21            0   -241.97959    2.0000005    34.647952    1.0000002 
      22            0   -241.97959    2.0000005    34.647952    1.0000002 
      23            0   -241.97959    2.0000005    34.647952    1.0000002 
Loop time of 0.000912105 on 1 procs for 4 steps with 82 atoms

Minimization stats:
  Stopping criterion = linesearch alpha is zero
  Energy initial, next-to-last, final = 
        -241.979585282     -241.979590306     -241.979590306
  Force two-norm initial, final = 0.0267341 0.0170553
  Force max component initial, final = 0.0107103 0.00572844
  Final line search alpha, max atom move = 3.05176e-05 1.74818e-07
  Iterations, force evaluations = 4 43

Pair  time (%) = 0.000752182 (82.4667)
Neigh time (%) = 0 (0)
Comm  time (%) = 5.71623e-05 (6.26707)
Outpt time (%) = 1.49477e-05 (1.63882)
Other time (%) = 8.78123e-05 (9.62744)

Nlocal:    82 ave 82 max 82 min
Histogram: 1 0 0 0 0 0 0 0 0 0
Nghost:    185 ave 185 max 185 min
Histogram: 1 0 0 0 0 0 0 0 0 0
Neighs:    718 ave 718 max 718 min
Histogram: 1 0 0 0 0 0 0 0 0 0

Total # of neighbors = 718
Ave neighs/atom = 8.7561
Neighbor list builds = 0
Dangerous builds = 0
        # write_dump all atom ${dumpfile}
        next i
jump SELF loop1
        displace_atoms upper move ${xstep1} 0.0 0.0 units lattice
        displace_atoms upper move 0.00333333333333333 0.0 0.0 units lattice
        min_style ${style}
        min_style cg
        minimize ${etol} ${ftol} ${maxiter} ${maxeval}
        minimize 1e-12 ${ftol} ${maxiter} ${maxeval}
        minimize 1e-12 1e-08 ${maxiter} ${maxeval}
        minimize 1e-12 1e-08 10000 ${maxeval}
        minimize 1e-12 1e-08 10000 20000
WARNING: Resetting reneighboring criteria during minimization (../min.cpp:168)
Memory usage per processor = 3.35161 Mbytes
Step Temp PotEng Lx Ly Lz 
      23            0   -241.97605    2.0000005    34.647952    1.0000002 
      24            0   -241.97606    2.0000005    34.647952    1.0000002 
      25            0   -241.97606    2.0000005    34.647952    1.0000002 
Loop time of 0.000553083 on 1 procs for 2 steps with 82 atoms

Minimization stats:
  Stopping criterion = linesearch alpha is zero
  Energy initial, next-to-last, final = 
        -241.976050442     -241.976056446     -241.976056446
  Force two-norm initial, final = 0.0221712 0.0188131
  Force max component initial, final = 0.00757921 0.00657907
  Final line search alpha, max atom move = 1.52588e-05 1.00389e-07
  Iterations, force evaluations = 2 24

Pair  time (%) = 0.000464091 (83.9099)
Neigh time (%) = 0 (0)
Comm  time (%) = 3.22995e-05 (5.83991)
Outpt time (%) = 5.93893e-06 (1.07379)
Other time (%) = 5.07532e-05 (9.17643)

Nlocal:    82 ave 82 max 82 min
Histogram: 1 0 0 0 0 0 0 0 0 0
Nghost:    185 ave 185 max 185 min
Histogram: 1 0 0 0 0 0 0 0 0 0
Neighs:    718 ave 718 max 718 min
Histogram: 1 0 0 0 0 0 0 0 0 0

Total # of neighbors = 718
Ave neighs/atom = 8.7561
Neighbor list builds = 0
Dangerous builds = 0
        # write_dump all atom ${dumpfile}
        next i
jump SELF loop1
        displace_atoms upper move ${xstep1} 0.0 0.0 units lattice
        displace_atoms upper move 0.00333333333333333 0.0 0.0 units lattice
        min_style ${style}
        min_style cg
        minimize ${etol} ${ftol} ${maxiter} ${maxeval}
        minimize 1e-12 ${ftol} ${maxiter} ${maxeval}
        minimize 1e-12 1e-08 ${maxiter} ${maxeval}
        minimize 1e-12 1e-08 10000 ${maxeval}
        minimize 1e-12 1e-08 10000 20000
WARNING: Resetting reneighboring criteria during minimization (../min.cpp:168)
Memory usage per processor = 3.35161 Mbytes
Step Temp PotEng Lx Ly Lz 
      25            0   -241.97234    2.0000005    34.647952    1.0000002 
      26            0   -241.97234    2.0000005    34.647952    1.0000002 
Loop time of 0.000383999 on 1 procs for 1 steps with 82 atoms

Minimization stats:
  Stopping criterion = linesearch alpha is zero
  Energy initial, next-to-last, final = 
         -241.97233551      -241.97233551      -241.97233551
  Force two-norm initial, final = 0.0171927 0.0171927
  Force max component initial, final = 0.00657907 0.00657907
  Final line search alpha, max atom move = 3.05176e-05 2.00777e-07
  Iterations, force evaluations = 1 16

Pair  time (%) = 0.000321944 (83.8399)
Neigh time (%) = 0 (0)
Comm  time (%) = 2.50961e-05 (6.53547)
Outpt time (%) = 0 (0)
Other time (%) = 3.69586e-05 (9.62467)

Nlocal:    82 ave 82 max 82 min
Histogram: 1 0 0 0 0 0 0 0 0 0
Nghost:    185 ave 185 max 185 min
Histogram: 1 0 0 0 0 0 0 0 0 0
Neighs:    718 ave 718 max 718 min
Histogram: 1 0 0 0 0 0 0 0 0 0

Total # of neighbors = 718
Ave neighs/atom = 8.7561
Neighbor list builds = 0
Dangerous builds = 0
        # write_dump all atom ${dumpfile}
        next i
jump SELF loop1
        displace_atoms upper move ${xstep1} 0.0 0.0 units lattice
        displace_atoms upper move 0.00333333333333333 0.0 0.0 units lattice
        min_style ${style}
        min_style cg
        minimize ${etol} ${ftol} ${maxiter} ${maxeval}
        minimize 1e-12 ${ftol} ${maxiter} ${maxeval}
        minimize 1e-12 1e-08 ${maxiter} ${maxeval}
        minimize 1e-12 1e-08 10000 ${maxeval}
        minimize 1e-12 1e-08 10000 20000
WARNING: Resetting reneighboring criteria during minimization (../min.cpp:168)
Memory usage per processor = 3.35161 Mbytes
Step Temp PotEng Lx Ly Lz 
      26            0   -241.96844    2.0000005    34.647952    1.0000002 
      27            0   -241.96844    2.0000005    34.647952    1.0000002 
      28            0   -241.96844    2.0000005    34.647952    1.0000002 
Loop time of 0.000521071 on 1 procs for 2 steps with 82 atoms

Minimization stats:
  Stopping criterion = linesearch alpha is zero
  Energy initial, next-to-last, final = 
        -241.968435738     -241.968440432     -241.968440432
  Force two-norm initial, final = 0.0261206 0.0229626
  Force max component initial, final = 0.010049 0.0070228
  Final line search alpha, max atom move = 1.52588e-05 1.07159e-07
  Iterations, force evaluations = 2 24

Pair  time (%) = 0.000430843 (82.684)
Neigh time (%) = 0 (0)
Comm  time (%) = 2.82282e-05 (5.41733)
Outpt time (%) = 5.9671e-06 (1.14516)
Other time (%) = 5.60334e-05 (10.7535)

Nlocal:    82 ave 82 max 82 min
Histogram: 1 0 0 0 0 0 0 0 0 0
Nghost:    185 ave 185 max 185 min
Histogram: 1 0 0 0 0 0 0 0 0 0
Neighs:    718 ave 718 max 718 min
Histogram: 1 0 0 0 0 0 0 0 0 0

Total # of neighbors = 718
Ave neighs/atom = 8.7561
Neighbor list builds = 0
Dangerous builds = 0
        # write_dump all atom ${dumpfile}
        next i
jump SELF loop1
        displace_atoms upper move ${xstep1} 0.0 0.0 units lattice
        displace_atoms upper move 0.00333333333333333 0.0 0.0 units lattice
        min_style ${style}
        min_style cg
        minimize ${etol} ${ftol} ${maxiter} ${maxeval}
        minimize 1e-12 ${ftol} ${maxiter} ${maxeval}
        minimize 1e-12 1e-08 ${maxiter} ${maxeval}
        minimize 1e-12 1e-08 10000 ${maxeval}
        minimize 1e-12 1e-08 10000 20000
WARNING: Resetting reneighboring criteria during minimization (../min.cpp:168)
Memory usage per processor = 3.35161 Mbytes
Step Temp PotEng Lx Ly Lz 
      28            0   -241.96436    2.0000005    34.647952    1.0000002 
      29            0   -241.96436    2.0000005    34.647952    1.0000002 
Loop time of 0.000295023 on 1 procs for 1 steps with 82 atoms

Minimization stats:
  Stopping criterion = linesearch alpha is zero
  Energy initial, next-to-last, final = 
        -241.964361627     -241.964361627     -241.964361627
  Force two-norm initial, final = 0.0197201 0.0197201
  Force max component initial, final = 0.0070228 0.0070228
  Final line search alpha, max atom move = 3.05176e-05 2.14319e-07
  Iterations, force evaluations = 1 16

Pair  time (%) = 0.000250151 (84.7903)
Neigh time (%) = 0 (0)
Comm  time (%) = 1.71225e-05 (5.80377)
Outpt time (%) = 0 (0)
Other time (%) = 2.77496e-05 (9.40589)

Nlocal:    82 ave 82 max 82 min
Histogram: 1 0 0 0 0 0 0 0 0 0
Nghost:    185 ave 185 max 185 min
Histogram: 1 0 0 0 0 0 0 0 0 0
Neighs:    718 ave 718 max 718 min
Histogram: 1 0 0 0 0 0 0 0 0 0

Total # of neighbors = 718
Ave neighs/atom = 8.7561
Neighbor list builds = 0
Dangerous builds = 0
        # write_dump all atom ${dumpfile}
        next i
jump SELF loop1
        displace_atoms upper move ${xstep1} 0.0 0.0 units lattice
        displace_atoms upper move 0.00333333333333333 0.0 0.0 units lattice
        min_style ${style}
        min_style cg
        minimize ${etol} ${ftol} ${maxiter} ${maxeval}
        minimize 1e-12 ${ftol} ${maxiter} ${maxeval}
        minimize 1e-12 1e-08 ${maxiter} ${maxeval}
        minimize 1e-12 1e-08 10000 ${maxeval}
        minimize 1e-12 1e-08 10000 20000
WARNING: Resetting reneighboring criteria during minimization (../min.cpp:168)
Memory usage per processor = 3.35161 Mbytes
Step Temp PotEng Lx Ly Lz 
      29            0    -241.9601    2.0000005    34.647952    1.0000002 
      30            0   -241.96011    2.0000005    34.647952    1.0000002 
      31            0   -241.96011    2.0000005    34.647952    1.0000002 
Loop time of 0.000541106 on 1 procs for 2 steps with 82 atoms

Minimization stats:
  Stopping criterion = linesearch alpha is zero
  Energy initial, next-to-last, final = 
        -241.960104441     -241.960113784     -241.960113784
  Force two-norm initial, final = 0.0336493 0.0331614
  Force max component initial, final = 0.0139415 0.0108205
  Final line search alpha, max atom move = 7.62939e-06 8.25541e-08
  Iterations, force evaluations = 2 25

Pair  time (%) = 0.000450436 (83.2435)
Neigh time (%) = 0 (0)
Comm  time (%) = 4.11548e-05 (7.60568)
Outpt time (%) = 4.04823e-06 (0.748139)
Other time (%) = 4.54675e-05 (8.4027)

Nlocal:    82 ave 82 max 82 min
Histogram: 1 0 0 0 0 0 0 0 0 0
Nghost:    185 ave 185 max 185 min
Histogram: 1 0 0 0 0 0 0 0 0 0
Neighs:    718 ave 718 max 718 min
Histogram: 1 0 0 0 0 0 0 0 0 0

Total # of neighbors = 718
Ave neighs/atom = 8.7561
Neighbor list builds = 0
Dangerous builds = 0
        # write_dump all atom ${dumpfile}
        next i
jump SELF loop1
        displace_atoms upper move ${xstep1} 0.0 0.0 units lattice
        displace_atoms upper move 0.00333333333333333 0.0 0.0 units lattice
        min_style ${style}
        min_style cg
        minimize ${etol} ${ftol} ${maxiter} ${maxeval}
        minimize 1e-12 ${ftol} ${maxiter} ${maxeval}
        minimize 1e-12 1e-08 ${maxiter} ${maxeval}
        minimize 1e-12 1e-08 10000 ${maxeval}
        minimize 1e-12 1e-08 10000 20000
WARNING: Resetting reneighboring criteria during minimization (../min.cpp:168)
Memory usage per processor = 3.35161 Mbytes
Step Temp PotEng Lx Ly Lz 
      31            0   -241.95568    2.0000005    34.647952    1.0000002 
      32            0   -241.95568    2.0000005    34.647952    1.0000002 
Loop time of 0.000371109 on 1 procs for 1 steps with 82 atoms

Minimization stats:
  Stopping criterion = linesearch alpha is zero
  Energy initial, next-to-last, final = 
        -241.955682118     -241.955682118     -241.955682118
  Force two-norm initial, final = 0.0254425 0.0254425
  Force max component initial, final = 0.0108205 0.0108205
  Final line search alpha, max atom move = 1.52588e-05 1.65108e-07
  Iterations, force evaluations = 1 17

Pair  time (%) = 0.000314228 (84.6727)
Neigh time (%) = 0 (0)
Comm  time (%) = 1.31472e-05 (3.54269)
Outpt time (%) = 0 (0)
Other time (%) = 4.37339e-05 (11.7846)

Nlocal:    82 ave 82 max 82 min
Histogram: 1 0 0 0 0 0 0 0 0 0
Nghost:    185 ave 185 max 185 min
Histogram: 1 0 0 0 0 0 0 0 0 0
Neighs:    718 ave 718 max 718 min
Histogram: 1 0 0 0 0 0 0 0 0 0

Total # of neighbors = 718
Ave neighs/atom = 8.7561
Neighbor list builds = 0
Dangerous builds = 0
        # write_dump all atom ${dumpfile}
        next i
jump SELF loop1
        displace_atoms upper move ${xstep1} 0.0 0.0 units lattice
        displace_atoms upper move 0.00333333333333333 0.0 0.0 units lattice
        min_style ${style}
        min_style cg
        minimize ${etol} ${ftol} ${maxiter} ${maxeval}
        minimize 1e-12 ${ftol} ${maxiter} ${maxeval}
        minimize 1e-12 1e-08 ${maxiter} ${maxeval}
        minimize 1e-12 1e-08 10000 ${maxeval}
        minimize 1e-12 1e-08 10000 20000
WARNING: Resetting reneighboring criteria during minimization (../min.cpp:168)
Memory usage per processor = 3.35161 Mbytes
Step Temp PotEng Lx Ly Lz 
      32            0   -241.95107    2.0000005    34.647952    1.0000002 
      33            0   -241.95109    2.0000005    34.647952    1.0000002 
      34            0   -241.95109    2.0000005    34.647952    1.0000002 
Loop time of 0.000621087 on 1 procs for 2 steps with 82 atoms

Minimization stats:
  Stopping criterion = linesearch alpha is zero
  Energy initial, next-to-last, final = 
        -241.951073711     -241.951089332     -241.951089332
  Force two-norm initial, final = 0.0403056 0.0344103
  Force max component initial, final = 0.0157242 0.0102047
  Final line search alpha, max atom move = 7.62939e-06 7.78557e-08
  Iterations, force evaluations = 2 25

Pair  time (%) = 0.000520918 (83.8719)
Neigh time (%) = 0 (0)
Comm  time (%) = 3.99848e-05 (6.43788)
Outpt time (%) = 5.01995e-06 (0.808251)
Other time (%) = 5.51646e-05 (8.88194)

Nlocal:    82 ave 82 max 82 min
Histogram: 1 0 0 0 0 0 0 0 0 0
Nghost:    185 ave 185 max 185 min
Histogram: 1 0 0 0 0 0 0 0 0 0
Neighs:    718 ave 718 max 718 min
Histogram: 1 0 0 0 0 0 0 0 0 0

Total # of neighbors = 718
Ave neighs/atom = 8.7561
Neighbor list builds = 0
Dangerous builds = 0
        # write_dump all atom ${dumpfile}
        next i
jump SELF loop1
        displace_atoms upper move ${xstep1} 0.0 0.0 units lattice
        displace_atoms upper move 0.00333333333333333 0.0 0.0 units lattice
        min_style ${style}
        min_style cg
        minimize ${etol} ${ftol} ${maxiter} ${maxeval}
        minimize 1e-12 ${ftol} ${maxiter} ${maxeval}
        minimize 1e-12 1e-08 ${maxiter} ${maxeval}
        minimize 1e-12 1e-08 10000 ${maxeval}
        minimize 1e-12 1e-08 10000 20000
WARNING: Resetting reneighboring criteria during minimization (../min.cpp:168)
Memory usage per processor = 3.35161 Mbytes
Step Temp PotEng Lx Ly Lz 
      34            0   -241.94632    2.0000005    34.647952    1.0000002 
      35            0   -241.94632    2.0000005    34.647952    1.0000002 
      36            0   -241.94632    2.0000005    34.647952    1.0000002 
Loop time of 0.000608988 on 1 procs for 2 steps with 82 atoms

Minimization stats:
  Stopping criterion = linesearch alpha is zero
  Energy initial, next-to-last, final = 
        -241.946319035     -241.946322497     -241.946322497
  Force two-norm initial, final = 0.0295753 0.024653
  Force max component initial, final = 0.0097753 0.00776486
  Final line search alpha, max atom move = 1.52588e-05 1.18482e-07
  Iterations, force evaluations = 2 25

Pair  time (%) = 0.000459249 (75.4118)
Neigh time (%) = 0 (0)
Comm  time (%) = 8.92913e-05 (14.6622)
Outpt time (%) = 7.05966e-06 (1.15924)
Other time (%) = 5.33881e-05 (8.76669)

Nlocal:    82 ave 82 max 82 min
Histogram: 1 0 0 0 0 0 0 0 0 0
Nghost:    185 ave 185 max 185 min
Histogram: 1 0 0 0 0 0 0 0 0 0
Neighs:    718 ave 718 max 718 min
Histogram: 1 0 0 0 0 0 0 0 0 0

Total # of neighbors = 718
Ave neighs/atom = 8.7561
Neighbor list builds = 0
Dangerous builds = 0
        # write_dump all atom ${dumpfile}
        next i
jump SELF loop1
        displace_atoms upper move ${xstep1} 0.0 0.0 units lattice
        displace_atoms upper move 0.00333333333333333 0.0 0.0 units lattice
        min_style ${style}
        min_style cg
        minimize ${etol} ${ftol} ${maxiter} ${maxeval}
        minimize 1e-12 ${ftol} ${maxiter} ${maxeval}
        minimize 1e-12 1e-08 ${maxiter} ${maxeval}
        minimize 1e-12 1e-08 10000 ${maxeval}
        minimize 1e-12 1e-08 10000 20000
WARNING: Resetting reneighboring criteria during minimization (../min.cpp:168)
Memory usage per processor = 3.35161 Mbytes
Step Temp PotEng Lx Ly Lz 
      36            0   -241.94137    2.0000005    34.647952    1.0000002 
      37            0   -241.94139    2.0000005    34.647952    1.0000002 
      38            0   -241.94139    2.0000005    34.647952    1.0000002 
      39            0   -241.94139    2.0000005    34.647952    1.0000002 
Loop time of 0.00093789 on 1 procs for 3 steps with 82 atoms

Minimization stats:
  Stopping criterion = linesearch alpha is zero
  Energy initial, next-to-last, final = 
        -241.941374996     -241.941391391     -241.941391391
  Force two-norm initial, final = 0.0466279 0.0497254
  Force max component initial, final = 0.0200373 0.0178312
  Final line search alpha, max atom move = 3.8147e-06 6.80205e-08
  Iterations, force evaluations = 3 37

Pair  time (%) = 0.00078678 (83.8883)
Neigh time (%) = 0 (0)
Comm  time (%) = 3.464e-05 (3.69339)
Outpt time (%) = 1.41136e-05 (1.50483)
Other time (%) = 0.000102357 (10.9135)

Nlocal:    82 ave 82 max 82 min
Histogram: 1 0 0 0 0 0 0 0 0 0
Nghost:    185 ave 185 max 185 min
Histogram: 1 0 0 0 0 0 0 0 0 0
Neighs:    718 ave 718 max 718 min
Histogram: 1 0 0 0 0 0 0 0 0 0

Total # of neighbors = 718
Ave neighs/atom = 8.7561
Neighbor list builds = 0
Dangerous builds = 0
        # write_dump all atom ${dumpfile}
        next i
jump SELF loop1
        displace_atoms upper move ${xstep1} 0.0 0.0 units lattice
        displace_atoms upper move 0.00333333333333333 0.0 0.0 units lattice
        min_style ${style}
        min_style cg
        minimize ${etol} ${ftol} ${maxiter} ${maxeval}
        minimize 1e-12 ${ftol} ${maxiter} ${maxeval}
        minimize 1e-12 1e-08 ${maxiter} ${maxeval}
        minimize 1e-12 1e-08 10000 ${maxeval}
        minimize 1e-12 1e-08 10000 20000
WARNING: Resetting reneighboring criteria during minimization (../min.cpp:168)
Memory usage per processor = 3.35161 Mbytes
Step Temp PotEng Lx Ly Lz 
      39            0   -241.93629    2.0000005    34.647952    1.0000002 
      40            0   -241.93629    2.0000005    34.647952    1.0000002 
Loop time of 0.000399068 on 1 procs for 1 steps with 82 atoms

Minimization stats:
  Stopping criterion = linesearch alpha is zero
  Energy initial, next-to-last, final = 
        -241.936293735     -241.936293735     -241.936293735
  Force two-norm initial, final = 0.0346597 0.0346597
  Force max component initial, final = 0.0148275 0.0148275
  Final line search alpha, max atom move = 7.62939e-06 1.13125e-07
  Iterations, force evaluations = 1 18

Pair  time (%) = 0.000338547 (84.8344)
Neigh time (%) = 0 (0)
Comm  time (%) = 2.16125e-05 (5.41575)
Outpt time (%) = 0 (0)
Other time (%) = 3.89083e-05 (9.74981)

Nlocal:    82 ave 82 max 82 min
Histogram: 1 0 0 0 0 0 0 0 0 0
Nghost:    185 ave 185 max 185 min
Histogram: 1 0 0 0 0 0 0 0 0 0
Neighs:    718 ave 718 max 718 min
Histogram: 1 0 0 0 0 0 0 0 0 0

Total # of neighbors = 718
Ave neighs/atom = 8.7561
Neighbor list builds = 0
Dangerous builds = 0
        # write_dump all atom ${dumpfile}
        next i
jump SELF loop1
        displace_atoms upper move ${xstep1} 0.0 0.0 units lattice
        displace_atoms upper move 0.00333333333333333 0.0 0.0 units lattice
        min_style ${style}
        min_style cg
        minimize ${etol} ${ftol} ${maxiter} ${maxeval}
        minimize 1e-12 ${ftol} ${maxiter} ${maxeval}
        minimize 1e-12 1e-08 ${maxiter} ${maxeval}
        minimize 1e-12 1e-08 10000 ${maxeval}
        minimize 1e-12 1e-08 10000 20000
WARNING: Resetting reneighboring criteria during minimization (../min.cpp:168)
Memory usage per processor = 3.35161 Mbytes
Step Temp PotEng Lx Ly Lz 
      40            0   -241.93102    2.0000005    34.647952    1.0000002 
      41            0   -241.93105    2.0000005    34.647952    1.0000002 
      42            0   -241.93106    2.0000005    34.647952    1.0000002 
      43            0   -241.93106    2.0000005    34.647952    1.0000002 
Loop time of 0.000682021 on 1 procs for 3 steps with 82 atoms

Minimization stats:
  Stopping criterion = linesearch alpha is zero
  Energy initial, next-to-last, final = 
        -241.931024757     -241.931055404     -241.931055404
  Force two-norm initial, final = 0.0529123 0.0293057
  Force max component initial, final = 0.0199931 0.0110199
  Final line search alpha, max atom move = 7.62939e-06 8.40751e-08
  Iterations, force evaluations = 3 33

Pair  time (%) = 0.000558624 (81.9072)
Neigh time (%) = 0 (0)
Comm  time (%) = 3.57206e-05 (5.23747)
Outpt time (%) = 1.29662e-05 (1.90115)
Other time (%) = 7.471e-05 (10.9542)

Nlocal:    82 ave 82 max 82 min
Histogram: 1 0 0 0 0 0 0 0 0 0
Nghost:    185 ave 185 max 185 min
Histogram: 1 0 0 0 0 0 0 0 0 0
Neighs:    718 ave 718 max 718 min
Histogram: 1 0 0 0 0 0 0 0 0 0

Total # of neighbors = 718
Ave neighs/atom = 8.7561
Neighbor list builds = 0
Dangerous builds = 0
        # write_dump all atom ${dumpfile}
        next i
jump SELF loop1
        displace_atoms upper move ${xstep1} 0.0 0.0 units lattice
        displace_atoms upper move 0.00333333333333333 0.0 0.0 units lattice
        min_style ${style}
        min_style cg
        minimize ${etol} ${ftol} ${maxiter} ${maxeval}
        minimize 1e-12 ${ftol} ${maxiter} ${maxeval}
        minimize 1e-12 1e-08 ${maxiter} ${maxeval}
        minimize 1e-12 1e-08 10000 ${maxeval}
        minimize 1e-12 1e-08 10000 20000
WARNING: Resetting reneighboring criteria during minimization (../min.cpp:168)
Memory usage per processor = 3.35161 Mbytes
Step Temp PotEng Lx Ly Lz 
      43            0   -241.92564    2.0000005    34.647952    1.0000002 
      44            0   -241.92565    2.0000005    34.647952    1.0000002 
      45            0   -241.92565    2.0000005    34.647952    1.0000002 
      46            0   -241.92565    2.0000005    34.647952    1.0000002 
Loop time of 0.000794111 on 1 procs for 3 steps with 82 atoms

Minimization stats:
  Stopping criterion = linesearch alpha is zero
  Energy initial, next-to-last, final = 
        -241.925643323     -241.925651367     -241.925651367
  Force two-norm initial, final = 0.0427881 0.0275673
  Force max component initial, final = 0.016261 0.00837489
  Final line search alpha, max atom move = 1.52588e-05 1.27791e-07
  Iterations, force evaluations = 3 34

Pair  time (%) = 0.000672368 (84.6692)
Neigh time (%) = 0 (0)
Comm  time (%) = 4.56736e-05 (5.75153)
Outpt time (%) = 1.09334e-05 (1.37681)
Other time (%) = 6.51367e-05 (8.20247)

Nlocal:    82 ave 82 max 82 min
Histogram: 1 0 0 0 0 0 0 0 0 0
Nghost:    185 ave 185 max 185 min
Histogram: 1 0 0 0 0 0 0 0 0 0
Neighs:    718 ave 718 max 718 min
Histogram: 1 0 0 0 0 0 0 0 0 0

Total # of neighbors = 718
Ave neighs/atom = 8.7561
Neighbor list builds = 0
Dangerous builds = 0
        # write_dump all atom ${dumpfile}
        next i
jump SELF loop1
        displace_atoms upper move ${xstep1} 0.0 0.0 units lattice
        displace_atoms upper move 0.00333333333333333 0.0 0.0 units lattice
        min_style ${style}
        min_style cg
        minimize ${etol} ${ftol} ${maxiter} ${maxeval}
        minimize 1e-12 ${ftol} ${maxiter} ${maxeval}
        minimize 1e-12 1e-08 ${maxiter} ${maxeval}
        minimize 1e-12 1e-08 10000 ${maxeval}
        minimize 1e-12 1e-08 10000 20000
WARNING: Resetting reneighboring criteria during minimization (../min.cpp:168)
Memory usage per processor = 3.35161 Mbytes
Step Temp PotEng Lx Ly Lz 
      46            0   -241.92008    2.0000005    34.647952    1.0000002 
      47            0   -241.92009    2.0000005    34.647952    1.0000002 
      48            0   -241.92011    2.0000005    34.647952    1.0000002 
      49            0   -241.92012    2.0000005    34.647952    1.0000002 
      50            0   -241.92012    2.0000005    34.647952    1.0000002 
Loop time of 0.00101405 on 1 procs for 4 steps with 82 atoms

Minimization stats:
  Stopping criterion = linesearch alpha is zero
  Energy initial, next-to-last, final = 
        -241.920081064     -241.920115013     -241.920115013
  Force two-norm initial, final = 0.0527885 0.0417256
  Force max component initial, final = 0.0225107 0.0125001
  Final line search alpha, max atom move = 3.8147e-06 4.7684e-08
  Iterations, force evaluations = 4 44

Pair  time (%) = 0.000852147 (84.0343)
Neigh time (%) = 0 (0)
Comm  time (%) = 5.67177e-05 (5.5932)
Outpt time (%) = 1.80319e-05 (1.77821)
Other time (%) = 8.71499e-05 (8.59427)

Nlocal:    82 ave 82 max 82 min
Histogram: 1 0 0 0 0 0 0 0 0 0
Nghost:    185 ave 185 max 185 min
Histogram: 1 0 0 0 0 0 0 0 0 0
Neighs:    718 ave 718 max 718 min
Histogram: 1 0 0 0 0 0 0 0 0 0

Total # of neighbors = 718
Ave neighs/atom = 8.7561
Neighbor list builds = 0
Dangerous builds = 0
        # write_dump all atom ${dumpfile}
        next i
jump SELF loop1
        displace_atoms upper move ${xstep1} 0.0 0.0 units lattice
        displace_atoms upper move 0.00333333333333333 0.0 0.0 units lattice
        min_style ${style}
        min_style cg
        minimize ${etol} ${ftol} ${maxiter} ${maxeval}
        minimize 1e-12 ${ftol} ${maxiter} ${maxeval}
        minimize 1e-12 1e-08 ${maxiter} ${maxeval}
        minimize 1e-12 1e-08 10000 ${maxeval}
        minimize 1e-12 1e-08 10000 20000
WARNING: Resetting reneighboring criteria during minimization (../min.cpp:168)
Memory usage per processor = 3.35161 Mbytes
Step Temp PotEng Lx Ly Lz 
      50            0    -241.9144    2.0000005    34.647952    1.0000002 
      51            0   -241.91441    2.0000005    34.647952    1.0000002 
      52            0   -241.91442    2.0000005    34.647952    1.0000002 
      53            0   -241.91442    2.0000005    34.647952    1.0000002 
      54            0   -241.91442    2.0000005    34.647952    1.0000002 
Loop time of 0.000993114 on 1 procs for 4 steps with 82 atoms

Minimization stats:
  Stopping criterion = linesearch alpha is zero
  Energy initial, next-to-last, final = 
        -241.914400525     -241.914421218     -241.914421218
  Force two-norm initial, final = 0.0753181 0.0257343
  Force max component initial, final = 0.0326636 0.00742358
  Final line search alpha, max atom move = 1.52588e-05 1.13275e-07
  Iterations, force evaluations = 4 46

Pair  time (%) = 0.000814811 (82.046)
Neigh time (%) = 0 (0)
Comm  time (%) = 5.56683e-05 (5.60543)
Outpt time (%) = 3.10664e-05 (3.12818)
Other time (%) = 9.15686e-05 (9.22035)

Nlocal:    82 ave 82 max 82 min
Histogram: 1 0 0 0 0 0 0 0 0 0
Nghost:    185 ave 185 max 185 min
Histogram: 1 0 0 0 0 0 0 0 0 0
Neighs:    718 ave 718 max 718 min
Histogram: 1 0 0 0 0 0 0 0 0 0

Total # of neighbors = 718
Ave neighs/atom = 8.7561
Neighbor list builds = 0
Dangerous builds = 0
        # write_dump all atom ${dumpfile}
        next i
jump SELF loop1
        displace_atoms upper move ${xstep1} 0.0 0.0 units lattice
        displace_atoms upper move 0.00333333333333333 0.0 0.0 units lattice
        min_style ${style}
        min_style cg
        minimize ${etol} ${ftol} ${maxiter} ${maxeval}
        minimize 1e-12 ${ftol} ${maxiter} ${maxeval}
        minimize 1e-12 1e-08 ${maxiter} ${maxeval}
        minimize 1e-12 1e-08 10000 ${maxeval}
        minimize 1e-12 1e-08 10000 20000
WARNING: Resetting reneighboring criteria during minimization (../min.cpp:168)
Memory usage per processor = 3.35161 Mbytes
Step Temp PotEng Lx Ly Lz 
      54            0   -241.90857    2.0000005    34.647952    1.0000002 
      55            0   -241.90858    2.0000005    34.647952    1.0000002 
      56            0   -241.90861    2.0000005    34.647952    1.0000002 
      57            0   -241.90861    2.0000005    34.647952    1.0000002 
Loop time of 0.000772918 on 1 procs for 3 steps with 82 atoms

Minimization stats:
  Stopping criterion = linesearch alpha is zero
  Energy initial, next-to-last, final = 
        -241.908569753     -241.908609148     -241.908609148
  Force two-norm initial, final = 0.0604805 0.0309091
  Force max component initial, final = 0.027372 0.0111426
  Final line search alpha, max atom move = 7.62939e-06 8.50112e-08
  Iterations, force evaluations = 3 33

Pair  time (%) = 0.000648381 (83.8875)
Neigh time (%) = 0 (0)
Comm  time (%) = 4.04506e-05 (5.23349)
Outpt time (%) = 1.10643e-05 (1.4315)
Other time (%) = 7.30216e-05 (9.44753)

Nlocal:    82 ave 82 max 82 min
Histogram: 1 0 0 0 0 0 0 0 0 0
Nghost:    185 ave 185 max 185 min
Histogram: 1 0 0 0 0 0 0 0 0 0
Neighs:    718 ave 718 max 718 min
Histogram: 1 0 0 0 0 0 0 0 0 0

Total # of neighbors = 718
Ave neighs/atom = 8.7561
Neighbor list builds = 0
Dangerous builds = 0
        # write_dump all atom ${dumpfile}
        next i
jump SELF loop1
        displace_atoms upper move ${xstep1} 0.0 0.0 units lattice
        displace_atoms upper move 0.00333333333333333 0.0 0.0 units lattice
        min_style ${style}
        min_style cg
        minimize ${etol} ${ftol} ${maxiter} ${maxeval}
        minimize 1e-12 ${ftol} ${maxiter} ${maxeval}
        minimize 1e-12 1e-08 ${maxiter} ${maxeval}
        minimize 1e-12 1e-08 10000 ${maxeval}
        minimize 1e-12 1e-08 10000 20000
WARNING: Resetting reneighboring criteria during minimization (../min.cpp:168)
Memory usage per processor = 3.35161 Mbytes
Step Temp PotEng Lx Ly Lz 
      57            0   -241.90268    2.0000005    34.647952    1.0000002 
      58            0   -241.90269    2.0000005    34.647952    1.0000002 
      59            0   -241.90269    2.0000005    34.647952    1.0000002 
Loop time of 0.000786941 on 1 procs for 2 steps with 82 atoms

Minimization stats:
  Stopping criterion = linesearch alpha is zero
  Energy initial, next-to-last, final = 
        -241.902682402      -241.90268689      -241.90268689
  Force two-norm initial, final = 0.0955269 0.0846008
  Force max component initial, final = 0.0455898 0.0398883
  Final line search alpha, max atom move = 9.53674e-07 3.80404e-08
  Iterations, force evaluations = 2 32

Pair  time (%) = 0.000665763 (84.6014)
Neigh time (%) = 0 (0)
Comm  time (%) = 4.23314e-05 (5.37924)
Outpt time (%) = 7.07665e-06 (0.899262)
Other time (%) = 7.17699e-05 (9.12012)

Nlocal:    82 ave 82 max 82 min
Histogram: 1 0 0 0 0 0 0 0 0 0
Nghost:    185 ave 185 max 185 min
Histogram: 1 0 0 0 0 0 0 0 0 0
Neighs:    718 ave 718 max 718 min
Histogram: 1 0 0 0 0 0 0 0 0 0

Total # of neighbors = 718
Ave neighs/atom = 8.7561
Neighbor list builds = 0
Dangerous builds = 0
        # write_dump all atom ${dumpfile}
        next i
jump SELF loop1
        displace_atoms upper move ${xstep1} 0.0 0.0 units lattice
        displace_atoms upper move 0.00333333333333333 0.0 0.0 units lattice
        min_style ${style}
        min_style cg
        minimize ${etol} ${ftol} ${maxiter} ${maxeval}
        minimize 1e-12 ${ftol} ${maxiter} ${maxeval}
        minimize 1e-12 1e-08 ${maxiter} ${maxeval}
        minimize 1e-12 1e-08 10000 ${maxeval}
        minimize 1e-12 1e-08 10000 20000
WARNING: Resetting reneighboring criteria during minimization (../min.cpp:168)
Memory usage per processor = 3.35161 Mbytes
Step Temp PotEng Lx Ly Lz 
      59            0   -241.89667    2.0000005    34.647952    1.0000002 
      60            0   -241.89677    2.0000005    34.647952    1.0000002 
      61            0   -241.89679    2.0000005    34.647952    1.0000002 
      62            0   -241.89685    2.0000005    34.647952    1.0000002 
      63            0    -241.8969    2.0000005    34.647952    1.0000002 
      64            0   -241.89691    2.0000005    34.647952    1.0000002 
      65            0   -241.89691    2.0000005    34.647952    1.0000002 
      66            0   -241.89691    2.0000005    34.647952    1.0000002 
Loop time of 0.00294807 on 1 procs for 7 steps with 82 atoms

Minimization stats:
  Stopping criterion = linesearch alpha is zero
  Energy initial, next-to-last, final = 
        -241.896669367     -241.896913464     -241.896913464
  Force two-norm initial, final = 0.162793 0.031326
  Force max component initial, final = 0.0801692 0.0101262
  Final line search alpha, max atom move = 7.62939e-06 7.72571e-08
  Iterations, force evaluations = 7 71

Pair  time (%) = 0.00243826 (82.707)
Neigh time (%) = 0 (0)
Comm  time (%) = 0.00010943 (3.71192)
Outpt time (%) = 4.88035e-05 (1.65544)
Other time (%) = 0.000351576 (11.9256)

Nlocal:    82 ave 82 max 82 min
Histogram: 1 0 0 0 0 0 0 0 0 0
Nghost:    185 ave 185 max 185 min
Histogram: 1 0 0 0 0 0 0 0 0 0
Neighs:    718 ave 718 max 718 min
Histogram: 1 0 0 0 0 0 0 0 0 0

Total # of neighbors = 718
Ave neighs/atom = 8.7561
Neighbor list builds = 0
Dangerous builds = 0
        # write_dump all atom ${dumpfile}
        next i
jump SELF loop1
        displace_atoms upper move ${xstep1} 0.0 0.0 units lattice
        displace_atoms upper move 0.00333333333333333 0.0 0.0 units lattice
        min_style ${style}
        min_style cg
        minimize ${etol} ${ftol} ${maxiter} ${maxeval}
        minimize 1e-12 ${ftol} ${maxiter} ${maxeval}
        minimize 1e-12 1e-08 ${maxiter} ${maxeval}
        minimize 1e-12 1e-08 10000 ${maxeval}
        minimize 1e-12 1e-08 10000 20000
WARNING: Resetting reneighboring criteria during minimization (../min.cpp:168)
Memory usage per processor = 3.35161 Mbytes
Step Temp PotEng Lx Ly Lz 
      66            0   -241.89098    2.0000005    34.647952    1.0000002 
      67            0   -241.89098    2.0000005    34.647952    1.0000002 
      68            0   -241.89098    2.0000005    34.647952    1.0000002 
Loop time of 0.000911085 on 1 procs for 2 steps with 82 atoms

Minimization stats:
  Stopping criterion = linesearch alpha is zero
  Energy initial, next-to-last, final = 
        -241.890975252     -241.890980321     -241.890980321
  Force two-norm initial, final = 0.0714892 0.0557109
  Force max component initial, final = 0.0328419 0.024365
  Final line search alpha, max atom move = 3.8147e-06 9.2945e-08
  Iterations, force evaluations = 2 29

Pair  time (%) = 0.000777008 (85.2838)
Neigh time (%) = 0 (0)
Comm  time (%) = 4.71424e-05 (5.17431)
Outpt time (%) = 1.49503e-05 (1.64093)
Other time (%) = 7.19844e-05 (7.90095)

Nlocal:    82 ave 82 max 82 min
Histogram: 1 0 0 0 0 0 0 0 0 0
Nghost:    185 ave 185 max 185 min
Histogram: 1 0 0 0 0 0 0 0 0 0
Neighs:    718 ave 718 max 718 min
Histogram: 1 0 0 0 0 0 0 0 0 0

Total # of neighbors = 718
Ave neighs/atom = 8.7561
Neighbor list builds = 0
Dangerous builds = 0
        # write_dump all atom ${dumpfile}
        next i
jump SELF loop1
        displace_atoms upper move ${xstep1} 0.0 0.0 units lattice
        displace_atoms upper move 0.00333333333333333 0.0 0.0 units lattice
        min_style ${style}
        min_style cg
        minimize ${etol} ${ftol} ${maxiter} ${maxeval}
        minimize 1e-12 ${ftol} ${maxiter} ${maxeval}
        minimize 1e-12 1e-08 ${maxiter} ${maxeval}
        minimize 1e-12 1e-08 10000 ${maxeval}
        minimize 1e-12 1e-08 10000 20000
WARNING: Resetting reneighboring criteria during minimization (../min.cpp:168)
Memory usage per processor = 3.35161 Mbytes
Step Temp PotEng Lx Ly Lz 
      68            0   -241.88496    2.0000005    34.647952    1.0000002 
      69            0     -241.885    2.0000005    34.647952    1.0000002 
      70            0   -241.88501    2.0000005    34.647952    1.0000002 
      71            0   -241.88501    2.0000005    34.647952    1.0000002 
Loop time of 0.000973918 on 1 procs for 3 steps with 82 atoms

Minimization stats:
  Stopping criterion = linesearch alpha is zero
  Energy initial, next-to-last, final = 
        -241.884957688     -241.885008125     -241.885008125
  Force two-norm initial, final = 0.132223 0.0524511
  Force max component initial, final = 0.0647182 0.0179637
  Final line search alpha, max atom move = 3.8147e-06 6.8526e-08
  Iterations, force evaluations = 3 37

Pair  time (%) = 0.00081274 (83.4505)
Neigh time (%) = 0 (0)
Comm  time (%) = 5.3096e-05 (5.45179)
Outpt time (%) = 1.79365e-05 (1.84168)
Other time (%) = 9.01459e-05 (9.256)

Nlocal:    82 ave 82 max 82 min
Histogram: 1 0 0 0 0 0 0 0 0 0
Nghost:    185 ave 185 max 185 min
Histogram: 1 0 0 0 0 0 0 0 0 0
Neighs:    718 ave 718 max 718 min
Histogram: 1 0 0 0 0 0 0 0 0 0

Total # of neighbors = 718
Ave neighs/atom = 8.7561
Neighbor list builds = 0
Dangerous builds = 0
        # write_dump all atom ${dumpfile}
        next i
jump SELF loop1
        displace_atoms upper move ${xstep1} 0.0 0.0 units lattice
        displace_atoms upper move 0.00333333333333333 0.0 0.0 units lattice
        min_style ${style}
        min_style cg
        minimize ${etol} ${ftol} ${maxiter} ${maxeval}
        minimize 1e-12 ${ftol} ${maxiter} ${maxeval}
        minimize 1e-12 1e-08 ${maxiter} ${maxeval}
        minimize 1e-12 1e-08 10000 ${maxeval}
        minimize 1e-12 1e-08 10000 20000
WARNING: Resetting reneighboring criteria during minimization (../min.cpp:168)
Memory usage per processor = 3.35161 Mbytes
Step Temp PotEng Lx Ly Lz 
      71            0   -241.87895    2.0000005    34.647952    1.0000002 
      72            0   -241.87902    2.0000005    34.647952    1.0000002 
      73            0   -241.87902    2.0000005    34.647952    1.0000002 
Loop time of 0.000666932 on 1 procs for 2 steps with 82 atoms

Minimization stats:
  Stopping criterion = linesearch alpha is zero
  Energy initial, next-to-last, final = 
        -241.878952801     -241.879023215     -241.879023215
  Force two-norm initial, final = 0.123273 0.06071
  Force max component initial, final = 0.0585999 0.0266593
  Final line search alpha, max atom move = 1.90735e-06 5.08485e-08
  Iterations, force evaluations = 2 28

Pair  time (%) = 0.000566524 (84.9447)
Neigh time (%) = 0 (0)
Comm  time (%) = 3.80751e-05 (5.709)
Outpt time (%) = 5.92635e-06 (0.888599)
Other time (%) = 5.64073e-05 (8.45772)

Nlocal:    82 ave 82 max 82 min
Histogram: 1 0 0 0 0 0 0 0 0 0
Nghost:    185 ave 185 max 185 min
Histogram: 1 0 0 0 0 0 0 0 0 0
Neighs:    718 ave 718 max 718 min
Histogram: 1 0 0 0 0 0 0 0 0 0

Total # of neighbors = 718
Ave neighs/atom = 8.7561
Neighbor list builds = 0
Dangerous builds = 0
        # write_dump all atom ${dumpfile}
        next i
jump SELF loop1
        displace_atoms upper move ${xstep1} 0.0 0.0 units lattice
        displace_atoms upper move 0.00333333333333333 0.0 0.0 units lattice
        min_style ${style}
        min_style cg
        minimize ${etol} ${ftol} ${maxiter} ${maxeval}
        minimize 1e-12 ${ftol} ${maxiter} ${maxeval}
        minimize 1e-12 1e-08 ${maxiter} ${maxeval}
        minimize 1e-12 1e-08 10000 ${maxeval}
        minimize 1e-12 1e-08 10000 20000
WARNING: Resetting reneighboring criteria during minimization (../min.cpp:168)
Memory usage per processor = 3.35161 Mbytes
Step Temp PotEng Lx Ly Lz 
      73            0   -241.87295    2.0000005    34.647952    1.0000002 
      74            0   -241.87301    2.0000005    34.647952    1.0000002 
      75            0   -241.87308    2.0000005    34.647952    1.0000002 
      76            0    -241.8731    2.0000005    34.647952    1.0000002 
      77            0   -241.87315    2.0000005    34.647952    1.0000002 
      78            0   -241.87319    2.0000005    34.647952    1.0000002 
      79            0   -241.87321    2.0000005    34.647952    1.0000002 
      80            0   -241.87321    2.0000005    34.647952    1.0000002 
      81            0   -241.87321    2.0000005    34.647952    1.0000002 
      82            0   -241.87321    2.0000005    34.647952    1.0000002 
Loop time of 0.00249798 on 1 procs for 9 steps with 82 atoms

Minimization stats:
  Stopping criterion = linesearch alpha is zero
  Energy initial, next-to-last, final = 
        -241.872950136     -241.873208377     -241.873208377
  Force two-norm initial, final = 0.107379 0.0291758
  Force max component initial, final = 0.0444336 0.00730385
  Final line search alpha, max atom move = 7.62939e-06 5.5724e-08
  Iterations, force evaluations = 9 83

Pair  time (%) = 0.00216333 (86.6032)
Neigh time (%) = 0 (0)
Comm  time (%) = 0.00010922 (4.37234)
Outpt time (%) = 5.12695e-05 (2.05244)
Other time (%) = 0.00017416 (6.97203)

Nlocal:    82 ave 82 max 82 min
Histogram: 1 0 0 0 0 0 0 0 0 0
Nghost:    185 ave 185 max 185 min
Histogram: 1 0 0 0 0 0 0 0 0 0
Neighs:    718 ave 718 max 718 min
Histogram: 1 0 0 0 0 0 0 0 0 0

Total # of neighbors = 718
Ave neighs/atom = 8.7561
Neighbor list builds = 0
Dangerous builds = 0
        # write_dump all atom ${dumpfile}
        next i
jump SELF loop1
        displace_atoms upper move ${xstep1} 0.0 0.0 units lattice
        displace_atoms upper move 0.00333333333333333 0.0 0.0 units lattice
        min_style ${style}
        min_style cg
        minimize ${etol} ${ftol} ${maxiter} ${maxeval}
        minimize 1e-12 ${ftol} ${maxiter} ${maxeval}
        minimize 1e-12 1e-08 ${maxiter} ${maxeval}
        minimize 1e-12 1e-08 10000 ${maxeval}
        minimize 1e-12 1e-08 10000 20000
WARNING: Resetting reneighboring criteria during minimization (../min.cpp:168)
Memory usage per processor = 3.35161 Mbytes
Step Temp PotEng Lx Ly Lz 
      82            0   -241.86716    2.0000005    34.647959    1.0000002 
      83            0    -241.8672    2.0000005    34.647959    1.0000002 
      84            0    -241.8672    2.0000005    34.647959    1.0000002 
Loop time of 0.000669042 on 1 procs for 2 steps with 82 atoms

Minimization stats:
  Stopping criterion = linesearch alpha is zero
  Energy initial, next-to-last, final = 
        -241.867164156     -241.867196918     -241.867196918
  Force two-norm initial, final = 0.0931179 0.0458699
  Force max component initial, final = 0.0443777 0.0194715
  Final line search alpha, max atom move = 3.8147e-06 7.42777e-08
  Iterations, force evaluations = 2 27

Pair  time (%) = 0.000571079 (85.3577)
Neigh time (%) = 0 (0)
Comm  time (%) = 4.01331e-05 (5.9986)
Outpt time (%) = 4.9962e-06 (0.746769)
Other time (%) = 5.28335e-05 (7.89689)

Nlocal:    82 ave 82 max 82 min
Histogram: 1 0 0 0 0 0 0 0 0 0
Nghost:    185 ave 185 max 185 min
Histogram: 1 0 0 0 0 0 0 0 0 0
Neighs:    718 ave 718 max 718 min
Histogram: 1 0 0 0 0 0 0 0 0 0

Total # of neighbors = 718
Ave neighs/atom = 8.7561
Neighbor list builds = 0
Dangerous builds = 0
        # write_dump all atom ${dumpfile}
        next i
jump SELF loop1
        displace_atoms upper move ${xstep1} 0.0 0.0 units lattice
        displace_atoms upper move 0.00333333333333333 0.0 0.0 units lattice
        min_style ${style}
        min_style cg
        minimize ${etol} ${ftol} ${maxiter} ${maxeval}
        minimize 1e-12 ${ftol} ${maxiter} ${maxeval}
        minimize 1e-12 1e-08 ${maxiter} ${maxeval}
        minimize 1e-12 1e-08 10000 ${maxeval}
        minimize 1e-12 1e-08 10000 20000
WARNING: Resetting reneighboring criteria during minimization (../min.cpp:168)
Memory usage per processor = 3.35161 Mbytes
Step Temp PotEng Lx Ly Lz 
      84            0   -241.86112    2.0000005     34.64796    1.0000002 
      85            0   -241.86117    2.0000005     34.64796    1.0000002 
      86            0   -241.86117    2.0000005     34.64796    1.0000002 
Loop time of 0.000688962 on 1 procs for 2 steps with 82 atoms

Minimization stats:
  Stopping criterion = linesearch alpha is zero
  Energy initial, next-to-last, final = 
        -241.861120226     -241.861169294     -241.861169294
  Force two-norm initial, final = 0.0950199 0.053625
  Force max component initial, final = 0.0416145 0.0218546
  Final line search alpha, max atom move = 3.8147e-06 8.33685e-08
  Iterations, force evaluations = 2 27

Pair  time (%) = 0.000591843 (85.9037)
Neigh time (%) = 0 (0)
Comm  time (%) = 2.48195e-05 (3.60245)
Outpt time (%) = 5.91611e-06 (0.858699)
Other time (%) = 6.63828e-05 (9.6352)

Nlocal:    82 ave 82 max 82 min
Histogram: 1 0 0 0 0 0 0 0 0 0
Nghost:    185 ave 185 max 185 min
Histogram: 1 0 0 0 0 0 0 0 0 0
Neighs:    718 ave 718 max 718 min
Histogram: 1 0 0 0 0 0 0 0 0 0

Total # of neighbors = 718
Ave neighs/atom = 8.7561
Neighbor list builds = 0
Dangerous builds = 0
        # write_dump all atom ${dumpfile}
        next i
jump SELF loop1
        displace_atoms upper move ${xstep1} 0.0 0.0 units lattice
        displace_atoms upper move 0.00333333333333333 0.0 0.0 units lattice
        min_style ${style}
        min_style cg
        minimize ${etol} ${ftol} ${maxiter} ${maxeval}
        minimize 1e-12 ${ftol} ${maxiter} ${maxeval}
        minimize 1e-12 1e-08 ${maxiter} ${maxeval}
        minimize 1e-12 1e-08 10000 ${maxeval}
        minimize 1e-12 1e-08 10000 20000
WARNING: Resetting reneighboring criteria during minimization (../min.cpp:168)
Memory usage per processor = 3.35161 Mbytes
Step Temp PotEng Lx Ly Lz 
      86            0   -241.85506    2.0000005    34.647961    1.0000002 
      87            0   -241.85511    2.0000005    34.647961    1.0000002 
      88            0   -241.85516    2.0000005    34.647961    1.0000002 
      89            0   -241.85518    2.0000005    34.647961    1.0000002 
      90            0   -241.85518    2.0000005    34.647961    1.0000002 
Loop time of 0.0105279 on 1 procs for 4 steps with 82 atoms

Minimization stats:
  Stopping criterion = linesearch alpha is zero
  Energy initial, next-to-last, final = 
        -241.855057929     -241.855183122     -241.855183122
  Force two-norm initial, final = 0.10696 0.0671793
  Force max component initial, final = 0.0465915 0.0205233
  Final line search alpha, max atom move = 1.90735e-06 3.9145e-08
  Iterations, force evaluations = 4 43

Pair  time (%) = 0.000965153 (9.16754)
Neigh time (%) = 0 (0)
Comm  time (%) = 6.7633e-05 (0.642415)
Outpt time (%) = 0.00938495 (89.1433)
Other time (%) = 0.000110202 (1.04676)

Nlocal:    82 ave 82 max 82 min
Histogram: 1 0 0 0 0 0 0 0 0 0
Nghost:    185 ave 185 max 185 min
Histogram: 1 0 0 0 0 0 0 0 0 0
Neighs:    718 ave 718 max 718 min
Histogram: 1 0 0 0 0 0 0 0 0 0

Total # of neighbors = 718
Ave neighs/atom = 8.7561
Neighbor list builds = 0
Dangerous builds = 0
        # write_dump all atom ${dumpfile}
        next i
jump SELF loop1
        displace_atoms upper move ${xstep1} 0.0 0.0 units lattice
        displace_atoms upper move 0.00333333333333333 0.0 0.0 units lattice
        min_style ${style}
        min_style cg
        minimize ${etol} ${ftol} ${maxiter} ${maxeval}
        minimize 1e-12 ${ftol} ${maxiter} ${maxeval}
        minimize 1e-12 1e-08 ${maxiter} ${maxeval}
        minimize 1e-12 1e-08 10000 ${maxeval}
        minimize 1e-12 1e-08 10000 20000
WARNING: Resetting reneighboring criteria during minimization (../min.cpp:168)
Memory usage per processor = 3.35161 Mbytes
Step Temp PotEng Lx Ly Lz 
      90            0   -241.84909    2.0000005    34.647971    1.0000002 
      91            0   -241.84914    2.0000005    34.647971    1.0000002 
      92            0   -241.84919    2.0000005    34.647971    1.0000002 
      93            0   -241.84919    2.0000005    34.647971    1.0000002 
Loop time of 0.000934928 on 1 procs for 3 steps with 82 atoms

Minimization stats:
  Stopping criterion = linesearch alpha is zero
  Energy initial, next-to-last, final = 
        -241.849094748     -241.849192742     -241.849192742
  Force two-norm initial, final = 0.118494 0.0827188
  Force max component initial, final = 0.0495526 0.0270336
  Final line search alpha, max atom move = 9.53674e-07 2.57813e-08
  Iterations, force evaluations = 3 35

Pair  time (%) = 0.000800348 (85.6054)
Neigh time (%) = 0 (0)
Comm  time (%) = 5.05653e-05 (5.40848)
Outpt time (%) = 1.10102e-05 (1.17765)
Other time (%) = 7.30039e-05 (7.80851)

Nlocal:    82 ave 82 max 82 min
Histogram: 1 0 0 0 0 0 0 0 0 0
Nghost:    185 ave 185 max 185 min
Histogram: 1 0 0 0 0 0 0 0 0 0
Neighs:    718 ave 718 max 718 min
Histogram: 1 0 0 0 0 0 0 0 0 0

Total # of neighbors = 718
Ave neighs/atom = 8.7561
Neighbor list builds = 0
Dangerous builds = 0
        # write_dump all atom ${dumpfile}
        next i
jump SELF loop1
        displace_atoms upper move ${xstep1} 0.0 0.0 units lattice
        displace_atoms upper move 0.00333333333333333 0.0 0.0 units lattice
        min_style ${style}
        min_style cg
        minimize ${etol} ${ftol} ${maxiter} ${maxeval}
        minimize 1e-12 ${ftol} ${maxiter} ${maxeval}
        minimize 1e-12 1e-08 ${maxiter} ${maxeval}
        minimize 1e-12 1e-08 10000 ${maxeval}
        minimize 1e-12 1e-08 10000 20000
WARNING: Resetting reneighboring criteria during minimization (../min.cpp:168)
Memory usage per processor = 3.35161 Mbytes
Step Temp PotEng Lx Ly Lz 
      93            0   -241.84313    2.0000005    34.647985    1.0000002 
      94            0   -241.84315    2.0000005    34.647985    1.0000002 
      95            0   -241.84318    2.0000005    34.647985    1.0000002 
      96            0   -241.84323    2.0000005    34.647985    1.0000002 
      97            0   -241.84332    2.0000005    34.647985    1.0000002 
      98            0   -241.84336    2.0000005    34.647985    1.0000002 
      99            0   -241.84341    2.0000005    34.647985    1.0000002 
     100            0   -241.84343    2.0000005    34.647985    1.0000002 
     101            0   -241.84345    2.0000005    34.647985    1.0000002 
     102            0   -241.84346    2.0000005    34.647985    1.0000002 
     103            0   -241.84346    2.0000005    34.647985    1.0000002 
Loop time of 0.00700199 on 1 procs for 10 steps with 82 atoms

Minimization stats:
  Stopping criterion = linesearch alpha is zero
  Energy initial, next-to-last, final = 
        -241.843128569     -241.843461506     -241.843461506
  Force two-norm initial, final = 0.0683943 0.0244717
  Force max component initial, final = 0.0217032 0.00616808
  Final line search alpha, max atom move = 1.52588e-05 9.41174e-08
  Iterations, force evaluations = 10 80

Pair  time (%) = 0.00166246 (23.7428)
Neigh time (%) = 0 (0)
Comm  time (%) = 0.000121401 (1.7338)
Outpt time (%) = 0.00481282 (68.735)
Other time (%) = 0.000405306 (5.78844)

Nlocal:    82 ave 82 max 82 min
Histogram: 1 0 0 0 0 0 0 0 0 0
Nghost:    185 ave 185 max 185 min
Histogram: 1 0 0 0 0 0 0 0 0 0
Neighs:    718 ave 718 max 718 min
Histogram: 1 0 0 0 0 0 0 0 0 0

Total # of neighbors = 718
Ave neighs/atom = 8.7561
Neighbor list builds = 0
Dangerous builds = 0
        # write_dump all atom ${dumpfile}
        next i
jump SELF loop1
        displace_atoms upper move ${xstep1} 0.0 0.0 units lattice
        displace_atoms upper move 0.00333333333333333 0.0 0.0 units lattice
        min_style ${style}
        min_style cg
        minimize ${etol} ${ftol} ${maxiter} ${maxeval}
        minimize 1e-12 ${ftol} ${maxiter} ${maxeval}
        minimize 1e-12 1e-08 ${maxiter} ${maxeval}
        minimize 1e-12 1e-08 10000 ${maxeval}
        minimize 1e-12 1e-08 10000 20000
WARNING: Resetting reneighboring criteria during minimization (../min.cpp:168)
Memory usage per processor = 3.35161 Mbytes
Step Temp PotEng Lx Ly Lz 
     103            0   -241.83741    2.0000005     34.64834    1.0000002 
     104            0   -241.83743    2.0000005     34.64834    1.0000002 
     105            0   -241.83743    2.0000005     34.64834    1.0000002 
Loop time of 0.000790987 on 1 procs for 2 steps with 82 atoms

Minimization stats:
  Stopping criterion = linesearch alpha is zero
  Energy initial, next-to-last, final = 
        -241.837410386      -241.83743364      -241.83743364
  Force two-norm initial, final = 0.0839116 0.0440568
  Force max component initial, final = 0.0401361 0.018483
  Final line search alpha, max atom move = 3.8147e-06 7.05072e-08
  Iterations, force evaluations = 2 28

Pair  time (%) = 0.000679892 (85.9549)
Neigh time (%) = 0 (0)
Comm  time (%) = 5.03784e-05 (6.36905)
Outpt time (%) = 5.91471e-06 (0.747763)
Other time (%) = 5.48022e-05 (6.92832)

Nlocal:    82 ave 82 max 82 min
Histogram: 1 0 0 0 0 0 0 0 0 0
Nghost:    185 ave 185 max 185 min
Histogram: 1 0 0 0 0 0 0 0 0 0
Neighs:    718 ave 718 max 718 min
Histogram: 1 0 0 0 0 0 0 0 0 0

Total # of neighbors = 718
Ave neighs/atom = 8.7561
Neighbor list builds = 0
Dangerous builds = 0
        # write_dump all atom ${dumpfile}
        next i
jump SELF loop1
        displace_atoms upper move ${xstep1} 0.0 0.0 units lattice
        displace_atoms upper move 0.00333333333333333 0.0 0.0 units lattice
        min_style ${style}
        min_style cg
        minimize ${etol} ${ftol} ${maxiter} ${maxeval}
        minimize 1e-12 ${ftol} ${maxiter} ${maxeval}
        minimize 1e-12 1e-08 ${maxiter} ${maxeval}
        minimize 1e-12 1e-08 10000 ${maxeval}
        minimize 1e-12 1e-08 10000 20000
WARNING: Resetting reneighboring criteria during minimization (../min.cpp:168)
Memory usage per processor = 3.35161 Mbytes
Step Temp PotEng Lx Ly Lz 
     105            0   -241.83132    2.0000005    34.648349    1.0000002 
     106            0   -241.83137    2.0000005    34.648349    1.0000002 
     107            0   -241.83137    2.0000005    34.648349    1.0000002 
Loop time of 0.000674069 on 1 procs for 2 steps with 82 atoms

Minimization stats:
  Stopping criterion = linesearch alpha is zero
  Energy initial, next-to-last, final = 
         -241.83132488     -241.831374876     -241.831374876
  Force two-norm initial, final = 0.121729 0.0509173
  Force max component initial, final = 0.0596728 0.0234733
  Final line search alpha, max atom move = 3.8147e-06 8.95435e-08
  Iterations, force evaluations = 2 27

Pair  time (%) = 0.00057469 (85.2569)
Neigh time (%) = 0 (0)
Comm  time (%) = 3.33018e-05 (4.94041)
Outpt time (%) = 9.03429e-06 (1.34026)
Other time (%) = 5.70428e-05 (8.46246)

Nlocal:    82 ave 82 max 82 min
Histogram: 1 0 0 0 0 0 0 0 0 0
Nghost:    185 ave 185 max 185 min
Histogram: 1 0 0 0 0 0 0 0 0 0
Neighs:    718 ave 718 max 718 min
Histogram: 1 0 0 0 0 0 0 0 0 0

Total # of neighbors = 718
Ave neighs/atom = 8.7561
Neighbor list builds = 0
Dangerous builds = 0
        # write_dump all atom ${dumpfile}
        next i
jump SELF loop1
        displace_atoms upper move ${xstep1} 0.0 0.0 units lattice
        displace_atoms upper move 0.00333333333333333 0.0 0.0 units lattice
        min_style ${style}
        min_style cg
        minimize ${etol} ${ftol} ${maxiter} ${maxeval}
        minimize 1e-12 ${ftol} ${maxiter} ${maxeval}
        minimize 1e-12 1e-08 ${maxiter} ${maxeval}
        minimize 1e-12 1e-08 10000 ${maxeval}
        minimize 1e-12 1e-08 10000 20000
WARNING: Resetting reneighboring criteria during minimization (../min.cpp:168)
Memory usage per processor = 3.35161 Mbytes
Step Temp PotEng Lx Ly Lz 
     107            0   -241.82527    2.0000005    34.648367    1.0000002 
     108            0   -241.82531    2.0000005    34.648367    1.0000002 
     109            0   -241.82532    2.0000005    34.648367    1.0000002 
     110            0   -241.82534    2.0000005    34.648367    1.0000002 
     111            0   -241.82535    2.0000005    34.648367    1.0000002 
     112            0   -241.82536    2.0000005    34.648367    1.0000002 
     113            0    -241.8254    2.0000005    34.648367    1.0000002 
     114            0   -241.82545    2.0000005    34.648367    1.0000002 
     115            0   -241.82549    2.0000005    34.648367    1.0000002 
     116            0   -241.82555    2.0000005    34.648367    1.0000002 
     117            0   -241.82557    2.0000005    34.648367    1.0000002 
     118            0   -241.82559    2.0000005    34.648367    1.0000002 
     119            0   -241.82559    2.0000005    34.648367    1.0000002 
Loop time of 0.00221593 on 1 procs for 12 steps with 82 atoms

Minimization stats:
  Stopping criterion = linesearch alpha is zero
  Energy initial, next-to-last, final = 
        -241.825266719     -241.825592678     -241.825592678
  Force two-norm initial, final = 0.0942724 0.0422467
  Force max component initial, final = 0.0396983 0.0113919
  Final line search alpha, max atom move = 3.8147e-06 4.34566e-08
  Iterations, force evaluations = 12 94

Pair  time (%) = 0.00178847 (80.7096)
Neigh time (%) = 0 (0)
Comm  time (%) = 9.53848e-05 (4.3045)
Outpt time (%) = 0.00011626 (5.24654)
Other time (%) = 0.000215816 (9.73931)

Nlocal:    82 ave 82 max 82 min
Histogram: 1 0 0 0 0 0 0 0 0 0
Nghost:    185 ave 185 max 185 min
Histogram: 1 0 0 0 0 0 0 0 0 0
Neighs:    718 ave 718 max 718 min
Histogram: 1 0 0 0 0 0 0 0 0 0

Total # of neighbors = 718
Ave neighs/atom = 8.7561
[...]
Histogram: 1 0 0 0 0 0 0 0 0 0
Neighs:    718 ave 718 max 718 min
Histogram: 1 0 0 0 0 0 0 0 0 0

Total # of neighbors = 718
Ave neighs/atom = 8.7561
Neighbor list builds = 0
Dangerous builds = 0
        # write_dump all atom ${dumpfile}
        next i
jump SELF loop1
        displace_atoms upper move ${xstep1} 0.0 0.0 units lattice
        displace_atoms upper move 0.00333333333333333 0.0 0.0 units lattice
        min_style ${style}
        min_style cg
        minimize ${etol} ${ftol} ${maxiter} ${maxeval}
        minimize 1e-12 ${ftol} ${maxiter} ${maxeval}
        minimize 1e-12 1e-08 ${maxiter} ${maxeval}
        minimize 1e-12 1e-08 10000 ${maxeval}
        minimize 1e-12 1e-08 10000 20000
WARNING: Resetting reneighboring criteria during minimization (../min.cpp:168)
Memory usage per processor = 3.35161 Mbytes
Step Temp PotEng Lx Ly Lz 
    1099            0    -241.9827    2.0000005    34.659608    1.0000002 
    1100            0   -241.98271    2.0000005    34.659608    1.0000002 
    1101            0   -241.98271    2.0000005    34.659608    1.0000002 
Loop time of 0.000519907 on 1 procs for 2 steps with 82 atoms

Minimization stats:
  Stopping criterion = linesearch alpha is zero
  Energy initial, next-to-last, final = 
        -241.982701532     -241.982706878     -241.982706878
  Force two-norm initial, final = 0.014231 0.0586267
  Force max component initial, final = 0.00447412 0.0203167
  Final line search alpha, max atom move = 1.90735e-06 3.8751e-08
  Iterations, force evaluations = 2 25

Pair  time (%) = 0.000425696 (81.8792)
Neigh time (%) = 0 (0)
Comm  time (%) = 3.13249e-05 (6.0251)
Outpt time (%) = 6.10901e-06 (1.17502)
Other time (%) = 5.67775e-05 (10.9207)

Nlocal:    82 ave 82 max 82 min
Histogram: 1 0 0 0 0 0 0 0 0 0
Nghost:    185 ave 185 max 185 min
Histogram: 1 0 0 0 0 0 0 0 0 0
Neighs:    718 ave 718 max 718 min
Histogram: 1 0 0 0 0 0 0 0 0 0

Total # of neighbors = 718
Ave neighs/atom = 8.7561
Neighbor list builds = 0
Dangerous builds = 0
        # write_dump all atom ${dumpfile}
        next i
jump SELF loop1
        displace_atoms upper move ${xstep1} 0.0 0.0 units lattice
        displace_atoms upper move 0.00333333333333333 0.0 0.0 units lattice
        min_style ${style}
        min_style cg
        minimize ${etol} ${ftol} ${maxiter} ${maxeval}
        minimize 1e-12 ${ftol} ${maxiter} ${maxeval}
        minimize 1e-12 1e-08 ${maxiter} ${maxeval}
        minimize 1e-12 1e-08 10000 ${maxeval}
        minimize 1e-12 1e-08 10000 20000
WARNING: Resetting reneighboring criteria during minimization (../min.cpp:168)
Memory usage per processor = 3.35161 Mbytes
Step Temp PotEng Lx Ly Lz 
    1101            0   -241.98586    2.0000005    34.659447    1.0000002 
    1102            0   -241.98586    2.0000005    34.659447    1.0000002 
Loop time of 0.000387995 on 1 procs for 1 steps with 82 atoms

Minimization stats:
  Stopping criterion = linesearch alpha is zero
  Energy initial, next-to-last, final = 
        -241.985861415     -241.985861415     -241.985861415
  Force two-norm initial, final = 0.0685262 0.0685262
  Force max component initial, final = 0.026986 0.026986
  Final line search alpha, max atom move = 1.90735e-06 5.14717e-08
  Iterations, force evaluations = 1 20

Pair  time (%) = 0.000322673 (83.1641)
Neigh time (%) = 0 (0)
Comm  time (%) = 2.11233e-05 (5.44422)
Outpt time (%) = 0 (0)
Other time (%) = 4.41993e-05 (11.3917)

Nlocal:    82 ave 82 max 82 min
Histogram: 1 0 0 0 0 0 0 0 0 0
Nghost:    185 ave 185 max 185 min
Histogram: 1 0 0 0 0 0 0 0 0 0
Neighs:    718 ave 718 max 718 min
Histogram: 1 0 0 0 0 0 0 0 0 0

Total # of neighbors = 718
Ave neighs/atom = 8.7561
Neighbor list builds = 0
Dangerous builds = 0
        # write_dump all atom ${dumpfile}
        next i
jump SELF loop1
        displace_atoms upper move ${xstep1} 0.0 0.0 units lattice
        displace_atoms upper move 0.00333333333333333 0.0 0.0 units lattice
        min_style ${style}
        min_style cg
        minimize ${etol} ${ftol} ${maxiter} ${maxeval}
        minimize 1e-12 ${ftol} ${maxiter} ${maxeval}
        minimize 1e-12 1e-08 ${maxiter} ${maxeval}
        minimize 1e-12 1e-08 10000 ${maxeval}
        minimize 1e-12 1e-08 10000 20000
WARNING: Resetting reneighboring criteria during minimization (../min.cpp:168)
Memory usage per processor = 3.35161 Mbytes
Step Temp PotEng Lx Ly Lz 
    1102            0   -241.98871    2.0000005    34.659447    1.0000002 
    1103            0   -241.98872    2.0000005    34.659447    1.0000002 
    1104            0   -241.98872    2.0000005    34.659447    1.0000002 
Loop time of 0.000607068 on 1 procs for 2 steps with 82 atoms

Minimization stats:
  Stopping criterion = linesearch alpha is zero
  Energy initial, next-to-last, final = 
        -241.988709157     -241.988720244     -241.988720244
  Force two-norm initial, final = 0.0908899 0.061427
  Force max component initial, final = 0.040263 0.0277535
  Final line search alpha, max atom move = 1.90735e-06 5.29356e-08
  Iterations, force evaluations = 2 30

Pair  time (%) = 0.00050339 (82.9215)
Neigh time (%) = 0 (0)
Comm  time (%) = 3.92807e-05 (6.47056)
Outpt time (%) = 5.00237e-06 (0.82402)
Other time (%) = 5.93951e-05 (9.78392)

Nlocal:    82 ave 82 max 82 min
Histogram: 1 0 0 0 0 0 0 0 0 0
Nghost:    185 ave 185 max 185 min
Histogram: 1 0 0 0 0 0 0 0 0 0
Neighs:    718 ave 718 max 718 min
Histogram: 1 0 0 0 0 0 0 0 0 0

Total # of neighbors = 718
Ave neighs/atom = 8.7561
Neighbor list builds = 0
Dangerous builds = 0
        # write_dump all atom ${dumpfile}
        next i
jump SELF loop1
        displace_atoms upper move ${xstep1} 0.0 0.0 units lattice
        displace_atoms upper move 0.00333333333333333 0.0 0.0 units lattice
        min_style ${style}
        min_style cg
        minimize ${etol} ${ftol} ${maxiter} ${maxeval}
        minimize 1e-12 ${ftol} ${maxiter} ${maxeval}
        minimize 1e-12 1e-08 ${maxiter} ${maxeval}
        minimize 1e-12 1e-08 10000 ${maxeval}
        minimize 1e-12 1e-08 10000 20000
WARNING: Resetting reneighboring criteria during minimization (../min.cpp:168)
Memory usage per processor = 3.35161 Mbytes
Step Temp PotEng Lx Ly Lz 
    1104            0   -241.99123    2.0000005    34.659441    1.0000002 
    1105            0   -241.99125    2.0000005    34.659441    1.0000002 
    1106            0   -241.99125    2.0000005    34.659441    1.0000002 
Loop time of 0.000525999 on 1 procs for 2 steps with 82 atoms

Minimization stats:
  Stopping criterion = linesearch alpha is zero
  Energy initial, next-to-last, final = 
        -241.991233252     -241.991253324     -241.991253324
  Force two-norm initial, final = 0.0831751 0.0340455
  Force max component initial, final = 0.0394696 0.0162557
  Final line search alpha, max atom move = 7.62939e-06 1.24021e-07
  Iterations, force evaluations = 2 27

Pair  time (%) = 0.000431127 (81.9635)
Neigh time (%) = 0 (0)
Comm  time (%) = 3.45117e-05 (6.56117)
Outpt time (%) = 6.05243e-06 (1.15066)
Other time (%) = 5.43076e-05 (10.3247)

Nlocal:    82 ave 82 max 82 min
Histogram: 1 0 0 0 0 0 0 0 0 0
Nghost:    185 ave 185 max 185 min
Histogram: 1 0 0 0 0 0 0 0 0 0
Neighs:    718 ave 718 max 718 min
Histogram: 1 0 0 0 0 0 0 0 0 0

Total # of neighbors = 718
Ave neighs/atom = 8.7561
Neighbor list builds = 0
Dangerous builds = 0
        # write_dump all atom ${dumpfile}
        next i
jump SELF loop1
        displace_atoms upper move ${xstep1} 0.0 0.0 units lattice
        displace_atoms upper move 0.00333333333333333 0.0 0.0 units lattice
        min_style ${style}
        min_style cg
        minimize ${etol} ${ftol} ${maxiter} ${maxeval}
        minimize 1e-12 ${ftol} ${maxiter} ${maxeval}
        minimize 1e-12 1e-08 ${maxiter} ${maxeval}
        minimize 1e-12 1e-08 10000 ${maxeval}
        minimize 1e-12 1e-08 10000 20000
WARNING: Resetting reneighboring criteria during minimization (../min.cpp:168)
Memory usage per processor = 3.35161 Mbytes
Step Temp PotEng Lx Ly Lz 
    1106            0   -241.99344    2.0000005    34.659429    1.0000002 
    1107            0   -241.99346    2.0000005    34.659429    1.0000002 
    1108            0   -241.99346    2.0000005    34.659429    1.0000002 
Loop time of 0.000486928 on 1 procs for 2 steps with 82 atoms

Minimization stats:
  Stopping criterion = linesearch alpha is zero
  Energy initial, next-to-last, final = 
        -241.993439072     -241.993456126     -241.993456126
  Force two-norm initial, final = 0.053807 0.0230961
  Force max component initial, final = 0.0264478 0.0103943
  Final line search alpha, max atom move = 1.52588e-05 1.58605e-07
  Iterations, force evaluations = 2 25

Pair  time (%) = 0.000397727 (81.6808)
Neigh time (%) = 0 (0)
Comm  time (%) = 3.05198e-05 (6.26783)
Outpt time (%) = 5.96233e-06 (1.22448)
Other time (%) = 5.2719e-05 (10.8269)

Nlocal:    82 ave 82 max 82 min
Histogram: 1 0 0 0 0 0 0 0 0 0
Nghost:    185 ave 185 max 185 min
Histogram: 1 0 0 0 0 0 0 0 0 0
Neighs:    718 ave 718 max 718 min
Histogram: 1 0 0 0 0 0 0 0 0 0

Total # of neighbors = 718
Ave neighs/atom = 8.7561
Neighbor list builds = 0
Dangerous builds = 0
        # write_dump all atom ${dumpfile}
        next i
jump SELF loop1
        displace_atoms upper move ${xstep1} 0.0 0.0 units lattice
        displace_atoms upper move 0.00333333333333333 0.0 0.0 units lattice
        min_style ${style}
        min_style cg
        minimize ${etol} ${ftol} ${maxiter} ${maxeval}
        minimize 1e-12 ${ftol} ${maxiter} ${maxeval}
        minimize 1e-12 1e-08 ${maxiter} ${maxeval}
        minimize 1e-12 1e-08 10000 ${maxeval}
        minimize 1e-12 1e-08 10000 20000
WARNING: Resetting reneighboring criteria during minimization (../min.cpp:168)
Memory usage per processor = 3.35161 Mbytes
Step Temp PotEng Lx Ly Lz 
    1108            0   -241.99532    2.0000005    34.659406    1.0000002 
    1109            0   -241.99533    2.0000005    34.659406    1.0000002 
    1110            0   -241.99533    2.0000005    34.659406    1.0000002 
Loop time of 0.000498052 on 1 procs for 2 steps with 82 atoms

Minimization stats:
  Stopping criterion = linesearch alpha is zero
  Energy initial, next-to-last, final = 
        -241.995317652     -241.995327686     -241.995327686
  Force two-norm initial, final = 0.0267064 0.0181186
  Force max component initial, final = 0.0103943 0.00770166
  Final line search alpha, max atom move = 3.05176e-05 2.35036e-07
  Iterations, force evaluations = 2 23

Pair  time (%) = 0.000371072 (74.5047)
Neigh time (%) = 0 (0)
Comm  time (%) = 2.96232e-05 (5.9478)
Outpt time (%) = 6.9075e-06 (1.3869)
Other time (%) = 9.04495e-05 (18.1606)

Nlocal:    82 ave 82 max 82 min
Histogram: 1 0 0 0 0 0 0 0 0 0
Nghost:    185 ave 185 max 185 min
Histogram: 1 0 0 0 0 0 0 0 0 0
Neighs:    718 ave 718 max 718 min
Histogram: 1 0 0 0 0 0 0 0 0 0

Total # of neighbors = 718
Ave neighs/atom = 8.7561
Neighbor list builds = 0
Dangerous builds = 0
        # write_dump all atom ${dumpfile}
        next i
jump SELF loop1
        displace_atoms upper move ${xstep1} 0.0 0.0 units lattice
        displace_atoms upper move 0.00333333333333333 0.0 0.0 units lattice
        min_style ${style}
        min_style cg
        minimize ${etol} ${ftol} ${maxiter} ${maxeval}
        minimize 1e-12 ${ftol} ${maxiter} ${maxeval}
        minimize 1e-12 1e-08 ${maxiter} ${maxeval}
        minimize 1e-12 1e-08 10000 ${maxeval}
        minimize 1e-12 1e-08 10000 20000
WARNING: Resetting reneighboring criteria during minimization (../min.cpp:168)
Memory usage per processor = 3.35161 Mbytes
Step Temp PotEng Lx Ly Lz 
    1110            0   -241.99685    2.0000005     34.65936    1.0000002 
    1111            0   -241.99686    2.0000005     34.65936    1.0000002 
    1112            0   -241.99686    2.0000005     34.65936    1.0000002 
    1113            0   -241.99686    2.0000005     34.65936    1.0000002 
    1114            0   -241.99686    2.0000005     34.65936    1.0000002 
Loop time of 0.0214021 on 1 procs for 4 steps with 82 atoms

Minimization stats:
  Stopping criterion = linesearch alpha is zero
  Energy initial, next-to-last, final = 
        -241.996850321     -241.996864741     -241.996864741
  Force two-norm initial, final = 0.0223162 0.0278219
  Force max component initial, final = 0.00770166 0.00819079
  Final line search alpha, max atom move = 1.52588e-05 1.24982e-07
  Iterations, force evaluations = 4 43

Pair  time (%) = 0.000746286 (3.48698)
Neigh time (%) = 0 (0)
Comm  time (%) = 4.99989e-05 (0.233617)
Outpt time (%) = 1.81863e-05 (0.0849744)
Other time (%) = 0.0205876 (96.1944)

Nlocal:    82 ave 82 max 82 min
Histogram: 1 0 0 0 0 0 0 0 0 0
Nghost:    185 ave 185 max 185 min
Histogram: 1 0 0 0 0 0 0 0 0 0
Neighs:    718 ave 718 max 718 min
Histogram: 1 0 0 0 0 0 0 0 0 0

Total # of neighbors = 718
Ave neighs/atom = 8.7561
Neighbor list builds = 0
Dangerous builds = 0
        # write_dump all atom ${dumpfile}
        next i
jump SELF loop1
        displace_atoms upper move ${xstep1} 0.0 0.0 units lattice
        displace_atoms upper move 0.00333333333333333 0.0 0.0 units lattice
        min_style ${style}
        min_style cg
        minimize ${etol} ${ftol} ${maxiter} ${maxeval}
        minimize 1e-12 ${ftol} ${maxiter} ${maxeval}
        minimize 1e-12 1e-08 ${maxiter} ${maxeval}
        minimize 1e-12 1e-08 10000 ${maxeval}
        minimize 1e-12 1e-08 10000 20000
WARNING: Resetting reneighboring criteria during minimization (../min.cpp:168)
Memory usage per processor = 3.35161 Mbytes
Step Temp PotEng Lx Ly Lz 
    1114            0   -241.99805    2.0000005    34.659254    1.0000002 
    1115            0   -241.99805    2.0000005    34.659254    1.0000002 
Loop time of 0.000337056 on 1 procs for 1 steps with 82 atoms

Minimization stats:
  Stopping criterion = linesearch alpha is zero
  Energy initial, next-to-last, final = 
        -241.998049742     -241.998049742     -241.998049742
  Force two-norm initial, final = 0.0231719 0.0231719
  Force max component initial, final = 0.00794834 0.00794834
  Final line search alpha, max atom move = 1.52588e-05 1.21282e-07
  Iterations, force evaluations = 1 17

Pair  time (%) = 0.000279681 (82.9776)
Neigh time (%) = 0 (0)
Comm  time (%) = 2.0147e-05 (5.97733)
Outpt time (%) = 0 (0)
Other time (%) = 3.72281e-05 (11.0451)

Nlocal:    82 ave 82 max 82 min
Histogram: 1 0 0 0 0 0 0 0 0 0
Nghost:    185 ave 185 max 185 min
Histogram: 1 0 0 0 0 0 0 0 0 0
Neighs:    718 ave 718 max 718 min
Histogram: 1 0 0 0 0 0 0 0 0 0

Total # of neighbors = 718
Ave neighs/atom = 8.7561
Neighbor list builds = 0
Dangerous builds = 0
        # write_dump all atom ${dumpfile}
        next i
jump SELF loop1
        displace_atoms upper move ${xstep1} 0.0 0.0 units lattice
        displace_atoms upper move 0.00333333333333333 0.0 0.0 units lattice
        min_style ${style}
        min_style cg
        minimize ${etol} ${ftol} ${maxiter} ${maxeval}
        minimize 1e-12 ${ftol} ${maxiter} ${maxeval}
        minimize 1e-12 1e-08 ${maxiter} ${maxeval}
        minimize 1e-12 1e-08 10000 ${maxeval}
        minimize 1e-12 1e-08 10000 20000
WARNING: Resetting reneighboring criteria during minimization (../min.cpp:168)
Memory usage per processor = 3.35161 Mbytes
Step Temp PotEng Lx Ly Lz 
    1115            0   -241.99891    2.0000005    34.659254    1.0000002 
    1116            0   -241.99891    2.0000005    34.659254    1.0000002 
Loop time of 0.000333104 on 1 procs for 1 steps with 82 atoms

Minimization stats:
  Stopping criterion = linesearch alpha is zero
  Energy initial, next-to-last, final = 
         -241.99890549      -241.99890549      -241.99890549
  Force two-norm initial, final = 0.0227494 0.0227494
  Force max component initial, final = 0.00794834 0.00794834
  Final line search alpha, max atom move = 1.52588e-05 1.21282e-07
  Iterations, force evaluations = 1 17

Pair  time (%) = 0.000276854 (83.1134)
Neigh time (%) = 0 (0)
Comm  time (%) = 2.05932e-05 (6.18221)
Outpt time (%) = 0 (0)
Other time (%) = 3.56568e-05 (10.7044)

Nlocal:    82 ave 82 max 82 min
Histogram: 1 0 0 0 0 0 0 0 0 0
Nghost:    185 ave 185 max 185 min
Histogram: 1 0 0 0 0 0 0 0 0 0
Neighs:    718 ave 718 max 718 min
Histogram: 1 0 0 0 0 0 0 0 0 0

Total # of neighbors = 718
Ave neighs/atom = 8.7561
Neighbor list builds = 0
Dangerous builds = 0
        # write_dump all atom ${dumpfile}
        next i
jump SELF loop1
        displace_atoms upper move ${xstep1} 0.0 0.0 units lattice
        displace_atoms upper move 0.00333333333333333 0.0 0.0 units lattice
        min_style ${style}
        min_style cg
        minimize ${etol} ${ftol} ${maxiter} ${maxeval}
        minimize 1e-12 ${ftol} ${maxiter} ${maxeval}
        minimize 1e-12 1e-08 ${maxiter} ${maxeval}
        minimize 1e-12 1e-08 10000 ${maxeval}
        minimize 1e-12 1e-08 10000 20000
WARNING: Resetting reneighboring criteria during minimization (../min.cpp:168)
Memory usage per processor = 3.35161 Mbytes
Step Temp PotEng Lx Ly Lz 
    1116            0   -241.99941    2.0000005    34.659254    1.0000002 
    1117            0   -241.99942    2.0000005    34.659254    1.0000002 
    1118            0   -241.99942    2.0000005    34.659254    1.0000002 
Loop time of 0.0005069 on 1 procs for 2 steps with 82 atoms

Minimization stats:
  Stopping criterion = linesearch alpha is zero
  Energy initial, next-to-last, final = 
        -241.999412556      -241.99942409      -241.99942409
  Force two-norm initial, final = 0.0237946 0.0636409
  Force max component initial, final = 0.00794834 0.0253654
  Final line search alpha, max atom move = 1.90735e-06 4.83808e-08
  Iterations, force evaluations = 2 26

Pair  time (%) = 0.000417368 (82.3373)
Neigh time (%) = 0 (0)
Comm  time (%) = 2.72063e-05 (5.36718)
Outpt time (%) = 5.93602e-06 (1.17104)
Other time (%) = 5.63898e-05 (11.1244)

Nlocal:    82 ave 82 max 82 min
Histogram: 1 0 0 0 0 0 0 0 0 0
Nghost:    185 ave 185 max 185 min
Histogram: 1 0 0 0 0 0 0 0 0 0
Neighs:    718 ave 718 max 718 min
Histogram: 1 0 0 0 0 0 0 0 0 0

Total # of neighbors = 718
Ave neighs/atom = 8.7561
Neighbor list builds = 0
Dangerous builds = 0
        # write_dump all atom ${dumpfile}
        next i
jump SELF loop1
        displace_atoms upper move ${xstep1} 0.0 0.0 units lattice
        displace_atoms upper move 0.00333333333333333 0.0 0.0 units lattice
        min_style ${style}
        min_style cg
        minimize ${etol} ${ftol} ${maxiter} ${maxeval}
        minimize 1e-12 ${ftol} ${maxiter} ${maxeval}
        minimize 1e-12 1e-08 ${maxiter} ${maxeval}
        minimize 1e-12 1e-08 10000 ${maxeval}
        minimize 1e-12 1e-08 10000 20000
WARNING: Resetting reneighboring criteria during minimization (../min.cpp:168)
Memory usage per processor = 3.35161 Mbytes
Step Temp PotEng Lx Ly Lz 
    1118            0   -241.99959    2.0000005    34.659159    1.0000002 
    1119            0   -241.99959    2.0000005    34.659159    1.0000002 
Loop time of 0.000390081 on 1 procs for 1 steps with 82 atoms

Minimization stats:
  Stopping criterion = linesearch alpha is zero
  Energy initial, next-to-last, final = 
        -241.999589873     -241.999589873     -241.999589873
  Force two-norm initial, final = 0.0636077 0.0636077
  Force max component initial, final = 0.0253654 0.0253654
  Final line search alpha, max atom move = 1.90735e-06 4.83808e-08
  Iterations, force evaluations = 1 20

Pair  time (%) = 0.000322963 (82.7939)
Neigh time (%) = 0 (0)
Comm  time (%) = 2.7897e-05 (7.15158)
Outpt time (%) = 0 (0)
Other time (%) = 3.92208e-05 (10.0545)

Nlocal:    82 ave 82 max 82 min
Histogram: 1 0 0 0 0 0 0 0 0 0
Nghost:    185 ave 185 max 185 min
Histogram: 1 0 0 0 0 0 0 0 0 0
Neighs:    718 ave 718 max 718 min
Histogram: 1 0 0 0 0 0 0 0 0 0

Total # of neighbors = 718
Ave neighs/atom = 8.7561
Neighbor list builds = 0
Dangerous builds = 0
        # write_dump all atom ${dumpfile}
        next i
jump SELF loop1


