LAMMPS (28 Jun 2014)
# attempt at getting generalized stacking fault (GSF) energy curve

#file prefix
variable prefix string gsf_V_inter4
variable dumpfile string ${prefix}.*.dump
variable dumpfile string gsf_V_inter4.*.dump
variable restartfile string ${prefix}.*.equil
variable restartfile string gsf_V_inter4.*.equil

#Mass (g/mol)
variable m equal 1

# lattice constant (in Angstroms) and orientation of axes (given by lattice vectors)
variable rho equal 0.9165
variable x1 equal 1
variable x2 equal 0
variable x3 equal 0
variable y1 equal 0
variable y2 equal 1
variable y3 equal 0
# length of lattice in different directions (using orientation of lattice vectors)
variable ax equal sqrt(${x1}*${x1}+${x2}*${x2}+${x3}*${x3})
variable ax equal sqrt(1*${x1}+${x2}*${x2}+${x3}*${x3})
variable ax equal sqrt(1*1+${x2}*${x2}+${x3}*${x3})
variable ax equal sqrt(1*1+0*${x2}+${x3}*${x3})
variable ax equal sqrt(1*1+0*0+${x3}*${x3})
variable ax equal sqrt(1*1+0*0+0*${x3})
variable ax equal sqrt(1*1+0*0+0*0)
variable ay equal sqrt(${y1}*${y1}+${y2}*${y2}+${y3}*${y3})
variable ay equal sqrt(0*${y1}+${y2}*${y2}+${y3}*${y3})
variable ay equal sqrt(0*0+${y2}*${y2}+${y3}*${y3})
variable ay equal sqrt(0*0+1*${y2}+${y3}*${y3})
variable ay equal sqrt(0*0+1*1+${y3}*${y3})
variable ay equal sqrt(0*0+1*1+0*${y3})
variable ay equal sqrt(0*0+1*1+0*0)
variable az equal 1

# size of box in lattice units
variable lxpos equal 1
variable lxneg equal -1*${lxpos}
variable lxneg equal -1*1
variable lypos equal 10
variable lyneg equal -1*${lypos}
variable lyneg equal -1*10
variable lzpos equal 0
variable lzneg equal -1

# Define minimization parameters and damping
variable etol equal 1.0e-12
variable ftol equal 1.0e-8
variable maxiter equal 10000
variable maxeval equal 20000
variable style string hftn

# boundary conditions
dimension	2
boundary	p s p
atom_style	atomic

# create geometry
units		lj
lattice         hex ${rho}
lattice         hex 0.9165
Lattice spacing in x,y,z = 1.12245 1.94415 1.12245
region		myregion block ${lxneg} ${lxpos} ${lyneg} ${lypos} ${lzneg} ${lzpos} units lattice
region		myregion block -1 ${lxpos} ${lyneg} ${lypos} ${lzneg} ${lzpos} units lattice
region		myregion block -1 1 ${lyneg} ${lypos} ${lzneg} ${lzpos} units lattice
region		myregion block -1 1 -10 ${lypos} ${lzneg} ${lzpos} units lattice
region		myregion block -1 1 -10 10 ${lzneg} ${lzpos} units lattice
region		myregion block -1 1 -10 10 -1 ${lzpos} units lattice
region		myregion block -1 1 -10 10 -1 0 units lattice
create_box	3 myregion
Created orthogonal box = (-1.12245 -19.4415 -1.12245) to (1.12245 19.4415 0)
  1 by 1 by 1 MPI processor grid
create_atoms	1 box
Created 82 atoms

# define masses
mass * $m
mass * 1

# my fake/morse potential
pair_style      table linear 3001
pair_coeff      * * vpotential_inter4 dummy
neighbor	0.3 bin
neigh_modify	delay 5

# define groups
region	    upper block INF INF 0.01 ${lypos} INF INF units lattice
region	    upper block INF INF 0.01 10 INF INF units lattice
group		upper region upper
40 atoms in group upper

# Setup output
thermo 1
thermo_style custom step temp pe lx ly lz
thermo_modify norm no

# Compute initial state by relaxing box
min_style ${style}
min_style hftn
minimize ${etol} ${ftol} ${maxiter} ${maxeval}
minimize 1e-12 ${ftol} ${maxiter} ${maxeval}
minimize 1e-12 1e-08 ${maxiter} ${maxeval}
minimize 1e-12 1e-08 10000 ${maxeval}
minimize 1e-12 1e-08 10000 20000
WARNING: Resetting reneighboring criteria during minimization (../min.cpp:168)
Memory usage per processor = 4.85169 Mbytes
Step Temp PotEng Lx Ly Lz 
       0            0   -241.99993    2.2449075    38.890715    1.1224537 
       1            0   -241.99994    2.2449075    38.890715    1.1224537 
       2            0   -241.99994    2.2449075    38.890715    1.1224537 
       3            0   -241.99994    2.2449075    38.890715    1.1224537 
       4            0   -241.99994    2.2449075    38.890715    1.1224537 
       5            0   -241.99994    2.2449075    38.890715    1.1224537 
Loop time of 0.00250704 on 1 procs for 4 steps with 82 atoms

Minimization stats:
  Stopping criterion = force tolerance
  Energy initial, next-to-last, final = 
        -241.999927696     -241.999927696     -241.999937101
  Force two-norm initial, final = 0.000778805 9.96117e-09
  Force max component initial, final = 0.000389403 4.80552e-09
  Final line search alpha, max atom move = 0 0
  Iterations, force evaluations = 4 103

Pair  time (%) = 0.0017374 (69.3008)
Neigh time (%) = 0 (0)
Comm  time (%) = 0.000140262 (5.59474)
Outpt time (%) = 0.000159938 (6.37956)
Other time (%) = 0.000469439 (18.7249)

Nlocal:    82 ave 82 max 82 min
Histogram: 1 0 0 0 0 0 0 0 0 0
Nghost:    185 ave 185 max 185 min
Histogram: 1 0 0 0 0 0 0 0 0 0
Neighs:    718 ave 718 max 718 min
Histogram: 1 0 0 0 0 0 0 0 0 0

Total # of neighbors = 718
Ave neighs/atom = 8.7561
Neighbor list builds = 0
Dangerous builds = 0

# don't allow atoms to relax in x-direction
fix 2 all setforce 0.0 NULL 0.0

# GSF energy curve will have 100*2 steps
variable nsteps equal 500
variable sstep1 equal 1.
variable xstep1 equal ${sstep1}/(${ax}*${nsteps})
variable xstep1 equal 1/(${ax}*${nsteps})
variable xstep1 equal 1/(1*${nsteps})
variable xstep1 equal 1/(1*500)

variable i loop ${nsteps}
variable i loop 500
label loop1
        displace_atoms upper move ${xstep1} 0.0 0.0 units lattice
        displace_atoms upper move 0.002 0.0 0.0 units lattice
        min_style ${style}
        min_style hftn
        minimize ${etol} ${ftol} ${maxiter} ${maxeval}
        minimize 1e-12 ${ftol} ${maxiter} ${maxeval}
        minimize 1e-12 1e-08 ${maxiter} ${maxeval}
        minimize 1e-12 1e-08 10000 ${maxeval}
        minimize 1e-12 1e-08 10000 20000
WARNING: Resetting reneighboring criteria during minimization (../min.cpp:168)
Memory usage per processor = 4.85169 Mbytes
Step Temp PotEng Lx Ly Lz 
       5            0   -241.99987    2.2449075    38.891137    1.1224537 
       6            0   -241.99987    2.2449075    38.891137    1.1224537 
Loop time of 0.00196908 on 1 procs for 0 steps with 82 atoms

Minimization stats:
  Stopping criterion = force tolerance
  Energy initial, next-to-last, final = 
        -241.999874687     -241.999874687     -241.999874668
  Force two-norm initial, final = 0.000521569 5.56196e-09
  Force max component initial, final = 0.000260785 1.93201e-09
  Final line search alpha, max atom move = 0 0
  Iterations, force evaluations = 0 83

Pair  time (%) = 0.00141467 (71.8443)
Neigh time (%) = 0 (0)
Comm  time (%) = 0.000116603 (5.92171)
Outpt time (%) = 0 (0)
Other time (%) = 0.000437806 (22.234)

Nlocal:    82 ave 82 max 82 min
Histogram: 1 0 0 0 0 0 0 0 0 0
Nghost:    185 ave 185 max 185 min
Histogram: 1 0 0 0 0 0 0 0 0 0
Neighs:    718 ave 718 max 718 min
Histogram: 1 0 0 0 0 0 0 0 0 0

Total # of neighbors = 718
Ave neighs/atom = 8.7561
Neighbor list builds = 0
Dangerous builds = 0
        # write_dump all atom ${dumpfile}
        next i
jump SELF loop1
        displace_atoms upper move ${xstep1} 0.0 0.0 units lattice
        displace_atoms upper move 0.002 0.0 0.0 units lattice
        min_style ${style}
        min_style hftn
        minimize ${etol} ${ftol} ${maxiter} ${maxeval}
        minimize 1e-12 ${ftol} ${maxiter} ${maxeval}
        minimize 1e-12 1e-08 ${maxiter} ${maxeval}
        minimize 1e-12 1e-08 10000 ${maxeval}
        minimize 1e-12 1e-08 10000 20000
WARNING: Resetting reneighboring criteria during minimization (../min.cpp:168)
Memory usage per processor = 4.85169 Mbytes
Step Temp PotEng Lx Ly Lz 
       6            0   -241.99969    2.2449075    38.891144    1.1224537 
       7            0   -241.99969    2.2449075    38.891144    1.1224537 
       8            0   -241.99969    2.2449075    38.891144    1.1224537 
       9            0   -241.99969    2.2449075    38.891144    1.1224537 
      10            0   -241.99969    2.2449075    38.891144    1.1224537 
      11            0   -241.99969    2.2449075    38.891144    1.1224537 
      12            0   -241.99969    2.2449075    38.891144    1.1224537 
      13            0   -241.99969    2.2449075    38.891144    1.1224537 
Loop time of 0.00329999 on 1 procs for 6 steps with 82 atoms

Minimization stats:
  Stopping criterion = energy tolerance
  Energy initial, next-to-last, final = 
        -241.999688201     -241.999688201     -241.999688201
  Force two-norm initial, final = 0.00155566 0.00155482
  Force max component initial, final = 0.000777832 0.000777409
  Final line search alpha, max atom move = 0 0
  Iterations, force evaluations = 6 131

Pair  time (%) = 0.00229264 (69.4743)
Neigh time (%) = 0 (0)
Comm  time (%) = 0.000196753 (5.96225)
Outpt time (%) = 0.000189876 (5.75384)
Other time (%) = 0.000620716 (18.8096)

Nlocal:    82 ave 82 max 82 min
Histogram: 1 0 0 0 0 0 0 0 0 0
Nghost:    185 ave 185 max 185 min
Histogram: 1 0 0 0 0 0 0 0 0 0
Neighs:    718 ave 718 max 718 min
Histogram: 1 0 0 0 0 0 0 0 0 0

Total # of neighbors = 718
Ave neighs/atom = 8.7561
Neighbor list builds = 0
Dangerous builds = 0
        # write_dump all atom ${dumpfile}
        next i
jump SELF loop1
        displace_atoms upper move ${xstep1} 0.0 0.0 units lattice
        displace_atoms upper move 0.002 0.0 0.0 units lattice
        min_style ${style}
        min_style hftn
        minimize ${etol} ${ftol} ${maxiter} ${maxeval}
        minimize 1e-12 ${ftol} ${maxiter} ${maxeval}
        minimize 1e-12 1e-08 ${maxiter} ${maxeval}
        minimize 1e-12 1e-08 10000 ${maxeval}
        minimize 1e-12 1e-08 10000 20000
WARNING: Resetting reneighboring criteria during minimization (../min.cpp:168)
Memory usage per processor = 4.85169 Mbytes
Step Temp PotEng Lx Ly Lz 
      13            0   -241.99938    2.2449075    38.891144    1.1224537 
      14            0   -241.99938    2.2449075    38.891144    1.1224537 
      15            0   -241.99938    2.2449075    38.891144    1.1224537 
Loop time of 0.00756403 on 1 procs for 1 steps with 82 atoms

Minimization stats:
  Stopping criterion = force tolerance
  Energy initial, next-to-last, final = 
        -241.999378718     -241.999378718     -241.999378886
  Force two-norm initial, final = 0.00413243 6.12628e-09
  Force max component initial, final = 0.00206621 2.28695e-09
  Final line search alpha, max atom move = 0 0
  Iterations, force evaluations = 1 183

Pair  time (%) = 0.00395565 (52.2955)
Neigh time (%) = 0 (0)
Comm  time (%) = 0.00266468 (35.2283)
Outpt time (%) = 7.79221e-05 (1.03017)
Other time (%) = 0.000865784 (11.4461)

Nlocal:    82 ave 82 max 82 min
Histogram: 1 0 0 0 0 0 0 0 0 0
Nghost:    185 ave 185 max 185 min
Histogram: 1 0 0 0 0 0 0 0 0 0
Neighs:    718 ave 718 max 718 min
Histogram: 1 0 0 0 0 0 0 0 0 0

Total # of neighbors = 718
Ave neighs/atom = 8.7561
Neighbor list builds = 0
Dangerous builds = 0
        # write_dump all atom ${dumpfile}
        next i
jump SELF loop1
        displace_atoms upper move ${xstep1} 0.0 0.0 units lattice
        displace_atoms upper move 0.002 0.0 0.0 units lattice
        min_style ${style}
        min_style hftn
        minimize ${etol} ${ftol} ${maxiter} ${maxeval}
        minimize 1e-12 ${ftol} ${maxiter} ${maxeval}
        minimize 1e-12 1e-08 ${maxiter} ${maxeval}
        minimize 1e-12 1e-08 10000 ${maxeval}
        minimize 1e-12 1e-08 10000 20000
WARNING: Resetting reneighboring criteria during minimization (../min.cpp:168)
Memory usage per processor = 4.85169 Mbytes
Step Temp PotEng Lx Ly Lz 
      15            0   -241.99895    2.2449075      38.8912    1.1224537 
      16            0   -241.99895    2.2449075      38.8912    1.1224537 
      17            0   -241.99895    2.2449075      38.8912    1.1224537 
Loop time of 0.00268994 on 1 procs for 1 steps with 82 atoms

Minimization stats:
  Stopping criterion = force tolerance
  Energy initial, next-to-last, final = 
        -241.998947512     -241.998947512     -241.998947741
  Force two-norm initial, final = 0.00235171 4.53081e-09
  Force max component initial, final = 0.00117586 2.25336e-09
  Final line search alpha, max atom move = 0 0
  Iterations, force evaluations = 1 111

Pair  time (%) = 0.00192902 (71.7123)
Neigh time (%) = 0 (0)
Comm  time (%) = 0.000159772 (5.93962)
Outpt time (%) = 5.00635e-05 (1.86114)
Other time (%) = 0.000551085 (20.4869)

Nlocal:    82 ave 82 max 82 min
Histogram: 1 0 0 0 0 0 0 0 0 0
Nghost:    185 ave 185 max 185 min
Histogram: 1 0 0 0 0 0 0 0 0 0
Neighs:    718 ave 718 max 718 min
Histogram: 1 0 0 0 0 0 0 0 0 0

Total # of neighbors = 718
Ave neighs/atom = 8.7561
Neighbor list builds = 0
Dangerous builds = 0
        # write_dump all atom ${dumpfile}
        next i
jump SELF loop1
        displace_atoms upper move ${xstep1} 0.0 0.0 units lattice
        displace_atoms upper move 0.002 0.0 0.0 units lattice
        min_style ${style}
        min_style hftn
        minimize ${etol} ${ftol} ${maxiter} ${maxeval}
        minimize 1e-12 ${ftol} ${maxiter} ${maxeval}
        minimize 1e-12 1e-08 ${maxiter} ${maxeval}
        minimize 1e-12 1e-08 10000 ${maxeval}
        minimize 1e-12 1e-08 10000 20000
WARNING: Resetting reneighboring criteria during minimization (../min.cpp:168)
Memory usage per processor = 4.85169 Mbytes
Step Temp PotEng Lx Ly Lz 
      17            0   -241.99841    2.2449075    38.891233    1.1224537 
      18            0   -241.99841    2.2449075    38.891233    1.1224537 
Loop time of 0.00285895 on 1 procs for 0 steps with 82 atoms

Minimization stats:
  Stopping criterion = force tolerance
  Energy initial, next-to-last, final = 
        -241.998405265     -241.998405265     -241.998405355
  Force two-norm initial, final = 0.000679534 8.80752e-09
  Force max component initial, final = 0.000339767 4.00685e-09
  Final line search alpha, max atom move = 0 0
  Iterations, force evaluations = 0 83

Pair  time (%) = 0.00139114 (48.659)
Neigh time (%) = 0 (0)
Comm  time (%) = 0.00095514 (33.4088)
Outpt time (%) = 0 (0)
Other time (%) = 0.000512674 (17.9322)

Nlocal:    82 ave 82 max 82 min
Histogram: 1 0 0 0 0 0 0 0 0 0
Nghost:    185 ave 185 max 185 min
Histogram: 1 0 0 0 0 0 0 0 0 0
Neighs:    718 ave 718 max 718 min
Histogram: 1 0 0 0 0 0 0 0 0 0

Total # of neighbors = 718
Ave neighs/atom = 8.7561
Neighbor list builds = 0
Dangerous builds = 0
        # write_dump all atom ${dumpfile}
        next i
jump SELF loop1
        displace_atoms upper move ${xstep1} 0.0 0.0 units lattice
        displace_atoms upper move 0.002 0.0 0.0 units lattice
        min_style ${style}
        min_style hftn
        minimize ${etol} ${ftol} ${maxiter} ${maxeval}
        minimize 1e-12 ${ftol} ${maxiter} ${maxeval}
        minimize 1e-12 1e-08 ${maxiter} ${maxeval}
        minimize 1e-12 1e-08 10000 ${maxeval}
        minimize 1e-12 1e-08 10000 20000
WARNING: Resetting reneighboring criteria during minimization (../min.cpp:168)
Memory usage per processor = 4.85169 Mbytes
Step Temp PotEng Lx Ly Lz 
      18            0   -241.99776    2.2449075    38.891242    1.1224537 
      19            0   -241.99776    2.2449075    38.891242    1.1224537 
      20            0   -241.99776    2.2449075    38.891242    1.1224537 
Loop time of 0.00352601 on 1 procs for 1 steps with 82 atoms

Minimization stats:
  Stopping criterion = force tolerance
  Energy initial, next-to-last, final = 
        -241.997755578     -241.997755578     -241.997755898
  Force two-norm initial, final = 0.00162697 2.11552e-09
  Force max component initial, final = 0.000813485 1.03476e-09
  Final line search alpha, max atom move = 0 0
  Iterations, force evaluations = 1 111

Pair  time (%) = 0.00224598 (63.6976)
Neigh time (%) = 0 (0)
Comm  time (%) = 0.000156676 (4.44344)
Outpt time (%) = 0.000540905 (15.3404)
Other time (%) = 0.000582443 (16.5185)

Nlocal:    82 ave 82 max 82 min
Histogram: 1 0 0 0 0 0 0 0 0 0
Nghost:    185 ave 185 max 185 min
Histogram: 1 0 0 0 0 0 0 0 0 0
Neighs:    718 ave 718 max 718 min
Histogram: 1 0 0 0 0 0 0 0 0 0

Total # of neighbors = 718
Ave neighs/atom = 8.7561
Neighbor list builds = 0
Dangerous builds = 0
        # write_dump all atom ${dumpfile}
        next i
jump SELF loop1
        displace_atoms upper move ${xstep1} 0.0 0.0 units lattice
        displace_atoms upper move 0.002 0.0 0.0 units lattice
        min_style ${style}
        min_style hftn
        minimize ${etol} ${ftol} ${maxiter} ${maxeval}
        minimize 1e-12 ${ftol} ${maxiter} ${maxeval}
        minimize 1e-12 1e-08 ${maxiter} ${maxeval}
        minimize 1e-12 1e-08 10000 ${maxeval}
        minimize 1e-12 1e-08 10000 20000
WARNING: Resetting reneighboring criteria during minimization (../min.cpp:168)
Memory usage per processor = 4.85169 Mbytes
Step Temp PotEng Lx Ly Lz 
      20            0     -241.997    2.2449075    38.891264    1.1224537 
      21            0     -241.997    2.2449075    38.891264    1.1224537 
      22            0     -241.997    2.2449075    38.891264    1.1224537 
      23            0     -241.997    2.2449075    38.891264    1.1224537 
      24            0     -241.997    2.2449075    38.891264    1.1224537 
      25            0     -241.997    2.2449075    38.891264    1.1224537 
      26            0     -241.997    2.2449075    38.891264    1.1224537 
      27            0     -241.997    2.2449075    38.891264    1.1224537 
      28            0     -241.997    2.2449075    38.891264    1.1224537 
Loop time of 0.0028321 on 1 procs for 7 steps with 82 atoms

Minimization stats:
  Stopping criterion = energy tolerance
  Energy initial, next-to-last, final = 
        -241.996997763     -241.996997763     -241.996997763
  Force two-norm initial, final = 0.00260139 0.00260116
  Force max component initial, final = 0.0013007 0.00130058
  Final line search alpha, max atom move = 0 0
  Iterations, force evaluations = 7 136

Pair  time (%) = 0.00207829 (73.3833)
Neigh time (%) = 0 (0)
Comm  time (%) = 0.000162554 (5.73968)
Outpt time (%) = 4.88334e-05 (1.72428)
Other time (%) = 0.000542423 (19.1527)

Nlocal:    82 ave 82 max 82 min
Histogram: 1 0 0 0 0 0 0 0 0 0
Nghost:    185 ave 185 max 185 min
Histogram: 1 0 0 0 0 0 0 0 0 0
Neighs:    718 ave 718 max 718 min
Histogram: 1 0 0 0 0 0 0 0 0 0

Total # of neighbors = 718
Ave neighs/atom = 8.7561
Neighbor list builds = 0
Dangerous builds = 0
        # write_dump all atom ${dumpfile}
        next i
jump SELF loop1
        displace_atoms upper move ${xstep1} 0.0 0.0 units lattice
        displace_atoms upper move 0.002 0.0 0.0 units lattice
        min_style ${style}
        min_style hftn
        minimize ${etol} ${ftol} ${maxiter} ${maxeval}
        minimize 1e-12 ${ftol} ${maxiter} ${maxeval}
        minimize 1e-12 1e-08 ${maxiter} ${maxeval}
        minimize 1e-12 1e-08 10000 ${maxeval}
        minimize 1e-12 1e-08 10000 20000
WARNING: Resetting reneighboring criteria during minimization (../min.cpp:168)
Memory usage per processor = 4.85169 Mbytes
Step Temp PotEng Lx Ly Lz 
      28            0   -241.99613    2.2449075    38.891264    1.1224537 
      29            0   -241.99613    2.2449075    38.891264    1.1224537 
      30            0   -241.99613    2.2449075    38.891264    1.1224537 
      31            0   -241.99613    2.2449075    38.891264    1.1224537 
      32            0   -241.99613    2.2449075    38.891264    1.1224537 
      33            0   -241.99613    2.2449075    38.891264    1.1224537 
      34            0   -241.99613    2.2449075    38.891264    1.1224537 
      35            0   -241.99613    2.2449075    38.891264    1.1224537 
      36            0   -241.99613    2.2449075    38.891264    1.1224537 
Loop time of 0.00274001 on 1 procs for 7 steps with 82 atoms

Minimization stats:
  Stopping criterion = energy tolerance
  Energy initial, next-to-last, final = 
        -241.996131299     -241.996131299     -241.996131299
  Force two-norm initial, final = 0.00617786 0.00617719
  Force max component initial, final = 0.00308893 0.0030886
  Final line search alpha, max atom move = 0 0
  Iterations, force evaluations = 7 128

Pair  time (%) = 0.00201526 (73.5493)
Neigh time (%) = 0 (0)
Comm  time (%) = 0.000172912 (6.31063)
Outpt time (%) = 5.0858e-05 (1.85612)
Other time (%) = 0.000500982 (18.284)

Nlocal:    82 ave 82 max 82 min
Histogram: 1 0 0 0 0 0 0 0 0 0
Nghost:    185 ave 185 max 185 min
Histogram: 1 0 0 0 0 0 0 0 0 0
Neighs:    718 ave 718 max 718 min
Histogram: 1 0 0 0 0 0 0 0 0 0

Total # of neighbors = 718
Ave neighs/atom = 8.7561
Neighbor list builds = 0
Dangerous builds = 0
        # write_dump all atom ${dumpfile}
        next i
jump SELF loop1
        displace_atoms upper move ${xstep1} 0.0 0.0 units lattice
        displace_atoms upper move 0.002 0.0 0.0 units lattice
        min_style ${style}
        min_style hftn
        minimize ${etol} ${ftol} ${maxiter} ${maxeval}
        minimize 1e-12 ${ftol} ${maxiter} ${maxeval}
        minimize 1e-12 1e-08 ${maxiter} ${maxeval}
        minimize 1e-12 1e-08 10000 ${maxeval}
        minimize 1e-12 1e-08 10000 20000
WARNING: Resetting reneighboring criteria during minimization (../min.cpp:168)
Memory usage per processor = 4.85169 Mbytes
Step Temp PotEng Lx Ly Lz 
      36            0   -241.99516    2.2449075    38.891264    1.1224537 
      37            0   -241.99516    2.2449075    38.891264    1.1224537 
      38            0   -241.99516    2.2449075    38.891264    1.1224537 
Loop time of 0.00478291 on 1 procs for 1 steps with 82 atoms

Minimization stats:
  Stopping criterion = force tolerance
  Energy initial, next-to-last, final = 
        -241.995158436     -241.995158436     -241.995159526
  Force two-norm initial, final = 0.0107112 6.49388e-11
  Force max component initial, final = 0.00535561 2.76313e-11
  Final line search alpha, max atom move = 0 0
  Iterations, force evaluations = 1 148

Pair  time (%) = 0.00307584 (64.3089)
Neigh time (%) = 0 (0)
Comm  time (%) = 0.000240082 (5.01959)
Outpt time (%) = 8.90414e-06 (0.186166)
Other time (%) = 0.00145809 (30.4853)

Nlocal:    82 ave 82 max 82 min
Histogram: 1 0 0 0 0 0 0 0 0 0
Nghost:    185 ave 185 max 185 min
Histogram: 1 0 0 0 0 0 0 0 0 0
Neighs:    718 ave 718 max 718 min
Histogram: 1 0 0 0 0 0 0 0 0 0

Total # of neighbors = 718
Ave neighs/atom = 8.7561
Neighbor list builds = 0
Dangerous builds = 0
        # write_dump all atom ${dumpfile}
        next i
jump SELF loop1
        displace_atoms upper move ${xstep1} 0.0 0.0 units lattice
        displace_atoms upper move 0.002 0.0 0.0 units lattice
        min_style ${style}
        min_style hftn
        minimize ${etol} ${ftol} ${maxiter} ${maxeval}
        minimize 1e-12 ${ftol} ${maxiter} ${maxeval}
        minimize 1e-12 1e-08 ${maxiter} ${maxeval}
        minimize 1e-12 1e-08 10000 ${maxeval}
        minimize 1e-12 1e-08 10000 20000
WARNING: Resetting reneighboring criteria during minimization (../min.cpp:168)
Memory usage per processor = 4.85169 Mbytes
Step Temp PotEng Lx Ly Lz 
      38            0   -241.99408    2.2449075    38.891412    1.1224537 
      39            0   -241.99408    2.2449075    38.891412    1.1224537 
      40            0   -241.99408    2.2449075    38.891412    1.1224537 
      41            0   -241.99408    2.2449075    38.891412    1.1224537 
Loop time of 0.00807007 on 1 procs for 2 steps with 82 atoms

Minimization stats:
  Stopping criterion = force tolerance
  Energy initial, next-to-last, final = 
        -241.994081984     -241.994066906     -241.994083266
  Force two-norm initial, final = 0.00547176 1.69089e-09
  Force max component initial, final = 0.00273588 8.27976e-10
  Final line search alpha, max atom move = 0 0
  Iterations, force evaluations = 2 195

Pair  time (%) = 0.00662925 (82.1461)
Neigh time (%) = 0 (0)
Comm  time (%) = 0.000283483 (3.51277)
Outpt time (%) = 2.28052e-05 (0.282589)
Other time (%) = 0.00113453 (14.0585)

Nlocal:    82 ave 82 max 82 min
Histogram: 1 0 0 0 0 0 0 0 0 0
Nghost:    185 ave 185 max 185 min
Histogram: 1 0 0 0 0 0 0 0 0 0
Neighs:    718 ave 718 max 718 min
Histogram: 1 0 0 0 0 0 0 0 0 0

Total # of neighbors = 718
Ave neighs/atom = 8.7561
Neighbor list builds = 0
Dangerous builds = 0
        # write_dump all atom ${dumpfile}
        next i
jump SELF loop1
        displace_atoms upper move ${xstep1} 0.0 0.0 units lattice
        displace_atoms upper move 0.002 0.0 0.0 units lattice
        min_style ${style}
        min_style hftn
        minimize ${etol} ${ftol} ${maxiter} ${maxeval}
        minimize 1e-12 ${ftol} ${maxiter} ${maxeval}
        minimize 1e-12 1e-08 ${maxiter} ${maxeval}
        minimize 1e-12 1e-08 10000 ${maxeval}
        minimize 1e-12 1e-08 10000 20000
WARNING: Resetting reneighboring criteria during minimization (../min.cpp:168)
Memory usage per processor = 4.85169 Mbytes
Step Temp PotEng Lx Ly Lz 
      41            0    -241.9929    2.2449075    38.891487    1.1224537 
      42            0    -241.9929    2.2449075    38.891487    1.1224537 
      43            0    -241.9929    2.2449075    38.891487    1.1224537 
      44            0    -241.9929    2.2449075    38.891487    1.1224537 
      45            0    -241.9929    2.2449075    38.891487    1.1224537 
      46            0    -241.9929    2.2449075    38.891487    1.1224537 
      47            0    -241.9929    2.2449075    38.891487    1.1224537 
      48            0    -241.9929    2.2449075    38.891487    1.1224537 
      49            0    -241.9929    2.2449075    38.891487    1.1224537 
Loop time of 0.00273906 on 1 procs for 7 steps with 82 atoms

Minimization stats:
  Stopping criterion = energy tolerance
  Energy initial, next-to-last, final = 
        -241.992898798     -241.992898798     -241.992898798
  Force two-norm initial, final = 0.00643918 0.00643848
  Force max component initial, final = 0.00321959 0.00321924
  Final line search alpha, max atom move = 0 0
  Iterations, force evaluations = 7 128

Pair  time (%) = 0.00187398 (68.4171)
Neigh time (%) = 0 (0)
Comm  time (%) = 0.000157836 (5.76242)
Outpt time (%) = 0.000219274 (8.00547)
Other time (%) = 0.000487963 (17.815)

Nlocal:    82 ave 82 max 82 min
Histogram: 1 0 0 0 0 0 0 0 0 0
Nghost:    185 ave 185 max 185 min
Histogram: 1 0 0 0 0 0 0 0 0 0
Neighs:    718 ave 718 max 718 min
Histogram: 1 0 0 0 0 0 0 0 0 0

Total # of neighbors = 718
Ave neighs/atom = 8.7561
Neighbor list builds = 0
Dangerous builds = 0
        # write_dump all atom ${dumpfile}
        next i
jump SELF loop1
        displace_atoms upper move ${xstep1} 0.0 0.0 units lattice
        displace_atoms upper move 0.002 0.0 0.0 units lattice
        min_style ${style}
        min_style hftn
        minimize ${etol} ${ftol} ${maxiter} ${maxeval}
        minimize 1e-12 ${ftol} ${maxiter} ${maxeval}
        minimize 1e-12 1e-08 ${maxiter} ${maxeval}
        minimize 1e-12 1e-08 10000 ${maxeval}
        minimize 1e-12 1e-08 10000 20000
WARNING: Resetting reneighboring criteria during minimization (../min.cpp:168)
Memory usage per processor = 4.85169 Mbytes
Step Temp PotEng Lx Ly Lz 
      49            0   -241.99161    2.2449075    38.891487    1.1224537 
      50            0   -241.99161    2.2449075    38.891487    1.1224537 
      51            0   -241.99161    2.2449075    38.891487    1.1224537 
Loop time of 0.00402991 on 1 procs for 1 steps with 82 atoms

Minimization stats:
  Stopping criterion = force tolerance
  Energy initial, next-to-last, final = 
        -241.991607728     -241.991607728     -241.991610018
  Force two-norm initial, final = 0.0138431 1.44724e-10
  Force max component initial, final = 0.00692153 7.09892e-11
  Final line search alpha, max atom move = 0 0
  Iterations, force evaluations = 1 146

Pair  time (%) = 0.00308503 (76.5533)
Neigh time (%) = 0 (0)
Comm  time (%) = 0.000226176 (5.61242)
Outpt time (%) = 9.09623e-06 (0.225718)
Other time (%) = 0.000709609 (17.6086)

Nlocal:    82 ave 82 max 82 min
Histogram: 1 0 0 0 0 0 0 0 0 0
Nghost:    185 ave 185 max 185 min
Histogram: 1 0 0 0 0 0 0 0 0 0
Neighs:    718 ave 718 max 718 min
Histogram: 1 0 0 0 0 0 0 0 0 0

Total # of neighbors = 718
Ave neighs/atom = 8.7561
Neighbor list builds = 0
Dangerous builds = 0
        # write_dump all atom ${dumpfile}
        next i
jump SELF loop1
        displace_atoms upper move ${xstep1} 0.0 0.0 units lattice
        displace_atoms upper move 0.002 0.0 0.0 units lattice
        min_style ${style}
        min_style hftn
        minimize ${etol} ${ftol} ${maxiter} ${maxeval}
        minimize 1e-12 ${ftol} ${maxiter} ${maxeval}
        minimize 1e-12 1e-08 ${maxiter} ${maxeval}
        minimize 1e-12 1e-08 10000 ${maxeval}
        minimize 1e-12 1e-08 10000 20000
WARNING: Resetting reneighboring criteria during minimization (../min.cpp:168)
Memory usage per processor = 4.85169 Mbytes
Step Temp PotEng Lx Ly Lz 
      51            0   -241.99022    2.2449075    38.891677    1.1224537 
      52            0   -241.99022    2.2449075    38.891677    1.1224537 
      53            0   -241.99022    2.2449075    38.891677    1.1224537 
Loop time of 0.00413902 on 1 procs for 1 steps with 82 atoms

Minimization stats:
  Stopping criterion = force tolerance
  Energy initial, next-to-last, final = 
        -241.990217005     -241.990217005     -241.990218553
  Force two-norm initial, final = 0.00832063 5.75479e-11
  Force max component initial, final = 0.00416032 1.97679e-11
  Final line search alpha, max atom move = 0 0
  Iterations, force evaluations = 1 152

Pair  time (%) = 0.00252649 (61.0409)
Neigh time (%) = 0 (0)
Comm  time (%) = 0.000864247 (20.8805)
Outpt time (%) = 1.89665e-05 (0.458237)
Other time (%) = 0.000729311 (17.6204)

Nlocal:    82 ave 82 max 82 min
Histogram: 1 0 0 0 0 0 0 0 0 0
Nghost:    185 ave 185 max 185 min
Histogram: 1 0 0 0 0 0 0 0 0 0
Neighs:    718 ave 718 max 718 min
Histogram: 1 0 0 0 0 0 0 0 0 0

Total # of neighbors = 718
Ave neighs/atom = 8.7561
Neighbor list builds = 0
Dangerous builds = 0
        # write_dump all atom ${dumpfile}
        next i
jump SELF loop1
        displace_atoms upper move ${xstep1} 0.0 0.0 units lattice
        displace_atoms upper move 0.002 0.0 0.0 units lattice
        min_style ${style}
        min_style hftn
        minimize ${etol} ${ftol} ${maxiter} ${maxeval}
        minimize 1e-12 ${ftol} ${maxiter} ${maxeval}
        minimize 1e-12 1e-08 ${maxiter} ${maxeval}
        minimize 1e-12 1e-08 10000 ${maxeval}
        minimize 1e-12 1e-08 10000 20000
WARNING: Resetting reneighboring criteria during minimization (../min.cpp:168)
Memory usage per processor = 4.85169 Mbytes
Step Temp PotEng Lx Ly Lz 
      53            0   -241.98872    2.2449075    38.891791    1.1224537 
      54            0   -241.98872    2.2449075    38.891791    1.1224537 
      55            0   -241.98872    2.2449075    38.891791    1.1224537 
      56            0   -241.98872    2.2449075    38.891791    1.1224537 
      57            0   -241.98872    2.2449075    38.891791    1.1224537 
      58            0   -241.98872    2.2449075    38.891791    1.1224537 
      59            0   -241.98872    2.2449075    38.891791    1.1224537 
      60            0   -241.98872    2.2449075    38.891791    1.1224537 
      61            0   -241.98872    2.2449075    38.891791    1.1224537 
Loop time of 0.00251305 on 1 procs for 7 steps with 82 atoms

Minimization stats:
  Stopping criterion = energy tolerance
  Energy initial, next-to-last, final = 
        -241.988719676     -241.988719676     -241.988719676
  Force two-norm initial, final = 0.00928196 0.00928115
  Force max component initial, final = 0.00464098 0.00464057
  Final line search alpha, max atom move = 0 0
  Iterations, force evaluations = 7 120

Pair  time (%) = 0.00188493 (75.0055)
Neigh time (%) = 0 (0)
Comm  time (%) = 0.000147791 (5.88093)
Outpt time (%) = 5.00182e-05 (1.99033)
Other time (%) = 0.000430317 (17.1233)

Nlocal:    82 ave 82 max 82 min
Histogram: 1 0 0 0 0 0 0 0 0 0
Nghost:    185 ave 185 max 185 min
Histogram: 1 0 0 0 0 0 0 0 0 0
Neighs:    718 ave 718 max 718 min
Histogram: 1 0 0 0 0 0 0 0 0 0

Total # of neighbors = 718
Ave neighs/atom = 8.7561
Neighbor list builds = 0
Dangerous builds = 0
        # write_dump all atom ${dumpfile}
        next i
jump SELF loop1
        displace_atoms upper move ${xstep1} 0.0 0.0 units lattice
        displace_atoms upper move 0.002 0.0 0.0 units lattice
        min_style ${style}
        min_style hftn
        minimize ${etol} ${ftol} ${maxiter} ${maxeval}
        minimize 1e-12 ${ftol} ${maxiter} ${maxeval}
        minimize 1e-12 1e-08 ${maxiter} ${maxeval}
        minimize 1e-12 1e-08 10000 ${maxeval}
        minimize 1e-12 1e-08 10000 20000
WARNING: Resetting reneighboring criteria during minimization (../min.cpp:168)
Memory usage per processor = 4.85169 Mbytes
Step Temp PotEng Lx Ly Lz 
      61            0   -241.98712    2.2449075    38.891791    1.1224537 
      62            0   -241.98712    2.2449075    38.891791    1.1224537 
      63            0   -241.98712    2.2449075    38.891791    1.1224537 
Loop time of 0.0031119 on 1 procs for 1 steps with 82 atoms

Minimization stats:
  Stopping criterion = force tolerance
  Energy initial, next-to-last, final = 
        -241.987116533     -241.987116533      -241.98711874
  Force two-norm initial, final = 0.0195112 6.29731e-10
  Force max component initial, final = 0.00975561 3.21101e-10
  Final line search alpha, max atom move = 0 0
  Iterations, force evaluations = 1 142

Pair  time (%) = 0.00222946 (71.643)
Neigh time (%) = 0 (0)
Comm  time (%) = 0.000204335 (6.56624)
Outpt time (%) = 7.98563e-06 (0.256616)
Other time (%) = 0.000670119 (21.5341)

Nlocal:    82 ave 82 max 82 min
Histogram: 1 0 0 0 0 0 0 0 0 0
Nghost:    185 ave 185 max 185 min
Histogram: 1 0 0 0 0 0 0 0 0 0
Neighs:    718 ave 718 max 718 min
Histogram: 1 0 0 0 0 0 0 0 0 0

Total # of neighbors = 718
Ave neighs/atom = 8.7561
Neighbor list builds = 0
Dangerous builds = 0
        # write_dump all atom ${dumpfile}
        next i
jump SELF loop1
        displace_atoms upper move ${xstep1} 0.0 0.0 units lattice
        displace_atoms upper move 0.002 0.0 0.0 units lattice
        min_style ${style}
        min_style hftn
        minimize ${etol} ${ftol} ${maxiter} ${maxeval}
        minimize 1e-12 ${ftol} ${maxiter} ${maxeval}
        minimize 1e-12 1e-08 ${maxiter} ${maxeval}
        minimize 1e-12 1e-08 10000 ${maxeval}
        minimize 1e-12 1e-08 10000 20000
WARNING: Resetting reneighboring criteria during minimization (../min.cpp:168)
Memory usage per processor = 4.85169 Mbytes
Step Temp PotEng Lx Ly Lz 
      63            0   -241.98542    2.2449075    38.892059    1.1224537 
      64            0   -241.98542    2.2449075    38.892059    1.1224537 
      65            0   -241.98542    2.2449075    38.892059    1.1224537 
      66            0   -241.98542    2.2449075    38.892059    1.1224537 
      67            0   -241.98542    2.2449075    38.892059    1.1224537 
      68            0   -241.98542    2.2449075    38.892059    1.1224537 
      69            0   -241.98542    2.2449075    38.892059    1.1224537 
      70            0   -241.98542    2.2449075    38.892059    1.1224537 
      71            0   -241.98542    2.2449075    38.892059    1.1224537 
      72            0   -241.98542    2.2449075    38.892059    1.1224537 
Loop time of 0.00280199 on 1 procs for 8 steps with 82 atoms

Minimization stats:
  Stopping criterion = energy tolerance
  Energy initial, next-to-last, final = 
        -241.985417097     -241.985417097     -241.985417097
  Force two-norm initial, final = 0.0111166 0.0111163
  Force max component initial, final = 0.00555828 0.00555816
  Final line search alpha, max atom move = 0 0
  Iterations, force evaluations = 8 127

Pair  time (%) = 0.00207765 (74.1492)
Neigh time (%) = 0 (0)
Comm  time (%) = 0.000177043 (6.31846)
Outpt time (%) = 5.18336e-05 (1.84988)
Other time (%) = 0.000495461 (17.6825)

Nlocal:    82 ave 82 max 82 min
Histogram: 1 0 0 0 0 0 0 0 0 0
Nghost:    185 ave 185 max 185 min
Histogram: 1 0 0 0 0 0 0 0 0 0
Neighs:    718 ave 718 max 718 min
Histogram: 1 0 0 0 0 0 0 0 0 0

Total # of neighbors = 718
Ave neighs/atom = 8.7561
Neighbor list builds = 0
Dangerous builds = 0
        # write_dump all atom ${dumpfile}
        next i
jump SELF loop1
        displace_atoms upper move ${xstep1} 0.0 0.0 units lattice
        displace_atoms upper move 0.002 0.0 0.0 units lattice
        min_style ${style}
        min_style hftn
        minimize ${etol} ${ftol} ${maxiter} ${maxeval}
        minimize 1e-12 ${ftol} ${maxiter} ${maxeval}
        minimize 1e-12 1e-08 ${maxiter} ${maxeval}
        minimize 1e-12 1e-08 10000 ${maxeval}
        minimize 1e-12 1e-08 10000 20000
WARNING: Resetting reneighboring criteria during minimization (../min.cpp:168)
Memory usage per processor = 4.85169 Mbytes
Step Temp PotEng Lx Ly Lz 
      72            0   -241.98361    2.2449075    38.892059    1.1224537 
      73            0   -241.98361    2.2449075    38.892059    1.1224537 
      74            0   -241.98361    2.2449075    38.892059    1.1224537 
Loop time of 0.0033181 on 1 procs for 1 steps with 82 atoms

Minimization stats:
  Stopping criterion = force tolerance
  Energy initial, next-to-last, final = 
        -241.983608449     -241.983608449     -241.983613444
  Force two-norm initial, final = 0.0232148 1.39052e-09
  Force max component initial, final = 0.0116074 7.07104e-10
  Final line search alpha, max atom move = 0 0
  Iterations, force evaluations = 1 140

Pair  time (%) = 0.00242661 (73.1324)
Neigh time (%) = 0 (0)
Comm  time (%) = 0.000203287 (6.12662)
Outpt time (%) = 1.8036e-05 (0.543564)
Other time (%) = 0.00067017 (20.1974)

Nlocal:    82 ave 82 max 82 min
Histogram: 1 0 0 0 0 0 0 0 0 0
Nghost:    185 ave 185 max 185 min
Histogram: 1 0 0 0 0 0 0 0 0 0
Neighs:    718 ave 718 max 718 min
Histogram: 1 0 0 0 0 0 0 0 0 0

Total # of neighbors = 718
Ave neighs/atom = 8.7561
Neighbor list builds = 0
Dangerous builds = 0
        # write_dump all atom ${dumpfile}
        next i
jump SELF loop1
        displace_atoms upper move ${xstep1} 0.0 0.0 units lattice
        displace_atoms upper move 0.002 0.0 0.0 units lattice
        min_style ${style}
        min_style hftn
        minimize ${etol} ${ftol} ${maxiter} ${maxeval}
        minimize 1e-12 ${ftol} ${maxiter} ${maxeval}
        minimize 1e-12 1e-08 ${maxiter} ${maxeval}
        minimize 1e-12 1e-08 10000 ${maxeval}
        minimize 1e-12 1e-08 10000 20000
WARNING: Resetting reneighboring criteria during minimization (../min.cpp:168)
Memory usage per processor = 4.85169 Mbytes
Step Temp PotEng Lx Ly Lz 
      74            0   -241.98171    2.2449075    38.892377    1.1224537 
      75            0   -241.98171    2.2449075    38.892377    1.1224537 
      76            0   -241.98171    2.2449075    38.892377    1.1224537 
      77            0   -241.98171    2.2449075    38.892377    1.1224537 
      78            0   -241.98171    2.2449075    38.892377    1.1224537 
      79            0   -241.98171    2.2449075    38.892377    1.1224537 
      80            0   -241.98171    2.2449075    38.892377    1.1224537 
      81            0   -241.98171    2.2449075    38.892377    1.1224537 
      82            0   -241.98171    2.2449075    38.892377    1.1224537 
      83            0   -241.98171    2.2449075    38.892377    1.1224537 
Loop time of 0.00412695 on 1 procs for 8 steps with 82 atoms

Minimization stats:
  Stopping criterion = energy tolerance
  Energy initial, next-to-last, final = 
        -241.981709675     -241.981709675      -241.98170972
  Force two-norm initial, final = 0.0129534 0.0120786
  Force max component initial, final = 0.00647672 0.0060375
  Final line search alpha, max atom move = 0 0
  Iterations, force evaluations = 8 121

Pair  time (%) = 0.00254001 (61.5469)
Neigh time (%) = 0 (0)
Comm  time (%) = 0.000758896 (18.3888)
Outpt time (%) = 8.79341e-05 (2.13073)
Other time (%) = 0.00074011 (17.9336)

Nlocal:    82 ave 82 max 82 min
Histogram: 1 0 0 0 0 0 0 0 0 0
Nghost:    185 ave 185 max 185 min
Histogram: 1 0 0 0 0 0 0 0 0 0
Neighs:    718 ave 718 max 718 min
Histogram: 1 0 0 0 0 0 0 0 0 0

Total # of neighbors = 718
Ave neighs/atom = 8.7561
Neighbor list builds = 0
Dangerous builds = 0
        # write_dump all atom ${dumpfile}
        next i
jump SELF loop1
        displace_atoms upper move ${xstep1} 0.0 0.0 units lattice
        displace_atoms upper move 0.002 0.0 0.0 units lattice
        min_style ${style}
        min_style hftn
        minimize ${etol} ${ftol} ${maxiter} ${maxeval}
        minimize 1e-12 ${ftol} ${maxiter} ${maxeval}
        minimize 1e-12 1e-08 ${maxiter} ${maxeval}
        minimize 1e-12 1e-08 10000 ${maxeval}
        minimize 1e-12 1e-08 10000 20000
WARNING: Resetting reneighboring criteria during minimization (../min.cpp:168)
Memory usage per processor = 4.85169 Mbytes
Step Temp PotEng Lx Ly Lz 
      83            0    -241.9797    2.2449075    38.892377    1.1224537 
      84            0    -241.9797    2.2449075    38.892377    1.1224537 
      85            0    -241.9797    2.2449075    38.892377    1.1224537 
Loop time of 0.003756 on 1 procs for 1 steps with 82 atoms

Minimization stats:
  Stopping criterion = force tolerance
  Energy initial, next-to-last, final = 
        -241.979700045     -241.979700045     -241.979703393
  Force two-norm initial, final = 0.0260068 1.88391e-09
  Force max component initial, final = 0.0130026 9.59899e-10
  Final line search alpha, max atom move = 0 0
  Iterations, force evaluations = 1 140

Pair  time (%) = 0.00287614 (76.5745)
Neigh time (%) = 0 (0)
Comm  time (%) = 0.000181664 (4.83663)
Outpt time (%) = 1.09631e-05 (0.291881)
Other time (%) = 0.000687236 (18.297)

Nlocal:    82 ave 82 max 82 min
Histogram: 1 0 0 0 0 0 0 0 0 0
Nghost:    185 ave 185 max 185 min
Histogram: 1 0 0 0 0 0 0 0 0 0
Neighs:    718 ave 718 max 718 min
Histogram: 1 0 0 0 0 0 0 0 0 0

Total # of neighbors = 718
Ave neighs/atom = 8.7561
Neighbor list builds = 0
Dangerous builds = 0
        # write_dump all atom ${dumpfile}
        next i
jump SELF loop1
        displace_atoms upper move ${xstep1} 0.0 0.0 units lattice
        displace_atoms upper move 0.002 0.0 0.0 units lattice
        min_style ${style}
        min_style hftn
        minimize ${etol} ${ftol} ${maxiter} ${maxeval}
        minimize 1e-12 ${ftol} ${maxiter} ${maxeval}
        minimize 1e-12 1e-08 ${maxiter} ${maxeval}
        minimize 1e-12 1e-08 10000 ${maxeval}
        minimize 1e-12 1e-08 10000 20000
WARNING: Resetting reneighboring criteria during minimization (../min.cpp:168)
Memory usage per processor = 4.85169 Mbytes
Step Temp PotEng Lx Ly Lz 
      85            0    -241.9776    2.2449075    38.892746    1.1224537 
      86            0    -241.9776    2.2449075    38.892746    1.1224537 
      87            0    -241.9776    2.2449075    38.892746    1.1224537 
Loop time of 0.00375891 on 1 procs for 1 steps with 82 atoms

Minimization stats:
  Stopping criterion = force tolerance
  Energy initial, next-to-last, final = 
         -241.97760105      -241.97760105     -241.977601147
  Force two-norm initial, final = 0.0147642 1.64656e-10
  Force max component initial, final = 0.00738211 8.10469e-11
  Final line search alpha, max atom move = 0 0
  Iterations, force evaluations = 1 146

Pair  time (%) = 0.00286596 (76.2445)
Neigh time (%) = 0 (0)
Comm  time (%) = 0.000200429 (5.3321)
Outpt time (%) = 1.41135e-05 (0.375468)
Other time (%) = 0.000678407 (18.048)

Nlocal:    82 ave 82 max 82 min
Histogram: 1 0 0 0 0 0 0 0 0 0
Nghost:    185 ave 185 max 185 min
Histogram: 1 0 0 0 0 0 0 0 0 0
Neighs:    718 ave 718 max 718 min
Histogram: 1 0 0 0 0 0 0 0 0 0

Total # of neighbors = 718
Ave neighs/atom = 8.7561
Neighbor list builds = 0
Dangerous builds = 0
        # write_dump all atom ${dumpfile}
        next i
jump SELF loop1
        displace_atoms upper move ${xstep1} 0.0 0.0 units lattice
        displace_atoms upper move 0.002 0.0 0.0 units lattice
        min_style ${style}
        min_style hftn
        minimize ${etol} ${ftol} ${maxiter} ${maxeval}
        minimize 1e-12 ${ftol} ${maxiter} ${maxeval}
        minimize 1e-12 1e-08 ${maxiter} ${maxeval}
        minimize 1e-12 1e-08 10000 ${maxeval}
        minimize 1e-12 1e-08 10000 20000
WARNING: Resetting reneighboring criteria during minimization (../min.cpp:168)
Memory usage per processor = 4.85169 Mbytes
Step Temp PotEng Lx Ly Lz 
      87            0    -241.9754    2.2449075    38.892948    1.1224537 
      88            0    -241.9754    2.2449075    38.892948    1.1224537 
      89            0    -241.9754    2.2449075    38.892948    1.1224537 
Loop time of 0.00445008 on 1 procs for 1 steps with 82 atoms

Minimization stats:
  Stopping criterion = force tolerance
  Energy initial, next-to-last, final = 
        -241.975398489     -241.975398489     -241.975400995
  Force two-norm initial, final = 0.0156851 3.11396e-10
  Force max component initial, final = 0.00784257 1.42716e-10
  Final line search alpha, max atom move = 0 0
  Iterations, force evaluations = 1 144

Pair  time (%) = 0.00350862 (78.844)
Neigh time (%) = 0 (0)
Comm  time (%) = 0.000223535 (5.02317)
Outpt time (%) = 9.06398e-06 (0.203681)
Other time (%) = 0.00070886 (15.9292)

Nlocal:    82 ave 82 max 82 min
Histogram: 1 0 0 0 0 0 0 0 0 0
Nghost:    185 ave 185 max 185 min
Histogram: 1 0 0 0 0 0 0 0 0 0
Neighs:    718 ave 718 max 718 min
Histogram: 1 0 0 0 0 0 0 0 0 0

Total # of neighbors = 718
Ave neighs/atom = 8.7561
Neighbor list builds = 0
Dangerous builds = 0
        # write_dump all atom ${dumpfile}
        next i
jump SELF loop1
        displace_atoms upper move ${xstep1} 0.0 0.0 units lattice
        displace_atoms upper move 0.002 0.0 0.0 units lattice
        min_style ${style}
        min_style hftn
        minimize ${etol} ${ftol} ${maxiter} ${maxeval}
        minimize 1e-12 ${ftol} ${maxiter} ${maxeval}
        minimize 1e-12 1e-08 ${maxiter} ${maxeval}
        minimize 1e-12 1e-08 10000 ${maxeval}
        minimize 1e-12 1e-08 10000 20000
WARNING: Resetting reneighboring criteria during minimization (../min.cpp:168)
Memory usage per processor = 4.85169 Mbytes
Step Temp PotEng Lx Ly Lz 
      89            0    -241.9731    2.2449075    38.893163    1.1224537 
      90            0    -241.9731    2.2449075    38.893163    1.1224537 
      91            0    -241.9731    2.2449075    38.893163    1.1224537 
Loop time of 0.00396403 on 1 procs for 1 steps with 82 atoms

Minimization stats:
  Stopping criterion = force tolerance
  Energy initial, next-to-last, final = 
        -241.973101273     -241.973101273     -241.973101652
  Force two-norm initial, final = 0.0165744 2.96397e-10
  Force max component initial, final = 0.0082872 1.39932e-10
  Final line search alpha, max atom move = 0 0
  Iterations, force evaluations = 1 144

Pair  time (%) = 0.0029137 (73.5034)
Neigh time (%) = 0 (0)
Comm  time (%) = 0.000280022 (7.06406)
Outpt time (%) = 1.28993e-05 (0.325408)
Other time (%) = 0.000757412 (19.1071)

Nlocal:    82 ave 82 max 82 min
Histogram: 1 0 0 0 0 0 0 0 0 0
Nghost:    185 ave 185 max 185 min
Histogram: 1 0 0 0 0 0 0 0 0 0
Neighs:    718 ave 718 max 718 min
Histogram: 1 0 0 0 0 0 0 0 0 0

Total # of neighbors = 718
Ave neighs/atom = 8.7561
Neighbor list builds = 0
Dangerous builds = 0
        # write_dump all atom ${dumpfile}
        next i
jump SELF loop1
        displace_atoms upper move ${xstep1} 0.0 0.0 units lattice
        displace_atoms upper move 0.002 0.0 0.0 units lattice
        min_style ${style}
        min_style hftn
        minimize ${etol} ${ftol} ${maxiter} ${maxeval}
        minimize 1e-12 ${ftol} ${maxiter} ${maxeval}
        minimize 1e-12 1e-08 ${maxiter} ${maxeval}
        minimize 1e-12 1e-08 10000 ${maxeval}
        minimize 1e-12 1e-08 10000 20000
WARNING: Resetting reneighboring criteria during minimization (../min.cpp:168)
Memory usage per processor = 4.85169 Mbytes
Step Temp PotEng Lx Ly Lz 
      91            0   -241.97071    2.2449075     38.89339    1.1224537 
      92            0   -241.97071    2.2449075     38.89339    1.1224537 
      93            0   -241.97071    2.2449075     38.89339    1.1224537 
Loop time of 0.00436799 on 1 procs for 1 steps with 82 atoms

Minimization stats:
  Stopping criterion = force tolerance
  Energy initial, next-to-last, final = 
        -241.970707445     -241.970707445     -241.970711362
  Force two-norm initial, final = 0.0174378 3.53816e-10
  Force max component initial, final = 0.00871888 1.79893e-10
  Final line search alpha, max atom move = 0 0
  Iterations, force evaluations = 1 144

Pair  time (%) = 0.00342609 (78.4363)
Neigh time (%) = 0 (0)
Comm  time (%) = 0.000188837 (4.32319)
Outpt time (%) = 9.99134e-06 (0.22874)
Other time (%) = 0.000743072 (17.0117)

Nlocal:    82 ave 82 max 82 min
Histogram: 1 0 0 0 0 0 0 0 0 0
Nghost:    185 ave 185 max 185 min
Histogram: 1 0 0 0 0 0 0 0 0 0
Neighs:    718 ave 718 max 718 min
Histogram: 1 0 0 0 0 0 0 0 0 0

Total # of neighbors = 718
Ave neighs/atom = 8.7561
Neighbor list builds = 0
Dangerous builds = 0
        # write_dump all atom ${dumpfile}
        next i
jump SELF loop1
        displace_atoms upper move ${xstep1} 0.0 0.0 units lattice
        displace_atoms upper move 0.002 0.0 0.0 units lattice
        min_style ${style}
        min_style hftn
        minimize ${etol} ${ftol} ${maxiter} ${maxeval}
        minimize 1e-12 ${ftol} ${maxiter} ${maxeval}
        minimize 1e-12 1e-08 ${maxiter} ${maxeval}
        minimize 1e-12 1e-08 10000 ${maxeval}
        minimize 1e-12 1e-08 10000 20000
WARNING: Resetting reneighboring criteria during minimization (../min.cpp:168)
Memory usage per processor = 4.85169 Mbytes
Step Temp PotEng Lx Ly Lz 
      93            0   -241.96822    2.2449075    38.893628    1.1224537 
      94            0   -241.96822    2.2449075    38.893628    1.1224537 
      95            0   -241.96822    2.2449075    38.893628    1.1224537 
Loop time of 0.00721793 on 1 procs for 1 steps with 82 atoms

Minimization stats:
  Stopping criterion = force tolerance
  Energy initial, next-to-last, final = 
         -241.96821958      -241.96821958     -241.968221668
  Force two-norm initial, final = 0.0183404 5.50927e-10
  Force max component initial, final = 0.0091702 2.82022e-10
  Final line search alpha, max atom move = 0 0
  Iterations, force evaluations = 1 142

Pair  time (%) = 0.0023165 (32.0937)
Neigh time (%) = 0 (0)
Comm  time (%) = 0.00358846 (49.7159)
Outpt time (%) = -3.2247e-08 (-0.000446763)
Other time (%) = 0.001313 (18.1909)

Nlocal:    82 ave 82 max 82 min
Histogram: 1 0 0 0 0 0 0 0 0 0
Nghost:    185 ave 185 max 185 min
Histogram: 1 0 0 0 0 0 0 0 0 0
Neighs:    718 ave 718 max 718 min
Histogram: 1 0 0 0 0 0 0 0 0 0

Total # of neighbors = 718
Ave neighs/atom = 8.7561
Neighbor list builds = 0
Dangerous builds = 0
        # write_dump all atom ${dumpfile}
        next i
jump SELF loop1
        displace_atoms upper move ${xstep1} 0.0 0.0 units lattice
        displace_atoms upper move 0.002 0.0 0.0 units lattice
        min_style ${style}
        min_style hftn
        minimize ${etol} ${ftol} ${maxiter} ${maxeval}
        minimize 1e-12 ${ftol} ${maxiter} ${maxeval}
        minimize 1e-12 1e-08 ${maxiter} ${maxeval}
        minimize 1e-12 1e-08 10000 ${maxeval}
        minimize 1e-12 1e-08 10000 20000
WARNING: Resetting reneighboring criteria during minimization (../min.cpp:168)
Memory usage per processor = 4.85169 Mbytes
Step Temp PotEng Lx Ly Lz 
      95            0   -241.96564    2.2449075    38.893879    1.1224537 
      96            0   -241.96564    2.2449075    38.893879    1.1224537 
      97            0   -241.96564    2.2449075    38.893879    1.1224537 
Loop time of 0.00367299 on 1 procs for 1 steps with 82 atoms

Minimization stats:
  Stopping criterion = force tolerance
  Energy initial, next-to-last, final = 
        -241.965639715     -241.965639715     -241.965641009
  Force two-norm initial, final = 0.0191619 6.0329e-10
  Force max component initial, final = 0.00958095 3.06027e-10
  Final line search alpha, max atom move = 0 0
  Iterations, force evaluations = 1 142

Pair  time (%) = 0.00290596 (79.1171)
Neigh time (%) = 0 (0)
Comm  time (%) = 0.000146087 (3.97734)
Outpt time (%) = 1.6881e-05 (0.4596)
Other time (%) = 0.000604059 (16.446)

Nlocal:    82 ave 82 max 82 min
Histogram: 1 0 0 0 0 0 0 0 0 0
Nghost:    175 ave 175 max 175 min
Histogram: 1 0 0 0 0 0 0 0 0 0
Neighs:    718 ave 718 max 718 min
Histogram: 1 0 0 0 0 0 0 0 0 0

Total # of neighbors = 718
Ave neighs/atom = 8.7561
Neighbor list builds = 0
Dangerous builds = 0
        # write_dump all atom ${dumpfile}
        next i
jump SELF loop1
        displace_atoms upper move ${xstep1} 0.0 0.0 units lattice
        displace_atoms upper move 0.002 0.0 0.0 units lattice
        min_style ${style}
        min_style hftn
        minimize ${etol} ${ftol} ${maxiter} ${maxeval}
        minimize 1e-12 ${ftol} ${maxiter} ${maxeval}
        minimize 1e-12 1e-08 ${maxiter} ${maxeval}
        minimize 1e-12 1e-08 10000 ${maxeval}
        minimize 1e-12 1e-08 10000 20000
WARNING: Resetting reneighboring criteria during minimization (../min.cpp:168)
Memory usage per processor = 4.85169 Mbytes
Step Temp PotEng Lx Ly Lz 
      97            0   -241.96297    2.2449075    38.894141    1.1224537 
      98            0   -241.96297    2.2449075    38.894141    1.1224537 
      99            0   -241.96297    2.2449075    38.894141    1.1224537 
Loop time of 0.00433607 on 1 procs for 1 steps with 82 atoms

Minimization stats:
  Stopping criterion = force tolerance
  Energy initial, next-to-last, final = 
        -241.962966036     -241.962966036     -241.962968271
  Force two-norm initial, final = 0.0200191 6.60633e-10
  Force max component initial, final = 0.0100095 2.89262e-10
  Final line search alpha, max atom move = 0 0
  Iterations, force evaluations = 1 142

Pair  time (%) = 0.00351876 (81.1508)
Neigh time (%) = 0 (0)
Comm  time (%) = 0.000181403 (4.18358)
Outpt time (%) = 1.20351e-05 (0.277558)
Other time (%) = 0.000623878 (14.3881)

Nlocal:    82 ave 82 max 82 min
Histogram: 1 0 0 0 0 0 0 0 0 0
Nghost:    175 ave 175 max 175 min
Histogram: 1 0 0 0 0 0 0 0 0 0
Neighs:    718 ave 718 max 718 min
Histogram: 1 0 0 0 0 0 0 0 0 0

Total # of neighbors = 718
Ave neighs/atom = 8.7561
Neighbor list builds = 0
Dangerous builds = 0
        # write_dump all atom ${dumpfile}
        next i
jump SELF loop1
        displace_atoms upper move ${xstep1} 0.0 0.0 units lattice
        displace_atoms upper move 0.002 0.0 0.0 units lattice
        min_style ${style}
        min_style hftn
        minimize ${etol} ${ftol} ${maxiter} ${maxeval}
        minimize 1e-12 ${ftol} ${maxiter} ${maxeval}
        minimize 1e-12 1e-08 ${maxiter} ${maxeval}
        minimize 1e-12 1e-08 10000 ${maxeval}
        minimize 1e-12 1e-08 10000 20000
WARNING: Resetting reneighboring criteria during minimization (../min.cpp:168)
Memory usage per processor = 4.85169 Mbytes
Step Temp PotEng Lx Ly Lz 
      99            0    -241.9602    2.2449075    38.894415    1.1224537 
     100            0   -241.96021    2.2449075    38.894415    1.1224537 
     101            0   -241.96021    2.2449075    38.894415    1.1224537 
Loop time of 0.00303591 on 1 procs for 1 steps with 82 atoms

Minimization stats:
  Stopping criterion = force tolerance
  Energy initial, next-to-last, final = 
        -241.960199707     -241.960199707     -241.960205332
  Force two-norm initial, final = 0.0208867 7.15391e-10
  Force max component initial, final = 0.0104433 3.64298e-10
  Final line search alpha, max atom move = 0 0
  Iterations, force evaluations = 1 142

Pair  time (%) = 0.0022445 (73.9317)
Neigh time (%) = 0 (0)
Comm  time (%) = 0.000162323 (5.34678)
Outpt time (%) = -5.52973e-08 (-0.00182144)
Other time (%) = 0.000629143 (20.7234)

Nlocal:    82 ave 82 max 82 min
Histogram: 1 0 0 0 0 0 0 0 0 0
Nghost:    175 ave 175 max 175 min
Histogram: 1 0 0 0 0 0 0 0 0 0
Neighs:    718 ave 718 max 718 min
Histogram: 1 0 0 0 0 0 0 0 0 0

Total # of neighbors = 718
Ave neighs/atom = 8.7561
Neighbor list builds = 0
Dangerous builds = 0
        # write_dump all atom ${dumpfile}
        next i
jump SELF loop1
        displace_atoms upper move ${xstep1} 0.0 0.0 units lattice
        displace_atoms upper move 0.002 0.0 0.0 units lattice
        min_style ${style}
        min_style hftn
        minimize ${etol} ${ftol} ${maxiter} ${maxeval}
        minimize 1e-12 ${ftol} ${maxiter} ${maxeval}
        minimize 1e-12 1e-08 ${maxiter} ${maxeval}
        minimize 1e-12 1e-08 10000 ${maxeval}
        minimize 1e-12 1e-08 10000 20000
WARNING: Resetting reneighboring criteria during minimization (../min.cpp:168)
Memory usage per processor = 4.85169 Mbytes
Step Temp PotEng Lx Ly Lz 
     101            0   -241.95735    2.2449075      38.8947    1.1224537 
     102            0   -241.95735    2.2449075      38.8947    1.1224537 
     103            0   -241.95735    2.2449075      38.8947    1.1224537 
Loop time of 0.0040349 on 1 procs for 1 steps with 82 atoms

Minimization stats:
  Stopping criterion = force tolerance
  Energy initial, next-to-last, final = 
         -241.95734799      -241.95734799     -241.957349076
  Force two-norm initial, final = 0.0217045 7.76213e-10
  Force max component initial, final = 0.0108523 3.9492e-10
  Final line search alpha, max atom move = 0 0
  Iterations, force evaluations = 1 142

Pair  time (%) = 0.00250503 (62.0841)
Neigh time (%) = 0 (0)
Comm  time (%) = 0.000818928 (20.2961)
Outpt time (%) = -3.44589e-08 (-0.000854022)
Other time (%) = 0.000710975 (17.6206)

Nlocal:    82 ave 82 max 82 min
Histogram: 1 0 0 0 0 0 0 0 0 0
Nghost:    175 ave 175 max 175 min
Histogram: 1 0 0 0 0 0 0 0 0 0
Neighs:    718 ave 718 max 718 min
Histogram: 1 0 0 0 0 0 0 0 0 0

Total # of neighbors = 718
Ave neighs/atom = 8.7561
Neighbor list builds = 0
Dangerous builds = 0
        # write_dump all atom ${dumpfile}
        next i
jump SELF loop1
        displace_atoms upper move ${xstep1} 0.0 0.0 units lattice
        displace_atoms upper move 0.002 0.0 0.0 units lattice
        min_style ${style}
        min_style hftn
        minimize ${etol} ${ftol} ${maxiter} ${maxeval}
        minimize 1e-12 ${ftol} ${maxiter} ${maxeval}
        minimize 1e-12 1e-08 ${maxiter} ${maxeval}
        minimize 1e-12 1e-08 10000 ${maxeval}
        minimize 1e-12 1e-08 10000 20000
WARNING: Resetting reneighboring criteria during minimization (../min.cpp:168)
Memory usage per processor = 4.85169 Mbytes
Step Temp PotEng Lx Ly Lz 
     103            0   -241.95441    2.2449075    38.894996    1.1224537 
     104            0   -241.95441    2.2449075    38.894996    1.1224537 
     105            0   -241.95441    2.2449075    38.894996    1.1224537 
Loop time of 0.00525097 on 1 procs for 1 steps with 82 atoms

Minimization stats:
  Stopping criterion = force tolerance
  Energy initial, next-to-last, final = 
        -241.954405756     -241.954405756     -241.954407996
  Force two-norm initial, final = 0.0224953 8.52854e-10
  Force max component initial, final = 0.0112476 3.82152e-10
  Final line search alpha, max atom move = 0 0
  Iterations, force evaluations = 1 142

Pair  time (%) = 0.00390241 (74.3179)
Neigh time (%) = 0 (0)
Comm  time (%) = 0.000362463 (6.90278)
Outpt time (%) = 1.69113e-05 (0.322061)
Other time (%) = 0.000969185 (18.4573)

Nlocal:    82 ave 82 max 82 min
Histogram: 1 0 0 0 0 0 0 0 0 0
Nghost:    175 ave 175 max 175 min
Histogram: 1 0 0 0 0 0 0 0 0 0
Neighs:    718 ave 718 max 718 min
Histogram: 1 0 0 0 0 0 0 0 0 0

Total # of neighbors = 718
Ave neighs/atom = 8.7561
Neighbor list builds = 0
Dangerous builds = 0
        # write_dump all atom ${dumpfile}
        next i
jump SELF loop1
        displace_atoms upper move ${xstep1} 0.0 0.0 units lattice
        displace_atoms upper move 0.002 0.0 0.0 units lattice
        min_style ${style}
        min_style hftn
        minimize ${etol} ${ftol} ${maxiter} ${maxeval}
        minimize 1e-12 ${ftol} ${maxiter} ${maxeval}
        minimize 1e-12 1e-08 ${maxiter} ${maxeval}
        minimize 1e-12 1e-08 10000 ${maxeval}
        minimize 1e-12 1e-08 10000 20000
WARNING: Resetting reneighboring criteria during minimization (../min.cpp:168)
Memory usage per processor = 4.85169 Mbytes
Step Temp PotEng Lx Ly Lz 
     105            0   -241.95138    2.2449075    38.895303    1.1224537 
     106            0   -241.95138    2.2449075    38.895303    1.1224537 
     107            0   -241.95138    2.2449075    38.895303    1.1224537 
Loop time of 0.00777905 on 1 procs for 1 steps with 82 atoms

Minimization stats:
  Stopping criterion = force tolerance
  Energy initial, next-to-last, final = 
        -241.951375054     -241.951375054     -241.951378519
  Force two-norm initial, final = 0.0233307 1.40778e-09
  Force max component initial, final = 0.0116654 7.45381e-10
  Final line search alpha, max atom move = 0 0
  Iterations, force evaluations = 1 140

Pair  time (%) = 0.00233606 (30.0302)
Neigh time (%) = 0 (0)
Comm  time (%) = 0.000207939 (2.67306)
Outpt time (%) = 0.00455292 (58.528)
Other time (%) = 0.000682132 (8.76883)

Nlocal:    82 ave 82 max 82 min
Histogram: 1 0 0 0 0 0 0 0 0 0
Nghost:    175 ave 175 max 175 min
Histogram: 1 0 0 0 0 0 0 0 0 0
Neighs:    718 ave 718 max 718 min
Histogram: 1 0 0 0 0 0 0 0 0 0

Total # of neighbors = 718
Ave neighs/atom = 8.7561
Neighbor list builds = 0
Dangerous builds = 0
        # write_dump all atom ${dumpfile}
        next i
jump SELF loop1
        displace_atoms upper move ${xstep1} 0.0 0.0 units lattice
        displace_atoms upper move 0.002 0.0 0.0 units lattice
        min_style ${style}
        min_style hftn
        minimize ${etol} ${ftol} ${maxiter} ${maxeval}
        minimize 1e-12 ${ftol} ${maxiter} ${maxeval}
        minimize 1e-12 1e-08 ${maxiter} ${maxeval}
        minimize 1e-12 1e-08 10000 ${maxeval}
        minimize 1e-12 1e-08 10000 20000
WARNING: Resetting reneighboring criteria during minimization (../min.cpp:168)
Memory usage per processor = 4.85169 Mbytes
Step Temp PotEng Lx Ly Lz 
     107            0   -241.94826    2.2449075    38.895621    1.1224537 
     108            0   -241.94827    2.2449075    38.895621    1.1224537 
     109            0   -241.94827    2.2449075    38.895621    1.1224537 
Loop time of 0.00402311 on 1 procs for 1 steps with 82 atoms

Minimization stats:
  Stopping criterion = force tolerance
  Energy initial, next-to-last, final = 
        -241.948258638     -241.948258638     -241.948265638
  Force two-norm initial, final = 0.0241389 1.50501e-09
  Force max component initial, final = 0.0120695 7.86193e-10
  Final line search alpha, max atom move = 0 0
  Iterations, force evaluations = 1 140

Pair  time (%) = 0.00269532 (66.9959)
Neigh time (%) = 0 (0)
Comm  time (%) = 0.000322023 (8.00432)
Outpt time (%) = 4.09828e-05 (1.01869)
Other time (%) = 0.000964786 (23.9811)

Nlocal:    82 ave 82 max 82 min
Histogram: 1 0 0 0 0 0 0 0 0 0
Nghost:    175 ave 175 max 175 min
Histogram: 1 0 0 0 0 0 0 0 0 0
Neighs:    718 ave 718 max 718 min
Histogram: 1 0 0 0 0 0 0 0 0 0

Total # of neighbors = 718
Ave neighs/atom = 8.7561
Neighbor list builds = 0
Dangerous builds = 0
        # write_dump all atom ${dumpfile}
        next i
jump SELF loop1
        displace_atoms upper move ${xstep1} 0.0 0.0 units lattice
        displace_atoms upper move 0.002 0.0 0.0 units lattice
        min_style ${style}
        min_style hftn
        minimize ${etol} ${ftol} ${maxiter} ${maxeval}
        minimize 1e-12 ${ftol} ${maxiter} ${maxeval}
        minimize 1e-12 1e-08 ${maxiter} ${maxeval}
        minimize 1e-12 1e-08 10000 ${maxeval}
        minimize 1e-12 1e-08 10000 20000
WARNING: Resetting reneighboring criteria during minimization (../min.cpp:168)
Memory usage per processor = 4.85169 Mbytes
Step Temp PotEng Lx Ly Lz 
     109            0   -241.94506    2.2449075     38.89595    1.1224537 
     110            0   -241.94506    2.2449075     38.89595    1.1224537 
     111            0   -241.94507    2.2449075     38.89595    1.1224537 
Loop time of 0.0037711 on 1 procs for 1 steps with 82 atoms

Minimization stats:
  Stopping criterion = force tolerance
  Energy initial, next-to-last, final = 
        -241.945059108     -241.945059108     -241.945065172
  Force two-norm initial, final = 0.0249489 1.58473e-09
  Force max component initial, final = 0.0124744 8.03663e-10
  Final line search alpha, max atom move = 0 0
  Iterations, force evaluations = 1 140

Pair  time (%) = 0.00281479 (74.641)
Neigh time (%) = 0 (0)
Comm  time (%) = 0.000208247 (5.52217)
Outpt time (%) = 4.30045e-05 (1.14037)
Other time (%) = 0.000705063 (18.6965)

Nlocal:    82 ave 82 max 82 min
Histogram: 1 0 0 0 0 0 0 0 0 0
Nghost:    175 ave 175 max 175 min
Histogram: 1 0 0 0 0 0 0 0 0 0
Neighs:    718 ave 718 max 718 min
Histogram: 1 0 0 0 0 0 0 0 0 0

Total # of neighbors = 718
Ave neighs/atom = 8.7561
Neighbor list builds = 0
Dangerous builds = 0
        # write_dump all atom ${dumpfile}
        next i
jump SELF loop1
        displace_atoms upper move ${xstep1} 0.0 0.0 units lattice
        displace_atoms upper move 0.002 0.0 0.0 units lattice
        min_style ${style}
        min_style hftn
        minimize ${etol} ${ftol} ${maxiter} ${maxeval}
        minimize 1e-12 ${ftol} ${maxiter} ${maxeval}
        minimize 1e-12 1e-08 ${maxiter} ${maxeval}
        minimize 1e-12 1e-08 10000 ${maxeval}
        minimize 1e-12 1e-08 10000 20000
WARNING: Resetting reneighboring criteria during minimization (../min.cpp:168)
Memory usage per processor = 4.85169 Mbytes
Step Temp PotEng Lx Ly Lz 
     111            0   -241.94178    2.2449075    38.896289    1.1224537 
     112            0   -241.94178    2.2449075    38.896289    1.1224537 
     113            0   -241.94178    2.2449075    38.896289    1.1224537 
Loop time of 0.00478694 on 1 procs for 1 steps with 82 atoms

Minimization stats:
  Stopping criterion = force tolerance
  Energy initial, next-to-last, final = 
        -241.941778093     -241.941778093     -241.941781323
  Force two-norm initial, final = 0.0256941 1.70665e-09
  Force max component initial, final = 0.0128471 9.0022e-10
  Final line search alpha, max atom move = 0 0
  Iterations, force evaluations = 1 140

Pair  time (%) = 0.00246803 (51.5576)
Neigh time (%) = 0 (0)
Comm  time (%) = 0.000202084 (4.22156)
Outpt time (%) = 3.49679e-05 (0.730485)
Other time (%) = 0.00208186 (43.4904)

Nlocal:    82 ave 82 max 82 min
Histogram: 1 0 0 0 0 0 0 0 0 0
Nghost:    175 ave 175 max 175 min
Histogram: 1 0 0 0 0 0 0 0 0 0
Neighs:    718 ave 718 max 718 min
Histogram: 1 0 0 0 0 0 0 0 0 0

Total # of neighbors = 718
Ave neighs/atom = 8.7561
Neighbor list builds = 0
Dangerous builds = 0
        # write_dump all atom ${dumpfile}
        next i
jump SELF loop1
        displace_atoms upper move ${xstep1} 0.0 0.0 units lattice
        displace_atoms upper move 0.002 0.0 0.0 units lattice
        min_style ${style}
        min_style hftn
        minimize ${etol} ${ftol} ${maxiter} ${maxeval}
        minimize 1e-12 ${ftol} ${maxiter} ${maxeval}
        minimize 1e-12 1e-08 ${maxiter} ${maxeval}
        minimize 1e-12 1e-08 10000 ${maxeval}
        minimize 1e-12 1e-08 10000 20000
WARNING: Resetting reneighboring criteria during minimization (../min.cpp:168)
Memory usage per processor = 4.85169 Mbytes
Step Temp PotEng Lx Ly Lz 
     113            0   -241.93841    2.2449075    38.896639    1.1224537 
     114            0   -241.93842    2.2449075    38.896639    1.1224537 
     115            0   -241.93842    2.2449075    38.896639    1.1224537 
Loop time of 0.00395298 on 1 procs for 1 steps with 82 atoms

Minimization stats:
  Stopping criterion = force tolerance
  Energy initial, next-to-last, final = 
        -241.938414125     -241.938414125       -241.9384175
  Force two-norm initial, final = 0.02644 1.80789e-09
  Force max component initial, final = 0.01322 9.3745e-10
  Final line search alpha, max atom move = 0 0
  Iterations, force evaluations = 1 140

Pair  time (%) = 0.00231795 (58.6382)
Neigh time (%) = 0 (0)
Comm  time (%) = 0.00023993 (6.06961)
Outpt time (%) = 1.29221e-05 (0.326895)
Other time (%) = 0.00138217 (34.9653)

Nlocal:    82 ave 82 max 82 min
Histogram: 1 0 0 0 0 0 0 0 0 0
Nghost:    175 ave 175 max 175 min
Histogram: 1 0 0 0 0 0 0 0 0 0
Neighs:    718 ave 718 max 718 min
Histogram: 1 0 0 0 0 0 0 0 0 0

Total # of neighbors = 718
Ave neighs/atom = 8.7561
Neighbor list builds = 0
Dangerous builds = 0
        # write_dump all atom ${dumpfile}
        next i
jump SELF loop1
        displace_atoms upper move ${xstep1} 0.0 0.0 units lattice
        displace_atoms upper move 0.002 0.0 0.0 units lattice
        min_style ${style}
        min_style hftn
        minimize ${etol} ${ftol} ${maxiter} ${maxeval}
        minimize 1e-12 ${ftol} ${maxiter} ${maxeval}
        minimize 1e-12 1e-08 ${maxiter} ${maxeval}
        minimize 1e-12 1e-08 10000 ${maxeval}
        minimize 1e-12 1e-08 10000 20000
WARNING: Resetting reneighboring criteria during minimization (../min.cpp:168)
Memory usage per processor = 4.85169 Mbytes
Step Temp PotEng Lx Ly Lz 
     115            0   -241.93497    2.2449075    38.896999    1.1224537 
     116            0   -241.93497    2.2449075    38.896999    1.1224537 
     117            0   -241.93497    2.2449075    38.896999    1.1224537 
Loop time of 0.00606002 on 1 procs for 1 steps with 82 atoms

Minimization stats:
  Stopping criterion = force tolerance
  Energy initial, next-to-last, final = 
         -241.93497126      -241.93497126     -241.934973308
  Force two-norm initial, final = 0.027178 1.88311e-09
  Force max component initial, final = 0.013589 9.6386e-10
  Final line search alpha, max atom move = 0 0
  Iterations, force evaluations = 1 140

Pair  time (%) = 0.00217893 (35.9559)
Neigh time (%) = 0 (0)
Comm  time (%) = 0.00322581 (53.2311)
Outpt time (%) = 4.0431e-06 (0.0667177)
Other time (%) = 0.000651229 (10.7463)

Nlocal:    82 ave 82 max 82 min
Histogram: 1 0 0 0 0 0 0 0 0 0
Nghost:    175 ave 175 max 175 min
Histogram: 1 0 0 0 0 0 0 0 0 0
Neighs:    718 ave 718 max 718 min
Histogram: 1 0 0 0 0 0 0 0 0 0

Total # of neighbors = 718
Ave neighs/atom = 8.7561
Neighbor list builds = 0
Dangerous builds = 0
        # write_dump all atom ${dumpfile}
        next i
jump SELF loop1
        displace_atoms upper move ${xstep1} 0.0 0.0 units lattice
        displace_atoms upper move 0.002 0.0 0.0 units lattice
        min_style ${style}
        min_style hftn
        minimize ${etol} ${ftol} ${maxiter} ${maxeval}
        minimize 1e-12 ${ftol} ${maxiter} ${maxeval}
        minimize 1e-12 1e-08 ${maxiter} ${maxeval}
        minimize 1e-12 1e-08 10000 ${maxeval}
        minimize 1e-12 1e-08 10000 20000
WARNING: Resetting reneighboring criteria during minimization (../min.cpp:168)
Memory usage per processor = 4.85169 Mbytes
Step Temp PotEng Lx Ly Lz 
     117            0   -241.93145    2.2449075    38.897369    1.1224537 
     118            0   -241.93145    2.2449075    38.897369    1.1224537 
     119            0   -241.93145    2.2449075    38.897369    1.1224537 
Loop time of 0.00382688 on 1 procs for 1 steps with 82 atoms

Minimization stats:
  Stopping criterion = force tolerance
  Energy initial, next-to-last, final = 
        -241.931448424     -241.931448424     -241.931450315
  Force two-norm initial, final = 0.027913 2.25909e-09
  Force max component initial, final = 0.0139565 9.72134e-10
  Final line search alpha, max atom move = 0 0
  Iterations, force evaluations = 1 140

Pair  time (%) = 0.0029104 (76.0513)
Neigh time (%) = 0 (0)
Comm  time (%) = 0.000169754 (4.43582)
Outpt time (%) = 4.00464e-05 (1.04645)
Other time (%) = 0.000706688 (18.4664)

Nlocal:    82 ave 82 max 82 min
Histogram: 1 0 0 0 0 0 0 0 0 0
Nghost:    175 ave 175 max 175 min
Histogram: 1 0 0 0 0 0 0 0 0 0
Neighs:    718 ave 718 max 718 min
Histogram: 1 0 0 0 0 0 0 0 0 0

Total # of neighbors = 718
Ave neighs/atom = 8.7561
Neighbor list builds = 0
Dangerous builds = 0
        # write_dump all atom ${dumpfile}
        next i
jump SELF loop1
        displace_atoms upper move ${xstep1} 0.0 0.0 units lattice
        displace_atoms upper move 0.002 0.0 0.0 units lattice
        min_style ${style}
        min_style hftn
        minimize ${etol} ${ftol} ${maxiter} ${maxeval}
        minimize 1e-12 ${ftol} ${maxiter} ${maxeval}
        minimize 1e-12 1e-08 ${maxiter} ${maxeval}
        minimize 1e-12 1e-08 10000 ${maxeval}
        minimize 1e-12 1e-08 10000 20000
WARNING: Resetting reneighboring criteria during minimization (../min.cpp:168)
Memory usage per processor = 4.85169 Mbytes
Step Temp PotEng Lx Ly Lz 
     119            0   -241.92785    2.2449075    38.897749    1.1224537 
     120            0   -241.92785    2.2449075    38.897749    1.1224537 
     121            0   -241.92785    2.2449075    38.897749    1.1224537 
Loop time of 0.00326695 on 1 procs for 1 steps with 82 atoms

Minimization stats:
  Stopping criterion = force tolerance
  Energy initial, next-to-last, final = 
        -241.927847062     -241.927847062     -241.927850953
  Force two-norm initial, final = 0.0286506 2.33245e-09
  Force max component initial, final = 0.0143253 1.03617e-09
  Final line search alpha, max atom move = 0 0
  Iterations, force evaluations = 1 140

Pair  time (%) = 0.0023433 (71.7276)
Neigh time (%) = 0 (0)
Comm  time (%) = 0.000186334 (5.70361)
Outpt time (%) = 4.29031e-05 (1.31325)
Other time (%) = 0.000694408 (21.2556)

Nlocal:    82 ave 82 max 82 min
Histogram: 1 0 0 0 0 0 0 0 0 0
Nghost:    175 ave 175 max 175 min
Histogram: 1 0 0 0 0 0 0 0 0 0
Neighs:    718 ave 718 max 718 min
Histogram: 1 0 0 0 0 0 0 0 0 0

Total # of neighbors = 718
Ave neighs/atom = 8.7561
Neighbor list builds = 0
Dangerous builds = 0
        # write_dump all atom ${dumpfile}
        next i
jump SELF loop1
        displace_atoms upper move ${xstep1} 0.0 0.0 units lattice
        displace_atoms upper move 0.002 0.0 0.0 units lattice
        min_style ${style}
        min_style hftn
        minimize ${etol} ${ftol} ${maxiter} ${maxeval}
        minimize 1e-12 ${ftol} ${maxiter} ${maxeval}
        minimize 1e-12 1e-08 ${maxiter} ${maxeval}
        minimize 1e-12 1e-08 10000 ${maxeval}
        minimize 1e-12 1e-08 10000 20000
WARNING: Resetting reneighboring criteria during minimization (../min.cpp:168)
Memory usage per processor = 4.85169 Mbytes
Step Temp PotEng Lx Ly Lz 
     121            0   -241.92417    2.2449075    38.898138    1.1224537 
     122            0   -241.92418    2.2449075    38.898138    1.1224537 
     123            0   -241.92418    2.2449075    38.898138    1.1224537 
Loop time of 0.00378289 on 1 procs for 1 steps with 82 atoms

Minimization stats:
  Stopping criterion = force tolerance
  Energy initial, next-to-last, final = 
        -241.924171081     -241.924171081     -241.924176471
  Force two-norm initial, final = 0.0293736 3.58442e-09
  Force max component initial, final = 0.0146868 1.77428e-09
  Final line search alpha, max atom move = 0 0
  Iterations, force evaluations = 1 138

Pair  time (%) = 0.00233943 (61.8425)
Neigh time (%) = 0 (0)
Comm  time (%) = 0.000288521 (7.627)
Outpt time (%) = 4.29376e-05 (1.13505)
Other time (%) = 0.001112 (29.3955)

Nlocal:    82 ave 82 max 82 min
Histogram: 1 0 0 0 0 0 0 0 0 0
Nghost:    175 ave 175 max 175 min
Histogram: 1 0 0 0 0 0 0 0 0 0
Neighs:    718 ave 718 max 718 min
Histogram: 1 0 0 0 0 0 0 0 0 0

Total # of neighbors = 718
Ave neighs/atom = 8.7561
Neighbor list builds = 0
Dangerous builds = 0
        # write_dump all atom ${dumpfile}
        next i
jump SELF loop1
        displace_atoms upper move ${xstep1} 0.0 0.0 units lattice
        displace_atoms upper move 0.002 0.0 0.0 units lattice
        min_style ${style}
        min_style hftn
        minimize ${etol} ${ftol} ${maxiter} ${maxeval}
        minimize 1e-12 ${ftol} ${maxiter} ${maxeval}
        minimize 1e-12 1e-08 ${maxiter} ${maxeval}
        minimize 1e-12 1e-08 10000 ${maxeval}
        minimize 1e-12 1e-08 10000 20000
WARNING: Resetting reneighboring criteria during minimization (../min.cpp:168)
Memory usage per processor = 4.85169 Mbytes
Step Temp PotEng Lx Ly Lz 
     123            0   -241.92042    2.2449075    38.898537    1.1224537 
     124            0   -241.92043    2.2449075    38.898537    1.1224537 
     125            0   -241.92043    2.2449075    38.898537    1.1224537 
Loop time of 0.00310799 on 1 procs for 1 steps with 82 atoms

Minimization stats:
  Stopping criterion = force tolerance
  Energy initial, next-to-last, final = 
        -241.920421818     -241.920421818     -241.920426769
  Force two-norm initial, final = 0.0300808 3.7575e-09
  Force max component initial, final = 0.0150404 1.85949e-09
  Final line search alpha, max atom move = 0 0
  Iterations, force evaluations = 1 138

Pair  time (%) = 0.00215338 (69.2853)
Neigh time (%) = 0 (0)
Comm  time (%) = 0.000166635 (5.36149)
Outpt time (%) = 1.18845e-05 (0.382385)
Other time (%) = 0.000776092 (24.9709)

Nlocal:    82 ave 82 max 82 min
Histogram: 1 0 0 0 0 0 0 0 0 0
Nghost:    175 ave 175 max 175 min
Histogram: 1 0 0 0 0 0 0 0 0 0
Neighs:    718 ave 718 max 718 min
Histogram: 1 0 0 0 0 0 0 0 0 0

Total # of neighbors = 718
Ave neighs/atom = 8.7561
Neighbor list builds = 0
Dangerous builds = 0
        # write_dump all atom ${dumpfile}
        next i
jump SELF loop1
        displace_atoms upper move ${xstep1} 0.0 0.0 units lattice
        displace_atoms upper move 0.002 0.0 0.0 units lattice
        min_style ${style}
        min_style hftn
        minimize ${etol} ${ftol} ${maxiter} ${maxeval}
        minimize 1e-12 ${ftol} ${maxiter} ${maxeval}
        minimize 1e-12 1e-08 ${maxiter} ${maxeval}
        minimize 1e-12 1e-08 10000 ${maxeval}
        minimize 1e-12 1e-08 10000 20000
WARNING: Resetting reneighboring criteria during minimization (../min.cpp:168)
Memory usage per processor = 4.85169 Mbytes
Step Temp PotEng Lx Ly Lz 
     125            0    -241.9166    2.2449075    38.898945    1.1224537 
     126            0    -241.9166    2.2449075    38.898945    1.1224537 
     127            0    -241.9166    2.2449075    38.898945    1.1224537 
Loop time of 0.0029371 on 1 procs for 1 steps with 82 atoms

Minimization stats:
  Stopping criterion = force tolerance
  Energy initial, next-to-last, final = 
        -241.916600535     -241.916600535     -241.916604622
  Force two-norm initial, final = 0.0307537 3.9296e-09
  Force max component initial, final = 0.0153768 1.94051e-09
  Final line search alpha, max atom move = 0 0
  Iterations, force evaluations = 1 138

Pair  time (%) = 0.00206364 (70.261)
Neigh time (%) = 0 (0)
Comm  time (%) = 0.000246624 (8.39686)
Outpt time (%) = 1.10943e-05 (0.377728)
Other time (%) = 0.000615746 (20.9644)

Nlocal:    82 ave 82 max 82 min
Histogram: 1 0 0 0 0 0 0 0 0 0
Nghost:    175 ave 175 max 175 min
Histogram: 1 0 0 0 0 0 0 0 0 0
Neighs:    718 ave 718 max 718 min
Histogram: 1 0 0 0 0 0 0 0 0 0

Total # of neighbors = 718
Ave neighs/atom = 8.7561
Neighbor list builds = 0
Dangerous builds = 0
        # write_dump all atom ${dumpfile}
        next i
jump SELF loop1
        displace_atoms upper move ${xstep1} 0.0 0.0 units lattice
        displace_atoms upper move 0.002 0.0 0.0 units lattice
        min_style ${style}
        min_style hftn
        minimize ${etol} ${ftol} ${maxiter} ${maxeval}
        minimize 1e-12 ${ftol} ${maxiter} ${maxeval}
        minimize 1e-12 1e-08 ${maxiter} ${maxeval}
        minimize 1e-12 1e-08 10000 ${maxeval}
        minimize 1e-12 1e-08 10000 20000
WARNING: Resetting reneighboring criteria during minimization (../min.cpp:168)
Memory usage per processor = 4.85169 Mbytes
Step Temp PotEng Lx Ly Lz 
     127            0   -241.91271    2.2449075    38.899363    1.1224537 
[...]

Pair  time (%) = 0.00235786 (72.8191)
Neigh time (%) = 0 (0)
Comm  time (%) = 0.000235246 (7.26522)
Outpt time (%) = 4.58042e-05 (1.41459)
Other time (%) = 0.000599062 (18.5011)

Nlocal:    82 ave 82 max 82 min
Histogram: 1 0 0 0 0 0 0 0 0 0
Nghost:    185 ave 185 max 185 min
Histogram: 1 0 0 0 0 0 0 0 0 0
Neighs:    718 ave 718 max 718 min
Histogram: 1 0 0 0 0 0 0 0 0 0

Total # of neighbors = 718
Ave neighs/atom = 8.7561
Neighbor list builds = 0
Dangerous builds = 0
        # write_dump all atom ${dumpfile}
        next i
jump SELF loop1
        displace_atoms upper move ${xstep1} 0.0 0.0 units lattice
        displace_atoms upper move 0.002 0.0 0.0 units lattice
        min_style ${style}
        min_style hftn
        minimize ${etol} ${ftol} ${maxiter} ${maxeval}
        minimize 1e-12 ${ftol} ${maxiter} ${maxeval}
        minimize 1e-12 1e-08 ${maxiter} ${maxeval}
        minimize 1e-12 1e-08 10000 ${maxeval}
        minimize 1e-12 1e-08 10000 20000
WARNING: Resetting reneighboring criteria during minimization (../min.cpp:168)
Memory usage per processor = 4.85169 Mbytes
Step Temp PotEng Lx Ly Lz 
    2832            0   -241.99702    2.2449075    38.892423    1.1224537 
    2833            0   -241.99702    2.2449075    38.892423    1.1224537 
    2834            0   -241.99702    2.2449075    38.892423    1.1224537 
    2835            0   -241.99702    2.2449075    38.892423    1.1224537 
    2836            0   -241.99702    2.2449075    38.892423    1.1224537 
    2837            0   -241.99702    2.2449075    38.892423    1.1224537 
    2838            0   -241.99702    2.2449075    38.892423    1.1224537 
    2839            0   -241.99702    2.2449075    38.892423    1.1224537 
    2840            0   -241.99702    2.2449075    38.892423    1.1224537 
    2841            0   -241.99702    2.2449075    38.892423    1.1224537 
    2842            0   -241.99702    2.2449075    38.892423    1.1224537 
    2843            0   -241.99702    2.2449075    38.892423    1.1224537 
Loop time of 0.00362411 on 1 procs for 10 steps with 82 atoms

Minimization stats:
  Stopping criterion = energy tolerance
  Energy initial, next-to-last, final = 
        -241.997015989      -241.99701599      -241.99701599
  Force two-norm initial, final = 0.0125853 0.0125674
  Force max component initial, final = 0.00627466 0.00626564
  Final line search alpha, max atom move = 0 0
  Iterations, force evaluations = 10 153

Pair  time (%) = 0.0026759 (73.8359)
Neigh time (%) = 0 (0)
Comm  time (%) = 0.000227915 (6.28885)
Outpt time (%) = 8.89424e-05 (2.45418)
Other time (%) = 0.00063136 (17.4211)

Nlocal:    82 ave 82 max 82 min
Histogram: 1 0 0 0 0 0 0 0 0 0
Nghost:    185 ave 185 max 185 min
Histogram: 1 0 0 0 0 0 0 0 0 0
Neighs:    718 ave 718 max 718 min
Histogram: 1 0 0 0 0 0 0 0 0 0

Total # of neighbors = 718
Ave neighs/atom = 8.7561
Neighbor list builds = 0
Dangerous builds = 0
        # write_dump all atom ${dumpfile}
        next i
jump SELF loop1
        displace_atoms upper move ${xstep1} 0.0 0.0 units lattice
        displace_atoms upper move 0.002 0.0 0.0 units lattice
        min_style ${style}
        min_style hftn
        minimize ${etol} ${ftol} ${maxiter} ${maxeval}
        minimize 1e-12 ${ftol} ${maxiter} ${maxeval}
        minimize 1e-12 1e-08 ${maxiter} ${maxeval}
        minimize 1e-12 1e-08 10000 ${maxeval}
        minimize 1e-12 1e-08 10000 20000
WARNING: Resetting reneighboring criteria during minimization (../min.cpp:168)
Memory usage per processor = 4.85169 Mbytes
Step Temp PotEng Lx Ly Lz 
    2843            0   -241.99777    2.2449075    38.892423    1.1224537 
    2844            0   -241.99777    2.2449075    38.892423    1.1224537 
    2845            0   -241.99777    2.2449075    38.892423    1.1224537 
    2846            0   -241.99777    2.2449075    38.892423    1.1224537 
    2847            0   -241.99778    2.2449075    38.892423    1.1224537 
    2848            0   -241.99778    2.2449075    38.892423    1.1224537 
    2849            0   -241.99778    2.2449075    38.892423    1.1224537 
    2850            0   -241.99778    2.2449075    38.892423    1.1224537 
    2851            0   -241.99778    2.2449075    38.892423    1.1224537 
    2852            0   -241.99778    2.2449075    38.892423    1.1224537 
    2853            0   -241.99778    2.2449075    38.892423    1.1224537 
    2854            0   -241.99778    2.2449075    38.892423    1.1224537 
    2855            0   -241.99778    2.2449075    38.892423    1.1224537 
Loop time of 0.00467603 on 1 procs for 11 steps with 82 atoms

Minimization stats:
  Stopping criterion = energy tolerance
  Energy initial, next-to-last, final = 
        -241.997774274     -241.997776914     -241.997777221
  Force two-norm initial, final = 0.0151592 0.00116341
  Force max component initial, final = 0.00756501 0.000338961
  Final line search alpha, max atom move = 0 0
  Iterations, force evaluations = 11 184

Pair  time (%) = 0.00294914 (63.0694)
Neigh time (%) = 0 (0)
Comm  time (%) = 0.000322503 (6.89694)
Outpt time (%) = 8.09941e-05 (1.73211)
Other time (%) = 0.00132339 (28.3015)

Nlocal:    82 ave 82 max 82 min
Histogram: 1 0 0 0 0 0 0 0 0 0
Nghost:    185 ave 185 max 185 min
Histogram: 1 0 0 0 0 0 0 0 0 0
Neighs:    718 ave 718 max 718 min
Histogram: 1 0 0 0 0 0 0 0 0 0

Total # of neighbors = 718
Ave neighs/atom = 8.7561
Neighbor list builds = 0
Dangerous builds = 0
        # write_dump all atom ${dumpfile}
        next i
jump SELF loop1
        displace_atoms upper move ${xstep1} 0.0 0.0 units lattice
        displace_atoms upper move 0.002 0.0 0.0 units lattice
        min_style ${style}
        min_style hftn
        minimize ${etol} ${ftol} ${maxiter} ${maxeval}
        minimize 1e-12 ${ftol} ${maxiter} ${maxeval}
        minimize 1e-12 1e-08 ${maxiter} ${maxeval}
        minimize 1e-12 1e-08 10000 ${maxeval}
        minimize 1e-12 1e-08 10000 20000
WARNING: Resetting reneighboring criteria during minimization (../min.cpp:168)
Memory usage per processor = 4.85169 Mbytes
Step Temp PotEng Lx Ly Lz 
    2855            0   -241.99843    2.2449075    38.892235    1.1224537 
    2856            0   -241.99843    2.2449075    38.892235    1.1224537 
    2857            0   -241.99843    2.2449075    38.892235    1.1224537 
    2858            0   -241.99843    2.2449075    38.892235    1.1224537 
    2859            0   -241.99843    2.2449075    38.892235    1.1224537 
    2860            0   -241.99843    2.2449075    38.892235    1.1224537 
    2861            0   -241.99843    2.2449075    38.892235    1.1224537 
Loop time of 0.00226399 on 1 procs for 5 steps with 82 atoms

Minimization stats:
  Stopping criterion = energy tolerance
  Energy initial, next-to-last, final = 
        -241.998426726     -241.998426726     -241.998426767
  Force two-norm initial, final = 0.00198848 0.00095259
  Force max component initial, final = 0.000808252 0.000202997
  Final line search alpha, max atom move = 0 0
  Iterations, force evaluations = 5 72

Pair  time (%) = 0.00163813 (72.3557)
Neigh time (%) = 0 (0)
Comm  time (%) = 0.000156498 (6.91248)
Outpt time (%) = 6.66907e-05 (2.94572)
Other time (%) = 0.000402675 (17.7861)

Nlocal:    82 ave 82 max 82 min
Histogram: 1 0 0 0 0 0 0 0 0 0
Nghost:    185 ave 185 max 185 min
Histogram: 1 0 0 0 0 0 0 0 0 0
Neighs:    718 ave 718 max 718 min
Histogram: 1 0 0 0 0 0 0 0 0 0

Total # of neighbors = 718
Ave neighs/atom = 8.7561
Neighbor list builds = 0
Dangerous builds = 0
        # write_dump all atom ${dumpfile}
        next i
jump SELF loop1
        displace_atoms upper move ${xstep1} 0.0 0.0 units lattice
        displace_atoms upper move 0.002 0.0 0.0 units lattice
        min_style ${style}
        min_style hftn
        minimize ${etol} ${ftol} ${maxiter} ${maxeval}
        minimize 1e-12 ${ftol} ${maxiter} ${maxeval}
        minimize 1e-12 1e-08 ${maxiter} ${maxeval}
        minimize 1e-12 1e-08 10000 ${maxeval}
        minimize 1e-12 1e-08 10000 20000
WARNING: Resetting reneighboring criteria during minimization (../min.cpp:168)
Memory usage per processor = 4.85169 Mbytes
Step Temp PotEng Lx Ly Lz 
    2861            0   -241.99897    2.2449075    38.892233    1.1224537 
    2862            0   -241.99897    2.2449075    38.892233    1.1224537 
    2863            0   -241.99897    2.2449075    38.892233    1.1224537 
    2864            0   -241.99897    2.2449075    38.892233    1.1224537 
    2865            0   -241.99897    2.2449075    38.892233    1.1224537 
    2866            0   -241.99897    2.2449075    38.892233    1.1224537 
    2867            0   -241.99897    2.2449075    38.892233    1.1224537 
    2868            0   -241.99897    2.2449075    38.892233    1.1224537 
    2869            0   -241.99897    2.2449075    38.892233    1.1224537 
    2870            0   -241.99897    2.2449075    38.892233    1.1224537 
Loop time of 0.00182802 on 1 procs for 8 steps with 82 atoms

Minimization stats:
  Stopping criterion = energy tolerance
  Energy initial, next-to-last, final = 
        -241.998969103     -241.998969103     -241.998969102
  Force two-norm initial, final = 0.00138643 0.00138609
  Force max component initial, final = 0.000544081 0.000543873
  Final line search alpha, max atom move = 0 0
  Iterations, force evaluations = 8 83

Pair  time (%) = 0.00138705 (75.8773)
Neigh time (%) = 0 (0)
Comm  time (%) = 0.000103196 (5.64522)
Outpt time (%) = 3.30721e-05 (1.80918)
Other time (%) = 0.0003047 (16.6683)

Nlocal:    82 ave 82 max 82 min
Histogram: 1 0 0 0 0 0 0 0 0 0
Nghost:    185 ave 185 max 185 min
Histogram: 1 0 0 0 0 0 0 0 0 0
Neighs:    718 ave 718 max 718 min
Histogram: 1 0 0 0 0 0 0 0 0 0

Total # of neighbors = 718
Ave neighs/atom = 8.7561
Neighbor list builds = 0
Dangerous builds = 0
        # write_dump all atom ${dumpfile}
        next i
jump SELF loop1
        displace_atoms upper move ${xstep1} 0.0 0.0 units lattice
        displace_atoms upper move 0.002 0.0 0.0 units lattice
        min_style ${style}
        min_style hftn
        minimize ${etol} ${ftol} ${maxiter} ${maxeval}
        minimize 1e-12 ${ftol} ${maxiter} ${maxeval}
        minimize 1e-12 1e-08 ${maxiter} ${maxeval}
        minimize 1e-12 1e-08 10000 ${maxeval}
        minimize 1e-12 1e-08 10000 20000
WARNING: Resetting reneighboring criteria during minimization (../min.cpp:168)
Memory usage per processor = 4.85169 Mbytes
Step Temp PotEng Lx Ly Lz 
    2870            0    -241.9994    2.2449075    38.892233    1.1224537 
    2871            0    -241.9994    2.2449075    38.892233    1.1224537 
    2872            0    -241.9994    2.2449075    38.892233    1.1224537 
    2873            0    -241.9994    2.2449075    38.892233    1.1224537 
    2874            0    -241.9994    2.2449075    38.892233    1.1224537 
    2875            0    -241.9994    2.2449075    38.892233    1.1224537 
    2876            0    -241.9994    2.2449075    38.892233    1.1224537 
    2877            0    -241.9994    2.2449075    38.892233    1.1224537 
    2878            0    -241.9994    2.2449075    38.892233    1.1224537 
    2879            0    -241.9994    2.2449075    38.892233    1.1224537 
Loop time of 0.00341189 on 1 procs for 8 steps with 82 atoms

Minimization stats:
  Stopping criterion = energy tolerance
  Energy initial, next-to-last, final = 
        -241.999400117     -241.999400117     -241.999400116
  Force two-norm initial, final = 0.00361719 0.00361632
  Force max component initial, final = 0.00175798 0.00175753
  Final line search alpha, max atom move = 0 0
  Iterations, force evaluations = 8 153

Pair  time (%) = 0.00252238 (73.9291)
Neigh time (%) = 0 (0)
Comm  time (%) = 0.000200412 (5.87393)
Outpt time (%) = 5.88185e-05 (1.72393)
Other time (%) = 0.00063028 (18.473)

Nlocal:    82 ave 82 max 82 min
Histogram: 1 0 0 0 0 0 0 0 0 0
Nghost:    185 ave 185 max 185 min
Histogram: 1 0 0 0 0 0 0 0 0 0
Neighs:    718 ave 718 max 718 min
Histogram: 1 0 0 0 0 0 0 0 0 0

Total # of neighbors = 718
Ave neighs/atom = 8.7561
Neighbor list builds = 0
Dangerous builds = 0
        # write_dump all atom ${dumpfile}
        next i
jump SELF loop1
        displace_atoms upper move ${xstep1} 0.0 0.0 units lattice
        displace_atoms upper move 0.002 0.0 0.0 units lattice
        min_style ${style}
        min_style hftn
        minimize ${etol} ${ftol} ${maxiter} ${maxeval}
        minimize 1e-12 ${ftol} ${maxiter} ${maxeval}
        minimize 1e-12 1e-08 ${maxiter} ${maxeval}
        minimize 1e-12 1e-08 10000 ${maxeval}
        minimize 1e-12 1e-08 10000 20000
WARNING: Resetting reneighboring criteria during minimization (../min.cpp:168)
Memory usage per processor = 4.85169 Mbytes
Step Temp PotEng Lx Ly Lz 
    2879            0   -241.99971    2.2449075    38.892233    1.1224537 
    2880            0   -241.99971    2.2449075    38.892233    1.1224537 
    2881            0   -241.99971    2.2449075    38.892233    1.1224537 
    2882            0   -241.99971    2.2449075    38.892233    1.1224537 
    2883            0   -241.99971    2.2449075    38.892233    1.1224537 
    2884            0   -241.99971    2.2449075    38.892233    1.1224537 
    2885            0   -241.99971    2.2449075    38.892233    1.1224537 
    2886            0   -241.99971    2.2449075    38.892233    1.1224537 
    2887            0   -241.99971    2.2449075    38.892233    1.1224537 
    2888            0   -241.99971    2.2449075    38.892233    1.1224537 
Loop time of 0.00342892 on 1 procs for 8 steps with 82 atoms

Minimization stats:
  Stopping criterion = energy tolerance
  Energy initial, next-to-last, final = 
        -241.999709088     -241.999709088     -241.999709088
  Force two-norm initial, final = 0.00614549 0.00614454
  Force max component initial, final = 0.00304392 0.00304343
  Final line search alpha, max atom move = 0 0
  Iterations, force evaluations = 8 155

Pair  time (%) = 0.00256391 (74.7731)
Neigh time (%) = 0 (0)
Comm  time (%) = 0.000199067 (5.80553)
Outpt time (%) = 4.88956e-05 (1.42598)
Other time (%) = 0.000617047 (17.9954)

Nlocal:    82 ave 82 max 82 min
Histogram: 1 0 0 0 0 0 0 0 0 0
Nghost:    185 ave 185 max 185 min
Histogram: 1 0 0 0 0 0 0 0 0 0
Neighs:    718 ave 718 max 718 min
Histogram: 1 0 0 0 0 0 0 0 0 0

Total # of neighbors = 718
Ave neighs/atom = 8.7561
Neighbor list builds = 0
Dangerous builds = 0
        # write_dump all atom ${dumpfile}
        next i
jump SELF loop1
        displace_atoms upper move ${xstep1} 0.0 0.0 units lattice
        displace_atoms upper move 0.002 0.0 0.0 units lattice
        min_style ${style}
        min_style hftn
        minimize ${etol} ${ftol} ${maxiter} ${maxeval}
        minimize 1e-12 ${ftol} ${maxiter} ${maxeval}
        minimize 1e-12 1e-08 ${maxiter} ${maxeval}
        minimize 1e-12 1e-08 10000 ${maxeval}
        minimize 1e-12 1e-08 10000 20000
WARNING: Resetting reneighboring criteria during minimization (../min.cpp:168)
Memory usage per processor = 4.85169 Mbytes
Step Temp PotEng Lx Ly Lz 
    2888            0   -241.99989    2.2449075    38.892233    1.1224537 
    2889            0   -241.99989    2.2449075    38.892233    1.1224537 
    2890            0   -241.99989    2.2449075    38.892233    1.1224537 
    2891            0   -241.99989    2.2449075    38.892233    1.1224537 
    2892            0   -241.99989    2.2449075    38.892233    1.1224537 
    2893            0   -241.99989    2.2449075    38.892233    1.1224537 
    2894            0   -241.99989    2.2449075    38.892233    1.1224537 
    2895            0   -241.99989    2.2449075    38.892233    1.1224537 
    2896            0   -241.99989    2.2449075    38.892233    1.1224537 
    2897            0   -241.99989    2.2449075    38.892233    1.1224537 
    2898            0   -241.99989    2.2449075    38.892233    1.1224537 
    2899            0   -241.99989    2.2449075    38.892233    1.1224537 
    2900            0   -241.99989    2.2449075    38.892233    1.1224537 
Loop time of 0.00337892 on 1 procs for 11 steps with 82 atoms

Minimization stats:
  Stopping criterion = energy tolerance
  Energy initial, next-to-last, final = 
        -241.999894302     -241.999894392     -241.999894392
  Force two-norm initial, final = 0.00767428 0.00331871
  Force max component initial, final = 0.00381443 0.00143526
  Final line search alpha, max atom move = 0 0
  Iterations, force evaluations = 11 170

Pair  time (%) = 0.0025101 (74.287)
Neigh time (%) = 0 (0)
Comm  time (%) = 0.000193 (5.71188)
Outpt time (%) = 4.4142e-05 (1.3064)
Other time (%) = 0.00063168 (18.6948)

Nlocal:    82 ave 82 max 82 min
Histogram: 1 0 0 0 0 0 0 0 0 0
Nghost:    185 ave 185 max 185 min
Histogram: 1 0 0 0 0 0 0 0 0 0
Neighs:    718 ave 718 max 718 min
Histogram: 1 0 0 0 0 0 0 0 0 0

Total # of neighbors = 718
Ave neighs/atom = 8.7561
Neighbor list builds = 0
Dangerous builds = 0
        # write_dump all atom ${dumpfile}
        next i
jump SELF loop1
        displace_atoms upper move ${xstep1} 0.0 0.0 units lattice
        displace_atoms upper move 0.002 0.0 0.0 units lattice
        min_style ${style}
        min_style hftn
        minimize ${etol} ${ftol} ${maxiter} ${maxeval}
        minimize 1e-12 ${ftol} ${maxiter} ${maxeval}
        minimize 1e-12 1e-08 ${maxiter} ${maxeval}
        minimize 1e-12 1e-08 10000 ${maxeval}
        minimize 1e-12 1e-08 10000 20000
WARNING: Resetting reneighboring criteria during minimization (../min.cpp:168)
Memory usage per processor = 4.85169 Mbytes
Step Temp PotEng Lx Ly Lz 
    2900            0   -241.99996    2.2449075    38.892232    1.1224537 
    2901            0   -241.99996    2.2449075    38.892232    1.1224537 
    2902            0   -241.99996    2.2449075    38.892232    1.1224537 
    2903            0   -241.99996    2.2449075    38.892232    1.1224537 
    2904            0   -241.99996    2.2449075    38.892232    1.1224537 
    2905            0   -241.99996    2.2449075    38.892232    1.1224537 
    2906            0   -241.99996    2.2449075    38.892232    1.1224537 
    2907            0   -241.99996    2.2449075    38.892232    1.1224537 
    2908            0   -241.99996    2.2449075    38.892232    1.1224537 
    2909            0   -241.99996    2.2449075    38.892232    1.1224537 
    2910            0   -241.99996    2.2449075    38.892232    1.1224537 
    2911            0   -241.99996    2.2449075    38.892232    1.1224537 
    2912            0   -241.99996    2.2449075    38.892232    1.1224537 
    2913            0   -241.99996    2.2449075    38.892232    1.1224537 
    2914            0   -241.99996    2.2449075    38.892232    1.1224537 
    2915            0   -241.99996    2.2449075    38.892232    1.1224537 
    2916            0   -241.99996    2.2449075    38.892232    1.1224537 
    2917            0   -241.99996    2.2449075    38.892232    1.1224537 
    2918            0   -241.99996    2.2449075    38.892232    1.1224537 
Loop time of 0.00597506 on 1 procs for 17 steps with 82 atoms

Minimization stats:
  Stopping criterion = energy tolerance
  Energy initial, next-to-last, final = 
        -241.999956093     -241.999958893     -241.999958912
  Force two-norm initial, final = 0.00377118 0.000693894
  Force max component initial, final = 0.00169201 0.000105078
  Final line search alpha, max atom move = 0 0
  Iterations, force evaluations = 17 236

Pair  time (%) = 0.00405286 (67.8296)
Neigh time (%) = 0 (0)
Comm  time (%) = 0.00033668 (5.63476)
Outpt time (%) = 0.00012213 (2.044)
Other time (%) = 0.00146339 (24.4916)

Nlocal:    82 ave 82 max 82 min
Histogram: 1 0 0 0 0 0 0 0 0 0
Nghost:    185 ave 185 max 185 min
Histogram: 1 0 0 0 0 0 0 0 0 0
Neighs:    718 ave 718 max 718 min
Histogram: 1 0 0 0 0 0 0 0 0 0

Total # of neighbors = 718
Ave neighs/atom = 8.7561
Neighbor list builds = 0
Dangerous builds = 0
        # write_dump all atom ${dumpfile}
        next i
jump SELF loop1


