LAMMPS (28 Jun 2014)
# attempt at getting generalized stacking fault (GSF) energy curve

#file prefix
variable prefix string gsf_V_brittlenewlarge
variable dumpfile string ${prefix}.*.dump
variable dumpfile string gsf_V_brittlenewlarge.*.dump
variable restartfile string ${prefix}.*.equil
variable restartfile string gsf_V_brittlenewlarge.*.equil

#Mass (g/mol)
variable m equal 1

# lattice constant (in Angstroms) and orientation of axes (given by lattice vectors)
variable rho equal 0.9165
variable x1 equal 1
variable x2 equal 0
variable x3 equal 0
variable y1 equal 0
variable y2 equal 1
variable y3 equal 0
# length of lattice in different directions (using orientation of lattice vectors)
variable ax equal sqrt(${x1}*${x1}+${x2}*${x2}+${x3}*${x3})
variable ax equal sqrt(1*${x1}+${x2}*${x2}+${x3}*${x3})
variable ax equal sqrt(1*1+${x2}*${x2}+${x3}*${x3})
variable ax equal sqrt(1*1+0*${x2}+${x3}*${x3})
variable ax equal sqrt(1*1+0*0+${x3}*${x3})
variable ax equal sqrt(1*1+0*0+0*${x3})
variable ax equal sqrt(1*1+0*0+0*0)
variable ay equal sqrt(${y1}*${y1}+${y2}*${y2}+${y3}*${y3})
variable ay equal sqrt(0*${y1}+${y2}*${y2}+${y3}*${y3})
variable ay equal sqrt(0*0+${y2}*${y2}+${y3}*${y3})
variable ay equal sqrt(0*0+1*${y2}+${y3}*${y3})
variable ay equal sqrt(0*0+1*1+${y3}*${y3})
variable ay equal sqrt(0*0+1*1+0*${y3})
variable ay equal sqrt(0*0+1*1+0*0)
variable az equal 1

# size of box in lattice units
variable lxpos equal 1
variable lxneg equal -1*${lxpos}
variable lxneg equal -1*1
variable lypos equal 20
variable lyneg equal -1*${lypos}
variable lyneg equal -1*20
variable lzpos equal 0
variable lzneg equal -1

# Define minimization parameters and damping
variable etol equal 1.0e-12
variable ftol equal 1.0e-8
variable maxiter equal 10000
variable maxeval equal 20000
variable style string cg

# boundary conditions
dimension	2
boundary	p s p
atom_style	atomic

# create geometry
units		lj
lattice         hex ${rho}
lattice         hex 0.9165
Lattice spacing in x,y,z = 1.12245 1.94415 1.12245
region		myregion block ${lxneg} ${lxpos} ${lyneg} ${lypos} ${lzneg} ${lzpos} units lattice
region		myregion block -1 ${lxpos} ${lyneg} ${lypos} ${lzneg} ${lzpos} units lattice
region		myregion block -1 1 ${lyneg} ${lypos} ${lzneg} ${lzpos} units lattice
region		myregion block -1 1 -20 ${lypos} ${lzneg} ${lzpos} units lattice
region		myregion block -1 1 -20 20 ${lzneg} ${lzpos} units lattice
region		myregion block -1 1 -20 20 -1 ${lzpos} units lattice
region		myregion block -1 1 -20 20 -1 0 units lattice
create_box	3 myregion
Created orthogonal box = (-1.12245 -38.8829 -1.12245) to (1.12245 38.8829 0)
  1 by 1 by 1 MPI processor grid
create_atoms	1 box
Created 162 atoms

# define masses
mass * $m
mass * 1

# my fake/morse potential
pair_style      table linear 3001
pair_coeff      * * vpotential_ductilenew dummy
neighbor	0.3 bin
neigh_modify	delay 5

# define groups
region	    upper block INF INF 0.01 ${lypos} INF INF units lattice
region	    upper block INF INF 0.01 20 INF INF units lattice
group		upper region upper
80 atoms in group upper

# Setup output
thermo 1
thermo_style custom step temp pe lx ly lz
thermo_modify norm no

# Compute initial state by relaxing box
min_style ${style}
min_style cg
minimize ${etol} ${ftol} ${maxiter} ${maxeval}
minimize 1e-12 ${ftol} ${maxiter} ${maxeval}
minimize 1e-12 1e-08 ${maxiter} ${maxeval}
minimize 1e-12 1e-08 10000 ${maxeval}
minimize 1e-12 1e-08 10000 20000
WARNING: Resetting reneighboring criteria during minimization (../min.cpp:168)
Memory usage per processor = 3.3526 Mbytes
Step Temp PotEng Lx Ly Lz 
       0            0   -481.99986    2.2449075    77.781429    1.1224537 
       1            0   -481.99986    2.2449075    77.781429    1.1224537 
       2            0   -481.99986    2.2449075    77.781429    1.1224537 
Loop time of 0.000756021 on 1 procs for 2 steps with 162 atoms

Minimization stats:
  Stopping criterion = linesearch alpha is zero
  Energy initial, next-to-last, final = 
        -481.999855989     -481.999858157     -481.999858157
  Force two-norm initial, final = 0.000778805 0.00455994
  Force max component initial, final = 0.000389403 0.00179508
  Final line search alpha, max atom move = 0.000488281 8.76506e-07
  Iterations, force evaluations = 2 16

Pair  time (%) = 0.000588383 (77.8262)
Neigh time (%) = 0 (0)
Comm  time (%) = 3.52428e-05 (4.66161)
Outpt time (%) = 4.18898e-05 (5.54083)
Other time (%) = 9.0506e-05 (11.9714)

Nlocal:    162 ave 162 max 162 min
Histogram: 1 0 0 0 0 0 0 0 0 0
Nghost:    365 ave 365 max 365 min
Histogram: 1 0 0 0 0 0 0 0 0 0
Neighs:    1438 ave 1438 max 1438 min
Histogram: 1 0 0 0 0 0 0 0 0 0

Total # of neighbors = 1438
Ave neighs/atom = 8.87654
Neighbor list builds = 0
Dangerous builds = 0

# don't allow atoms to relax in x-direction
fix 2 all setforce 0.0 NULL 0.0

# GSF energy curve will have 100*2 steps
variable nsteps equal 300
variable sstep1 equal 1.
variable xstep1 equal ${sstep1}/(${ax}*${nsteps})
variable xstep1 equal 1/(${ax}*${nsteps})
variable xstep1 equal 1/(1*${nsteps})
variable xstep1 equal 1/(1*300)

variable i loop ${nsteps}
variable i loop 300
label loop1
        displace_atoms upper move ${xstep1} 0.0 0.0 units lattice
        displace_atoms upper move 0.00333333333333333 0.0 0.0 units lattice
        min_style ${style}
        min_style cg
        minimize ${etol} ${ftol} ${maxiter} ${maxeval}
        minimize 1e-12 ${ftol} ${maxiter} ${maxeval}
        minimize 1e-12 1e-08 ${maxiter} ${maxeval}
        minimize 1e-12 1e-08 10000 ${maxeval}
        minimize 1e-12 1e-08 10000 20000
WARNING: Resetting reneighboring criteria during minimization (../min.cpp:168)
Memory usage per processor = 3.3526 Mbytes
Step Temp PotEng Lx Ly Lz 
       2            0   -481.99969    2.2449075    77.781526    1.1224537 
       3            0   -481.99969    2.2449075    77.781526    1.1224537 
Loop time of 0.000550961 on 1 procs for 1 steps with 162 atoms

Minimization stats:
  Stopping criterion = linesearch alpha is zero
  Energy initial, next-to-last, final = 
        -481.999685693     -481.999685693     -481.999685693
  Force two-norm initial, final = 0.00478129 0.00478129
  Force max component initial, final = 0.00179508 0.00179508
  Final line search alpha, max atom move = 0.000488281 8.76506e-07
  Iterations, force evaluations = 1 12

Pair  time (%) = 0.00043996 (79.8532)
Neigh time (%) = 0 (0)
Comm  time (%) = 2.92102e-05 (5.30169)
Outpt time (%) = 0 (0)
Other time (%) = 8.17911e-05 (14.8452)

Nlocal:    162 ave 162 max 162 min
Histogram: 1 0 0 0 0 0 0 0 0 0
Nghost:    365 ave 365 max 365 min
Histogram: 1 0 0 0 0 0 0 0 0 0
Neighs:    1438 ave 1438 max 1438 min
Histogram: 1 0 0 0 0 0 0 0 0 0

Total # of neighbors = 1438
Ave neighs/atom = 8.87654
Neighbor list builds = 0
Dangerous builds = 0
        # write_dump all atom ${dumpfile}
        next i
jump SELF loop1
        displace_atoms upper move ${xstep1} 0.0 0.0 units lattice
        displace_atoms upper move 0.00333333333333333 0.0 0.0 units lattice
        min_style ${style}
        min_style cg
        minimize ${etol} ${ftol} ${maxiter} ${maxeval}
        minimize 1e-12 ${ftol} ${maxiter} ${maxeval}
        minimize 1e-12 1e-08 ${maxiter} ${maxeval}
        minimize 1e-12 1e-08 10000 ${maxeval}
        minimize 1e-12 1e-08 10000 20000
WARNING: Resetting reneighboring criteria during minimization (../min.cpp:168)
Memory usage per processor = 3.3526 Mbytes
Step Temp PotEng Lx Ly Lz 
       3            0   -481.99917    2.2449075    77.781526    1.1224537 
       4            0   -481.99917    2.2449075    77.781526    1.1224537 
Loop time of 0.000624901 on 1 procs for 1 steps with 162 atoms

Minimization stats:
  Stopping criterion = linesearch alpha is zero
  Energy initial, next-to-last, final = 
        -481.999169806     -481.999169806     -481.999169806
  Force two-norm initial, final = 0.00732734 0.00732734
  Force max component initial, final = 0.00286779 0.00286779
  Final line search alpha, max atom move = 0.00012207 3.50072e-07
  Iterations, force evaluations = 1 14

Pair  time (%) = 0.000497051 (79.5408)
Neigh time (%) = 0 (0)
Comm  time (%) = 3.62721e-05 (5.80446)
Outpt time (%) = 0 (0)
Other time (%) = 9.15779e-05 (14.6548)

Nlocal:    162 ave 162 max 162 min
Histogram: 1 0 0 0 0 0 0 0 0 0
Nghost:    365 ave 365 max 365 min
Histogram: 1 0 0 0 0 0 0 0 0 0
Neighs:    1438 ave 1438 max 1438 min
Histogram: 1 0 0 0 0 0 0 0 0 0

Total # of neighbors = 1438
Ave neighs/atom = 8.87654
Neighbor list builds = 0
Dangerous builds = 0
        # write_dump all atom ${dumpfile}
        next i
jump SELF loop1
        displace_atoms upper move ${xstep1} 0.0 0.0 units lattice
        displace_atoms upper move 0.00333333333333333 0.0 0.0 units lattice
        min_style ${style}
        min_style cg
        minimize ${etol} ${ftol} ${maxiter} ${maxeval}
        minimize 1e-12 ${ftol} ${maxiter} ${maxeval}
        minimize 1e-12 1e-08 ${maxiter} ${maxeval}
        minimize 1e-12 1e-08 10000 ${maxeval}
        minimize 1e-12 1e-08 10000 20000
WARNING: Resetting reneighboring criteria during minimization (../min.cpp:168)
Memory usage per processor = 3.3526 Mbytes
Step Temp PotEng Lx Ly Lz 
       4            0   -481.99831    2.2449075    77.781526    1.1224537 
       5            0   -481.99831    2.2449075    77.781526    1.1224537 
Loop time of 0.000674892 on 1 procs for 1 steps with 162 atoms

Minimization stats:
  Stopping criterion = linesearch alpha is zero
  Energy initial, next-to-last, final = 
        -481.998311948     -481.998311948     -481.998311948
  Force two-norm initial, final = 0.01366 0.01366
  Force max component initial, final = 0.00643821 0.00643821
  Final line search alpha, max atom move = 6.10352e-05 3.92957e-07
  Iterations, force evaluations = 1 15

Pair  time (%) = 0.000545403 (80.8133)
Neigh time (%) = 0 (0)
Comm  time (%) = 3.32909e-05 (4.93278)
Outpt time (%) = 0 (0)
Other time (%) = 9.6199e-05 (14.254)

Nlocal:    162 ave 162 max 162 min
Histogram: 1 0 0 0 0 0 0 0 0 0
Nghost:    365 ave 365 max 365 min
Histogram: 1 0 0 0 0 0 0 0 0 0
Neighs:    1438 ave 1438 max 1438 min
Histogram: 1 0 0 0 0 0 0 0 0 0

Total # of neighbors = 1438
Ave neighs/atom = 8.87654
Neighbor list builds = 0
Dangerous builds = 0
        # write_dump all atom ${dumpfile}
        next i
jump SELF loop1
        displace_atoms upper move ${xstep1} 0.0 0.0 units lattice
        displace_atoms upper move 0.00333333333333333 0.0 0.0 units lattice
        min_style ${style}
        min_style cg
        minimize ${etol} ${ftol} ${maxiter} ${maxeval}
        minimize 1e-12 ${ftol} ${maxiter} ${maxeval}
        minimize 1e-12 1e-08 ${maxiter} ${maxeval}
        minimize 1e-12 1e-08 10000 ${maxeval}
        minimize 1e-12 1e-08 10000 20000
WARNING: Resetting reneighboring criteria during minimization (../min.cpp:168)
Memory usage per processor = 3.3526 Mbytes
Step Temp PotEng Lx Ly Lz 
       5            0   -481.99711    2.2449075    77.781526    1.1224537 
       6            0   -481.99711    2.2449075    77.781526    1.1224537 
Loop time of 0.000767065 on 1 procs for 1 steps with 162 atoms

Minimization stats:
  Stopping criterion = linesearch alpha is zero
  Energy initial, next-to-last, final = 
        -481.997112502     -481.997112502     -481.997112502
  Force two-norm initial, final = 0.0233072 0.0233072
  Force max component initial, final = 0.0114284 0.0114284
  Final line search alpha, max atom move = 1.52588e-05 1.74383e-07
  Iterations, force evaluations = 1 17

Pair  time (%) = 0.000627455 (81.7994)
Neigh time (%) = 0 (0)
Comm  time (%) = 4.01478e-05 (5.23395)
Outpt time (%) = 0 (0)
Other time (%) = 9.94627e-05 (12.9667)

Nlocal:    162 ave 162 max 162 min
Histogram: 1 0 0 0 0 0 0 0 0 0
Nghost:    365 ave 365 max 365 min
Histogram: 1 0 0 0 0 0 0 0 0 0
Neighs:    1438 ave 1438 max 1438 min
Histogram: 1 0 0 0 0 0 0 0 0 0

Total # of neighbors = 1438
Ave neighs/atom = 8.87654
Neighbor list builds = 0
Dangerous builds = 0
        # write_dump all atom ${dumpfile}
        next i
jump SELF loop1
        displace_atoms upper move ${xstep1} 0.0 0.0 units lattice
        displace_atoms upper move 0.00333333333333333 0.0 0.0 units lattice
        min_style ${style}
        min_style cg
        minimize ${etol} ${ftol} ${maxiter} ${maxeval}
        minimize 1e-12 ${ftol} ${maxiter} ${maxeval}
        minimize 1e-12 1e-08 ${maxiter} ${maxeval}
        minimize 1e-12 1e-08 10000 ${maxeval}
        minimize 1e-12 1e-08 10000 20000
WARNING: Resetting reneighboring criteria during minimization (../min.cpp:168)
Memory usage per processor = 3.3526 Mbytes
Step Temp PotEng Lx Ly Lz 
       6            0   -481.99557    2.2449075    77.781526    1.1224537 
       7            0   -481.99557    2.2449075    77.781526    1.1224537 
       8            0   -481.99557    2.2449075    77.781526    1.1224537 
       9            0   -481.99557    2.2449075    77.781526    1.1224537 
Loop time of 0.00151601 on 1 procs for 3 steps with 162 atoms

Minimization stats:
  Stopping criterion = linesearch alpha is zero
  Energy initial, next-to-last, final = 
         -481.99557186     -481.995572727     -481.995572727
  Force two-norm initial, final = 0.0359625 0.0312651
  Force max component initial, final = 0.0178361 0.015482
  Final line search alpha, max atom move = 7.62939e-06 1.18118e-07
  Iterations, force evaluations = 3 42

Pair  time (%) = 0.00123892 (81.7223)
Neigh time (%) = 0 (0)
Comm  time (%) = 7.68619e-05 (5.07001)
Outpt time (%) = 6.70542e-05 (4.42306)
Other time (%) = 0.000133175 (8.78459)

Nlocal:    162 ave 162 max 162 min
Histogram: 1 0 0 0 0 0 0 0 0 0
Nghost:    365 ave 365 max 365 min
Histogram: 1 0 0 0 0 0 0 0 0 0
Neighs:    1438 ave 1438 max 1438 min
Histogram: 1 0 0 0 0 0 0 0 0 0

Total # of neighbors = 1438
Ave neighs/atom = 8.87654
Neighbor list builds = 0
Dangerous builds = 0
        # write_dump all atom ${dumpfile}
        next i
jump SELF loop1
        displace_atoms upper move ${xstep1} 0.0 0.0 units lattice
        displace_atoms upper move 0.00333333333333333 0.0 0.0 units lattice
        min_style ${style}
        min_style cg
        minimize ${etol} ${ftol} ${maxiter} ${maxeval}
        minimize 1e-12 ${ftol} ${maxiter} ${maxeval}
        minimize 1e-12 1e-08 ${maxiter} ${maxeval}
        minimize 1e-12 1e-08 10000 ${maxeval}
        minimize 1e-12 1e-08 10000 20000
WARNING: Resetting reneighboring criteria during minimization (../min.cpp:168)
Memory usage per processor = 3.3526 Mbytes
Step Temp PotEng Lx Ly Lz 
       9            0   -481.99369    2.2449075    77.781523    1.1224537 
      10            0    -481.9937    2.2449075    77.781523    1.1224537 
      11            0    -481.9937    2.2449075    77.781523    1.1224537 
Loop time of 0.00119507 on 1 procs for 2 steps with 162 atoms

Minimization stats:
  Stopping criterion = linesearch alpha is zero
  Energy initial, next-to-last, final = 
        -481.993688446     -481.993695537     -481.993695537
  Force two-norm initial, final = 0.046848 0.0156938
  Force max component initial, final = 0.0233238 0.00704691
  Final line search alpha, max atom move = 3.05176e-05 2.15055e-07
  Iterations, force evaluations = 2 24

Pair  time (%) = 0.00100545 (84.1335)
Neigh time (%) = 0 (0)
Comm  time (%) = 6.40448e-05 (5.3591)
Outpt time (%) = 7.96281e-06 (0.666306)
Other time (%) = 0.000117608 (9.84109)

Nlocal:    162 ave 162 max 162 min
Histogram: 1 0 0 0 0 0 0 0 0 0
Nghost:    365 ave 365 max 365 min
Histogram: 1 0 0 0 0 0 0 0 0 0
Neighs:    1438 ave 1438 max 1438 min
Histogram: 1 0 0 0 0 0 0 0 0 0

Total # of neighbors = 1438
Ave neighs/atom = 8.87654
Neighbor list builds = 0
Dangerous builds = 0
        # write_dump all atom ${dumpfile}
        next i
jump SELF loop1
        displace_atoms upper move ${xstep1} 0.0 0.0 units lattice
        displace_atoms upper move 0.00333333333333333 0.0 0.0 units lattice
        min_style ${style}
        min_style cg
        minimize ${etol} ${ftol} ${maxiter} ${maxeval}
        minimize 1e-12 ${ftol} ${maxiter} ${maxeval}
        minimize 1e-12 1e-08 ${maxiter} ${maxeval}
        minimize 1e-12 1e-08 10000 ${maxeval}
        minimize 1e-12 1e-08 10000 20000
WARNING: Resetting reneighboring criteria during minimization (../min.cpp:168)
Memory usage per processor = 3.3526 Mbytes
Step Temp PotEng Lx Ly Lz 
      11            0   -481.99148    2.2449075    77.781503    1.1224537 
      12            0   -481.99148    2.2449075    77.781503    1.1224537 
      13            0   -481.99148    2.2449075    77.781503    1.1224537 
Loop time of 0.001211 on 1 procs for 2 steps with 162 atoms

Minimization stats:
  Stopping criterion = linesearch alpha is zero
  Energy initial, next-to-last, final = 
        -481.991479045     -481.991479237     -481.991479237
  Force two-norm initial, final = 0.0288861 0.0279066
  Force max component initial, final = 0.0125837 0.0120304
  Final line search alpha, max atom move = 1.52588e-05 1.83569e-07
  Iterations, force evaluations = 2 29

Pair  time (%) = 0.00102363 (84.5275)
Neigh time (%) = 0 (0)
Comm  time (%) = 6.72252e-05 (5.55121)
Outpt time (%) = 8.02474e-06 (0.662654)
Other time (%) = 0.000112122 (9.25863)

Nlocal:    162 ave 162 max 162 min
Histogram: 1 0 0 0 0 0 0 0 0 0
Nghost:    365 ave 365 max 365 min
Histogram: 1 0 0 0 0 0 0 0 0 0
Neighs:    1438 ave 1438 max 1438 min
Histogram: 1 0 0 0 0 0 0 0 0 0

Total # of neighbors = 1438
Ave neighs/atom = 8.87654
Neighbor list builds = 0
Dangerous builds = 0
        # write_dump all atom ${dumpfile}
        next i
jump SELF loop1
        displace_atoms upper move ${xstep1} 0.0 0.0 units lattice
        displace_atoms upper move 0.00333333333333333 0.0 0.0 units lattice
        min_style ${style}
        min_style cg
        minimize ${etol} ${ftol} ${maxiter} ${maxeval}
        minimize 1e-12 ${ftol} ${maxiter} ${maxeval}
        minimize 1e-12 1e-08 ${maxiter} ${maxeval}
        minimize 1e-12 1e-08 10000 ${maxeval}
        minimize 1e-12 1e-08 10000 20000
WARNING: Resetting reneighboring criteria during minimization (../min.cpp:168)
Memory usage per processor = 3.3526 Mbytes
Step Temp PotEng Lx Ly Lz 
      13            0   -481.98892    2.2449075    77.781503    1.1224537 
      14            0   -481.98893    2.2449075    77.781503    1.1224537 
      15            0   -481.98893    2.2449075    77.781503    1.1224537 
      16            0   -481.98893    2.2449075    77.781503    1.1224537 
      17            0   -481.98893    2.2449075    77.781503    1.1224537 
      18            0   -481.98893    2.2449075    77.781503    1.1224537 
Loop time of 0.00554094 on 1 procs for 5 steps with 162 atoms

Minimization stats:
  Stopping criterion = linesearch alpha is zero
  Energy initial, next-to-last, final = 
        -481.988922201     -481.988930874     -481.988930874
  Force two-norm initial, final = 0.0474892 0.0179964
  Force max component initial, final = 0.0226681 0.00742928
  Final line search alpha, max atom move = 3.05176e-05 2.26724e-07
  Iterations, force evaluations = 5 56

Pair  time (%) = 0.00508127 (91.7041)
Neigh time (%) = 0 (0)
Comm  time (%) = 0.00011787 (2.12726)
Outpt time (%) = 0.000103992 (1.87679)
Other time (%) = 0.00023781 (4.29187)

Nlocal:    162 ave 162 max 162 min
Histogram: 1 0 0 0 0 0 0 0 0 0
Nghost:    365 ave 365 max 365 min
Histogram: 1 0 0 0 0 0 0 0 0 0
Neighs:    1438 ave 1438 max 1438 min
Histogram: 1 0 0 0 0 0 0 0 0 0

Total # of neighbors = 1438
Ave neighs/atom = 8.87654
Neighbor list builds = 0
Dangerous builds = 0
        # write_dump all atom ${dumpfile}
        next i
jump SELF loop1
        displace_atoms upper move ${xstep1} 0.0 0.0 units lattice
        displace_atoms upper move 0.00333333333333333 0.0 0.0 units lattice
        min_style ${style}
        min_style cg
        minimize ${etol} ${ftol} ${maxiter} ${maxeval}
        minimize 1e-12 ${ftol} ${maxiter} ${maxeval}
        minimize 1e-12 1e-08 ${maxiter} ${maxeval}
        minimize 1e-12 1e-08 10000 ${maxeval}
        minimize 1e-12 1e-08 10000 20000
WARNING: Resetting reneighboring criteria during minimization (../min.cpp:168)
Memory usage per processor = 3.3526 Mbytes
Step Temp PotEng Lx Ly Lz 
      18            0   -481.98604    2.2449075    77.781494    1.1224537 
      19            0   -481.98605    2.2449075    77.781494    1.1224537 
      20            0   -481.98605    2.2449075    77.781494    1.1224537 
Loop time of 0.00104908 on 1 procs for 2 steps with 162 atoms

Minimization stats:
  Stopping criterion = linesearch alpha is zero
  Energy initial, next-to-last, final = 
        -481.986044791      -481.98605298      -481.98605298
  Force two-norm initial, final = 0.0355695 0.0258083
  Force max component initial, final = 0.0158538 0.00976393
  Final line search alpha, max atom move = 1.52588e-05 1.48986e-07
  Iterations, force evaluations = 2 24

Pair  time (%) = 0.00082665 (78.7977)
Neigh time (%) = 0 (0)
Comm  time (%) = 5.40938e-05 (5.15632)
Outpt time (%) = 3.8075e-05 (3.62938)
Other time (%) = 0.000130259 (12.4166)

Nlocal:    162 ave 162 max 162 min
Histogram: 1 0 0 0 0 0 0 0 0 0
Nghost:    365 ave 365 max 365 min
Histogram: 1 0 0 0 0 0 0 0 0 0
Neighs:    1438 ave 1438 max 1438 min
Histogram: 1 0 0 0 0 0 0 0 0 0

Total # of neighbors = 1438
Ave neighs/atom = 8.87654
Neighbor list builds = 0
Dangerous builds = 0
        # write_dump all atom ${dumpfile}
        next i
jump SELF loop1
        displace_atoms upper move ${xstep1} 0.0 0.0 units lattice
        displace_atoms upper move 0.00333333333333333 0.0 0.0 units lattice
        min_style ${style}
        min_style cg
        minimize ${etol} ${ftol} ${maxiter} ${maxeval}
        minimize 1e-12 ${ftol} ${maxiter} ${maxeval}
        minimize 1e-12 1e-08 ${maxiter} ${maxeval}
        minimize 1e-12 1e-08 10000 ${maxeval}
        minimize 1e-12 1e-08 10000 20000
WARNING: Resetting reneighboring criteria during minimization (../min.cpp:168)
Memory usage per processor = 3.3526 Mbytes
Step Temp PotEng Lx Ly Lz 
      20            0   -481.98291    2.2449075    77.781489    1.1224537 
      21            0   -481.98291    2.2449075    77.781489    1.1224537 
Loop time of 0.00137499 on 1 procs for 1 steps with 162 atoms

Minimization stats:
  Stopping criterion = linesearch alpha is zero
  Energy initial, next-to-last, final = 
        -481.982912373     -481.982912373     -481.982912373
  Force two-norm initial, final = 0.0262448 0.0262448
  Force max component initial, final = 0.00976393 0.00976393
  Final line search alpha, max atom move = 1.52588e-05 1.48986e-07
  Iterations, force evaluations = 1 17

Pair  time (%) = 0.000624751 (45.4366)
Neigh time (%) = 0 (0)
Comm  time (%) = 0.000128669 (9.35781)
Outpt time (%) = 0 (0)
Other time (%) = 0.000621574 (45.2055)

Nlocal:    162 ave 162 max 162 min
Histogram: 1 0 0 0 0 0 0 0 0 0
Nghost:    365 ave 365 max 365 min
Histogram: 1 0 0 0 0 0 0 0 0 0
Neighs:    1438 ave 1438 max 1438 min
Histogram: 1 0 0 0 0 0 0 0 0 0

Total # of neighbors = 1438
Ave neighs/atom = 8.87654
Neighbor list builds = 0
Dangerous builds = 0
        # write_dump all atom ${dumpfile}
        next i
jump SELF loop1
        displace_atoms upper move ${xstep1} 0.0 0.0 units lattice
        displace_atoms upper move 0.00333333333333333 0.0 0.0 units lattice
        min_style ${style}
        min_style cg
        minimize ${etol} ${ftol} ${maxiter} ${maxeval}
        minimize 1e-12 ${ftol} ${maxiter} ${maxeval}
        minimize 1e-12 1e-08 ${maxiter} ${maxeval}
        minimize 1e-12 1e-08 10000 ${maxeval}
        minimize 1e-12 1e-08 10000 20000
WARNING: Resetting reneighboring criteria during minimization (../min.cpp:168)
Memory usage per processor = 3.3526 Mbytes
Step Temp PotEng Lx Ly Lz 
      21            0   -481.97966    2.2449075    77.781489    1.1224537 
      22            0   -481.97966    2.2449075    77.781489    1.1224537 
Loop time of 0.000750002 on 1 procs for 1 steps with 162 atoms

Minimization stats:
  Stopping criterion = linesearch alpha is zero
  Energy initial, next-to-last, final = 
        -481.979655444     -481.979655444     -481.979655444
  Force two-norm initial, final = 0.0297642 0.0297642
  Force max component initial, final = 0.0103087 0.0103087
  Final line search alpha, max atom move = 7.62939e-06 7.86493e-08
  Iterations, force evaluations = 1 18

Pair  time (%) = 0.000639791 (85.3053)
Neigh time (%) = 0 (0)
Comm  time (%) = 4.12379e-05 (5.49838)
Outpt time (%) = 0 (0)
Other time (%) = 6.89724e-05 (9.19629)

Nlocal:    162 ave 162 max 162 min
Histogram: 1 0 0 0 0 0 0 0 0 0
Nghost:    365 ave 365 max 365 min
Histogram: 1 0 0 0 0 0 0 0 0 0
Neighs:    1438 ave 1438 max 1438 min
Histogram: 1 0 0 0 0 0 0 0 0 0

Total # of neighbors = 1438
Ave neighs/atom = 8.87654
Neighbor list builds = 0
Dangerous builds = 0
        # write_dump all atom ${dumpfile}
        next i
jump SELF loop1
        displace_atoms upper move ${xstep1} 0.0 0.0 units lattice
        displace_atoms upper move 0.00333333333333333 0.0 0.0 units lattice
        min_style ${style}
        min_style cg
        minimize ${etol} ${ftol} ${maxiter} ${maxeval}
        minimize 1e-12 ${ftol} ${maxiter} ${maxeval}
        minimize 1e-12 1e-08 ${maxiter} ${maxeval}
        minimize 1e-12 1e-08 10000 ${maxeval}
        minimize 1e-12 1e-08 10000 20000
WARNING: Resetting reneighboring criteria during minimization (../min.cpp:168)
Memory usage per processor = 3.3526 Mbytes
Step Temp PotEng Lx Ly Lz 
      22            0   -481.97628    2.2449075    77.781489    1.1224537 
      23            0   -481.97629    2.2449075    77.781489    1.1224537 
      24            0   -481.97629    2.2449075    77.781489    1.1224537 
      25            0   -481.97629    2.2449075    77.781489    1.1224537 
      26            0   -481.97629    2.2449075    77.781489    1.1224537 
Loop time of 0.00261 on 1 procs for 4 steps with 162 atoms

Minimization stats:
  Stopping criterion = linesearch alpha is zero
  Energy initial, next-to-last, final = 
        -481.976284978     -481.976286984     -481.976286984
  Force two-norm initial, final = 0.03154 0.0158858
  Force max component initial, final = 0.0115536 0.00495688
  Final line search alpha, max atom move = 3.05176e-05 1.51272e-07
  Iterations, force evaluations = 4 50

Pair  time (%) = 0.00165413 (63.3768)
Neigh time (%) = 0 (0)
Comm  time (%) = 0.000732421 (28.0621)
Outpt time (%) = 3.20992e-05 (1.22985)
Other time (%) = 0.000191344 (7.33119)

Nlocal:    162 ave 162 max 162 min
Histogram: 1 0 0 0 0 0 0 0 0 0
Nghost:    365 ave 365 max 365 min
Histogram: 1 0 0 0 0 0 0 0 0 0
Neighs:    1438 ave 1438 max 1438 min
Histogram: 1 0 0 0 0 0 0 0 0 0

Total # of neighbors = 1438
Ave neighs/atom = 8.87654
Neighbor list builds = 0
Dangerous builds = 0
        # write_dump all atom ${dumpfile}
        next i
jump SELF loop1
        displace_atoms upper move ${xstep1} 0.0 0.0 units lattice
        displace_atoms upper move 0.00333333333333333 0.0 0.0 units lattice
        min_style ${style}
        min_style cg
        minimize ${etol} ${ftol} ${maxiter} ${maxeval}
        minimize 1e-12 ${ftol} ${maxiter} ${maxeval}
        minimize 1e-12 1e-08 ${maxiter} ${maxeval}
        minimize 1e-12 1e-08 10000 ${maxeval}
        minimize 1e-12 1e-08 10000 20000
WARNING: Resetting reneighboring criteria during minimization (../min.cpp:168)
Memory usage per processor = 3.3526 Mbytes
Step Temp PotEng Lx Ly Lz 
      26            0    -481.9728    2.2449075    77.781489    1.1224537 
      27            0    -481.9728    2.2449075    77.781489    1.1224537 
Loop time of 0.000574935 on 1 procs for 1 steps with 162 atoms

Minimization stats:
  Stopping criterion = linesearch alpha is zero
  Energy initial, next-to-last, final = 
        -481.972799259     -481.972799259     -481.972799259
  Force two-norm initial, final = 0.0156111 0.0156111
  Force max component initial, final = 0.00495688 0.00495688
  Final line search alpha, max atom move = 3.05176e-05 1.51272e-07
  Iterations, force evaluations = 1 16

Pair  time (%) = 0.000483293 (84.0606)
Neigh time (%) = 0 (0)
Comm  time (%) = 3.20154e-05 (5.56852)
Outpt time (%) = 0 (0)
Other time (%) = 5.96261e-05 (10.3709)

Nlocal:    162 ave 162 max 162 min
Histogram: 1 0 0 0 0 0 0 0 0 0
Nghost:    365 ave 365 max 365 min
Histogram: 1 0 0 0 0 0 0 0 0 0
Neighs:    1438 ave 1438 max 1438 min
Histogram: 1 0 0 0 0 0 0 0 0 0

Total # of neighbors = 1438
Ave neighs/atom = 8.87654
Neighbor list builds = 0
Dangerous builds = 0
        # write_dump all atom ${dumpfile}
        next i
jump SELF loop1
        displace_atoms upper move ${xstep1} 0.0 0.0 units lattice
        displace_atoms upper move 0.00333333333333333 0.0 0.0 units lattice
        min_style ${style}
        min_style cg
        minimize ${etol} ${ftol} ${maxiter} ${maxeval}
        minimize 1e-12 ${ftol} ${maxiter} ${maxeval}
        minimize 1e-12 1e-08 ${maxiter} ${maxeval}
        minimize 1e-12 1e-08 10000 ${maxeval}
        minimize 1e-12 1e-08 10000 20000
WARNING: Resetting reneighboring criteria during minimization (../min.cpp:168)
Memory usage per processor = 3.3526 Mbytes
Step Temp PotEng Lx Ly Lz 
      27            0    -481.9692    2.2449075    77.781489    1.1224537 
      28            0    -481.9692    2.2449075    77.781489    1.1224537 
Loop time of 0.000567993 on 1 procs for 1 steps with 162 atoms

Minimization stats:
  Stopping criterion = linesearch alpha is zero
  Energy initial, next-to-last, final = 
         -481.96919704      -481.96919704      -481.96919704
  Force two-norm initial, final = 0.0143651 0.0143651
  Force max component initial, final = 0.00495688 0.00495688
  Final line search alpha, max atom move = 3.05176e-05 1.51272e-07
  Iterations, force evaluations = 1 16

Pair  time (%) = 0.000468941 (82.5611)
Neigh time (%) = 0 (0)
Comm  time (%) = 5.10062e-05 (8.98008)
Outpt time (%) = 0 (0)
Other time (%) = 4.80457e-05 (8.45885)

Nlocal:    162 ave 162 max 162 min
Histogram: 1 0 0 0 0 0 0 0 0 0
Nghost:    365 ave 365 max 365 min
Histogram: 1 0 0 0 0 0 0 0 0 0
Neighs:    1438 ave 1438 max 1438 min
Histogram: 1 0 0 0 0 0 0 0 0 0

Total # of neighbors = 1438
Ave neighs/atom = 8.87654
Neighbor list builds = 0
Dangerous builds = 0
        # write_dump all atom ${dumpfile}
        next i
jump SELF loop1
        displace_atoms upper move ${xstep1} 0.0 0.0 units lattice
        displace_atoms upper move 0.00333333333333333 0.0 0.0 units lattice
        min_style ${style}
        min_style cg
        minimize ${etol} ${ftol} ${maxiter} ${maxeval}
        minimize 1e-12 ${ftol} ${maxiter} ${maxeval}
        minimize 1e-12 1e-08 ${maxiter} ${maxeval}
        minimize 1e-12 1e-08 10000 ${maxeval}
        minimize 1e-12 1e-08 10000 20000
WARNING: Resetting reneighboring criteria during minimization (../min.cpp:168)
Memory usage per processor = 3.3526 Mbytes
Step Temp PotEng Lx Ly Lz 
      28            0   -481.96548    2.2449075    77.781489    1.1224537 
      29            0   -481.96548    2.2449075    77.781489    1.1224537 
Loop time of 0.000575897 on 1 procs for 1 steps with 162 atoms

Minimization stats:
  Stopping criterion = linesearch alpha is zero
  Energy initial, next-to-last, final = 
        -481.965476086     -481.965476086     -481.965476086
  Force two-norm initial, final = 0.0142947 0.0142947
  Force max component initial, final = 0.00495688 0.00495688
  Final line search alpha, max atom move = 6.10352e-05 3.02544e-07
  Iterations, force evaluations = 1 15

Pair  time (%) = 0.000484558 (84.1396)
Neigh time (%) = 0 (0)
Comm  time (%) = 3.159e-05 (5.48535)
Outpt time (%) = 0 (0)
Other time (%) = 5.97493e-05 (10.375)

Nlocal:    162 ave 162 max 162 min
Histogram: 1 0 0 0 0 0 0 0 0 0
Nghost:    345 ave 345 max 345 min
Histogram: 1 0 0 0 0 0 0 0 0 0
Neighs:    1438 ave 1438 max 1438 min
Histogram: 1 0 0 0 0 0 0 0 0 0

Total # of neighbors = 1438
Ave neighs/atom = 8.87654
Neighbor list builds = 0
Dangerous builds = 0
        # write_dump all atom ${dumpfile}
        next i
jump SELF loop1
        displace_atoms upper move ${xstep1} 0.0 0.0 units lattice
        displace_atoms upper move 0.00333333333333333 0.0 0.0 units lattice
        min_style ${style}
        min_style cg
        minimize ${etol} ${ftol} ${maxiter} ${maxeval}
        minimize 1e-12 ${ftol} ${maxiter} ${maxeval}
        minimize 1e-12 1e-08 ${maxiter} ${maxeval}
        minimize 1e-12 1e-08 10000 ${maxeval}
        minimize 1e-12 1e-08 10000 20000
WARNING: Resetting reneighboring criteria during minimization (../min.cpp:168)
Memory usage per processor = 3.3526 Mbytes
Step Temp PotEng Lx Ly Lz 
      29            0   -481.96164    2.2449075    77.781489    1.1224537 
      30            0   -481.96164    2.2449075    77.781489    1.1224537 
      31            0   -481.96164    2.2449075    77.781489    1.1224537 
Loop time of 0.00103491 on 1 procs for 2 steps with 162 atoms

Minimization stats:
  Stopping criterion = linesearch alpha is zero
  Energy initial, next-to-last, final = 
        -481.961637366     -481.961637926     -481.961637926
  Force two-norm initial, final = 0.0188486 0.0164297
  Force max component initial, final = 0.00633952 0.00508523
  Final line search alpha, max atom move = 3.05176e-05 1.55189e-07
  Iterations, force evaluations = 2 25

Pair  time (%) = 0.000885428 (85.5563)
Neigh time (%) = 0 (0)
Comm  time (%) = 4.94699e-05 (4.78013)
Outpt time (%) = 6.08817e-06 (0.588282)
Other time (%) = 9.3921e-05 (9.07531)

Nlocal:    162 ave 162 max 162 min
Histogram: 1 0 0 0 0 0 0 0 0 0
Nghost:    345 ave 345 max 345 min
Histogram: 1 0 0 0 0 0 0 0 0 0
Neighs:    1438 ave 1438 max 1438 min
Histogram: 1 0 0 0 0 0 0 0 0 0

Total # of neighbors = 1438
Ave neighs/atom = 8.87654
Neighbor list builds = 0
Dangerous builds = 0
        # write_dump all atom ${dumpfile}
        next i
jump SELF loop1
        displace_atoms upper move ${xstep1} 0.0 0.0 units lattice
        displace_atoms upper move 0.00333333333333333 0.0 0.0 units lattice
        min_style ${style}
        min_style cg
        minimize ${etol} ${ftol} ${maxiter} ${maxeval}
        minimize 1e-12 ${ftol} ${maxiter} ${maxeval}
        minimize 1e-12 1e-08 ${maxiter} ${maxeval}
        minimize 1e-12 1e-08 10000 ${maxeval}
        minimize 1e-12 1e-08 10000 20000
WARNING: Resetting reneighboring criteria during minimization (../min.cpp:168)
Memory usage per processor = 3.3526 Mbytes
Step Temp PotEng Lx Ly Lz 
      31            0   -481.95768    2.2449075    77.781489    1.1224537 
      32            0   -481.95768    2.2449075    77.781489    1.1224537 
      33            0   -481.95768    2.2449075    77.781489    1.1224537 
Loop time of 0.000915028 on 1 procs for 2 steps with 162 atoms

Minimization stats:
  Stopping criterion = linesearch alpha is zero
  Energy initial, next-to-last, final = 
        -481.957675487     -481.957680263     -481.957680263
  Force two-norm initial, final = 0.0254431 0.0199558
  Force max component initial, final = 0.0106596 0.0077688
  Final line search alpha, max atom move = 1.52588e-05 1.18542e-07
  Iterations, force evaluations = 2 24

Pair  time (%) = 0.000773095 (84.4887)
Neigh time (%) = 0 (0)
Comm  time (%) = 4.94776e-05 (5.40722)
Outpt time (%) = 6.06594e-06 (0.662924)
Other time (%) = 8.63891e-05 (9.44115)

Nlocal:    162 ave 162 max 162 min
Histogram: 1 0 0 0 0 0 0 0 0 0
Nghost:    345 ave 345 max 345 min
Histogram: 1 0 0 0 0 0 0 0 0 0
Neighs:    1438 ave 1438 max 1438 min
Histogram: 1 0 0 0 0 0 0 0 0 0

Total # of neighbors = 1438
Ave neighs/atom = 8.87654
Neighbor list builds = 0
Dangerous builds = 0
        # write_dump all atom ${dumpfile}
        next i
jump SELF loop1
        displace_atoms upper move ${xstep1} 0.0 0.0 units lattice
        displace_atoms upper move 0.00333333333333333 0.0 0.0 units lattice
        min_style ${style}
        min_style cg
        minimize ${etol} ${ftol} ${maxiter} ${maxeval}
        minimize 1e-12 ${ftol} ${maxiter} ${maxeval}
        minimize 1e-12 1e-08 ${maxiter} ${maxeval}
        minimize 1e-12 1e-08 10000 ${maxeval}
        minimize 1e-12 1e-08 10000 20000
WARNING: Resetting reneighboring criteria during minimization (../min.cpp:168)
Memory usage per processor = 3.3526 Mbytes
Step Temp PotEng Lx Ly Lz 
      33            0   -481.95361    2.2449075     77.78149    1.1224537 
      34            0   -481.95361    2.2449075     77.78149    1.1224537 
      35            0   -481.95361    2.2449075     77.78149    1.1224537 
      36            0   -481.95361    2.2449075     77.78149    1.1224537 
Loop time of 0.00147602 on 1 procs for 3 steps with 162 atoms

Minimization stats:
  Stopping criterion = linesearch alpha is zero
  Energy initial, next-to-last, final = 
        -481.953605701      -481.95360663      -481.95360663
  Force two-norm initial, final = 0.0190751 0.0169654
  Force max component initial, final = 0.0077688 0.00628937
  Final line search alpha, max atom move = 3.05176e-05 1.91936e-07
  Iterations, force evaluations = 3 36

Pair  time (%) = 0.00126512 (85.7116)
Neigh time (%) = 0 (0)
Comm  time (%) = 7.06012e-05 (4.78321)
Outpt time (%) = 1.6024e-05 (1.08562)
Other time (%) = 0.000124274 (8.41955)

Nlocal:    162 ave 162 max 162 min
Histogram: 1 0 0 0 0 0 0 0 0 0
Nghost:    345 ave 345 max 345 min
Histogram: 1 0 0 0 0 0 0 0 0 0
Neighs:    1438 ave 1438 max 1438 min
Histogram: 1 0 0 0 0 0 0 0 0 0

Total # of neighbors = 1438
Ave neighs/atom = 8.87654
Neighbor list builds = 0
Dangerous builds = 0
        # write_dump all atom ${dumpfile}
        next i
jump SELF loop1
        displace_atoms upper move ${xstep1} 0.0 0.0 units lattice
        displace_atoms upper move 0.00333333333333333 0.0 0.0 units lattice
        min_style ${style}
        min_style cg
        minimize ${etol} ${ftol} ${maxiter} ${maxeval}
        minimize 1e-12 ${ftol} ${maxiter} ${maxeval}
        minimize 1e-12 1e-08 ${maxiter} ${maxeval}
        minimize 1e-12 1e-08 10000 ${maxeval}
        minimize 1e-12 1e-08 10000 20000
WARNING: Resetting reneighboring criteria during minimization (../min.cpp:168)
Memory usage per processor = 3.3526 Mbytes
Step Temp PotEng Lx Ly Lz 
      36            0   -481.94941    2.2449075     77.78149    1.1224537 
      37            0   -481.94941    2.2449075     77.78149    1.1224537 
      38            0   -481.94941    2.2449075     77.78149    1.1224537 
Loop time of 0.000578992 on 1 procs for 2 steps with 162 atoms

Minimization stats:
  Stopping criterion = linesearch alpha is zero
  Energy initial, next-to-last, final = 
        -481.949408923     -481.949414844     -481.949414844
  Force two-norm initial, final = 0.0288637 0.021979
  Force max component initial, final = 0.012034 0.00828068
  Final line search alpha, max atom move = 1.52588e-05 1.26353e-07
  Iterations, force evaluations = 2 24

Pair  time (%) = 0.000468681 (80.9478)
Neigh time (%) = 0 (0)
Comm  time (%) = 3.44727e-05 (5.95391)
Outpt time (%) = 7.91659e-06 (1.36731)
Other time (%) = 6.79216e-05 (11.731)

Nlocal:    162 ave 162 max 162 min
Histogram: 1 0 0 0 0 0 0 0 0 0
Nghost:    345 ave 345 max 345 min
Histogram: 1 0 0 0 0 0 0 0 0 0
Neighs:    1438 ave 1438 max 1438 min
Histogram: 1 0 0 0 0 0 0 0 0 0

Total # of neighbors = 1438
Ave neighs/atom = 8.87654
Neighbor list builds = 0
Dangerous builds = 0
        # write_dump all atom ${dumpfile}
        next i
jump SELF loop1
        displace_atoms upper move ${xstep1} 0.0 0.0 units lattice
        displace_atoms upper move 0.00333333333333333 0.0 0.0 units lattice
        min_style ${style}
        min_style cg
        minimize ${etol} ${ftol} ${maxiter} ${maxeval}
        minimize 1e-12 ${ftol} ${maxiter} ${maxeval}
        minimize 1e-12 1e-08 ${maxiter} ${maxeval}
        minimize 1e-12 1e-08 10000 ${maxeval}
        minimize 1e-12 1e-08 10000 20000
WARNING: Resetting reneighboring criteria during minimization (../min.cpp:168)
Memory usage per processor = 3.3526 Mbytes
Step Temp PotEng Lx Ly Lz 
      38            0   -481.94511    2.2449075    77.781491    1.1224537 
      39            0   -481.94511    2.2449075    77.781491    1.1224537 
Loop time of 0.000634028 on 1 procs for 1 steps with 162 atoms

Minimization stats:
  Stopping criterion = linesearch alpha is zero
  Energy initial, next-to-last, final = 
        -481.945107778     -481.945107778     -481.945107778
  Force two-norm initial, final = 0.0228425 0.0228425
  Force max component initial, final = 0.00828068 0.00828068
  Final line search alpha, max atom move = 1.52588e-05 1.26353e-07
  Iterations, force evaluations = 1 17

Pair  time (%) = 0.000536712 (84.6512)
Neigh time (%) = 0 (0)
Comm  time (%) = 3.49703e-05 (5.51559)
Outpt time (%) = 0 (0)
Other time (%) = 6.23453e-05 (9.83321)

Nlocal:    162 ave 162 max 162 min
Histogram: 1 0 0 0 0 0 0 0 0 0
Nghost:    345 ave 345 max 345 min
Histogram: 1 0 0 0 0 0 0 0 0 0
Neighs:    1438 ave 1438 max 1438 min
Histogram: 1 0 0 0 0 0 0 0 0 0

Total # of neighbors = 1438
Ave neighs/atom = 8.87654
Neighbor list builds = 0
Dangerous builds = 0
        # write_dump all atom ${dumpfile}
        next i
jump SELF loop1
        displace_atoms upper move ${xstep1} 0.0 0.0 units lattice
        displace_atoms upper move 0.00333333333333333 0.0 0.0 units lattice
        min_style ${style}
        min_style cg
        minimize ${etol} ${ftol} ${maxiter} ${maxeval}
        minimize 1e-12 ${ftol} ${maxiter} ${maxeval}
        minimize 1e-12 1e-08 ${maxiter} ${maxeval}
        minimize 1e-12 1e-08 10000 ${maxeval}
        minimize 1e-12 1e-08 10000 20000
WARNING: Resetting reneighboring criteria during minimization (../min.cpp:168)
Memory usage per processor = 3.3526 Mbytes
Step Temp PotEng Lx Ly Lz 
      39            0   -481.94067    2.2449075    77.781491    1.1224537 
      40            0   -481.94069    2.2449075    77.781491    1.1224537 
      41            0   -481.94069    2.2449075    77.781491    1.1224537 
Loop time of 0.000955911 on 1 procs for 2 steps with 162 atoms

Minimization stats:
  Stopping criterion = linesearch alpha is zero
  Energy initial, next-to-last, final = 
        -481.940673869     -481.940691681     -481.940691681
  Force two-norm initial, final = 0.0404297 0.0306774
  Force max component initial, final = 0.0176231 0.0114332
  Final line search alpha, max atom move = 7.62939e-06 8.72288e-08
  Iterations, force evaluations = 2 25

Pair  time (%) = 0.00080617 (84.3352)
Neigh time (%) = 0 (0)
Comm  time (%) = 5.11551e-05 (5.35145)
Outpt time (%) = 9.00927e-06 (0.942479)
Other time (%) = 8.95772e-05 (9.37086)

Nlocal:    162 ave 162 max 162 min
Histogram: 1 0 0 0 0 0 0 0 0 0
Nghost:    345 ave 345 max 345 min
Histogram: 1 0 0 0 0 0 0 0 0 0
Neighs:    1438 ave 1438 max 1438 min
Histogram: 1 0 0 0 0 0 0 0 0 0

Total # of neighbors = 1438
Ave neighs/atom = 8.87654
Neighbor list builds = 0
Dangerous builds = 0
        # write_dump all atom ${dumpfile}
        next i
jump SELF loop1
        displace_atoms upper move ${xstep1} 0.0 0.0 units lattice
        displace_atoms upper move 0.00333333333333333 0.0 0.0 units lattice
        min_style ${style}
        min_style cg
        minimize ${etol} ${ftol} ${maxiter} ${maxeval}
        minimize 1e-12 ${ftol} ${maxiter} ${maxeval}
        minimize 1e-12 1e-08 ${maxiter} ${maxeval}
        minimize 1e-12 1e-08 10000 ${maxeval}
        minimize 1e-12 1e-08 10000 20000
WARNING: Resetting reneighboring criteria during minimization (../min.cpp:168)
Memory usage per processor = 3.3526 Mbytes
Step Temp PotEng Lx Ly Lz 
      41            0   -481.93615    2.2449075    77.781493    1.1224537 
      42            0   -481.93615    2.2449075    77.781493    1.1224537 
Loop time of 0.000702937 on 1 procs for 1 steps with 162 atoms

Minimization stats:
  Stopping criterion = linesearch alpha is zero
  Energy initial, next-to-last, final = 
         -481.93615355      -481.93615355      -481.93615355
  Force two-norm initial, final = 0.0286526 0.0286526
  Force max component initial, final = 0.0114332 0.0114332
  Final line search alpha, max atom move = 7.62939e-06 8.72288e-08
  Iterations, force evaluations = 1 18

Pair  time (%) = 0.000577553 (82.1629)
Neigh time (%) = 0 (0)
Comm  time (%) = 6.08232e-05 (8.65272)
Outpt time (%) = 0 (0)
Other time (%) = 6.45606e-05 (9.18441)

Nlocal:    162 ave 162 max 162 min
Histogram: 1 0 0 0 0 0 0 0 0 0
Nghost:    345 ave 345 max 345 min
Histogram: 1 0 0 0 0 0 0 0 0 0
Neighs:    1438 ave 1438 max 1438 min
Histogram: 1 0 0 0 0 0 0 0 0 0

Total # of neighbors = 1438
Ave neighs/atom = 8.87654
Neighbor list builds = 0
Dangerous builds = 0
        # write_dump all atom ${dumpfile}
        next i
jump SELF loop1
        displace_atoms upper move ${xstep1} 0.0 0.0 units lattice
        displace_atoms upper move 0.00333333333333333 0.0 0.0 units lattice
        min_style ${style}
        min_style cg
        minimize ${etol} ${ftol} ${maxiter} ${maxeval}
        minimize 1e-12 ${ftol} ${maxiter} ${maxeval}
        minimize 1e-12 1e-08 ${maxiter} ${maxeval}
        minimize 1e-12 1e-08 10000 ${maxeval}
        minimize 1e-12 1e-08 10000 20000
WARNING: Resetting reneighboring criteria during minimization (../min.cpp:168)
Memory usage per processor = 3.3526 Mbytes
Step Temp PotEng Lx Ly Lz 
      42            0    -481.9315    2.2449075    77.781493    1.1224537 
      43            0   -481.93151    2.2449075    77.781493    1.1224537 
      44            0   -481.93152    2.2449075    77.781493    1.1224537 
      45            0   -481.93152    2.2449075    77.781493    1.1224537 
Loop time of 0.00127702 on 1 procs for 3 steps with 162 atoms

Minimization stats:
  Stopping criterion = linesearch alpha is zero
  Energy initial, next-to-last, final = 
        -481.931495951     -481.931523693     -481.931523693
  Force two-norm initial, final = 0.0480962 0.0228044
  Force max component initial, final = 0.0200718 0.009499
  Final line search alpha, max atom move = 1.52588e-05 1.44943e-07
  Iterations, force evaluations = 3 31

Pair  time (%) = 0.00103183 (80.7997)
Neigh time (%) = 0 (0)
Comm  time (%) = 9.12752e-05 (7.14751)
Outpt time (%) = 1.49197e-05 (1.16832)
Other time (%) = 0.000138996 (10.8844)

Nlocal:    162 ave 162 max 162 min
Histogram: 1 0 0 0 0 0 0 0 0 0
Nghost:    345 ave 345 max 345 min
Histogram: 1 0 0 0 0 0 0 0 0 0
Neighs:    1438 ave 1438 max 1438 min
Histogram: 1 0 0 0 0 0 0 0 0 0

Total # of neighbors = 1438
Ave neighs/atom = 8.87654
Neighbor list builds = 0
Dangerous builds = 0
        # write_dump all atom ${dumpfile}
        next i
jump SELF loop1
        displace_atoms upper move ${xstep1} 0.0 0.0 units lattice
        displace_atoms upper move 0.00333333333333333 0.0 0.0 units lattice
        min_style ${style}
        min_style cg
        minimize ${etol} ${ftol} ${maxiter} ${maxeval}
        minimize 1e-12 ${ftol} ${maxiter} ${maxeval}
        minimize 1e-12 1e-08 ${maxiter} ${maxeval}
        minimize 1e-12 1e-08 10000 ${maxeval}
        minimize 1e-12 1e-08 10000 20000
WARNING: Resetting reneighboring criteria during minimization (../min.cpp:168)
Memory usage per processor = 3.3526 Mbytes
Step Temp PotEng Lx Ly Lz 
      45            0   -481.92677    2.2449075    77.781497    1.1224537 
      46            0   -481.92678    2.2449075    77.781497    1.1224537 
      47            0   -481.92678    2.2449075    77.781497    1.1224537 
      48            0   -481.92678    2.2449075    77.781497    1.1224537 
Loop time of 0.00140703 on 1 procs for 3 steps with 162 atoms

Minimization stats:
  Stopping criterion = linesearch alpha is zero
  Energy initial, next-to-last, final = 
        -481.926768867      -481.92677555      -481.92677555
  Force two-norm initial, final = 0.0379557 0.0215129
  Force max component initial, final = 0.0151832 0.00644354
  Final line search alpha, max atom move = 1.52588e-05 9.83206e-08
  Iterations, force evaluations = 3 39

Pair  time (%) = 0.00117624 (83.5972)
Neigh time (%) = 0 (0)
Comm  time (%) = 7.94918e-05 (5.64959)
Outpt time (%) = 1.50073e-05 (1.06659)
Other time (%) = 0.000136294 (9.68664)

Nlocal:    162 ave 162 max 162 min
Histogram: 1 0 0 0 0 0 0 0 0 0
Nghost:    345 ave 345 max 345 min
Histogram: 1 0 0 0 0 0 0 0 0 0
Neighs:    1438 ave 1438 max 1438 min
Histogram: 1 0 0 0 0 0 0 0 0 0

Total # of neighbors = 1438
Ave neighs/atom = 8.87654
Neighbor list builds = 0
Dangerous builds = 0
        # write_dump all atom ${dumpfile}
        next i
jump SELF loop1
        displace_atoms upper move ${xstep1} 0.0 0.0 units lattice
        displace_atoms upper move 0.00333333333333333 0.0 0.0 units lattice
        min_style ${style}
        min_style cg
        minimize ${etol} ${ftol} ${maxiter} ${maxeval}
        minimize 1e-12 ${ftol} ${maxiter} ${maxeval}
        minimize 1e-12 1e-08 ${maxiter} ${maxeval}
        minimize 1e-12 1e-08 10000 ${maxeval}
        minimize 1e-12 1e-08 10000 20000
WARNING: Resetting reneighboring criteria during minimization (../min.cpp:168)
Memory usage per processor = 3.3526 Mbytes
Step Temp PotEng Lx Ly Lz 
      48            0   -481.92191    2.2449075    77.781498    1.1224537 
      49            0   -481.92192    2.2449075    77.781498    1.1224537 
      50            0   -481.92192    2.2449075    77.781498    1.1224537 
Loop time of 0.00101192 on 1 procs for 2 steps with 162 atoms

Minimization stats:
  Stopping criterion = linesearch alpha is zero
  Energy initial, next-to-last, final = 
        -481.921910788      -481.92191581      -481.92191581
  Force two-norm initial, final = 0.0431682 0.0327935
  Force max component initial, final = 0.0187875 0.0115547
  Final line search alpha, max atom move = 7.62939e-06 8.81551e-08
  Iterations, force evaluations = 2 27

Pair  time (%) = 0.000849187 (83.9186)
Neigh time (%) = 0 (0)
Comm  time (%) = 5.49887e-05 (5.4341)
Outpt time (%) = 6.05255e-06 (0.598127)
Other time (%) = 0.00010169 (10.0492)

Nlocal:    162 ave 162 max 162 min
Histogram: 1 0 0 0 0 0 0 0 0 0
Nghost:    345 ave 345 max 345 min
Histogram: 1 0 0 0 0 0 0 0 0 0
Neighs:    1438 ave 1438 max 1438 min
Histogram: 1 0 0 0 0 0 0 0 0 0

Total # of neighbors = 1438
Ave neighs/atom = 8.87654
Neighbor list builds = 0
Dangerous builds = 0
        # write_dump all atom ${dumpfile}
        next i
jump SELF loop1
        displace_atoms upper move ${xstep1} 0.0 0.0 units lattice
        displace_atoms upper move 0.00333333333333333 0.0 0.0 units lattice
        min_style ${style}
        min_style cg
        minimize ${etol} ${ftol} ${maxiter} ${maxeval}
        minimize 1e-12 ${ftol} ${maxiter} ${maxeval}
        minimize 1e-12 1e-08 ${maxiter} ${maxeval}
        minimize 1e-12 1e-08 10000 ${maxeval}
        minimize 1e-12 1e-08 10000 20000
WARNING: Resetting reneighboring criteria during minimization (../min.cpp:168)
Memory usage per processor = 3.3526 Mbytes
Step Temp PotEng Lx Ly Lz 
      50            0   -481.91693    2.2449075    77.781498    1.1224537 
      51            0   -481.91695    2.2449075    77.781498    1.1224537 
      52            0   -481.91698    2.2449075    77.781498    1.1224537 
      53            0   -481.91699    2.2449075    77.781498    1.1224537 
      54            0   -481.91699    2.2449075    77.781498    1.1224537 
Loop time of 0.0015049 on 1 procs for 4 steps with 162 atoms

Minimization stats:
  Stopping criterion = linesearch alpha is zero
  Energy initial, next-to-last, final = 
        -481.916934182     -481.916993508     -481.916993508
  Force two-norm initial, final = 0.0643955 0.0470572
  Force max component initial, final = 0.0300225 0.012694
  Final line search alpha, max atom move = 7.62939e-06 9.68475e-08
  Iterations, force evaluations = 4 38

Pair  time (%) = 0.00127554 (84.7592)
Neigh time (%) = 0 (0)
Comm  time (%) = 7.45193e-05 (4.95178)
Outpt time (%) = 1.99683e-05 (1.32688)
Other time (%) = 0.000134872 (8.96216)

Nlocal:    162 ave 162 max 162 min
Histogram: 1 0 0 0 0 0 0 0 0 0
Nghost:    345 ave 345 max 345 min
Histogram: 1 0 0 0 0 0 0 0 0 0
Neighs:    1438 ave 1438 max 1438 min
Histogram: 1 0 0 0 0 0 0 0 0 0

Total # of neighbors = 1438
Ave neighs/atom = 8.87654
Neighbor list builds = 0
Dangerous builds = 0
        # write_dump all atom ${dumpfile}
        next i
jump SELF loop1
        displace_atoms upper move ${xstep1} 0.0 0.0 units lattice
        displace_atoms upper move 0.00333333333333333 0.0 0.0 units lattice
        min_style ${style}
        min_style cg
        minimize ${etol} ${ftol} ${maxiter} ${maxeval}
        minimize 1e-12 ${ftol} ${maxiter} ${maxeval}
        minimize 1e-12 1e-08 ${maxiter} ${maxeval}
        minimize 1e-12 1e-08 10000 ${maxeval}
        minimize 1e-12 1e-08 10000 20000
WARNING: Resetting reneighboring criteria during minimization (../min.cpp:168)
Memory usage per processor = 3.3526 Mbytes
Step Temp PotEng Lx Ly Lz 
      54            0   -481.91196    2.2449075    77.781508    1.1224537 
      55            0   -481.91198    2.2449075    77.781508    1.1224537 
      56            0   -481.91199    2.2449075    77.781508    1.1224537 
      57            0     -481.912    2.2449075    77.781508    1.1224537 
      58            0   -481.91201    2.2449075    77.781508    1.1224537 
      59            0   -481.91201    2.2449075    77.781508    1.1224537 
Loop time of 0.019946 on 1 procs for 5 steps with 162 atoms

Minimization stats:
  Stopping criterion = linesearch alpha is zero
  Energy initial, next-to-last, final = 
        -481.911960922       -481.9120076       -481.9120076
  Force two-norm initial, final = 0.0640257 0.0183224
  Force max component initial, final = 0.023383 0.00498732
  Final line search alpha, max atom move = 1.52588e-05 7.61005e-08
  Iterations, force evaluations = 5 44

Pair  time (%) = 0.00148474 (7.4438)
Neigh time (%) = 0 (0)
Comm  time (%) = 9.31233e-05 (0.466877)
Outpt time (%) = 0.0182262 (91.3774)
Other time (%) = 0.000141995 (0.711894)

Nlocal:    162 ave 162 max 162 min
Histogram: 1 0 0 0 0 0 0 0 0 0
Nghost:    345 ave 345 max 345 min
Histogram: 1 0 0 0 0 0 0 0 0 0
Neighs:    1434 ave 1434 max 1434 min
Histogram: 1 0 0 0 0 0 0 0 0 0

Total # of neighbors = 1434
Ave neighs/atom = 8.85185
Neighbor list builds = 0
Dangerous builds = 0
        # write_dump all atom ${dumpfile}
        next i
jump SELF loop1
        displace_atoms upper move ${xstep1} 0.0 0.0 units lattice
        displace_atoms upper move 0.00333333333333333 0.0 0.0 units lattice
        min_style ${style}
        min_style cg
        minimize ${etol} ${ftol} ${maxiter} ${maxeval}
        minimize 1e-12 ${ftol} ${maxiter} ${maxeval}
        minimize 1e-12 1e-08 ${maxiter} ${maxeval}
        minimize 1e-12 1e-08 10000 ${maxeval}
        minimize 1e-12 1e-08 10000 20000
WARNING: Resetting reneighboring criteria during minimization (../min.cpp:168)
Memory usage per processor = 3.3526 Mbytes
Step Temp PotEng Lx Ly Lz 
      59            0   -481.90702    2.2449075    77.781524    1.1224537 
      60            0   -481.90705    2.2449075    77.781524    1.1224537 
      61            0   -481.90706    2.2449075    77.781524    1.1224537 
      62            0   -481.90707    2.2449075    77.781524    1.1224537 
      63            0   -481.90707    2.2449075    77.781524    1.1224537 
      64            0   -481.90708    2.2449075    77.781524    1.1224537 
      65            0   -481.90708    2.2449075    77.781524    1.1224537 
Loop time of 0.00188692 on 1 procs for 6 steps with 162 atoms

Minimization stats:
  Stopping criterion = linesearch alpha is zero
  Energy initial, next-to-last, final = 
        -481.907021298     -481.907078879     -481.907078879
  Force two-norm initial, final = 0.0722609 0.0247544
  Force max component initial, final = 0.0350089 0.00838211
  Final line search alpha, max atom move = 1.52588e-05 1.27901e-07
  Iterations, force evaluations = 6 51

Pair  time (%) = 0.00157232 (83.3271)
Neigh time (%) = 0 (0)
Comm  time (%) = 9.63685e-05 (5.10718)
Outpt time (%) = 3.30266e-05 (1.75029)
Other time (%) = 0.000185209 (9.81541)

Nlocal:    162 ave 162 max 162 min
Histogram: 1 0 0 0 0 0 0 0 0 0
Nghost:    345 ave 345 max 345 min
Histogram: 1 0 0 0 0 0 0 0 0 0
Neighs:    1434 ave 1434 max 1434 min
Histogram: 1 0 0 0 0 0 0 0 0 0

Total # of neighbors = 1434
Ave neighs/atom = 8.85185
Neighbor list builds = 0
Dangerous builds = 0
        # write_dump all atom ${dumpfile}
        next i
jump SELF loop1
        displace_atoms upper move ${xstep1} 0.0 0.0 units lattice
        displace_atoms upper move 0.00333333333333333 0.0 0.0 units lattice
        min_style ${style}
        min_style cg
        minimize ${etol} ${ftol} ${maxiter} ${maxeval}
        minimize 1e-12 ${ftol} ${maxiter} ${maxeval}
        minimize 1e-12 1e-08 ${maxiter} ${maxeval}
        minimize 1e-12 1e-08 10000 ${maxeval}
        minimize 1e-12 1e-08 10000 20000
WARNING: Resetting reneighboring criteria during minimization (../min.cpp:168)
Memory usage per processor = 3.3526 Mbytes
Step Temp PotEng Lx Ly Lz 
      65            0   -481.90215    2.2449075    77.781536    1.1224537 
      66            0   -481.90216    2.2449075    77.781536    1.1224537 
      67            0   -481.90218    2.2449075    77.781536    1.1224537 
      68            0    -481.9022    2.2449075    77.781536    1.1224537 
      69            0   -481.90221    2.2449075    77.781536    1.1224537 
      70            0   -481.90221    2.2449075    77.781536    1.1224537 
Loop time of 0.00153099 on 1 procs for 5 steps with 162 atoms

Minimization stats:
  Stopping criterion = linesearch alpha is zero
  Energy initial, next-to-last, final = 
        -481.902146435      -481.90221049      -481.90221049
  Force two-norm initial, final = 0.0722019 0.0163987
  Force max component initial, final = 0.0340576 0.00575528
  Final line search alpha, max atom move = 3.05176e-05 1.75637e-07
  Iterations, force evaluations = 5 44

Pair  time (%) = 0.00128393 (83.8629)
Neigh time (%) = 0 (0)
Comm  time (%) = 8.23005e-05 (5.37564)
Outpt time (%) = 2.20462e-05 (1.43999)
Other time (%) = 0.000142711 (9.32146)

Nlocal:    162 ave 162 max 162 min
Histogram: 1 0 0 0 0 0 0 0 0 0
Nghost:    345 ave 345 max 345 min
Histogram: 1 0 0 0 0 0 0 0 0 0
Neighs:    1434 ave 1434 max 1434 min
Histogram: 1 0 0 0 0 0 0 0 0 0

Total # of neighbors = 1434
Ave neighs/atom = 8.85185
Neighbor list builds = 0
Dangerous builds = 0
        # write_dump all atom ${dumpfile}
        next i
jump SELF loop1
        displace_atoms upper move ${xstep1} 0.0 0.0 units lattice
        displace_atoms upper move 0.00333333333333333 0.0 0.0 units lattice
        min_style ${style}
        min_style cg
        minimize ${etol} ${ftol} ${maxiter} ${maxeval}
        minimize 1e-12 ${ftol} ${maxiter} ${maxeval}
        minimize 1e-12 1e-08 ${maxiter} ${maxeval}
        minimize 1e-12 1e-08 10000 ${maxeval}
        minimize 1e-12 1e-08 10000 20000
WARNING: Resetting reneighboring criteria during minimization (../min.cpp:168)
Memory usage per processor = 3.3526 Mbytes
Step Temp PotEng Lx Ly Lz 
      70            0   -481.89733    2.2449075    77.781544    1.1224537 
      71            0   -481.89735    2.2449075    77.781544    1.1224537 
      72            0   -481.89736    2.2449075    77.781544    1.1224537 
      73            0   -481.89737    2.2449075    77.781544    1.1224537 
      74            0    -481.8974    2.2449075    77.781544    1.1224537 
      75            0   -481.89741    2.2449075    77.781544    1.1224537 
      76            0   -481.89741    2.2449075    77.781544    1.1224537 
Loop time of 0.00188009 on 1 procs for 6 steps with 162 atoms

Minimization stats:
  Stopping criterion = linesearch alpha is zero
  Energy initial, next-to-last, final = 
        -481.897329737     -481.897408382     -481.897408382
  Force two-norm initial, final = 0.0795481 0.0355073
  Force max component initial, final = 0.0389527 0.011553
  Final line search alpha, max atom move = 7.62939e-06 8.81424e-08
  Iterations, force evaluations = 6 51

Pair  time (%) = 0.00156023 (82.9867)
Neigh time (%) = 0 (0)
Comm  time (%) = 9.61032e-05 (5.11161)
Outpt time (%) = 3.08502e-05 (1.64088)
Other time (%) = 0.000192913 (10.2608)

Nlocal:    162 ave 162 max 162 min
Histogram: 1 0 0 0 0 0 0 0 0 0
Nghost:    345 ave 345 max 345 min
Histogram: 1 0 0 0 0 0 0 0 0 0
Neighs:    1434 ave 1434 max 1434 min
Histogram: 1 0 0 0 0 0 0 0 0 0

Total # of neighbors = 1434
Ave neighs/atom = 8.85185
Neighbor list builds = 0
Dangerous builds = 0
        # write_dump all atom ${dumpfile}
        next i
jump SELF loop1
        displace_atoms upper move ${xstep1} 0.0 0.0 units lattice
        displace_atoms upper move 0.00333333333333333 0.0 0.0 units lattice
        min_style ${style}
        min_style cg
        minimize ${etol} ${ftol} ${maxiter} ${maxeval}
        minimize 1e-12 ${ftol} ${maxiter} ${maxeval}
        minimize 1e-12 1e-08 ${maxiter} ${maxeval}
        minimize 1e-12 1e-08 10000 ${maxeval}
        minimize 1e-12 1e-08 10000 20000
WARNING: Resetting reneighboring criteria during minimization (../min.cpp:168)
Memory usage per processor = 3.3526 Mbytes
Step Temp PotEng Lx Ly Lz 
      76            0   -481.89262    2.2449075    77.781562    1.1224537 
      77            0   -481.89263    2.2449075    77.781562    1.1224537 
      78            0   -481.89264    2.2449075    77.781562    1.1224537 
      79            0   -481.89265    2.2449075    77.781562    1.1224537 
      80            0   -481.89266    2.2449075    77.781562    1.1224537 
      81            0   -481.89267    2.2449075    77.781562    1.1224537 
      82            0   -481.89267    2.2449075    77.781562    1.1224537 
Loop time of 0.00387795 on 1 procs for 6 steps with 162 atoms

Minimization stats:
  Stopping criterion = linesearch alpha is zero
  Energy initial, next-to-last, final = 
        -481.892615713     -481.892670538     -481.892670538
  Force two-norm initial, final = 0.0689225 0.0248223
  Force max component initial, final = 0.0303307 0.00648756
  Final line search alpha, max atom move = 1.52588e-05 9.89924e-08
  Iterations, force evaluations = 6 50

Pair  time (%) = 0.00333558 (86.0139)
Neigh time (%) = 0 (0)
Comm  time (%) = 0.000181236 (4.6735)
Outpt time (%) = 5.89589e-05 (1.52036)
Other time (%) = 0.00030218 (7.79225)

Nlocal:    162 ave 162 max 162 min
Histogram: 1 0 0 0 0 0 0 0 0 0
Nghost:    345 ave 345 max 345 min
Histogram: 1 0 0 0 0 0 0 0 0 0
Neighs:    1434 ave 1434 max 1434 min
Histogram: 1 0 0 0 0 0 0 0 0 0

Total # of neighbors = 1434
Ave neighs/atom = 8.85185
Neighbor list builds = 0
Dangerous builds = 0
        # write_dump all atom ${dumpfile}
        next i
jump SELF loop1
        displace_atoms upper move ${xstep1} 0.0 0.0 units lattice
        displace_atoms upper move 0.00333333333333333 0.0 0.0 units lattice
        min_style ${style}
        min_style cg
        minimize ${etol} ${ftol} ${maxiter} ${maxeval}
        minimize 1e-12 ${ftol} ${maxiter} ${maxeval}
        minimize 1e-12 1e-08 ${maxiter} ${maxeval}
        minimize 1e-12 1e-08 10000 ${maxeval}
        minimize 1e-12 1e-08 10000 20000
WARNING: Resetting reneighboring criteria during minimization (../min.cpp:168)
Memory usage per processor = 3.3526 Mbytes
Step Temp PotEng Lx Ly Lz 
      82            0   -481.88793    2.2449075    77.781576    1.1224537 
      83            0   -481.88794    2.2449075    77.781576    1.1224537 
      84            0   -481.88795    2.2449075    77.781576    1.1224537 
      85            0   -481.88795    2.2449075    77.781576    1.1224537 
      86            0   -481.88796    2.2449075    77.781576    1.1224537 
      87            0   -481.88798    2.2449075    77.781576    1.1224537 
      88            0   -481.88799    2.2449075    77.781576    1.1224537 
      89            0   -481.88799    2.2449075    77.781576    1.1224537 
      90            0     -481.888    2.2449075    77.781576    1.1224537 
      91            0     -481.888    2.2449075    77.781576    1.1224537 
Loop time of 0.0029451 on 1 procs for 9 steps with 162 atoms

Minimization stats:
  Stopping criterion = linesearch alpha is zero
  Energy initial, next-to-last, final = 
        -481.887933001     -481.887996063     -481.887996063
  Force two-norm initial, final = 0.0680725 0.0176398
  Force max component initial, final = 0.0321188 0.00537971
  Final line search alpha, max atom move = 3.05176e-05 1.64176e-07
  Iterations, force evaluations = 9 77

Pair  time (%) = 0.00244924 (83.1633)
Neigh time (%) = 0 (0)
Comm  time (%) = 0.000147454 (5.00676)
Outpt time (%) = 5.28746e-05 (1.79534)
Other time (%) = 0.00029553 (10.0346)

Nlocal:    162 ave 162 max 162 min
Histogram: 1 0 0 0 0 0 0 0 0 0
Nghost:    345 ave 345 max 345 min
Histogram: 1 0 0 0 0 0 0 0 0 0
Neighs:    1434 ave 1434 max 1434 min
Histogram: 1 0 0 0 0 0 0 0 0 0

Total # of neighbors = 1434
Ave neighs/atom = 8.85185
Neighbor list builds = 0
Dangerous builds = 0
        # write_dump all atom ${dumpfile}
        next i
jump SELF loop1
        displace_atoms upper move ${xstep1} 0.0 0.0 units lattice
        displace_atoms upper move 0.00333333333333333 0.0 0.0 units lattice
        min_style ${style}
        min_style cg
        minimize ${etol} ${ftol} ${maxiter} ${maxeval}
        minimize 1e-12 ${ftol} ${maxiter} ${maxeval}
        minimize 1e-12 1e-08 ${maxiter} ${maxeval}
        minimize 1e-12 1e-08 10000 ${maxeval}
        minimize 1e-12 1e-08 10000 20000
WARNING: Resetting reneighboring criteria during minimization (../min.cpp:168)
Memory usage per processor = 3.3526 Mbytes
Step Temp PotEng Lx Ly Lz 
      91            0   -481.88332    2.2449075    77.781593    1.1224537 
      92            0   -481.88334    2.2449075    77.781593    1.1224537 
      93            0   -481.88334    2.2449075    77.781593    1.1224537 
      94            0   -481.88335    2.2449075    77.781593    1.1224537 
      95            0   -481.88336    2.2449075    77.781593    1.1224537 
      96            0   -481.88336    2.2449075    77.781593    1.1224537 
      97            0   -481.88338    2.2449075    77.781593    1.1224537 
      98            0   -481.88338    2.2449075    77.781593    1.1224537 
      99            0   -481.88338    2.2449075    77.781593    1.1224537 
Loop time of 0.00221896 on 1 procs for 8 steps with 162 atoms

Minimization stats:
  Stopping criterion = linesearch alpha is zero
  Energy initial, next-to-last, final = 
        -481.883318116     -481.883379494     -481.883379494
  Force two-norm initial, final = 0.0690346 0.0128887
  Force max component initial, final = 0.0335875 0.00279225
  Final line search alpha, max atom move = 6.10352e-05 1.70426e-07
  Iterations, force evaluations = 8 65

Pair  time (%) = 0.00185122 (83.4274)
Neigh time (%) = 0 (0)
Comm  time (%) = 0.000120037 (5.40963)
Outpt time (%) = 3.59926e-05 (1.62205)
Other time (%) = 0.00021171 (9.54096)

Nlocal:    162 ave 162 max 162 min
Histogram: 1 0 0 0 0 0 0 0 0 0
Nghost:    345 ave 345 max 345 min
Histogram: 1 0 0 0 0 0 0 0 0 0
Neighs:    1434 ave 1434 max 1434 min
Histogram: 1 0 0 0 0 0 0 0 0 0

Total # of neighbors = 1434
Ave neighs/atom = 8.85185
Neighbor list builds = 0
Dangerous builds = 0
        # write_dump all atom ${dumpfile}
        next i
jump SELF loop1
        displace_atoms upper move ${xstep1} 0.0 0.0 units lattice
        displace_atoms upper move 0.00333333333333333 0.0 0.0 units lattice
        min_style ${style}
        min_style cg
        minimize ${etol} ${ftol} ${maxiter} ${maxeval}
        minimize 1e-12 ${ftol} ${maxiter} ${maxeval}
        minimize 1e-12 1e-08 ${maxiter} ${maxeval}
        minimize 1e-12 1e-08 10000 ${maxeval}
        minimize 1e-12 1e-08 10000 20000
WARNING: Resetting reneighboring criteria during minimization (../min.cpp:168)
Memory usage per processor = 3.3526 Mbytes
Step Temp PotEng Lx Ly Lz 
      99            0   -481.87876    2.2449075    77.781607    1.1224537 
     100            0   -481.87878    2.2449075    77.781607    1.1224537 
     101            0   -481.87879    2.2449075    77.781607    1.1224537 
     102            0   -481.87879    2.2449075    77.781607    1.1224537 
     103            0    -481.8788    2.2449075    77.781607    1.1224537 
     104            0   -481.87881    2.2449075    77.781607    1.1224537 
     105            0   -481.87882    2.2449075    77.781607    1.1224537 
     106            0   -481.87882    2.2449075    77.781607    1.1224537 
     107            0   -481.87882    2.2449075    77.781607    1.1224537 
Loop time of 0.011817 on 1 procs for 8 steps with 162 atoms

Minimization stats:
  Stopping criterion = linesearch alpha is zero
  Energy initial, next-to-last, final = 
        -481.878762881     -481.878824036     -481.878824036
  Force two-norm initial, final = 0.0732949 0.011418
  Force max component initial, final = 0.0361012 0.00269378
  Final line search alpha, max atom move = 6.10352e-05 1.64415e-07
  Iterations, force evaluations = 8 64

Pair  time (%) = 0.00211938 (17.935)
Neigh time (%) = 0 (0)
Comm  time (%) = 0.000121208 (1.0257)
Outpt time (%) = 0.00933597 (79.0044)
Other time (%) = 0.000240469 (2.03494)

Nlocal:    162 ave 162 max 162 min
Histogram: 1 0 0 0 0 0 0 0 0 0
Nghost:    345 ave 345 max 345 min
Histogram: 1 0 0 0 0 0 0 0 0 0
Neighs:    1434 ave 1434 max 1434 min
Histogram: 1 0 0 0 0 0 0 0 0 0

Total # of neighbors = 1434
Ave neighs/atom = 8.85185
Neighbor list builds = 0
Dangerous builds = 0
        # write_dump all atom ${dumpfile}
        next i
jump SELF loop1
        displace_atoms upper move ${xstep1} 0.0 0.0 units lattice
        displace_atoms upper move 0.00333333333333333 0.0 0.0 units lattice
        min_style ${style}
        min_style cg
        minimize ${etol} ${ftol} ${maxiter} ${maxeval}
        minimize 1e-12 ${ftol} ${maxiter} ${maxeval}
        minimize 1e-12 1e-08 ${maxiter} ${maxeval}
        minimize 1e-12 1e-08 10000 ${maxeval}
        minimize 1e-12 1e-08 10000 20000
WARNING: Resetting reneighboring criteria during minimization (../min.cpp:168)
Memory usage per processor = 3.3526 Mbytes
Step Temp PotEng Lx Ly Lz 
     107            0   -481.87427    2.2449075     77.78162    1.1224537 
     108            0   -481.87428    2.2449075     77.78162    1.1224537 
     109            0   -481.87429    2.2449075     77.78162    1.1224537 
     110            0   -481.87429    2.2449075     77.78162    1.1224537 
     111            0   -481.87429    2.2449075     77.78162    1.1224537 
     112            0    -481.8743    2.2449075     77.78162    1.1224537 
     113            0   -481.87431    2.2449075     77.78162    1.1224537 
     114            0   -481.87432    2.2449075     77.78162    1.1224537 
     115            0   -481.87432    2.2449075     77.78162    1.1224537 
Loop time of 0.0032241 on 1 procs for 8 steps with 162 atoms

Minimization stats:
  Stopping criterion = linesearch alpha is zero
  Energy initial, next-to-last, final = 
        -481.874268297     -481.874324886     -481.874324886
  Force two-norm initial, final = 0.0737386 0.0274227
  Force max component initial, final = 0.0364396 0.00970582
  Final line search alpha, max atom move = 1.52588e-05 1.48099e-07
  Iterations, force evaluations = 8 66

Pair  time (%) = 0.00255223 (79.1611)
Neigh time (%) = 0 (0)
Comm  time (%) = 0.000222044 (6.887)
Outpt time (%) = 0.000102151 (3.16836)
Other time (%) = 0.000347671 (10.7835)

Nlocal:    162 ave 162 max 162 min
Histogram: 1 0 0 0 0 0 0 0 0 0
Nghost:    345 ave 345 max 345 min
Histogram: 1 0 0 0 0 0 0 0 0 0
Neighs:    1434 ave 1434 max 1434 min
Histogram: 1 0 0 0 0 0 0 0 0 0

Total # of neighbors = 1434
Ave neighs/atom = 8.85185
Neighbor list builds = 0
Dangerous builds = 0
        # write_dump all atom ${dumpfile}
        next i
jump SELF loop1
        displace_atoms upper move ${xstep1} 0.0 0.0 units lattice
        displace_atoms upper move 0.00333333333333333 0.0 0.0 units lattice
        min_style ${style}
        min_style cg
        minimize ${etol} ${ftol} ${maxiter} ${maxeval}
        minimize 1e-12 ${ftol} ${maxiter} ${maxeval}
        minimize 1e-12 1e-08 ${maxiter} ${maxeval}
        minimize 1e-12 1e-08 10000 ${maxeval}
        minimize 1e-12 1e-08 10000 20000
WARNING: Resetting reneighboring criteria during minimization (../min.cpp:168)
Memory usage per processor = 3.3526 Mbytes
Step Temp PotEng Lx Ly Lz 
     115            0   -481.86984    2.2449075    77.781641    1.1224537 
     116            0   -481.86987    2.2449075    77.781641    1.1224537 
     117            0   -481.86987    2.2449075    77.781641    1.1224537 
     118            0   -481.86987    2.2449075    77.781641    1.1224537 
Loop time of 0.00129008 on 1 procs for 3 steps with 162 atoms

Minimization stats:
  Stopping criterion = linesearch alpha is zero
  Energy initial, next-to-last, final = 
        -481.869837019     -481.869872839     -481.869872839
  Force two-norm initial, final = 0.0733757 0.0172681
  Force max component initial, final = 0.0341859 0.0052454
  Final line search alpha, max atom move = 3.05176e-05 1.60077e-07
  Iterations, force evaluations = 3 32

Pair  time (%) = 0.00109602 (84.958)
Neigh time (%) = 0 (0)
Comm  time (%) = 6.26284e-05 (4.85462)
Outpt time (%) = 1.59836e-05 (1.23896)
Other time (%) = 0.000115442 (8.94844)

Nlocal:    162 ave 162 max 162 min
Histogram: 1 0 0 0 0 0 0 0 0 0
Nghost:    345 ave 345 max 345 min
Histogram: 1 0 0 0 0 0 0 0 0 0
Neighs:    1434 ave 1434 max 1434 min
Histogram: 1 0 0 0 0 0 0 0 0 0

Total # of neighbors = 1434
Ave neighs/atom = 8.85185
Neighbor list builds = 0
Dangerous builds = 0
        # write_dump all atom ${dumpfile}
        next i
jump SELF loop1
        displace_atoms upper move ${xstep1} 0.0 0.0 units lattice
        displace_atoms upper move 0.00333333333333333 0.0 0.0 units lattice
        min_style ${style}
        min_style cg
        minimize ${etol} ${ftol} ${maxiter} ${maxeval}
        minimize 1e-12 ${ftol} ${maxiter} ${maxeval}
        minimize 1e-12 1e-08 ${maxiter} ${maxeval}
        minimize 1e-12 1e-08 10000 ${maxeval}
        minimize 1e-12 1e-08 10000 20000
WARNING: Resetting reneighboring criteria during minimization (../min.cpp:168)
Memory usage per processor = 3.3526 Mbytes
Step Temp PotEng Lx Ly Lz 
     118            0   -481.86541    2.2449075    77.781642    1.1224537 
     119            0   -481.86545    2.2449075    77.781642    1.1224537 
     120            0   -481.86545    2.2449075    77.781642    1.1224537 
     121            0   -481.86545    2.2449075    77.781642    1.1224537 
Loop time of 0.00108192 on 1 procs for 3 steps with 162 atoms

Minimization stats:
  Stopping criterion = linesearch alpha is zero
  Energy initial, next-to-last, final = 
        -481.865413609     -481.865448984     -481.865448984
  Force two-norm initial, final = 0.0847107 0.0315904
  Force max component initial, final = 0.0416515 0.0121233
  Final line search alpha, max atom move = 7.62939e-06 9.24932e-08
  Iterations, force evaluations = 3 35

Pair  time (%) = 0.000919972 (85.0315)
Neigh time (%) = 0 (0)
Comm  time (%) = 5.77547e-05 (5.33817)
Outpt time (%) = 8.93977e-06 (0.826288)
Other time (%) = 9.5253e-05 (8.80408)

Nlocal:    162 ave 162 max 162 min
Histogram: 1 0 0 0 0 0 0 0 0 0
Nghost:    345 ave 345 max 345 min
Histogram: 1 0 0 0 0 0 0 0 0 0
Neighs:    1434 ave 1434 max 1434 min
Histogram: 1 0 0 0 0 0 0 0 0 0

Total # of neighbors = 1434
Ave neighs/atom = 8.85185
Neighbor list builds = 0
Dangerous builds = 0
        # write_dump all atom ${dumpfile}
        next i
jump SELF loop1
        displace_atoms upper move ${xstep1} 0.0 0.0 units lattice
        displace_atoms upper move 0.00333333333333333 0.0 0.0 units lattice
        min_style ${style}
        min_style cg
        minimize ${etol} ${ftol} ${maxiter} ${maxeval}
        minimize 1e-12 ${ftol} ${maxiter} ${maxeval}
        minimize 1e-12 1e-08 ${maxiter} ${maxeval}
        minimize 1e-12 1e-08 10000 ${maxeval}
        minimize 1e-12 1e-08 10000 20000
WARNING: Resetting reneighboring criteria during minimization (../min.cpp:168)
Memory usage per processor = 3.3526 Mbytes
Step Temp PotEng Lx Ly Lz 
     121            0   -481.86101    2.2449075    77.781643    1.1224537 
     122            0   -481.86107    2.2449075    77.781643    1.1224537 
     123            0   -481.86109    2.2449075    77.781643    1.1224537 
     124            0   -481.86109    2.2449075    77.781643    1.1224537 
     125            0   -481.86111    2.2449075    77.781643    1.1224537 
     126            0   -481.86113    2.2449075    77.781643    1.1224537 
     127            0   -481.86114    2.2449075    77.781643    1.1224537 
     128            0   -481.86116    2.2449075    77.781643    1.1224537 
     129            0   -481.86116    2.2449075    77.781643    1.1224537 
     130            0   -481.86117    2.2449075    77.781643    1.1224537 
     131            0   -481.86118    2.2449075    77.781643    1.1224537 
     132            0   -481.86119    2.2449075    77.781643    1.1224537 
     133            0   -481.86119    2.2449075    77.781643    1.1224537 
Loop time of 0.00481509 on 1 procs for 12 steps with 162 atoms

Minimization stats:
  Stopping criterion = linesearch alpha is zero
  Energy initial, next-to-last, final = 
        -481.861014717     -481.861192881     -481.861192881
  Force two-norm initial, final = 0.0956311 0.0436648
  Force max component initial, final = 0.0458015 0.0115673
  Final line search alpha, max atom move = 7.62939e-06 8.82516e-08
  Iterations, force evaluations = 12 98

Pair  time (%) = 0.00420091 (87.2447)
Neigh time (%) = 0 (0)
Comm  time (%) = 0.000188078 (3.90602)
Outpt time (%) = 7.49807e-05 (1.5572)
Other time (%) = 0.00035112 (7.29207)

Nlocal:    162 ave 162 max 162 min
Histogram: 1 0 0 0 0 0 0 0 0 0
Nghost:    345 ave 345 max 345 min
Histogram: 1 0 0 0 0 0 0 0 0 0
Neighs:    1434 ave 1434 max 1434 min
Histogram: 1 0 0 0 0 0 0 0 0 0

Total # of neighbors = 1434
Ave neighs/atom = 8.85185
Neighbor list builds = 0
Dangerous builds = 0
        # write_dump all atom ${dumpfile}
        next i
jump SELF loop1
        displace_atoms upper move ${xstep1} 0.0 0.0 units lattice
        displace_atoms upper move 0.00333333333333333 0.0 0.0 units lattice
        min_style ${style}
        min_style cg
        minimize ${etol} ${ftol} ${maxiter} ${maxeval}
        minimize 1e-12 ${ftol} ${maxiter} ${maxeval}
        minimize 1e-12 1e-08 ${maxiter} ${maxeval}
        minimize 1e-12 1e-08 10000 ${maxeval}
        minimize 1e-12 1e-08 10000 20000
WARNING: Resetting reneighboring criteria during minimization (../min.cpp:168)
Memory usage per processor = 3.3526 Mbytes
Step Temp PotEng Lx Ly Lz 
     133            0   -481.85685    2.2449075    77.781683    1.1224537 
     134            0   -481.85689    2.2449075    77.781683    1.1224537 
     135            0    -481.8569    2.2449075    77.781683    1.1224537 
     136            0    -481.8569    2.2449075    77.781683    1.1224537 
Loop time of 0.00114997 on 1 procs for 3 steps with 162 atoms

Minimization stats:
  Stopping criterion = linesearch alpha is zero
  Energy initial, next-to-last, final = 
        -481.856854836     -481.856903385     -481.856903385
  Force two-norm initial, final = 0.101447 0.0206824
  Force max component initial, final = 0.0466449 0.00792682
  Final line search alpha, max atom move = 1.52588e-05 1.20954e-07
  Iterations, force evaluations = 3 32

Pair  time (%) = 0.000967046 (84.093)
Neigh time (%) = 0 (0)
Comm  time (%) = 6.44655e-05 (5.60583)
Outpt time (%) = 1.39182e-05 (1.2103)
Other time (%) = 0.000104543 (9.09088)

Nlocal:    162 ave 162 max 162 min
Histogram: 1 0 0 0 0 0 0 0 0 0
Nghost:    345 ave 345 max 345 min
Histogram: 1 0 0 0 0 0 0 0 0 0
Neighs:    1434 ave 1434 max 1434 min
Histogram: 1 0 0 0 0 0 0 0 0 0

Total # of neighbors = 1434
Ave neighs/atom = 8.85185
Neighbor list builds = 0
Dangerous builds = 0
[...]

Pair  time (%) = 0.00048114 (84.8703)
Neigh time (%) = 0 (0)
Comm  time (%) = 3.12306e-05 (5.50891)
Outpt time (%) = 0 (0)
Other time (%) = 5.45412e-05 (9.62076)

Nlocal:    162 ave 162 max 162 min
Histogram: 1 0 0 0 0 0 0 0 0 0
Nghost:    365 ave 365 max 365 min
Histogram: 1 0 0 0 0 0 0 0 0 0
Neighs:    1438 ave 1438 max 1438 min
Histogram: 1 0 0 0 0 0 0 0 0 0

Total # of neighbors = 1438
Ave neighs/atom = 8.87654
Neighbor list builds = 0
Dangerous builds = 0
        # write_dump all atom ${dumpfile}
        next i
jump SELF loop1
        displace_atoms upper move ${xstep1} 0.0 0.0 units lattice
        displace_atoms upper move 0.00333333333333333 0.0 0.0 units lattice
        min_style ${style}
        min_style cg
        minimize ${etol} ${ftol} ${maxiter} ${maxeval}
        minimize 1e-12 ${ftol} ${maxiter} ${maxeval}
        minimize 1e-12 1e-08 ${maxiter} ${maxeval}
        minimize 1e-12 1e-08 10000 ${maxeval}
        minimize 1e-12 1e-08 10000 20000
WARNING: Resetting reneighboring criteria during minimization (../min.cpp:168)
Memory usage per processor = 3.3526 Mbytes
Step Temp PotEng Lx Ly Lz 
    1268            0   -481.98237    2.2449075    77.810633    1.1224537 
    1269            0   -481.98237    2.2449075    77.810633    1.1224537 
Loop time of 0.00208607 on 1 procs for 1 steps with 162 atoms

Minimization stats:
  Stopping criterion = linesearch alpha is zero
  Energy initial, next-to-last, final = 
        -481.982371053     -481.982371053     -481.982371053
  Force two-norm initial, final = 0.01434 0.01434
  Force max component initial, final = 0.00274719 0.00274719
  Final line search alpha, max atom move = 3.05176e-05 8.38377e-08
  Iterations, force evaluations = 1 16

Pair  time (%) = 0.0018418 (88.2905)
Neigh time (%) = 0 (0)
Comm  time (%) = 0.000104934 (5.03022)
Outpt time (%) = 0 (0)
Other time (%) = 0.000139335 (6.67932)

Nlocal:    162 ave 162 max 162 min
Histogram: 1 0 0 0 0 0 0 0 0 0
Nghost:    365 ave 365 max 365 min
Histogram: 1 0 0 0 0 0 0 0 0 0
Neighs:    1438 ave 1438 max 1438 min
Histogram: 1 0 0 0 0 0 0 0 0 0

Total # of neighbors = 1438
Ave neighs/atom = 8.87654
Neighbor list builds = 0
Dangerous builds = 0
        # write_dump all atom ${dumpfile}
        next i
jump SELF loop1
        displace_atoms upper move ${xstep1} 0.0 0.0 units lattice
        displace_atoms upper move 0.00333333333333333 0.0 0.0 units lattice
        min_style ${style}
        min_style cg
        minimize ${etol} ${ftol} ${maxiter} ${maxeval}
        minimize 1e-12 ${ftol} ${maxiter} ${maxeval}
        minimize 1e-12 1e-08 ${maxiter} ${maxeval}
        minimize 1e-12 1e-08 10000 ${maxeval}
        minimize 1e-12 1e-08 10000 20000
WARNING: Resetting reneighboring criteria during minimization (../min.cpp:168)
Memory usage per processor = 3.3526 Mbytes
Step Temp PotEng Lx Ly Lz 
    1269            0   -481.98551    2.2449075    77.810633    1.1224537 
    1270            0   -481.98551    2.2449075    77.810633    1.1224537 
Loop time of 0.000806119 on 1 procs for 1 steps with 162 atoms

Minimization stats:
  Stopping criterion = linesearch alpha is zero
  Energy initial, next-to-last, final = 
        -481.985510846     -481.985510846     -481.985510846
  Force two-norm initial, final = 0.0136694 0.0136694
  Force max component initial, final = 0.00274719 0.00274719
  Final line search alpha, max atom move = 6.10352e-05 1.67675e-07
  Iterations, force evaluations = 1 15

Pair  time (%) = 0.00069371 (86.0555)
Neigh time (%) = 0 (0)
Comm  time (%) = 4.50858e-05 (5.59294)
Outpt time (%) = 0 (0)
Other time (%) = 6.73234e-05 (8.35155)

Nlocal:    162 ave 162 max 162 min
Histogram: 1 0 0 0 0 0 0 0 0 0
Nghost:    365 ave 365 max 365 min
Histogram: 1 0 0 0 0 0 0 0 0 0
Neighs:    1438 ave 1438 max 1438 min
Histogram: 1 0 0 0 0 0 0 0 0 0

Total # of neighbors = 1438
Ave neighs/atom = 8.87654
Neighbor list builds = 0
Dangerous builds = 0
        # write_dump all atom ${dumpfile}
        next i
jump SELF loop1
        displace_atoms upper move ${xstep1} 0.0 0.0 units lattice
        displace_atoms upper move 0.00333333333333333 0.0 0.0 units lattice
        min_style ${style}
        min_style cg
        minimize ${etol} ${ftol} ${maxiter} ${maxeval}
        minimize 1e-12 ${ftol} ${maxiter} ${maxeval}
        minimize 1e-12 1e-08 ${maxiter} ${maxeval}
        minimize 1e-12 1e-08 10000 ${maxeval}
        minimize 1e-12 1e-08 10000 20000
WARNING: Resetting reneighboring criteria during minimization (../min.cpp:168)
Memory usage per processor = 3.3526 Mbytes
Step Temp PotEng Lx Ly Lz 
    1270            0   -481.98837    2.2449075    77.810633    1.1224537 
    1271            0   -481.98837    2.2449075    77.810633    1.1224537 
    1272            0   -481.98837    2.2449075    77.810633    1.1224537 
Loop time of 0.000812026 on 1 procs for 2 steps with 162 atoms

Minimization stats:
  Stopping criterion = linesearch alpha is zero
  Energy initial, next-to-last, final = 
        -481.988369175      -481.98837255      -481.98837255
  Force two-norm initial, final = 0.0244323 0.0154636
  Force max component initial, final = 0.0102638 0.00457847
  Final line search alpha, max atom move = 3.05176e-05 1.39724e-07
  Iterations, force evaluations = 2 24

Pair  time (%) = 0.000665597 (81.9674)
Neigh time (%) = 0 (0)
Comm  time (%) = 4.80079e-05 (5.91211)
Outpt time (%) = 1.05065e-06 (0.129386)
Other time (%) = 9.73707e-05 (11.9911)

Nlocal:    162 ave 162 max 162 min
Histogram: 1 0 0 0 0 0 0 0 0 0
Nghost:    365 ave 365 max 365 min
Histogram: 1 0 0 0 0 0 0 0 0 0
Neighs:    1438 ave 1438 max 1438 min
Histogram: 1 0 0 0 0 0 0 0 0 0

Total # of neighbors = 1438
Ave neighs/atom = 8.87654
Neighbor list builds = 0
Dangerous builds = 0
        # write_dump all atom ${dumpfile}
        next i
jump SELF loop1
        displace_atoms upper move ${xstep1} 0.0 0.0 units lattice
        displace_atoms upper move 0.00333333333333333 0.0 0.0 units lattice
        min_style ${style}
        min_style cg
        minimize ${etol} ${ftol} ${maxiter} ${maxeval}
        minimize 1e-12 ${ftol} ${maxiter} ${maxeval}
        minimize 1e-12 1e-08 ${maxiter} ${maxeval}
        minimize 1e-12 1e-08 10000 ${maxeval}
        minimize 1e-12 1e-08 10000 20000
WARNING: Resetting reneighboring criteria during minimization (../min.cpp:168)
Memory usage per processor = 3.3526 Mbytes
Step Temp PotEng Lx Ly Lz 
    1272            0    -481.9909    2.2449075     77.81062    1.1224537 
    1273            0    -481.9909    2.2449075     77.81062    1.1224537 
    1274            0    -481.9909    2.2449075     77.81062    1.1224537 
Loop time of 0.00152189 on 1 procs for 2 steps with 162 atoms

Minimization stats:
  Stopping criterion = linesearch alpha is zero
  Energy initial, next-to-last, final = 
         -481.99090215     -481.990902524     -481.990902524
  Force two-norm initial, final = 0.0295106 0.0275717
  Force max component initial, final = 0.0127729 0.0115669
  Final line search alpha, max atom move = 1.52588e-05 1.76496e-07
  Iterations, force evaluations = 2 28

Pair  time (%) = 0.00136291 (89.5537)
Neigh time (%) = 0 (0)
Comm  time (%) = 5.71699e-05 (3.75651)
Outpt time (%) = 8.89052e-06 (0.584176)
Other time (%) = 9.29214e-05 (6.10566)

Nlocal:    162 ave 162 max 162 min
Histogram: 1 0 0 0 0 0 0 0 0 0
Nghost:    365 ave 365 max 365 min
Histogram: 1 0 0 0 0 0 0 0 0 0
Neighs:    1438 ave 1438 max 1438 min
Histogram: 1 0 0 0 0 0 0 0 0 0

Total # of neighbors = 1438
Ave neighs/atom = 8.87654
Neighbor list builds = 0
Dangerous builds = 0
        # write_dump all atom ${dumpfile}
        next i
jump SELF loop1
        displace_atoms upper move ${xstep1} 0.0 0.0 units lattice
        displace_atoms upper move 0.00333333333333333 0.0 0.0 units lattice
        min_style ${style}
        min_style cg
        minimize ${etol} ${ftol} ${maxiter} ${maxeval}
        minimize 1e-12 ${ftol} ${maxiter} ${maxeval}
        minimize 1e-12 1e-08 ${maxiter} ${maxeval}
        minimize 1e-12 1e-08 10000 ${maxeval}
        minimize 1e-12 1e-08 10000 20000
WARNING: Resetting reneighboring criteria during minimization (../min.cpp:168)
Memory usage per processor = 3.3526 Mbytes
Step Temp PotEng Lx Ly Lz 
    1274            0   -481.99309    2.2449075    77.810618    1.1224537 
    1275            0   -481.99311    2.2449075    77.810618    1.1224537 
    1276            0   -481.99311    2.2449075    77.810618    1.1224537 
Loop time of 0.000902889 on 1 procs for 2 steps with 162 atoms

Minimization stats:
  Stopping criterion = linesearch alpha is zero
  Energy initial, next-to-last, final = 
        -481.993094457     -481.993109701     -481.993109701
  Force two-norm initial, final = 0.0439894 0.0360408
  Force max component initial, final = 0.0206791 0.0120601
  Final line search alpha, max atom move = 1.52588e-05 1.84023e-07
  Iterations, force evaluations = 2 24

Pair  time (%) = 0.000760239 (84.2007)
Neigh time (%) = 0 (0)
Comm  time (%) = 4.86864e-05 (5.39229)
Outpt time (%) = 5.92729e-06 (0.65648)
Other time (%) = 8.80364e-05 (9.75052)

Nlocal:    162 ave 162 max 162 min
Histogram: 1 0 0 0 0 0 0 0 0 0
Nghost:    365 ave 365 max 365 min
Histogram: 1 0 0 0 0 0 0 0 0 0
Neighs:    1438 ave 1438 max 1438 min
Histogram: 1 0 0 0 0 0 0 0 0 0

Total # of neighbors = 1438
Ave neighs/atom = 8.87654
Neighbor list builds = 0
Dangerous builds = 0
        # write_dump all atom ${dumpfile}
        next i
jump SELF loop1
        displace_atoms upper move ${xstep1} 0.0 0.0 units lattice
        displace_atoms upper move 0.00333333333333333 0.0 0.0 units lattice
        min_style ${style}
        min_style cg
        minimize ${etol} ${ftol} ${maxiter} ${maxeval}
        minimize 1e-12 ${ftol} ${maxiter} ${maxeval}
        minimize 1e-12 1e-08 ${maxiter} ${maxeval}
        minimize 1e-12 1e-08 10000 ${maxeval}
        minimize 1e-12 1e-08 10000 20000
WARNING: Resetting reneighboring criteria during minimization (../min.cpp:168)
Memory usage per processor = 3.3526 Mbytes
Step Temp PotEng Lx Ly Lz 
    1276            0   -481.99498    2.2449075    77.810591    1.1224537 
    1277            0   -481.99498    2.2449075    77.810591    1.1224537 
Loop time of 0.000636969 on 1 procs for 1 steps with 162 atoms

Minimization stats:
  Stopping criterion = linesearch alpha is zero
  Energy initial, next-to-last, final = 
        -481.994976478     -481.994976478     -481.994976478
  Force two-norm initial, final = 0.0281315 0.0281315
  Force max component initial, final = 0.0120059 0.0120059
  Final line search alpha, max atom move = 1.52588e-05 1.83195e-07
  Iterations, force evaluations = 1 17

Pair  time (%) = 0.00054128 (84.9775)
Neigh time (%) = 0 (0)
Comm  time (%) = 3.6007e-05 (5.65287)
Outpt time (%) = 0 (0)
Other time (%) = 5.96817e-05 (9.36964)

Nlocal:    162 ave 162 max 162 min
Histogram: 1 0 0 0 0 0 0 0 0 0
Nghost:    365 ave 365 max 365 min
Histogram: 1 0 0 0 0 0 0 0 0 0
Neighs:    1438 ave 1438 max 1438 min
Histogram: 1 0 0 0 0 0 0 0 0 0

Total # of neighbors = 1438
Ave neighs/atom = 8.87654
Neighbor list builds = 0
Dangerous builds = 0
        # write_dump all atom ${dumpfile}
        next i
jump SELF loop1
        displace_atoms upper move ${xstep1} 0.0 0.0 units lattice
        displace_atoms upper move 0.00333333333333333 0.0 0.0 units lattice
        min_style ${style}
        min_style cg
        minimize ${etol} ${ftol} ${maxiter} ${maxeval}
        minimize 1e-12 ${ftol} ${maxiter} ${maxeval}
        minimize 1e-12 1e-08 ${maxiter} ${maxeval}
        minimize 1e-12 1e-08 10000 ${maxeval}
        minimize 1e-12 1e-08 10000 20000
WARNING: Resetting reneighboring criteria during minimization (../min.cpp:168)
Memory usage per processor = 3.3526 Mbytes
Step Temp PotEng Lx Ly Lz 
    1277            0   -481.99651    2.2449075    77.810591    1.1224537 
    1278            0   -481.99651    2.2449075    77.810591    1.1224537 
Loop time of 0.000637083 on 1 procs for 1 steps with 162 atoms

Minimization stats:
  Stopping criterion = linesearch alpha is zero
  Energy initial, next-to-last, final = 
        -481.996505054     -481.996505054     -481.996505054
  Force two-norm initial, final = 0.0271086 0.0271086
  Force max component initial, final = 0.0120059 0.0120059
  Final line search alpha, max atom move = 1.52588e-05 1.83195e-07
  Iterations, force evaluations = 1 17

Pair  time (%) = 0.000542748 (85.1926)
Neigh time (%) = 0 (0)
Comm  time (%) = 3.54119e-05 (5.55845)
Outpt time (%) = 0 (0)
Other time (%) = 5.89234e-05 (9.24893)

Nlocal:    162 ave 162 max 162 min
Histogram: 1 0 0 0 0 0 0 0 0 0
Nghost:    365 ave 365 max 365 min
Histogram: 1 0 0 0 0 0 0 0 0 0
Neighs:    1438 ave 1438 max 1438 min
Histogram: 1 0 0 0 0 0 0 0 0 0

Total # of neighbors = 1438
Ave neighs/atom = 8.87654
Neighbor list builds = 0
Dangerous builds = 0
        # write_dump all atom ${dumpfile}
        next i
jump SELF loop1
        displace_atoms upper move ${xstep1} 0.0 0.0 units lattice
        displace_atoms upper move 0.00333333333333333 0.0 0.0 units lattice
        min_style ${style}
        min_style cg
        minimize ${etol} ${ftol} ${maxiter} ${maxeval}
        minimize 1e-12 ${ftol} ${maxiter} ${maxeval}
        minimize 1e-12 1e-08 ${maxiter} ${maxeval}
        minimize 1e-12 1e-08 10000 ${maxeval}
        minimize 1e-12 1e-08 10000 20000
WARNING: Resetting reneighboring criteria during minimization (../min.cpp:168)
Memory usage per processor = 3.3526 Mbytes
Step Temp PotEng Lx Ly Lz 
    1278            0   -481.99769    2.2449075    77.810591    1.1224537 
    1279            0    -481.9977    2.2449075    77.810591    1.1224537 
    1280            0    -481.9977    2.2449075    77.810591    1.1224537 
Loop time of 0.000926039 on 1 procs for 2 steps with 162 atoms

Minimization stats:
  Stopping criterion = linesearch alpha is zero
  Energy initial, next-to-last, final = 
         -481.99769494      -481.99769849      -481.99769849
  Force two-norm initial, final = 0.030246 0.0228962
  Force max component initial, final = 0.0120059 0.00786843
  Final line search alpha, max atom move = 1.52588e-05 1.20063e-07
  Iterations, force evaluations = 2 25

Pair  time (%) = 0.000779028 (84.1247)
Neigh time (%) = 0 (0)
Comm  time (%) = 5.28119e-05 (5.70299)
Outpt time (%) = 5.98282e-06 (0.646065)
Other time (%) = 8.82163e-05 (9.5262)

Nlocal:    162 ave 162 max 162 min
Histogram: 1 0 0 0 0 0 0 0 0 0
Nghost:    365 ave 365 max 365 min
Histogram: 1 0 0 0 0 0 0 0 0 0
Neighs:    1438 ave 1438 max 1438 min
Histogram: 1 0 0 0 0 0 0 0 0 0

Total # of neighbors = 1438
Ave neighs/atom = 8.87654
Neighbor list builds = 0
Dangerous builds = 0
        # write_dump all atom ${dumpfile}
        next i
jump SELF loop1
        displace_atoms upper move ${xstep1} 0.0 0.0 units lattice
        displace_atoms upper move 0.00333333333333333 0.0 0.0 units lattice
        min_style ${style}
        min_style cg
        minimize ${etol} ${ftol} ${maxiter} ${maxeval}
        minimize 1e-12 ${ftol} ${maxiter} ${maxeval}
        minimize 1e-12 1e-08 ${maxiter} ${maxeval}
        minimize 1e-12 1e-08 10000 ${maxeval}
        minimize 1e-12 1e-08 10000 20000
WARNING: Resetting reneighboring criteria during minimization (../min.cpp:168)
Memory usage per processor = 3.3526 Mbytes
Step Temp PotEng Lx Ly Lz 
    1280            0   -481.99855    2.2449075    77.810577    1.1224537 
    1281            0   -481.99856    2.2449075    77.810577    1.1224537 
    1282            0   -481.99856    2.2449075    77.810577    1.1224537 
Loop time of 0.000857952 on 1 procs for 2 steps with 162 atoms

Minimization stats:
  Stopping criterion = linesearch alpha is zero
  Energy initial, next-to-last, final = 
        -481.998548043     -481.998557673     -481.998557673
  Force two-norm initial, final = 0.0264506 0.0267759
  Force max component initial, final = 0.0079792 0.0103819
  Final line search alpha, max atom move = 1.52588e-05 1.58416e-07
  Iterations, force evaluations = 2 23

Pair  time (%) = 0.000719545 (83.8678)
Neigh time (%) = 0 (0)
Comm  time (%) = 4.68759e-05 (5.4637)
Outpt time (%) = 8.89867e-06 (1.0372)
Other time (%) = 8.26324e-05 (9.63135)

Nlocal:    162 ave 162 max 162 min
Histogram: 1 0 0 0 0 0 0 0 0 0
Nghost:    365 ave 365 max 365 min
Histogram: 1 0 0 0 0 0 0 0 0 0
Neighs:    1438 ave 1438 max 1438 min
Histogram: 1 0 0 0 0 0 0 0 0 0

Total # of neighbors = 1438
Ave neighs/atom = 8.87654
Neighbor list builds = 0
Dangerous builds = 0
        # write_dump all atom ${dumpfile}
        next i
jump SELF loop1
        displace_atoms upper move ${xstep1} 0.0 0.0 units lattice
        displace_atoms upper move 0.00333333333333333 0.0 0.0 units lattice
        min_style ${style}
        min_style cg
        minimize ${etol} ${ftol} ${maxiter} ${maxeval}
        minimize 1e-12 ${ftol} ${maxiter} ${maxeval}
        minimize 1e-12 1e-08 ${maxiter} ${maxeval}
        minimize 1e-12 1e-08 10000 ${maxeval}
        minimize 1e-12 1e-08 10000 20000
WARNING: Resetting reneighboring criteria during minimization (../min.cpp:168)
Memory usage per processor = 3.3526 Mbytes
Step Temp PotEng Lx Ly Lz 
    1282            0   -481.99907    2.2449075    77.810522    1.1224537 
    1283            0   -481.99907    2.2449075    77.810522    1.1224537 
Loop time of 0.000695116 on 1 procs for 1 steps with 162 atoms

Minimization stats:
  Stopping criterion = linesearch alpha is zero
  Energy initial, next-to-last, final = 
        -481.999068938     -481.999068938     -481.999068938
  Force two-norm initial, final = 0.0236353 0.0236353
  Force max component initial, final = 0.00825691 0.00825691
  Final line search alpha, max atom move = 1.52588e-05 1.2599e-07
  Iterations, force evaluations = 1 17

Pair  time (%) = 0.000592998 (85.3092)
Neigh time (%) = 0 (0)
Comm  time (%) = 3.6421e-05 (5.23956)
Outpt time (%) = 0 (0)
Other time (%) = 6.5697e-05 (9.45123)

Nlocal:    162 ave 162 max 162 min
Histogram: 1 0 0 0 0 0 0 0 0 0
Nghost:    365 ave 365 max 365 min
Histogram: 1 0 0 0 0 0 0 0 0 0
Neighs:    1438 ave 1438 max 1438 min
Histogram: 1 0 0 0 0 0 0 0 0 0

Total # of neighbors = 1438
Ave neighs/atom = 8.87654
Neighbor list builds = 0
Dangerous builds = 0
        # write_dump all atom ${dumpfile}
        next i
jump SELF loop1
        displace_atoms upper move ${xstep1} 0.0 0.0 units lattice
        displace_atoms upper move 0.00333333333333333 0.0 0.0 units lattice
        min_style ${style}
        min_style cg
        minimize ${etol} ${ftol} ${maxiter} ${maxeval}
        minimize 1e-12 ${ftol} ${maxiter} ${maxeval}
        minimize 1e-12 1e-08 ${maxiter} ${maxeval}
        minimize 1e-12 1e-08 10000 ${maxeval}
        minimize 1e-12 1e-08 10000 20000
WARNING: Resetting reneighboring criteria during minimization (../min.cpp:168)
Memory usage per processor = 3.3526 Mbytes
Step Temp PotEng Lx Ly Lz 
    1283            0   -481.99924    2.2449075    77.810522    1.1224537 
    1284            0   -481.99924    2.2449075    77.810522    1.1224537 
Loop time of 0.000635929 on 1 procs for 1 steps with 162 atoms

Minimization stats:
  Stopping criterion = linesearch alpha is zero
  Energy initial, next-to-last, final = 
        -481.999239385     -481.999239385     -481.999239385
  Force two-norm initial, final = 0.0226687 0.0226687
  Force max component initial, final = 0.00754841 0.00754841
  Final line search alpha, max atom move = 1.52588e-05 1.1518e-07
  Iterations, force evaluations = 1 17

Pair  time (%) = 0.00054047 (84.989)
Neigh time (%) = 0 (0)
Comm  time (%) = 3.73402e-05 (5.87176)
Outpt time (%) = 0 (0)
Other time (%) = 5.8119e-05 (9.13922)

Nlocal:    162 ave 162 max 162 min
Histogram: 1 0 0 0 0 0 0 0 0 0
Nghost:    365 ave 365 max 365 min
Histogram: 1 0 0 0 0 0 0 0 0 0
Neighs:    1438 ave 1438 max 1438 min
Histogram: 1 0 0 0 0 0 0 0 0 0

Total # of neighbors = 1438
Ave neighs/atom = 8.87654
Neighbor list builds = 0
Dangerous builds = 0
        # write_dump all atom ${dumpfile}
        next i
jump SELF loop1


