LAMMPS (28 Jun 2014)
# attempt at getting generalized stacking fault (GSF) energy curve

#file prefix
variable prefix string gsf_V_inter3new2
variable dumpfile string ${prefix}.*.dump
variable dumpfile string gsf_V_inter3new2.*.dump
variable restartfile string ${prefix}.*.equil
variable restartfile string gsf_V_inter3new2.*.equil

#Mass (g/mol)
variable m equal 1

# lattice constant (in Angstroms) and orientation of axes (given by lattice vectors)
variable rho equal 0.9165
variable x1 equal 1
variable x2 equal 0
variable x3 equal 0
variable y1 equal 0
variable y2 equal 1
variable y3 equal 0
# length of lattice in different directions (using orientation of lattice vectors)
variable ax equal sqrt(${x1}*${x1}+${x2}*${x2}+${x3}*${x3})
variable ax equal sqrt(1*${x1}+${x2}*${x2}+${x3}*${x3})
variable ax equal sqrt(1*1+${x2}*${x2}+${x3}*${x3})
variable ax equal sqrt(1*1+0*${x2}+${x3}*${x3})
variable ax equal sqrt(1*1+0*0+${x3}*${x3})
variable ax equal sqrt(1*1+0*0+0*${x3})
variable ax equal sqrt(1*1+0*0+0*0)
variable ay equal sqrt(${y1}*${y1}+${y2}*${y2}+${y3}*${y3})
variable ay equal sqrt(0*${y1}+${y2}*${y2}+${y3}*${y3})
variable ay equal sqrt(0*0+${y2}*${y2}+${y3}*${y3})
variable ay equal sqrt(0*0+1*${y2}+${y3}*${y3})
variable ay equal sqrt(0*0+1*1+${y3}*${y3})
variable ay equal sqrt(0*0+1*1+0*${y3})
variable ay equal sqrt(0*0+1*1+0*0)
variable az equal 1

# size of box in lattice units
variable lxpos equal 1
variable lxneg equal -1*${lxpos}
variable lxneg equal -1*1
variable lypos equal 10
variable lyneg equal -1*${lypos}
variable lyneg equal -1*10
variable lzpos equal 0
variable lzneg equal -1

# Define minimization parameters and damping
variable etol equal 1.0e-12
variable ftol equal 1.0e-8
variable maxiter equal 10000
variable maxeval equal 20000
variable style string cg

# boundary conditions
dimension	2
boundary	p s p
atom_style	atomic

# create geometry
units		lj
lattice         hex ${rho}
lattice         hex 0.9165
Lattice spacing in x,y,z = 1.12245 1.94415 1.12245
region		myregion block ${lxneg} ${lxpos} ${lyneg} ${lypos} ${lzneg} ${lzpos} units lattice
region		myregion block -1 ${lxpos} ${lyneg} ${lypos} ${lzneg} ${lzpos} units lattice
region		myregion block -1 1 ${lyneg} ${lypos} ${lzneg} ${lzpos} units lattice
region		myregion block -1 1 -10 ${lypos} ${lzneg} ${lzpos} units lattice
region		myregion block -1 1 -10 10 ${lzneg} ${lzpos} units lattice
region		myregion block -1 1 -10 10 -1 ${lzpos} units lattice
region		myregion block -1 1 -10 10 -1 0 units lattice
create_box	3 myregion
Created orthogonal box = (-1.12245 -19.4415 -1.12245) to (1.12245 19.4415 0)
  1 by 1 by 1 MPI processor grid
create_atoms	1 box
Created 82 atoms

# define masses
mass * $m
mass * 1

# my fake/morse potential
pair_style      table linear 3001
pair_coeff      * * vpotential_inter3new2 dummy
neighbor	0.3 bin
neigh_modify	delay 5

# define groups
region	    upper block INF INF 0.01 ${lypos} INF INF units lattice
region	    upper block INF INF 0.01 10 INF INF units lattice
group		upper region upper
40 atoms in group upper

# Setup output
thermo 1
thermo_style custom step temp pe lx ly lz
thermo_modify norm no

# Compute initial state by relaxing box
min_style ${style}
min_style cg
minimize ${etol} ${ftol} ${maxiter} ${maxeval}
minimize 1e-12 ${ftol} ${maxiter} ${maxeval}
minimize 1e-12 1e-08 ${maxiter} ${maxeval}
minimize 1e-12 1e-08 10000 ${maxeval}
minimize 1e-12 1e-08 10000 20000
WARNING: Resetting reneighboring criteria during minimization (../min.cpp:168)
Memory usage per processor = 3.35169 Mbytes
Step Temp PotEng Lx Ly Lz 
       0            0   -241.99993    2.2449075    38.890715    1.1224537 
       1            0   -241.99993    2.2449075    38.890715    1.1224537 
       2            0   -241.99993    2.2449075    38.890715    1.1224537 
Loop time of 0.00033291 on 1 procs for 2 steps with 82 atoms

Minimization stats:
  Stopping criterion = linesearch alpha is zero
  Energy initial, next-to-last, final = 
        -241.999927696     -241.999929863     -241.999929863
  Force two-norm initial, final = 0.000778805 0.00455994
  Force max component initial, final = 0.000389403 0.00179508
  Final line search alpha, max atom move = 0.000488281 8.76506e-07
  Iterations, force evaluations = 2 16

Pair  time (%) = 0.00025698 (77.1921)
Neigh time (%) = 0 (0)
Comm  time (%) = 3.24093e-05 (9.73516)
Outpt time (%) = 1.20861e-05 (3.63045)
Other time (%) = 3.14345e-05 (9.44233)

Nlocal:    82 ave 82 max 82 min
Histogram: 1 0 0 0 0 0 0 0 0 0
Nghost:    185 ave 185 max 185 min
Histogram: 1 0 0 0 0 0 0 0 0 0
Neighs:    718 ave 718 max 718 min
Histogram: 1 0 0 0 0 0 0 0 0 0

Total # of neighbors = 718
Ave neighs/atom = 8.7561
Neighbor list builds = 0
Dangerous builds = 0

# don't allow atoms to relax in x-direction
fix 2 all setforce 0.0 NULL 0.0

# GSF energy curve will have 100*2 steps
variable nsteps equal 300
variable sstep1 equal 1.
variable xstep1 equal ${sstep1}/(${ax}*${nsteps})
variable xstep1 equal 1/(${ax}*${nsteps})
variable xstep1 equal 1/(1*${nsteps})
variable xstep1 equal 1/(1*300)

variable i loop ${nsteps}
variable i loop 300
label loop1
        displace_atoms upper move ${xstep1} 0.0 0.0 units lattice
        displace_atoms upper move 0.00333333333333333 0.0 0.0 units lattice
        min_style ${style}
        min_style cg
        minimize ${etol} ${ftol} ${maxiter} ${maxeval}
        minimize 1e-12 ${ftol} ${maxiter} ${maxeval}
        minimize 1e-12 1e-08 ${maxiter} ${maxeval}
        minimize 1e-12 1e-08 10000 ${maxeval}
        minimize 1e-12 1e-08 10000 20000
WARNING: Resetting reneighboring criteria during minimization (../min.cpp:168)
Memory usage per processor = 3.35169 Mbytes
Step Temp PotEng Lx Ly Lz 
       2            0   -241.99976    2.2449075    38.890812    1.1224537 
       3            0   -241.99976    2.2449075    38.890812    1.1224537 
Loop time of 0.000252939 on 1 procs for 1 steps with 82 atoms

Minimization stats:
  Stopping criterion = linesearch alpha is zero
  Energy initial, next-to-last, final = 
        -241.999757399     -241.999757399     -241.999757399
  Force two-norm initial, final = 0.00478129 0.00478129
  Force max component initial, final = 0.00179508 0.00179508
  Final line search alpha, max atom move = 0.000488281 8.76506e-07
  Iterations, force evaluations = 1 12

Pair  time (%) = 0.00020474 (80.9444)
Neigh time (%) = 0 (0)
Comm  time (%) = 1.80299e-05 (7.12818)
Outpt time (%) = 0 (0)
Other time (%) = 3.01691e-05 (11.9274)

Nlocal:    82 ave 82 max 82 min
Histogram: 1 0 0 0 0 0 0 0 0 0
Nghost:    185 ave 185 max 185 min
Histogram: 1 0 0 0 0 0 0 0 0 0
Neighs:    718 ave 718 max 718 min
Histogram: 1 0 0 0 0 0 0 0 0 0

Total # of neighbors = 718
Ave neighs/atom = 8.7561
Neighbor list builds = 0
Dangerous builds = 0
        # write_dump all atom ${dumpfile}
        next i
jump SELF loop1
        displace_atoms upper move ${xstep1} 0.0 0.0 units lattice
        displace_atoms upper move 0.00333333333333333 0.0 0.0 units lattice
        min_style ${style}
        min_style cg
        minimize ${etol} ${ftol} ${maxiter} ${maxeval}
        minimize 1e-12 ${ftol} ${maxiter} ${maxeval}
        minimize 1e-12 1e-08 ${maxiter} ${maxeval}
        minimize 1e-12 1e-08 10000 ${maxeval}
        minimize 1e-12 1e-08 10000 20000
WARNING: Resetting reneighboring criteria during minimization (../min.cpp:168)
Memory usage per processor = 3.35169 Mbytes
Step Temp PotEng Lx Ly Lz 
       3            0   -241.99924    2.2449075    38.890812    1.1224537 
       4            0   -241.99924    2.2449075    38.890812    1.1224537 
Loop time of 0.000284058 on 1 procs for 1 steps with 82 atoms

Minimization stats:
  Stopping criterion = linesearch alpha is zero
  Energy initial, next-to-last, final = 
        -241.999241512     -241.999241512     -241.999241512
  Force two-norm initial, final = 0.00732734 0.00732734
  Force max component initial, final = 0.00286779 0.00286779
  Final line search alpha, max atom move = 0.00012207 3.50072e-07
  Iterations, force evaluations = 1 14

Pair  time (%) = 0.000231922 (81.6461)
Neigh time (%) = 0 (0)
Comm  time (%) = 1.68831e-05 (5.94356)
Outpt time (%) = 0 (0)
Other time (%) = 3.52524e-05 (12.4103)

Nlocal:    82 ave 82 max 82 min
Histogram: 1 0 0 0 0 0 0 0 0 0
Nghost:    185 ave 185 max 185 min
Histogram: 1 0 0 0 0 0 0 0 0 0
Neighs:    718 ave 718 max 718 min
Histogram: 1 0 0 0 0 0 0 0 0 0

Total # of neighbors = 718
Ave neighs/atom = 8.7561
Neighbor list builds = 0
Dangerous builds = 0
        # write_dump all atom ${dumpfile}
        next i
jump SELF loop1
        displace_atoms upper move ${xstep1} 0.0 0.0 units lattice
        displace_atoms upper move 0.00333333333333333 0.0 0.0 units lattice
        min_style ${style}
        min_style cg
        minimize ${etol} ${ftol} ${maxiter} ${maxeval}
        minimize 1e-12 ${ftol} ${maxiter} ${maxeval}
        minimize 1e-12 1e-08 ${maxiter} ${maxeval}
        minimize 1e-12 1e-08 10000 ${maxeval}
        minimize 1e-12 1e-08 10000 20000
WARNING: Resetting reneighboring criteria during minimization (../min.cpp:168)
Memory usage per processor = 3.35169 Mbytes
Step Temp PotEng Lx Ly Lz 
       4            0   -241.99838    2.2449075    38.890812    1.1224537 
       5            0   -241.99838    2.2449075    38.890812    1.1224537 
Loop time of 0.000965891 on 1 procs for 1 steps with 82 atoms

Minimization stats:
  Stopping criterion = linesearch alpha is zero
  Energy initial, next-to-last, final = 
        -241.998383655     -241.998383655     -241.998383655
  Force two-norm initial, final = 0.01366 0.01366
  Force max component initial, final = 0.00643821 0.00643821
  Final line search alpha, max atom move = 6.10352e-05 3.92957e-07
  Iterations, force evaluations = 1 15

Pair  time (%) = 0.00025155 (26.0433)
Neigh time (%) = 0 (0)
Comm  time (%) = 2.09271e-05 (2.16661)
Outpt time (%) = 0 (0)
Other time (%) = 0.000693414 (71.7901)

Nlocal:    82 ave 82 max 82 min
Histogram: 1 0 0 0 0 0 0 0 0 0
Nghost:    185 ave 185 max 185 min
Histogram: 1 0 0 0 0 0 0 0 0 0
Neighs:    718 ave 718 max 718 min
Histogram: 1 0 0 0 0 0 0 0 0 0

Total # of neighbors = 718
Ave neighs/atom = 8.7561
Neighbor list builds = 0
Dangerous builds = 0
        # write_dump all atom ${dumpfile}
        next i
jump SELF loop1
        displace_atoms upper move ${xstep1} 0.0 0.0 units lattice
        displace_atoms upper move 0.00333333333333333 0.0 0.0 units lattice
        min_style ${style}
        min_style cg
        minimize ${etol} ${ftol} ${maxiter} ${maxeval}
        minimize 1e-12 ${ftol} ${maxiter} ${maxeval}
        minimize 1e-12 1e-08 ${maxiter} ${maxeval}
        minimize 1e-12 1e-08 10000 ${maxeval}
        minimize 1e-12 1e-08 10000 20000
WARNING: Resetting reneighboring criteria during minimization (../min.cpp:168)
Memory usage per processor = 3.35169 Mbytes
Step Temp PotEng Lx Ly Lz 
       5            0   -241.99718    2.2449075    38.890812    1.1224537 
       6            0   -241.99718    2.2449075    38.890812    1.1224537 
Loop time of 0.000344931 on 1 procs for 1 steps with 82 atoms

Minimization stats:
  Stopping criterion = linesearch alpha is zero
  Energy initial, next-to-last, final = 
        -241.997184208     -241.997184208     -241.997184208
  Force two-norm initial, final = 0.0233072 0.0233072
  Force max component initial, final = 0.0114284 0.0114284
  Final line search alpha, max atom move = 1.52588e-05 1.74383e-07
  Iterations, force evaluations = 1 17

Pair  time (%) = 0.00027798 (80.5902)
Neigh time (%) = 0 (0)
Comm  time (%) = 2.42303e-05 (7.02469)
Outpt time (%) = 0 (0)
Other time (%) = 4.27202e-05 (12.3852)

Nlocal:    82 ave 82 max 82 min
Histogram: 1 0 0 0 0 0 0 0 0 0
Nghost:    185 ave 185 max 185 min
Histogram: 1 0 0 0 0 0 0 0 0 0
Neighs:    718 ave 718 max 718 min
Histogram: 1 0 0 0 0 0 0 0 0 0

Total # of neighbors = 718
Ave neighs/atom = 8.7561
Neighbor list builds = 0
Dangerous builds = 0
        # write_dump all atom ${dumpfile}
        next i
jump SELF loop1
        displace_atoms upper move ${xstep1} 0.0 0.0 units lattice
        displace_atoms upper move 0.00333333333333333 0.0 0.0 units lattice
        min_style ${style}
        min_style cg
        minimize ${etol} ${ftol} ${maxiter} ${maxeval}
        minimize 1e-12 ${ftol} ${maxiter} ${maxeval}
        minimize 1e-12 1e-08 ${maxiter} ${maxeval}
        minimize 1e-12 1e-08 10000 ${maxeval}
        minimize 1e-12 1e-08 10000 20000
WARNING: Resetting reneighboring criteria during minimization (../min.cpp:168)
Memory usage per processor = 3.35169 Mbytes
Step Temp PotEng Lx Ly Lz 
       6            0   -241.99564    2.2449075    38.890812    1.1224537 
       7            0   -241.99564    2.2449075    38.890812    1.1224537 
       8            0   -241.99564    2.2449075    38.890812    1.1224537 
       9            0   -241.99564    2.2449075    38.890812    1.1224537 
Loop time of 0.000824066 on 1 procs for 3 steps with 82 atoms

Minimization stats:
  Stopping criterion = linesearch alpha is zero
  Energy initial, next-to-last, final = 
        -241.995643567     -241.995644433     -241.995644433
  Force two-norm initial, final = 0.0359625 0.0312651
  Force max component initial, final = 0.0178361 0.015482
  Final line search alpha, max atom move = 7.62939e-06 1.18118e-07
  Iterations, force evaluations = 3 42

Pair  time (%) = 0.000673703 (81.7535)
Neigh time (%) = 0 (0)
Comm  time (%) = 5.55504e-05 (6.74101)
Outpt time (%) = 1.21765e-05 (1.47761)
Other time (%) = 8.26366e-05 (10.0279)

Nlocal:    82 ave 82 max 82 min
Histogram: 1 0 0 0 0 0 0 0 0 0
Nghost:    185 ave 185 max 185 min
Histogram: 1 0 0 0 0 0 0 0 0 0
Neighs:    718 ave 718 max 718 min
Histogram: 1 0 0 0 0 0 0 0 0 0

Total # of neighbors = 718
Ave neighs/atom = 8.7561
Neighbor list builds = 0
Dangerous builds = 0
        # write_dump all atom ${dumpfile}
        next i
jump SELF loop1
        displace_atoms upper move ${xstep1} 0.0 0.0 units lattice
        displace_atoms upper move 0.00333333333333333 0.0 0.0 units lattice
        min_style ${style}
        min_style cg
        minimize ${etol} ${ftol} ${maxiter} ${maxeval}
        minimize 1e-12 ${ftol} ${maxiter} ${maxeval}
        minimize 1e-12 1e-08 ${maxiter} ${maxeval}
        minimize 1e-12 1e-08 10000 ${maxeval}
        minimize 1e-12 1e-08 10000 20000
WARNING: Resetting reneighboring criteria during minimization (../min.cpp:168)
Memory usage per processor = 3.35169 Mbytes
Step Temp PotEng Lx Ly Lz 
       9            0   -241.99376    2.2449075    38.890809    1.1224537 
      10            0   -241.99377    2.2449075    38.890809    1.1224537 
      11            0   -241.99377    2.2449075    38.890809    1.1224537 
Loop time of 0.000477106 on 1 procs for 2 steps with 82 atoms

Minimization stats:
  Stopping criterion = linesearch alpha is zero
  Energy initial, next-to-last, final = 
        -241.993760152     -241.993767243     -241.993767243
  Force two-norm initial, final = 0.046848 0.0156938
  Force max component initial, final = 0.0233238 0.00704691
  Final line search alpha, max atom move = 3.05176e-05 2.15055e-07
  Iterations, force evaluations = 2 24

Pair  time (%) = 0.000387134 (81.1422)
Neigh time (%) = 0 (0)
Comm  time (%) = 3.00643e-05 (6.30138)
Outpt time (%) = 6.04091e-06 (1.26616)
Other time (%) = 5.38663e-05 (11.2902)

Nlocal:    82 ave 82 max 82 min
Histogram: 1 0 0 0 0 0 0 0 0 0
Nghost:    185 ave 185 max 185 min
Histogram: 1 0 0 0 0 0 0 0 0 0
Neighs:    718 ave 718 max 718 min
Histogram: 1 0 0 0 0 0 0 0 0 0

Total # of neighbors = 718
Ave neighs/atom = 8.7561
Neighbor list builds = 0
Dangerous builds = 0
        # write_dump all atom ${dumpfile}
        next i
jump SELF loop1
        displace_atoms upper move ${xstep1} 0.0 0.0 units lattice
        displace_atoms upper move 0.00333333333333333 0.0 0.0 units lattice
        min_style ${style}
        min_style cg
        minimize ${etol} ${ftol} ${maxiter} ${maxeval}
        minimize 1e-12 ${ftol} ${maxiter} ${maxeval}
        minimize 1e-12 1e-08 ${maxiter} ${maxeval}
        minimize 1e-12 1e-08 10000 ${maxeval}
        minimize 1e-12 1e-08 10000 20000
WARNING: Resetting reneighboring criteria during minimization (../min.cpp:168)
Memory usage per processor = 3.35169 Mbytes
Step Temp PotEng Lx Ly Lz 
      11            0   -241.99155    2.2449075    38.890789    1.1224537 
      12            0   -241.99155    2.2449075    38.890789    1.1224537 
      13            0   -241.99155    2.2449075    38.890789    1.1224537 
Loop time of 0.00057403 on 1 procs for 2 steps with 82 atoms

Minimization stats:
  Stopping criterion = linesearch alpha is zero
  Energy initial, next-to-last, final = 
        -241.991550751     -241.991550944     -241.991550944
  Force two-norm initial, final = 0.0288861 0.0279066
  Force max component initial, final = 0.0125837 0.0120304
  Final line search alpha, max atom move = 1.52588e-05 1.83569e-07
  Iterations, force evaluations = 2 29

Pair  time (%) = 0.000470955 (82.0436)
Neigh time (%) = 0 (0)
Comm  time (%) = 3.55972e-05 (6.20128)
Outpt time (%) = 5.91693e-06 (1.03077)
Other time (%) = 6.15611e-05 (10.7244)

Nlocal:    82 ave 82 max 82 min
Histogram: 1 0 0 0 0 0 0 0 0 0
Nghost:    185 ave 185 max 185 min
Histogram: 1 0 0 0 0 0 0 0 0 0
Neighs:    718 ave 718 max 718 min
Histogram: 1 0 0 0 0 0 0 0 0 0

Total # of neighbors = 718
Ave neighs/atom = 8.7561
Neighbor list builds = 0
Dangerous builds = 0
        # write_dump all atom ${dumpfile}
        next i
jump SELF loop1
        displace_atoms upper move ${xstep1} 0.0 0.0 units lattice
        displace_atoms upper move 0.00333333333333333 0.0 0.0 units lattice
        min_style ${style}
        min_style cg
        minimize ${etol} ${ftol} ${maxiter} ${maxeval}
        minimize 1e-12 ${ftol} ${maxiter} ${maxeval}
        minimize 1e-12 1e-08 ${maxiter} ${maxeval}
        minimize 1e-12 1e-08 10000 ${maxeval}
        minimize 1e-12 1e-08 10000 20000
WARNING: Resetting reneighboring criteria during minimization (../min.cpp:168)
Memory usage per processor = 3.35169 Mbytes
Step Temp PotEng Lx Ly Lz 
      13            0   -241.98899    2.2449075    38.890788    1.1224537 
      14            0     -241.989    2.2449075    38.890788    1.1224537 
      15            0     -241.989    2.2449075    38.890788    1.1224537 
      16            0     -241.989    2.2449075    38.890788    1.1224537 
      17            0     -241.989    2.2449075    38.890788    1.1224537 
      18            0     -241.989    2.2449075    38.890788    1.1224537 
Loop time of 0.00112602 on 1 procs for 5 steps with 82 atoms

Minimization stats:
  Stopping criterion = linesearch alpha is zero
  Energy initial, next-to-last, final = 
        -241.988993908     -241.989002581     -241.989002581
  Force two-norm initial, final = 0.0474891 0.0179964
  Force max component initial, final = 0.022668 0.00742926
  Final line search alpha, max atom move = 3.05176e-05 2.26723e-07
  Iterations, force evaluations = 5 56

Pair  time (%) = 0.000884951 (78.5911)
Neigh time (%) = 0 (0)
Comm  time (%) = 9.87699e-05 (8.7716)
Outpt time (%) = 2.70964e-05 (2.40639)
Other time (%) = 0.000115202 (10.2309)

Nlocal:    82 ave 82 max 82 min
Histogram: 1 0 0 0 0 0 0 0 0 0
Nghost:    185 ave 185 max 185 min
Histogram: 1 0 0 0 0 0 0 0 0 0
Neighs:    718 ave 718 max 718 min
Histogram: 1 0 0 0 0 0 0 0 0 0

Total # of neighbors = 718
Ave neighs/atom = 8.7561
Neighbor list builds = 0
Dangerous builds = 0
        # write_dump all atom ${dumpfile}
        next i
jump SELF loop1
        displace_atoms upper move ${xstep1} 0.0 0.0 units lattice
        displace_atoms upper move 0.00333333333333333 0.0 0.0 units lattice
        min_style ${style}
        min_style cg
        minimize ${etol} ${ftol} ${maxiter} ${maxeval}
        minimize 1e-12 ${ftol} ${maxiter} ${maxeval}
        minimize 1e-12 1e-08 ${maxiter} ${maxeval}
        minimize 1e-12 1e-08 10000 ${maxeval}
        minimize 1e-12 1e-08 10000 20000
WARNING: Resetting reneighboring criteria during minimization (../min.cpp:168)
Memory usage per processor = 3.35169 Mbytes
Step Temp PotEng Lx Ly Lz 
      18            0   -241.98612    2.2449075    38.890779    1.1224537 
      19            0   -241.98612    2.2449075    38.890779    1.1224537 
      20            0   -241.98612    2.2449075    38.890779    1.1224537 
Loop time of 0.00047397 on 1 procs for 2 steps with 82 atoms

Minimization stats:
  Stopping criterion = linesearch alpha is zero
  Energy initial, next-to-last, final = 
        -241.986116575     -241.986124626     -241.986124626
  Force two-norm initial, final = 0.0358409 0.026208
  Force max component initial, final = 0.0160058 0.00985142
  Final line search alpha, max atom move = 1.52588e-05 1.50321e-07
  Iterations, force evaluations = 2 24

Pair  time (%) = 0.000379871 (80.1466)
Neigh time (%) = 0 (0)
Comm  time (%) = 3.31205e-05 (6.98789)
Outpt time (%) = 5.97874e-06 (1.26142)
Other time (%) = 5.49998e-05 (11.6041)

Nlocal:    82 ave 82 max 82 min
Histogram: 1 0 0 0 0 0 0 0 0 0
Nghost:    185 ave 185 max 185 min
Histogram: 1 0 0 0 0 0 0 0 0 0
Neighs:    718 ave 718 max 718 min
Histogram: 1 0 0 0 0 0 0 0 0 0

Total # of neighbors = 718
Ave neighs/atom = 8.7561
Neighbor list builds = 0
Dangerous builds = 0
        # write_dump all atom ${dumpfile}
        next i
jump SELF loop1
        displace_atoms upper move ${xstep1} 0.0 0.0 units lattice
        displace_atoms upper move 0.00333333333333333 0.0 0.0 units lattice
        min_style ${style}
        min_style cg
        minimize ${etol} ${ftol} ${maxiter} ${maxeval}
        minimize 1e-12 ${ftol} ${maxiter} ${maxeval}
        minimize 1e-12 1e-08 ${maxiter} ${maxeval}
        minimize 1e-12 1e-08 10000 ${maxeval}
        minimize 1e-12 1e-08 10000 20000
WARNING: Resetting reneighboring criteria during minimization (../min.cpp:168)
Memory usage per processor = 3.35169 Mbytes
Step Temp PotEng Lx Ly Lz 
      20            0   -241.98292    2.2449075    38.890775    1.1224537 
      21            0   -241.98292    2.2449075    38.890775    1.1224537 
Loop time of 0.000338042 on 1 procs for 1 steps with 82 atoms

Minimization stats:
  Stopping criterion = linesearch alpha is zero
  Energy initial, next-to-last, final = 
        -241.982915772     -241.982915772     -241.982915772
  Force two-norm initial, final = 0.0246763 0.0246763
  Force max component initial, final = 0.00985142 0.00985142
  Final line search alpha, max atom move = 1.52588e-05 1.50321e-07
  Iterations, force evaluations = 1 17

Pair  time (%) = 0.000279793 (82.7687)
Neigh time (%) = 0 (0)
Comm  time (%) = 2.10402e-05 (6.22415)
Outpt time (%) = 0 (0)
Other time (%) = 3.72088e-05 (11.0072)

Nlocal:    82 ave 82 max 82 min
Histogram: 1 0 0 0 0 0 0 0 0 0
Nghost:    185 ave 185 max 185 min
Histogram: 1 0 0 0 0 0 0 0 0 0
Neighs:    718 ave 718 max 718 min
Histogram: 1 0 0 0 0 0 0 0 0 0

Total # of neighbors = 718
Ave neighs/atom = 8.7561
Neighbor list builds = 0
Dangerous builds = 0
        # write_dump all atom ${dumpfile}
        next i
jump SELF loop1
        displace_atoms upper move ${xstep1} 0.0 0.0 units lattice
        displace_atoms upper move 0.00333333333333333 0.0 0.0 units lattice
        min_style ${style}
        min_style cg
        minimize ${etol} ${ftol} ${maxiter} ${maxeval}
        minimize 1e-12 ${ftol} ${maxiter} ${maxeval}
        minimize 1e-12 1e-08 ${maxiter} ${maxeval}
        minimize 1e-12 1e-08 10000 ${maxeval}
        minimize 1e-12 1e-08 10000 20000
WARNING: Resetting reneighboring criteria during minimization (../min.cpp:168)
Memory usage per processor = 3.35169 Mbytes
Step Temp PotEng Lx Ly Lz 
      21            0   -241.97937    2.2449075    38.890775    1.1224537 
      22            0   -241.97939    2.2449075    38.890775    1.1224537 
      23            0   -241.97939    2.2449075    38.890775    1.1224537 
Loop time of 0.021279 on 1 procs for 2 steps with 82 atoms

Minimization stats:
  Stopping criterion = linesearch alpha is zero
  Energy initial, next-to-last, final = 
        -241.979374756      -241.97939259      -241.97939259
  Force two-norm initial, final = 0.0466418 0.034314
  Force max component initial, final = 0.0206625 0.0127603
  Final line search alpha, max atom move = 7.62939e-06 9.73532e-08
  Iterations, force evaluations = 2 25

Pair  time (%) = 0.000381702 (1.79379)
Neigh time (%) = 0 (0)
Comm  time (%) = 3.13983e-05 (0.147555)
Outpt time (%) = 0.020812 (97.8054)
Other time (%) = 5.38913e-05 (0.25326)

Nlocal:    82 ave 82 max 82 min
Histogram: 1 0 0 0 0 0 0 0 0 0
Nghost:    185 ave 185 max 185 min
Histogram: 1 0 0 0 0 0 0 0 0 0
Neighs:    718 ave 718 max 718 min
Histogram: 1 0 0 0 0 0 0 0 0 0

Total # of neighbors = 718
Ave neighs/atom = 8.7561
Neighbor list builds = 0
Dangerous builds = 0
        # write_dump all atom ${dumpfile}
        next i
jump SELF loop1
        displace_atoms upper move ${xstep1} 0.0 0.0 units lattice
        displace_atoms upper move 0.00333333333333333 0.0 0.0 units lattice
        min_style ${style}
        min_style cg
        minimize ${etol} ${ftol} ${maxiter} ${maxeval}
        minimize 1e-12 ${ftol} ${maxiter} ${maxeval}
        minimize 1e-12 1e-08 ${maxiter} ${maxeval}
        minimize 1e-12 1e-08 10000 ${maxeval}
        minimize 1e-12 1e-08 10000 20000
WARNING: Resetting reneighboring criteria during minimization (../min.cpp:168)
Memory usage per processor = 3.35169 Mbytes
Step Temp PotEng Lx Ly Lz 
      23            0   -241.97554    2.2449075    38.890775    1.1224537 
      24            0   -241.97554    2.2449075    38.890775    1.1224537 
Loop time of 0.000315061 on 1 procs for 1 steps with 82 atoms

Minimization stats:
  Stopping criterion = linesearch alpha is zero
  Energy initial, next-to-last, final = 
        -241.975539704     -241.975539704     -241.975539704
  Force two-norm initial, final = 0.031534 0.031534
  Force max component initial, final = 0.0127603 0.0127603
  Final line search alpha, max atom move = 7.62939e-06 9.73532e-08
  Iterations, force evaluations = 1 18

Pair  time (%) = 0.000264487 (83.9477)
Neigh time (%) = 0 (0)
Comm  time (%) = 1.71107e-05 (5.43092)
Outpt time (%) = 0 (0)
Other time (%) = 3.34637e-05 (10.6213)

Nlocal:    82 ave 82 max 82 min
Histogram: 1 0 0 0 0 0 0 0 0 0
Nghost:    185 ave 185 max 185 min
Histogram: 1 0 0 0 0 0 0 0 0 0
Neighs:    718 ave 718 max 718 min
Histogram: 1 0 0 0 0 0 0 0 0 0

Total # of neighbors = 718
Ave neighs/atom = 8.7561
Neighbor list builds = 0
Dangerous builds = 0
        # write_dump all atom ${dumpfile}
        next i
jump SELF loop1
        displace_atoms upper move ${xstep1} 0.0 0.0 units lattice
        displace_atoms upper move 0.00333333333333333 0.0 0.0 units lattice
        min_style ${style}
        min_style cg
        minimize ${etol} ${ftol} ${maxiter} ${maxeval}
        minimize 1e-12 ${ftol} ${maxiter} ${maxeval}
        minimize 1e-12 1e-08 ${maxiter} ${maxeval}
        minimize 1e-12 1e-08 10000 ${maxeval}
        minimize 1e-12 1e-08 10000 20000
WARNING: Resetting reneighboring criteria during minimization (../min.cpp:168)
Memory usage per processor = 3.35169 Mbytes
Step Temp PotEng Lx Ly Lz 
      24            0   -241.97136    2.2449075    38.890775    1.1224537 
      25            0   -241.97137    2.2449075    38.890775    1.1224537 
      26            0   -241.97139    2.2449075    38.890775    1.1224537 
      27            0   -241.97139    2.2449075    38.890775    1.1224537 
Loop time of 0.00131101 on 1 procs for 3 steps with 82 atoms

Minimization stats:
  Stopping criterion = linesearch alpha is zero
  Energy initial, next-to-last, final = 
        -241.971355746     -241.971389728     -241.971389728
  Force two-norm initial, final = 0.0558468 0.0248973
  Force max component initial, final = 0.0239662 0.0106393
  Final line search alpha, max atom move = 1.52588e-05 1.62343e-07
  Iterations, force evaluations = 3 31

Pair  time (%) = 0.00118396 (90.3092)
Neigh time (%) = 0 (0)
Comm  time (%) = 3.84478e-05 (2.93269)
Outpt time (%) = 1.59123e-05 (1.21375)
Other time (%) = 7.26867e-05 (5.54435)

Nlocal:    82 ave 82 max 82 min
Histogram: 1 0 0 0 0 0 0 0 0 0
Nghost:    185 ave 185 max 185 min
Histogram: 1 0 0 0 0 0 0 0 0 0
Neighs:    718 ave 718 max 718 min
Histogram: 1 0 0 0 0 0 0 0 0 0

Total # of neighbors = 718
Ave neighs/atom = 8.7561
Neighbor list builds = 0
Dangerous builds = 0
        # write_dump all atom ${dumpfile}
        next i
jump SELF loop1
        displace_atoms upper move ${xstep1} 0.0 0.0 units lattice
        displace_atoms upper move 0.00333333333333333 0.0 0.0 units lattice
        min_style ${style}
        min_style cg
        minimize ${etol} ${ftol} ${maxiter} ${maxeval}
        minimize 1e-12 ${ftol} ${maxiter} ${maxeval}
        minimize 1e-12 1e-08 ${maxiter} ${maxeval}
        minimize 1e-12 1e-08 10000 ${maxeval}
        minimize 1e-12 1e-08 10000 20000
WARNING: Resetting reneighboring criteria during minimization (../min.cpp:168)
Memory usage per processor = 3.35169 Mbytes
Step Temp PotEng Lx Ly Lz 
      27            0   -241.96691    2.2449075    38.890777    1.1224537 
      28            0   -241.96692    2.2449075    38.890777    1.1224537 
      29            0   -241.96692    2.2449075    38.890777    1.1224537 
Loop time of 0.000515983 on 1 procs for 2 steps with 82 atoms

Minimization stats:
  Stopping criterion = linesearch alpha is zero
  Energy initial, next-to-last, final = 
        -241.966909665     -241.966917741     -241.966917741
  Force two-norm initial, final = 0.0437816 0.0226178
  Force max component initial, final = 0.0180164 0.00716171
  Final line search alpha, max atom move = 1.52588e-05 1.09279e-07
  Iterations, force evaluations = 2 25

Pair  time (%) = 0.000420209 (81.4386)
Neigh time (%) = 0 (0)
Comm  time (%) = 3.14054e-05 (6.08651)
Outpt time (%) = 6.11017e-06 (1.18418)
Other time (%) = 5.82578e-05 (11.2907)

Nlocal:    82 ave 82 max 82 min
Histogram: 1 0 0 0 0 0 0 0 0 0
Nghost:    185 ave 185 max 185 min
Histogram: 1 0 0 0 0 0 0 0 0 0
Neighs:    718 ave 718 max 718 min
Histogram: 1 0 0 0 0 0 0 0 0 0

Total # of neighbors = 718
Ave neighs/atom = 8.7561
Neighbor list builds = 0
Dangerous builds = 0
        # write_dump all atom ${dumpfile}
        next i
jump SELF loop1
        displace_atoms upper move ${xstep1} 0.0 0.0 units lattice
        displace_atoms upper move 0.00333333333333333 0.0 0.0 units lattice
        min_style ${style}
        min_style cg
        minimize ${etol} ${ftol} ${maxiter} ${maxeval}
        minimize 1e-12 ${ftol} ${maxiter} ${maxeval}
        minimize 1e-12 1e-08 ${maxiter} ${maxeval}
        minimize 1e-12 1e-08 10000 ${maxeval}
        minimize 1e-12 1e-08 10000 20000
WARNING: Resetting reneighboring criteria during minimization (../min.cpp:168)
Memory usage per processor = 3.35169 Mbytes
Step Temp PotEng Lx Ly Lz 
      29            0   -241.96212    2.2449075    38.890778    1.1224537 
      30            0   -241.96213    2.2449075    38.890778    1.1224537 
      31            0   -241.96215    2.2449075    38.890778    1.1224537 
      32            0   -241.96215    2.2449075    38.890778    1.1224537 
Loop time of 0.0006291 on 1 procs for 3 steps with 82 atoms

Minimization stats:
  Stopping criterion = linesearch alpha is zero
  Energy initial, next-to-last, final = 
        -241.962123359      -241.96215136      -241.96215136
  Force two-norm initial, final = 0.0486507 0.0238469
  Force max component initial, final = 0.0216031 0.0101916
  Final line search alpha, max atom move = 1.52588e-05 1.55512e-07
  Iterations, force evaluations = 3 31

Pair  time (%) = 0.000505592 (80.3676)
Neigh time (%) = 0 (0)
Comm  time (%) = 3.92552e-05 (6.23991)
Outpt time (%) = 1.20063e-05 (1.90848)
Other time (%) = 7.22457e-05 (11.484)

Nlocal:    82 ave 82 max 82 min
Histogram: 1 0 0 0 0 0 0 0 0 0
Nghost:    175 ave 175 max 175 min
Histogram: 1 0 0 0 0 0 0 0 0 0
Neighs:    718 ave 718 max 718 min
Histogram: 1 0 0 0 0 0 0 0 0 0

Total # of neighbors = 718
Ave neighs/atom = 8.7561
Neighbor list builds = 0
Dangerous builds = 0
        # write_dump all atom ${dumpfile}
        next i
jump SELF loop1
        displace_atoms upper move ${xstep1} 0.0 0.0 units lattice
        displace_atoms upper move 0.00333333333333333 0.0 0.0 units lattice
        min_style ${style}
        min_style cg
        minimize ${etol} ${ftol} ${maxiter} ${maxeval}
        minimize 1e-12 ${ftol} ${maxiter} ${maxeval}
        minimize 1e-12 1e-08 ${maxiter} ${maxeval}
        minimize 1e-12 1e-08 10000 ${maxeval}
        minimize 1e-12 1e-08 10000 20000
WARNING: Resetting reneighboring criteria during minimization (../min.cpp:168)
Memory usage per processor = 3.35169 Mbytes
Step Temp PotEng Lx Ly Lz 
      32            0   -241.95706    2.2449075    38.890782    1.1224537 
      33            0   -241.95707    2.2449075    38.890782    1.1224537 
      34            0   -241.95708    2.2449075    38.890782    1.1224537 
      35            0   -241.95708    2.2449075    38.890782    1.1224537 
Loop time of 0.000707928 on 1 procs for 3 steps with 82 atoms

Minimization stats:
  Stopping criterion = linesearch alpha is zero
  Energy initial, next-to-last, final = 
        -241.957059624     -241.957082829     -241.957082829
  Force two-norm initial, final = 0.0492978 0.0219874
  Force max component initial, final = 0.0215775 0.00888963
  Final line search alpha, max atom move = 1.52588e-05 1.35645e-07
  Iterations, force evaluations = 3 31

Pair  time (%) = 0.000548592 (77.4926)
Neigh time (%) = 0 (0)
Comm  time (%) = 3.85299e-05 (5.44262)
Outpt time (%) = 3.79388e-05 (5.35913)
Other time (%) = 8.28678e-05 (11.7057)

Nlocal:    82 ave 82 max 82 min
Histogram: 1 0 0 0 0 0 0 0 0 0
Nghost:    175 ave 175 max 175 min
Histogram: 1 0 0 0 0 0 0 0 0 0
Neighs:    718 ave 718 max 718 min
Histogram: 1 0 0 0 0 0 0 0 0 0

Total # of neighbors = 718
Ave neighs/atom = 8.7561
Neighbor list builds = 0
Dangerous builds = 0
        # write_dump all atom ${dumpfile}
        next i
jump SELF loop1
        displace_atoms upper move ${xstep1} 0.0 0.0 units lattice
        displace_atoms upper move 0.00333333333333333 0.0 0.0 units lattice
        min_style ${style}
        min_style cg
        minimize ${etol} ${ftol} ${maxiter} ${maxeval}
        minimize 1e-12 ${ftol} ${maxiter} ${maxeval}
        minimize 1e-12 1e-08 ${maxiter} ${maxeval}
        minimize 1e-12 1e-08 10000 ${maxeval}
        minimize 1e-12 1e-08 10000 20000
WARNING: Resetting reneighboring criteria during minimization (../min.cpp:168)
Memory usage per processor = 3.35169 Mbytes
Step Temp PotEng Lx Ly Lz 
      35            0    -241.9517    2.2449075    38.890787    1.1224537 
      36            0   -241.95171    2.2449075    38.890787    1.1224537 
      37            0   -241.95172    2.2449075    38.890787    1.1224537 
      38            0   -241.95172    2.2449075    38.890787    1.1224537 
      39            0   -241.95172    2.2449075    38.890787    1.1224537 
Loop time of 0.000746965 on 1 procs for 4 steps with 82 atoms

Minimization stats:
  Stopping criterion = linesearch alpha is zero
  Energy initial, next-to-last, final = 
        -241.951696313     -241.951723973     -241.951723973
  Force two-norm initial, final = 0.0520035 0.0175776
  Force max component initial, final = 0.0235958 0.0050841
  Final line search alpha, max atom move = 3.05176e-05 1.55155e-07
  Iterations, force evaluations = 4 38

Pair  time (%) = 0.000594687 (79.6137)
Neigh time (%) = 0 (0)
Comm  time (%) = 4.54278e-05 (6.08165)
Outpt time (%) = 1.80268e-05 (2.41334)
Other time (%) = 8.8824e-05 (11.8913)

Nlocal:    82 ave 82 max 82 min
Histogram: 1 0 0 0 0 0 0 0 0 0
Nghost:    175 ave 175 max 175 min
Histogram: 1 0 0 0 0 0 0 0 0 0
Neighs:    718 ave 718 max 718 min
Histogram: 1 0 0 0 0 0 0 0 0 0

Total # of neighbors = 718
Ave neighs/atom = 8.7561
Neighbor list builds = 0
Dangerous builds = 0
        # write_dump all atom ${dumpfile}
        next i
jump SELF loop1
        displace_atoms upper move ${xstep1} 0.0 0.0 units lattice
        displace_atoms upper move 0.00333333333333333 0.0 0.0 units lattice
        min_style ${style}
        min_style cg
        minimize ${etol} ${ftol} ${maxiter} ${maxeval}
        minimize 1e-12 ${ftol} ${maxiter} ${maxeval}
        minimize 1e-12 1e-08 ${maxiter} ${maxeval}
        minimize 1e-12 1e-08 10000 ${maxeval}
        minimize 1e-12 1e-08 10000 20000
WARNING: Resetting reneighboring criteria during minimization (../min.cpp:168)
Memory usage per processor = 3.35169 Mbytes
Step Temp PotEng Lx Ly Lz 
      39            0   -241.94605    2.2449075    38.890793    1.1224537 
      40            0   -241.94606    2.2449075    38.890793    1.1224537 
      41            0   -241.94606    2.2449075    38.890793    1.1224537 
Loop time of 0.000535916 on 1 procs for 2 steps with 82 atoms

Minimization stats:
  Stopping criterion = linesearch alpha is zero
  Energy initial, next-to-last, final = 
        -241.946052715     -241.946060828     -241.946060828
  Force two-norm initial, final = 0.0486619 0.0319735
  Force max component initial, final = 0.0227032 0.0129171
  Final line search alpha, max atom move = 7.62939e-06 9.85497e-08
  Iterations, force evaluations = 2 27

Pair  time (%) = 0.000431896 (80.5902)
Neigh time (%) = 0 (0)
Comm  time (%) = 3.98643e-05 (7.43854)
Outpt time (%) = 7.00913e-06 (1.30788)
Other time (%) = 5.71465e-05 (10.6633)

Nlocal:    82 ave 82 max 82 min
Histogram: 1 0 0 0 0 0 0 0 0 0
Nghost:    175 ave 175 max 175 min
Histogram: 1 0 0 0 0 0 0 0 0 0
Neighs:    718 ave 718 max 718 min
Histogram: 1 0 0 0 0 0 0 0 0 0

Total # of neighbors = 718
Ave neighs/atom = 8.7561
Neighbor list builds = 0
Dangerous builds = 0
        # write_dump all atom ${dumpfile}
        next i
jump SELF loop1
        displace_atoms upper move ${xstep1} 0.0 0.0 units lattice
        displace_atoms upper move 0.00333333333333333 0.0 0.0 units lattice
        min_style ${style}
        min_style cg
        minimize ${etol} ${ftol} ${maxiter} ${maxeval}
        minimize 1e-12 ${ftol} ${maxiter} ${maxeval}
        minimize 1e-12 1e-08 ${maxiter} ${maxeval}
        minimize 1e-12 1e-08 10000 ${maxeval}
        minimize 1e-12 1e-08 10000 20000
WARNING: Resetting reneighboring criteria during minimization (../min.cpp:168)
Memory usage per processor = 3.35169 Mbytes
Step Temp PotEng Lx Ly Lz 
      41            0   -241.94008    2.2449075    38.890794    1.1224537 
      42            0   -241.94011    2.2449075    38.890794    1.1224537 
      43            0   -241.94012    2.2449075    38.890794    1.1224537 
      44            0   -241.94015    2.2449075    38.890794    1.1224537 
      45            0   -241.94016    2.2449075    38.890794    1.1224537 
      46            0   -241.94016    2.2449075    38.890794    1.1224537 
Loop time of 0.0247011 on 1 procs for 5 steps with 82 atoms

Minimization stats:
  Stopping criterion = linesearch alpha is zero
  Energy initial, next-to-last, final = 
        -241.940082943     -241.940157367     -241.940157367
  Force two-norm initial, final = 0.0777496 0.0192696
  Force max component initial, final = 0.0377164 0.00654925
  Final line search alpha, max atom move = 3.05176e-05 1.99867e-07
  Iterations, force evaluations = 5 45

Pair  time (%) = 0.000743973 (3.01191)
Neigh time (%) = 0 (0)
Comm  time (%) = 6.19099e-05 (0.250637)
Outpt time (%) = 0.0237599 (96.1896)
Other time (%) = 0.000135322 (0.54784)

Nlocal:    82 ave 82 max 82 min
Histogram: 1 0 0 0 0 0 0 0 0 0
Nghost:    175 ave 175 max 175 min
Histogram: 1 0 0 0 0 0 0 0 0 0
Neighs:    718 ave 718 max 718 min
Histogram: 1 0 0 0 0 0 0 0 0 0

Total # of neighbors = 718
Ave neighs/atom = 8.7561
Neighbor list builds = 0
Dangerous builds = 0
        # write_dump all atom ${dumpfile}
        next i
jump SELF loop1
        displace_atoms upper move ${xstep1} 0.0 0.0 units lattice
        displace_atoms upper move 0.00333333333333333 0.0 0.0 units lattice
        min_style ${style}
        min_style cg
        minimize ${etol} ${ftol} ${maxiter} ${maxeval}
        minimize 1e-12 ${ftol} ${maxiter} ${maxeval}
        minimize 1e-12 1e-08 ${maxiter} ${maxeval}
        minimize 1e-12 1e-08 10000 ${maxeval}
        minimize 1e-12 1e-08 10000 20000
WARNING: Resetting reneighboring criteria during minimization (../min.cpp:168)
Memory usage per processor = 3.35169 Mbytes
Step Temp PotEng Lx Ly Lz 
      46            0   -241.93393    2.2449075    38.890802    1.1224537 
      47            0   -241.93393    2.2449075    38.890802    1.1224537 
      48            0   -241.93393    2.2449075    38.890802    1.1224537 
Loop time of 0.000650974 on 1 procs for 2 steps with 82 atoms

Minimization stats:
  Stopping criterion = linesearch alpha is zero
  Energy initial, next-to-last, final = 
        -241.933928927     -241.933929753     -241.933929753
  Force two-norm initial, final = 0.0514618 0.049012
  Force max component initial, final = 0.0239336 0.0226353
  Final line search alpha, max atom move = 3.8147e-06 8.6347e-08
  Iterations, force evaluations = 2 31

Pair  time (%) = 0.000519024 (79.7303)
Neigh time (%) = 0 (0)
Comm  time (%) = 4.63164e-05 (7.11494)
Outpt time (%) = 6.95291e-06 (1.06808)
Other time (%) = 7.86808e-05 (12.0866)

Nlocal:    82 ave 82 max 82 min
Histogram: 1 0 0 0 0 0 0 0 0 0
Nghost:    175 ave 175 max 175 min
Histogram: 1 0 0 0 0 0 0 0 0 0
Neighs:    718 ave 718 max 718 min
Histogram: 1 0 0 0 0 0 0 0 0 0

Total # of neighbors = 718
Ave neighs/atom = 8.7561
Neighbor list builds = 0
Dangerous builds = 0
        # write_dump all atom ${dumpfile}
        next i
jump SELF loop1
        displace_atoms upper move ${xstep1} 0.0 0.0 units lattice
        displace_atoms upper move 0.00333333333333333 0.0 0.0 units lattice
        min_style ${style}
        min_style cg
        minimize ${etol} ${ftol} ${maxiter} ${maxeval}
        minimize 1e-12 ${ftol} ${maxiter} ${maxeval}
        minimize 1e-12 1e-08 ${maxiter} ${maxeval}
        minimize 1e-12 1e-08 10000 ${maxeval}
        minimize 1e-12 1e-08 10000 20000
WARNING: Resetting reneighboring criteria during minimization (../min.cpp:168)
Memory usage per processor = 3.35169 Mbytes
Step Temp PotEng Lx Ly Lz 
      48            0    -241.9274    2.2449075    38.890802    1.1224537 
      49            0   -241.92743    2.2449075    38.890802    1.1224537 
      50            0   -241.92744    2.2449075    38.890802    1.1224537 
      51            0   -241.92746    2.2449075    38.890802    1.1224537 
      52            0   -241.92748    2.2449075    38.890802    1.1224537 
      53            0   -241.92749    2.2449075    38.890802    1.1224537 
      54            0    -241.9275    2.2449075    38.890802    1.1224537 
      55            0    -241.9275    2.2449075    38.890802    1.1224537 
Loop time of 0.00113611 on 1 procs for 7 steps with 82 atoms

Minimization stats:
  Stopping criterion = linesearch alpha is zero
  Energy initial, next-to-last, final = 
        -241.927395315     -241.927502715     -241.927502715
  Force two-norm initial, final = 0.100889 0.0249415
  Force max component initial, final = 0.0495627 0.00607852
  Final line search alpha, max atom move = 1.52588e-05 9.27509e-08
  Iterations, force evaluations = 7 59

Pair  time (%) = 0.000903444 (79.5207)
Neigh time (%) = 0 (0)
Comm  time (%) = 7.55956e-05 (6.65389)
Outpt time (%) = 3.72652e-05 (3.28007)
Other time (%) = 0.000119807 (10.5453)

Nlocal:    82 ave 82 max 82 min
Histogram: 1 0 0 0 0 0 0 0 0 0
Nghost:    175 ave 175 max 175 min
Histogram: 1 0 0 0 0 0 0 0 0 0
Neighs:    718 ave 718 max 718 min
Histogram: 1 0 0 0 0 0 0 0 0 0

Total # of neighbors = 718
Ave neighs/atom = 8.7561
Neighbor list builds = 0
Dangerous builds = 0
        # write_dump all atom ${dumpfile}
        next i
jump SELF loop1
        displace_atoms upper move ${xstep1} 0.0 0.0 units lattice
        displace_atoms upper move 0.00333333333333333 0.0 0.0 units lattice
        min_style ${style}
        min_style cg
        minimize ${etol} ${ftol} ${maxiter} ${maxeval}
        minimize 1e-12 ${ftol} ${maxiter} ${maxeval}
        minimize 1e-12 1e-08 ${maxiter} ${maxeval}
        minimize 1e-12 1e-08 10000 ${maxeval}
        minimize 1e-12 1e-08 10000 20000
WARNING: Resetting reneighboring criteria during minimization (../min.cpp:168)
Memory usage per processor = 3.35169 Mbytes
Step Temp PotEng Lx Ly Lz 
      55            0   -241.92077    2.2449075     38.89083    1.1224537 
      56            0   -241.92078    2.2449075     38.89083    1.1224537 
      57            0   -241.92078    2.2449075     38.89083    1.1224537 
Loop time of 0.000476903 on 1 procs for 2 steps with 82 atoms

Minimization stats:
  Stopping criterion = linesearch alpha is zero
  Energy initial, next-to-last, final = 
        -241.920768528     -241.920781836     -241.920781836
  Force two-norm initial, final = 0.0522746 0.0189646
  Force max component initial, final = 0.0233196 0.00435334
  Final line search alpha, max atom move = 3.05176e-05 1.32853e-07
  Iterations, force evaluations = 2 24

Pair  time (%) = 0.000392054 (82.2084)
Neigh time (%) = 0 (0)
Comm  time (%) = 3.01292e-05 (6.31768)
Outpt time (%) = 6.03031e-06 (1.26447)
Other time (%) = 4.86892e-05 (10.2095)

Nlocal:    82 ave 82 max 82 min
Histogram: 1 0 0 0 0 0 0 0 0 0
Nghost:    175 ave 175 max 175 min
Histogram: 1 0 0 0 0 0 0 0 0 0
Neighs:    718 ave 718 max 718 min
Histogram: 1 0 0 0 0 0 0 0 0 0

Total # of neighbors = 718
Ave neighs/atom = 8.7561
Neighbor list builds = 0
Dangerous builds = 0
        # write_dump all atom ${dumpfile}
        next i
jump SELF loop1
        displace_atoms upper move ${xstep1} 0.0 0.0 units lattice
        displace_atoms upper move 0.00333333333333333 0.0 0.0 units lattice
        min_style ${style}
        min_style cg
        minimize ${etol} ${ftol} ${maxiter} ${maxeval}
        minimize 1e-12 ${ftol} ${maxiter} ${maxeval}
        minimize 1e-12 1e-08 ${maxiter} ${maxeval}
        minimize 1e-12 1e-08 10000 ${maxeval}
        minimize 1e-12 1e-08 10000 20000
WARNING: Resetting reneighboring criteria during minimization (../min.cpp:168)
Memory usage per processor = 3.35169 Mbytes
Step Temp PotEng Lx Ly Lz 
      57            0   -241.91378    2.2449075     38.89083    1.1224537 
      58            0    -241.9138    2.2449075     38.89083    1.1224537 
      59            0   -241.91381    2.2449075     38.89083    1.1224537 
      60            0   -241.91381    2.2449075     38.89083    1.1224537 
      61            0   -241.91382    2.2449075     38.89083    1.1224537 
      62            0   -241.91382    2.2449075     38.89083    1.1224537 
      63            0   -241.91382    2.2449075     38.89083    1.1224537 
Loop time of 0.00184299 on 1 procs for 6 steps with 82 atoms

Minimization stats:
  Stopping criterion = linesearch alpha is zero
  Energy initial, next-to-last, final = 
        -241.913782432     -241.913816786     -241.913816786
  Force two-norm initial, final = 0.0618231 0.0141092
  Force max component initial, final = 0.029463 0.00287464
  Final line search alpha, max atom move = 6.10352e-05 1.75454e-07
  Iterations, force evaluations = 6 55

Pair  time (%) = 0.00162193 (88.0055)
Neigh time (%) = 0 (0)
Comm  time (%) = 6.97372e-05 (3.78392)
Outpt time (%) = 3.49177e-05 (1.89463)
Other time (%) = 0.000116402 (6.31592)

Nlocal:    82 ave 82 max 82 min
Histogram: 1 0 0 0 0 0 0 0 0 0
Nghost:    175 ave 175 max 175 min
Histogram: 1 0 0 0 0 0 0 0 0 0
Neighs:    718 ave 718 max 718 min
Histogram: 1 0 0 0 0 0 0 0 0 0

Total # of neighbors = 718
Ave neighs/atom = 8.7561
Neighbor list builds = 0
Dangerous builds = 0
        # write_dump all atom ${dumpfile}
        next i
jump SELF loop1
        displace_atoms upper move ${xstep1} 0.0 0.0 units lattice
        displace_atoms upper move 0.00333333333333333 0.0 0.0 units lattice
        min_style ${style}
        min_style cg
        minimize ${etol} ${ftol} ${maxiter} ${maxeval}
        minimize 1e-12 ${ftol} ${maxiter} ${maxeval}
        minimize 1e-12 1e-08 ${maxiter} ${maxeval}
        minimize 1e-12 1e-08 10000 ${maxeval}
        minimize 1e-12 1e-08 10000 20000
WARNING: Resetting reneighboring criteria during minimization (../min.cpp:168)
Memory usage per processor = 3.35169 Mbytes
Step Temp PotEng Lx Ly Lz 
      63            0   -241.90658    2.2449075    38.890838    1.1224537 
      64            0   -241.90659    2.2449075    38.890838    1.1224537 
      65            0   -241.90659    2.2449075    38.890838    1.1224537 
      66            0   -241.90659    2.2449075    38.890838    1.1224537 
      67            0   -241.90659    2.2449075    38.890838    1.1224537 
      68            0   -241.90659    2.2449075    38.890838    1.1224537 
      69            0   -241.90659    2.2449075    38.890838    1.1224537 
Loop time of 0.00151607 on 1 procs for 6 steps with 82 atoms

Minimization stats:
  Stopping criterion = linesearch alpha is zero
  Energy initial, next-to-last, final = 
        -241.906576755     -241.906589277     -241.906589277
  Force two-norm initial, final = 0.061536 0.0269681
  Force max component initial, final = 0.0299898 0.00999264
  Final line search alpha, max atom move = 1.52588e-05 1.52476e-07
  Iterations, force evaluations = 6 79

Pair  time (%) = 0.00123059 (81.1701)
Neigh time (%) = 0 (0)
Comm  time (%) = 0.000103911 (6.85397)
Outpt time (%) = 2.8054e-05 (1.85045)
Other time (%) = 0.000153508 (10.1254)

Nlocal:    82 ave 82 max 82 min
Histogram: 1 0 0 0 0 0 0 0 0 0
Nghost:    175 ave 175 max 175 min
Histogram: 1 0 0 0 0 0 0 0 0 0
Neighs:    718 ave 718 max 718 min
Histogram: 1 0 0 0 0 0 0 0 0 0

Total # of neighbors = 718
Ave neighs/atom = 8.7561
Neighbor list builds = 0
Dangerous builds = 0
        # write_dump all atom ${dumpfile}
        next i
jump SELF loop1
        displace_atoms upper move ${xstep1} 0.0 0.0 units lattice
        displace_atoms upper move 0.00333333333333333 0.0 0.0 units lattice
        min_style ${style}
        min_style cg
        minimize ${etol} ${ftol} ${maxiter} ${maxeval}
        minimize 1e-12 ${ftol} ${maxiter} ${maxeval}
        minimize 1e-12 1e-08 ${maxiter} ${maxeval}
        minimize 1e-12 1e-08 10000 ${maxeval}
        minimize 1e-12 1e-08 10000 20000
WARNING: Resetting reneighboring criteria during minimization (../min.cpp:168)
Memory usage per processor = 3.35169 Mbytes
Step Temp PotEng Lx Ly Lz 
      69            0   -241.89911    2.2449075    38.890839    1.1224537 
      70            0   -241.89916    2.2449075    38.890839    1.1224537 
      71            0   -241.89917    2.2449075    38.890839    1.1224537 
      72            0   -241.89918    2.2449075    38.890839    1.1224537 
      73            0    -241.8992    2.2449075    38.890839    1.1224537 
      74            0    -241.8992    2.2449075    38.890839    1.1224537 
Loop time of 0.000891935 on 1 procs for 5 steps with 82 atoms

Minimization stats:
  Stopping criterion = linesearch alpha is zero
  Energy initial, next-to-last, final = 
        -241.899114648     -241.899198499     -241.899198499
  Force two-norm initial, final = 0.0931375 0.0517779
  Force max component initial, final = 0.0456805 0.0150606
  Final line search alpha, max atom move = 7.62939e-06 1.14903e-07
  Iterations, force evaluations = 5 45

Pair  time (%) = 0.000717061 (80.3938)
Neigh time (%) = 0 (0)
Comm  time (%) = 5.44433e-05 (6.10395)
Outpt time (%) = 2.52351e-05 (2.82926)
Other time (%) = 9.51958e-05 (10.673)

Nlocal:    82 ave 82 max 82 min
Histogram: 1 0 0 0 0 0 0 0 0 0
Nghost:    175 ave 175 max 175 min
Histogram: 1 0 0 0 0 0 0 0 0 0
Neighs:    714 ave 714 max 714 min
Histogram: 1 0 0 0 0 0 0 0 0 0

Total # of neighbors = 714
Ave neighs/atom = 8.70732
Neighbor list builds = 0
Dangerous builds = 0
        # write_dump all atom ${dumpfile}
        next i
jump SELF loop1
        displace_atoms upper move ${xstep1} 0.0 0.0 units lattice
        displace_atoms upper move 0.00333333333333333 0.0 0.0 units lattice
        min_style ${style}
        min_style cg
        minimize ${etol} ${ftol} ${maxiter} ${maxeval}
        minimize 1e-12 ${ftol} ${maxiter} ${maxeval}
        minimize 1e-12 1e-08 ${maxiter} ${maxeval}
        minimize 1e-12 1e-08 10000 ${maxeval}
        minimize 1e-12 1e-08 10000 20000
WARNING: Resetting reneighboring criteria during minimization (../min.cpp:168)
Memory usage per processor = 3.35169 Mbytes
Step Temp PotEng Lx Ly Lz 
      74            0   -241.89164    2.2449075    38.890864    1.1224537 
      75            0   -241.89169    2.2449075    38.890864    1.1224537 
      76            0   -241.89169    2.2449075    38.890864    1.1224537 
      77            0   -241.89171    2.2449075    38.890864    1.1224537 
      78            0   -241.89173    2.2449075    38.890864    1.1224537 
      79            0   -241.89175    2.2449075    38.890864    1.1224537 
      80            0   -241.89176    2.2449075    38.890864    1.1224537 
      81            0   -241.89177    2.2449075    38.890864    1.1224537 
      82            0   -241.89177    2.2449075    38.890864    1.1224537 
      83            0   -241.89178    2.2449075    38.890864    1.1224537 
      84            0   -241.89178    2.2449075    38.890864    1.1224537 
      85            0   -241.89179    2.2449075    38.890864    1.1224537 
      86            0   -241.89179    2.2449075    38.890864    1.1224537 
      87            0   -241.89179    2.2449075    38.890864    1.1224537 
      88            0   -241.89179    2.2449075    38.890864    1.1224537 
      89            0   -241.89179    2.2449075    38.890864    1.1224537 
      90            0    -241.8918    2.2449075    38.890864    1.1224537 
      91            0    -241.8918    2.2449075    38.890864    1.1224537 
      92            0    -241.8918    2.2449075    38.890864    1.1224537 
      93            0    -241.8918    2.2449075    38.890864    1.1224537 
Loop time of 0.0218301 on 1 procs for 19 steps with 82 atoms

Minimization stats:
  Stopping criterion = linesearch alpha is zero
  Energy initial, next-to-last, final = 
        -241.891636943      -241.89179755      -241.89179755
  Force two-norm initial, final = 0.105949 0.0116808
  Force max component initial, final = 0.0466683 0.00199182
  Final line search alpha, max atom move = 6.10352e-05 1.21571e-07
  Iterations, force evaluations = 19 145

Pair  time (%) = 0.00200298 (9.1753)
Neigh time (%) = 0 (0)
Comm  time (%) = 0.000161748 (0.740941)
Outpt time (%) = 0.0193693 (88.7275)
Other time (%) = 0.000296082 (1.3563)

Nlocal:    82 ave 82 max 82 min
Histogram: 1 0 0 0 0 0 0 0 0 0
Nghost:    175 ave 175 max 175 min
Histogram: 1 0 0 0 0 0 0 0 0 0
Neighs:    714 ave 714 max 714 min
Histogram: 1 0 0 0 0 0 0 0 0 0

Total # of neighbors = 714
Ave neighs/atom = 8.70732
Neighbor list builds = 0
Dangerous builds = 0
        # write_dump all atom ${dumpfile}
        next i
jump SELF loop1
        displace_atoms upper move ${xstep1} 0.0 0.0 units lattice
        displace_atoms upper move 0.00333333333333333 0.0 0.0 units lattice
        min_style ${style}
        min_style cg
        minimize ${etol} ${ftol} ${maxiter} ${maxeval}
        minimize 1e-12 ${ftol} ${maxiter} ${maxeval}
        minimize 1e-12 1e-08 ${maxiter} ${maxeval}
        minimize 1e-12 1e-08 10000 ${maxeval}
        minimize 1e-12 1e-08 10000 20000
WARNING: Resetting reneighboring criteria during minimization (../min.cpp:168)
Memory usage per processor = 3.35169 Mbytes
Step Temp PotEng Lx Ly Lz 
      93            0   -241.88415    2.2449075    38.891154    1.1224537 
      94            0   -241.88418    2.2449075    38.891154    1.1224537 
      95            0   -241.88418    2.2449075    38.891154    1.1224537 
      96            0   -241.88419    2.2449075    38.891154    1.1224537 
      97            0   -241.88421    2.2449075    38.891154    1.1224537 
      98            0   -241.88422    2.2449075    38.891154    1.1224537 
      99            0   -241.88424    2.2449075    38.891154    1.1224537 
     100            0   -241.88424    2.2449075    38.891154    1.1224537 
     101            0   -241.88424    2.2449075    38.891154    1.1224537 
     102            0   -241.88424    2.2449075    38.891154    1.1224537 
Loop time of 0.002281 on 1 procs for 9 steps with 82 atoms

Minimization stats:
  Stopping criterion = linesearch alpha is zero
  Energy initial, next-to-last, final = 
        -241.884153614     -241.884243498     -241.884243498
  Force two-norm initial, final = 0.0813697 0.0125658
  Force max component initial, final = 0.0402673 0.00252455
  Final line search alpha, max atom move = 6.10352e-05 1.54086e-07
  Iterations, force evaluations = 9 70

Pair  time (%) = 0.00163028 (71.4721)
Neigh time (%) = 0 (0)
Comm  time (%) = 0.000252066 (11.0507)
Outpt time (%) = 9.87186e-05 (4.32787)
Other time (%) = 0.000299936 (13.1493)

Nlocal:    82 ave 82 max 82 min
Histogram: 1 0 0 0 0 0 0 0 0 0
Nghost:    175 ave 175 max 175 min
Histogram: 1 0 0 0 0 0 0 0 0 0
Neighs:    714 ave 714 max 714 min
Histogram: 1 0 0 0 0 0 0 0 0 0

Total # of neighbors = 714
Ave neighs/atom = 8.70732
Neighbor list builds = 0
Dangerous builds = 0
        # write_dump all atom ${dumpfile}
        next i
jump SELF loop1
        displace_atoms upper move ${xstep1} 0.0 0.0 units lattice
        displace_atoms upper move 0.00333333333333333 0.0 0.0 units lattice
        min_style ${style}
        min_style cg
        minimize ${etol} ${ftol} ${maxiter} ${maxeval}
        minimize 1e-12 ${ftol} ${maxiter} ${maxeval}
        minimize 1e-12 1e-08 ${maxiter} ${maxeval}
        minimize 1e-12 1e-08 10000 ${maxeval}
        minimize 1e-12 1e-08 10000 20000
WARNING: Resetting reneighboring criteria during minimization (../min.cpp:168)
Memory usage per processor = 3.35169 Mbytes
Step Temp PotEng Lx Ly Lz 
     102            0   -241.87652    2.2449075    38.891511    1.1224537 
     103            0   -241.87654    2.2449075    38.891511    1.1224537 
     104            0   -241.87654    2.2449075    38.891511    1.1224537 
     105            0   -241.87655    2.2449075    38.891511    1.1224537 
     106            0   -241.87656    2.2449075    38.891511    1.1224537 
     107            0   -241.87657    2.2449075    38.891511    1.1224537 
     108            0    -241.8766    2.2449075    38.891511    1.1224537 
     109            0   -241.87661    2.2449075    38.891511    1.1224537 
     110            0   -241.87663    2.2449075    38.891511    1.1224537 
     111            0   -241.87664    2.2449075    38.891511    1.1224537 
     112            0   -241.87664    2.2449075    38.891511    1.1224537 
Loop time of 0.00144594 on 1 procs for 10 steps with 82 atoms

Minimization stats:
  Stopping criterion = linesearch alpha is zero
  Energy initial, next-to-last, final = 
        -241.876518141     -241.876638306     -241.876638306
  Force two-norm initial, final = 0.0808424 0.0189271
  Force max component initial, final = 0.0399352 0.00490297
  Final line search alpha, max atom move = 1.52588e-05 7.48134e-08
  Iterations, force evaluations = 10 76

Pair  time (%) = 0.00112408 (77.7403)
Neigh time (%) = 0 (0)
Comm  time (%) = 8.6634e-05 (5.99152)
Outpt time (%) = 5.67364e-05 (3.92384)
Other time (%) = 0.000178492 (12.3444)

Nlocal:    82 ave 82 max 82 min
Histogram: 1 0 0 0 0 0 0 0 0 0
Nghost:    175 ave 175 max 175 min
Histogram: 1 0 0 0 0 0 0 0 0 0
Neighs:    714 ave 714 max 714 min
Histogram: 1 0 0 0 0 0 0 0 0 0

Total # of neighbors = 714
Ave neighs/atom = 8.70732
Neighbor list builds = 0
Dangerous builds = 0
        # write_dump all atom ${dumpfile}
        next i
jump SELF loop1
        displace_atoms upper move ${xstep1} 0.0 0.0 units lattice
        displace_atoms upper move 0.00333333333333333 0.0 0.0 units lattice
        min_style ${style}
        min_style cg
        minimize ${etol} ${ftol} ${maxiter} ${maxeval}
        minimize 1e-12 ${ftol} ${maxiter} ${maxeval}
        minimize 1e-12 1e-08 ${maxiter} ${maxeval}
        minimize 1e-12 1e-08 10000 ${maxeval}
        minimize 1e-12 1e-08 10000 20000
WARNING: Resetting reneighboring criteria during minimization (../min.cpp:168)
Memory usage per processor = 3.35169 Mbytes
Step Temp PotEng Lx Ly Lz 
     112            0   -241.86886    2.2449075    38.893162    1.1224537 
     113            0   -241.86889    2.2449075    38.893162    1.1224537 
     114            0    -241.8689    2.2449075    38.893162    1.1224537 
     115            0   -241.86891    2.2449075    38.893162    1.1224537 
     116            0   -241.86891    2.2449075    38.893162    1.1224537 
     117            0   -241.86891    2.2449075    38.893162    1.1224537 
Loop time of 0.000867889 on 1 procs for 5 steps with 82 atoms

Minimization stats:
  Stopping criterion = linesearch alpha is zero
  Energy initial, next-to-last, final = 
        -241.868859888     -241.868911429     -241.868911429
  Force two-norm initial, final = 0.0753633 0.0152855
  Force max component initial, final = 0.0365506 0.00359306
  Final line search alpha, max atom move = 3.05176e-05 1.09652e-07
  Iterations, force evaluations = 5 44

Pair  time (%) = 0.000701594 (80.8392)
Neigh time (%) = 0 (0)
Comm  time (%) = 5.34372e-05 (6.15715)
Outpt time (%) = 2.209e-05 (2.54526)
Other time (%) = 9.07675e-05 (10.4584)

Nlocal:    82 ave 82 max 82 min
Histogram: 1 0 0 0 0 0 0 0 0 0
Nghost:    175 ave 175 max 175 min
Histogram: 1 0 0 0 0 0 0 0 0 0
Neighs:    714 ave 714 max 714 min
Histogram: 1 0 0 0 0 0 0 0 0 0

Total # of neighbors = 714
Ave neighs/atom = 8.70732
Neighbor list builds = 0
Dangerous builds = 0
        # write_dump all atom ${dumpfile}
        next i
jump SELF loop1
        displace_atoms upper move ${xstep1} 0.0 0.0 units lattice
        displace_atoms upper move 0.00333333333333333 0.0 0.0 units lattice
        min_style ${style}
        min_style cg
        minimize ${etol} ${ftol} ${maxiter} ${maxeval}
        minimize 1e-12 ${ftol} ${maxiter} ${maxeval}
        minimize 1e-12 1e-08 ${maxiter} ${maxeval}
        minimize 1e-12 1e-08 10000 ${maxeval}
        minimize 1e-12 1e-08 10000 20000
WARNING: Resetting reneighboring criteria during minimization (../min.cpp:168)
Memory usage per processor = 3.35169 Mbytes
Step Temp PotEng Lx Ly Lz 
     117            0   -241.86104    2.2449075    38.893441    1.1224537 
     118            0   -241.86107    2.2449075    38.893441    1.1224537 
     119            0   -241.86107    2.2449075    38.893441    1.1224537 
     120            0   -241.86108    2.2449075    38.893441    1.1224537 
     121            0   -241.86109    2.2449075    38.893441    1.1224537 
     122            0    -241.8611    2.2449075    38.893441    1.1224537 
     123            0   -241.86111    2.2449075    38.893441    1.1224537 
     124            0   -241.86112    2.2449075    38.893441    1.1224537 
     125            0   -241.86112    2.2449075    38.893441    1.1224537 
Loop time of 0.00124091 on 1 procs for 8 steps with 82 atoms

Minimization stats:
  Stopping criterion = linesearch alpha is zero
  Energy initial, next-to-last, final = 
        -241.861037897     -241.861120538     -241.861120538
  Force two-norm initial, final = 0.0785796 0.0191554
  Force max component initial, final = 0.0385463 0.00494417
  Final line search alpha, max atom move = 3.05176e-05 1.50884e-07
  Iterations, force evaluations = 8 64

Pair  time (%) = 0.000987051 (79.5427)
Neigh time (%) = 0 (0)
Comm  time (%) = 8.18914e-05 (6.59932)
Outpt time (%) = 4.10293e-05 (3.30639)
Other time (%) = 0.000130936 (10.5516)

Nlocal:    82 ave 82 max 82 min
Histogram: 1 0 0 0 0 0 0 0 0 0
Nghost:    175 ave 175 max 175 min
Histogram: 1 0 0 0 0 0 0 0 0 0
Neighs:    714 ave 714 max 714 min
Histogram: 1 0 0 0 0 0 0 0 0 0

Total # of neighbors = 714
Ave neighs/atom = 8.70732
Neighbor list builds = 0
Dangerous builds = 0
        # write_dump all atom ${dumpfile}
        next i
jump SELF loop1
        displace_atoms upper move ${xstep1} 0.0 0.0 units lattice
        displace_atoms upper move 0.00333333333333333 0.0 0.0 units lattice
        min_style ${style}
        min_style cg
        minimize ${etol} ${ftol} ${maxiter} ${maxeval}
        minimize 1e-12 ${ftol} ${maxiter} ${maxeval}
        minimize 1e-12 1e-08 ${maxiter} ${maxeval}
        minimize 1e-12 1e-08 10000 ${maxeval}
        minimize 1e-12 1e-08 10000 20000
WARNING: Resetting reneighboring criteria during minimization (../min.cpp:168)
Memory usage per processor = 3.35169 Mbytes
Step Temp PotEng Lx Ly Lz 
     125            0   -241.85317    2.2449075    38.894271    1.1224537 
     126            0   -241.85319    2.2449075    38.894271    1.1224537 
     127            0    -241.8532    2.2449075    38.894271    1.1224537 
     128            0   -241.85321    2.2449075    38.894271    1.1224537 
     129            0   -241.85322    2.2449075    38.894271    1.1224537 
     130            0   -241.85323    2.2449075    38.894271    1.1224537 
     131            0   -241.85325    2.2449075    38.894271    1.1224537 
     132            0   -241.85326    2.2449075    38.894271    1.1224537 
     133            0   -241.85328    2.2449075    38.894271    1.1224537 
     134            0   -241.85329    2.2449075    38.894271    1.1224537 
     135            0   -241.85332    2.2449075    38.894271    1.1224537 
     136            0   -241.85334    2.2449075    38.894271    1.1224537 
     137            0   -241.85335    2.2449075    38.894271    1.1224537 
     138            0   -241.85335    2.2449075    38.894271    1.1224537 
Loop time of 0.00180593 on 1 procs for 13 steps with 82 atoms

Minimization stats:
  Stopping criterion = linesearch alpha is zero
  Energy initial, next-to-last, final = 
        -241.853168384     -241.853352143     -241.853352143
  Force two-norm initial, final = 0.0776016 0.0250142
  Force max component initial, final = 0.0376168 0.0066109
  Final line search alpha, max atom move = 1.52588e-05 1.00874e-07
  Iterations, force evaluations = 13 96

Pair  time (%) = 0.00141201 (78.1876)
Neigh time (%) = 0 (0)
Comm  time (%) = 0.000112993 (6.25678)
Outpt time (%) = 7.50783e-05 (4.15733)
Other time (%) = 0.000205845 (11.3983)

Nlocal:    82 ave 82 max 82 min
Histogram: 1 0 0 0 0 0 0 0 0 0
Nghost:    175 ave 175 max 175 min
Histogram: 1 0 0 0 0 0 0 0 0 0
Neighs:    714 ave 714 max 714 min
Histogram: 1 0 0 0 0 0 0 0 0 0

Total # of neighbors = 714
Ave neighs/atom = 8.70732
Neighbor list builds = 0
Dangerous builds = 0
        # write_dump all atom ${dumpfile}
        next i
jump SELF loop1
        displace_atoms upper move ${xstep1} 0.0 0.0 units lattice
        displace_atoms upper move 0.00333333333333333 0.0 0.0 units lattice
        min_style ${style}
        min_style cg
        minimize ${etol} ${ftol} ${maxiter} ${maxeval}
        minimize 1e-12 ${ftol} ${maxiter} ${maxeval}
        minimize 1e-12 1e-08 ${maxiter} ${maxeval}
        minimize 1e-12 1e-08 10000 ${maxeval}
        minimize 1e-12 1e-08 10000 20000
WARNING: Resetting reneighboring criteria during minimization (../min.cpp:168)
Memory usage per processor = 3.35169 Mbytes
Step Temp PotEng Lx Ly Lz 
     138            0   -241.84537    2.2449075    38.899325    1.1224537 
     139            0    -241.8454    2.2449075    38.899325    1.1224537 
     140            0    -241.8454    2.2449075    38.899325    1.1224537 
Loop time of 0.00134396 on 1 procs for 2 steps with 82 atoms

Minimization stats:
  Stopping criterion = linesearch alpha is zero
  Energy initial, next-to-last, final = 
        -241.845368299     -241.845396532     -241.845396532
  Force two-norm initial, final = 0.077962 0.0302837
  Force max component initial, final = 0.0369648 0.00972723
  Final line search alpha, max atom move = 7.62939e-06 7.42129e-08
  Iterations, force evaluations = 2 26

Pair  time (%) = 0.00124109 (92.3461)
Neigh time (%) = 0 (0)
Comm  time (%) = 3.33912e-05 (2.48455)
Outpt time (%) = 1.31078e-05 (0.975314)
Other time (%) = 5.63661e-05 (4.19405)

Nlocal:    82 ave 82 max 82 min
Histogram: 1 0 0 0 0 0 0 0 0 0
Nghost:    175 ave 175 max 175 min
Histogram: 1 0 0 0 0 0 0 0 0 0
Neighs:    714 ave 714 max 714 min
Histogram: 1 0 0 0 0 0 0 0 0 0

Total # of neighbors = 714
Ave neighs/atom = 8.70732
Neighbor list builds = 0
Dangerous builds = 0
        # write_dump all atom ${dumpfile}
        next i
jump SELF loop1
        displace_atoms upper move ${xstep1} 0.0 0.0 units lattice
        displace_atoms upper move 0.00333333333333333 0.0 0.0 units lattice
        min_style ${style}
        min_style cg
        minimize ${etol} ${ftol} ${maxiter} ${maxeval}
        minimize 1e-12 ${ftol} ${maxiter} ${maxeval}
        minimize 1e-12 1e-08 ${maxiter} ${maxeval}
        minimize 1e-12 1e-08 10000 ${maxeval}
        minimize 1e-12 1e-08 10000 20000
WARNING: Resetting reneighboring criteria during minimization (../min.cpp:168)
Memory usage per processor = 3.35169 Mbytes
Step Temp PotEng Lx Ly Lz 
     140            0   -241.83731    2.2449075    38.899344    1.1224537 
     141            0   -241.83735    2.2449075    38.899344    1.1224537 
     142            0   -241.83738    2.2449075    38.899344    1.1224537 
     143            0   -241.83739    2.2449075    38.899344    1.1224537 
     144            0    -241.8374    2.2449075    38.899344    1.1224537 
     145            0    -241.8374    2.2449075    38.899344    1.1224537 
Loop time of 0.00164998 on 1 procs for 5 steps with 82 atoms

Minimization stats:
  Stopping criterion = linesearch alpha is zero
  Energy initial, next-to-last, final = 
        -241.837310383     -241.837397415     -241.837397415
  Force two-norm initial, final = 0.0929945 0.0225588
  Force max component initial, final = 0.0445651 0.00690144
  Final line search alpha, max atom move = 1.52588e-05 1.05308e-07
  Iterations, force evaluations = 5 46

Pair  time (%) = 0.00146451 (88.7594)
Neigh time (%) = 0 (0)
Comm  time (%) = 5.44279e-05 (3.29871)
Outpt time (%) = 3.01176e-05 (1.82533)
Other time (%) = 0.000100921 (6.11653)

Nlocal:    82 ave 82 max 82 min
Histogram: 1 0 0 0 0 0 0 0 0 0
Nghost:    175 ave 175 max 175 min
Histogram: 1 0 0 0 0 0 0 0 0 0
Neighs:    714 ave 714 max 714 min
Histogram: 1 0 0 0 0 0 0 0 0 0

Total # of neighbors = 714
Ave neighs/atom = 8.70732
Neighbor list builds = 0
Dangerous builds = 0
        # write_dump all atom ${dumpfile}
        next i
jump SELF loop1
        displace_atoms upper move ${xstep1} 0.0 0.0 units lattice
        displace_atoms upper move 0.00333333333333333 0.0 0.0 units lattice
        min_style ${style}
        min_style cg
        minimize ${etol} ${ftol} ${maxiter} ${maxeval}
        minimize 1e-12 ${ftol} ${maxiter} ${maxeval}
        minimize 1e-12 1e-08 ${maxiter} ${maxeval}
        minimize 1e-12 1e-08 10000 ${maxeval}
        minimize 1e-12 1e-08 10000 20000
WARNING: Resetting reneighboring criteria during minimization (../min.cpp:168)
Memory usage per processor = 3.35169 Mbytes
Step Temp PotEng Lx Ly Lz 
     145            0   -241.82928    2.2449075    38.899557    1.1224537 
     146            0    -241.8293    2.2449075    38.899557    1.1224537 
     147            0    -241.8293    2.2449075    38.899557    1.1224537 
     148            0   -241.82933    2.2449075    38.899557    1.1224537 
     149            0   -241.82933    2.2449075    38.899557    1.1224537 
     150            0   -241.82934    2.2449075    38.899557    1.1224537 
     151            0   -241.82934    2.2449075    38.899557    1.1224537 
     152            0   -241.82934    2.2449075    38.899557    1.1224537 
     153            0   -241.82935    2.2449075    38.899557    1.1224537 
     154            0   -241.82937    2.2449075    38.899557    1.1224537 
     155            0   -241.82939    2.2449075    38.899557    1.1224537 
     156            0   -241.82939    2.2449075    38.899557    1.1224537 
     157            0   -241.82939    2.2449075    38.899557    1.1224537 
     158            0   -241.82939    2.2449075    38.899557    1.1224537 
Loop time of 0.00205792 on 1 procs for 13 steps with 82 atoms

Minimization stats:
  Stopping criterion = linesearch alpha is zero
  Energy initial, next-to-last, final = 
        -241.829277379     -241.829390209     -241.829390209
  Force two-norm initial, final = 0.0681392 0.0404693
  Force max component initial, final = 0.0325007 0.0117364
  Final line search alpha, max atom move = 7.62939e-06 8.95414e-08
  Iterations, force evaluations = 13 103

Pair  time (%) = 0.0016368 (79.5367)
Neigh time (%) = 0 (0)
Comm  time (%) = 0.000131326 (6.38149)
Outpt time (%) = 7.01373e-05 (3.40817)
Other time (%) = 0.000219655 (10.6737)

Nlocal:    82 ave 82 max 82 min
Histogram: 1 0 0 0 0 0 0 0 0 0
Nghost:    175 ave 175 max 175 min
Histogram: 1 0 0 0 0 0 0 0 0 0
Neighs:    714 ave 714 max 714 min
Histogram: 1 0 0 0 0 0 0 0 0 0

Total # of neighbors = 714
Ave neighs/atom = 8.70732
Neighbor list builds = 0
Dangerous builds = 0
        # write_dump all atom ${dumpfile}
        next i
jump SELF loop1
        displace_atoms upper move ${xstep1} 0.0 0.0 units lattice
        displace_atoms upper move 0.00333333333333333 0.0 0.0 units lattice
        min_style ${style}
        min_style cg
        minimize ${etol} ${ftol} ${maxiter} ${maxeval}
        minimize 1e-12 ${ftol} ${maxiter} ${maxeval}
        minimize 1e-12 1e-08 ${maxiter} ${maxeval}
        minimize 1e-12 1e-08 10000 ${maxeval}
        minimize 1e-12 1e-08 10000 20000
WARNING: Resetting reneighboring criteria during minimization (../min.cpp:168)
Memory usage per processor = 3.35169 Mbytes
Step Temp PotEng Lx Ly Lz 
     158            0    -241.8212    2.2449075    38.902769    1.1224537 
     159            0   -241.82121    2.2449075    38.902769    1.1224537 
     160            0   -241.82122    2.2449075    38.902769    1.1224537 
     161            0   -241.82125    2.2449075    38.902769    1.1224537 
     162            0   -241.82127    2.2449075    38.902769    1.1224537 
     163            0   -241.82127    2.2449075    38.902769    1.1224537 
     164            0   -241.82127    2.2449075    38.902769    1.1224537 
     165            0   -241.82127    2.2449075    38.902769    1.1224537 
Loop time of 0.001454 on 1 procs for 7 steps with 82 atoms

Minimization stats:
  Stopping criterion = linesearch alpha is zero
  Energy initial, next-to-last, final = 
        -241.821197128     -241.821273351     -241.821273351
  Force two-norm initial, final = 0.0854712 0.0219652
  Force max component initial, final = 0.0376899 0.00842352
  Final line search alpha, max atom move = 3.05176e-05 2.57065e-07
  Iterations, force evaluations = 7 61

Pair  time (%) = 0.00113303 (77.925)
Neigh time (%) = 0 (0)
Comm  time (%) = 9.28458e-05 (6.38554)
Outpt time (%) = 5.71234e-05 (3.9287)
Other time (%) = 0.000171001 (11.7607)

Nlocal:    82 ave 82 max 82 min
Histogram: 1 0 0 0 0 0 0 0 0 0
Nghost:    175 ave 175 max 175 min
Histogram: 1 0 0 0 0 0 0 0 0 0
Neighs:    714 ave 714 max 714 min
Histogram: 1 0 0 0 0 0 0 0 0 0

Total # of neighbors = 714
Ave neighs/atom = 8.70732
Neighbor list builds = 0
Dangerous builds = 0
        # write_dump all atom ${dumpfile}
        next i
jump SELF loop1
        displace_atoms upper move ${xstep1} 0.0 0.0 units lattice
        displace_atoms upper move 0.00333333333333333 0.0 0.0 units lattice
        min_style ${style}
        min_style cg
        minimize ${etol} ${ftol} ${maxiter} ${maxeval}
        minimize 1e-12 ${ftol} ${maxiter} ${maxeval}
        minimize 1e-12 1e-08 ${maxiter} ${maxeval}
        minimize 1e-12 1e-08 10000 ${maxeval}
        minimize 1e-12 1e-08 10000 20000
WARNING: Resetting reneighboring criteria during minimization (../min.cpp:168)
Memory usage per processor = 3.35169 Mbytes
Step Temp PotEng Lx Ly Lz 
     165            0   -241.81304    2.2449075    38.902781    1.1224537 
     166            0   -241.81306    2.2449075    38.902781    1.1224537 
     167            0   -241.81308    2.2449075    38.902781    1.1224537 
     168            0   -241.81309    2.2449075    38.902781    1.1224537 
     169            0    -241.8131    2.2449075    38.902781    1.1224537 
     170            0    -241.8131    2.2449075    38.902781    1.1224537 
Loop time of 0.000887066 on 1 procs for 5 steps with 82 atoms

Minimization stats:
  Stopping criterion = linesearch alpha is zero
  Energy initial, next-to-last, final = 
        -241.813035354       -241.8131018       -241.8131018
  Force two-norm initial, final = 0.0801362 0.0284375
  Force max component initial, final = 0.03863 0.00907782
  Final line search alpha, max atom move = 1.52588e-05 1.38516e-07
  Iterations, force evaluations = 5 44

Pair  time (%) = 0.000710765 (80.1254)
Neigh time (%) = 0 (0)
Comm  time (%) = 5.06736e-05 (5.7125)
Outpt time (%) = 2.40784e-05 (2.71439)
Other time (%) = 0.000101549 (11.4477)

Nlocal:    82 ave 82 max 82 min
Histogram: 1 0 0 0 0 0 0 0 0 0
Nghost:    175 ave 175 max 175 min
Histogram: 1 0 0 0 0 0 0 0 0 0
Neighs:    714 ave 714 max 714 min
Histogram: 1 0 0 0 0 0 0 0 0 0

Total # of neighbors = 714
Ave neighs/atom = 8.70732
Neighbor list builds = 0
Dangerous builds = 0
        # write_dump all atom ${dumpfile}
        next i
jump SELF loop1
        displace_atoms upper move ${xstep1} 0.0 0.0 units lattice
        displace_atoms upper move 0.00333333333333333 0.0 0.0 units lattice
        min_style ${style}
        min_style cg
        minimize ${etol} ${ftol} ${maxiter} ${maxeval}
        minimize 1e-12 ${ftol} ${maxiter} ${maxeval}
        minimize 1e-12 1e-08 ${maxiter} ${maxeval}
        minimize 1e-12 1e-08 10000 ${maxeval}
        minimize 1e-12 1e-08 10000 20000
WARNING: Resetting reneighboring criteria during minimization (../min.cpp:168)
Memory usage per processor = 3.35169 Mbytes
Step Temp PotEng Lx Ly Lz 
     170            0   -241.80481    2.2449075    38.902987    1.1224537 
     171            0   -241.80485    2.2449075    38.902987    1.1224537 
     172            0   -241.80486    2.2449075    38.902987    1.1224537 
     173            0   -241.80487    2.2449075    38.902987    1.1224537 
     174            0   -241.80489    2.2449075    38.902987    1.1224537 
     175            0   -241.80491    2.2449075    38.902987    1.1224537 
     176            0   -241.80492    2.2449075    38.902987    1.1224537 
     177            0   -241.80493    2.2449075    38.902987    1.1224537 
     178            0   -241.80493    2.2449075    38.902987    1.1224537 
     179            0   -241.80493    2.2449075    38.902987    1.1224537 
Loop time of 0.00148401 on 1 procs for 9 steps with 82 atoms

Minimization stats:
  Stopping criterion = linesearch alpha is zero
  Energy initial, next-to-last, final = 
        -241.804812715     -241.804933799     -241.804933799
  Force two-norm initial, final = 0.092621 0.0198009
  Force max component initial, final = 0.0450123 0.004687
  Final line search alpha, max atom move = 3.05176e-05 1.43036e-07
  Iterations, force evaluations = 9 70

Pair  time (%) = 0.00120438 (81.1569)
Neigh time (%) = 0 (0)
Comm  time (%) = 8.77368e-05 (5.91214)
Outpt time (%) = 4.50923e-05 (3.03854)
Other time (%) = 0.000146805 (9.89244)

Nlocal:    82 ave 82 max 82 min
Histogram: 1 0 0 0 0 0 0 0 0 0
Nghost:    175 ave 175 max 175 min
Histogram: 1 0 0 0 0 0 0 0 0 0
Neighs:    714 ave 714 max 714 min
Histogram: 1 0 0 0 0 0 0 0 0 0

Total # of neighbors = 714
Ave neighs/atom = 8.70732
Neighbor list builds = 0
Dangerous builds = 0
        # write_dump all atom ${dumpfile}
        next i
jump SELF loop1
        displace_atoms upper move ${xstep1} 0.0 0.0 units lattice
        displace_atoms upper move 0.00333333333333333 0.0 0.0 units lattice
        min_style ${style}
        min_style cg
        minimize ${etol} ${ftol} ${maxiter} ${maxeval}
[...]
        minimize 1e-12 1e-08 ${maxiter} ${maxeval}
        minimize 1e-12 1e-08 10000 ${maxeval}
        minimize 1e-12 1e-08 10000 20000
WARNING: Resetting reneighboring criteria during minimization (../min.cpp:168)
Memory usage per processor = 3.35169 Mbytes
Step Temp PotEng Lx Ly Lz 
    1233            0   -241.98275    2.2449075    38.903009    1.1224537 
    1234            0   -241.98275    2.2449075    38.903009    1.1224537 
    1235            0   -241.98275    2.2449075    38.903009    1.1224537 
    1236            0   -241.98275    2.2449075    38.903009    1.1224537 
Loop time of 0.000699884 on 1 procs for 3 steps with 82 atoms

Minimization stats:
  Stopping criterion = linesearch alpha is zero
  Energy initial, next-to-last, final = 
        -241.982747613     -241.982753072     -241.982753072
  Force two-norm initial, final = 0.0373437 0.0187762
  Force max component initial, final = 0.0155608 0.00496922
  Final line search alpha, max atom move = 3.05176e-05 1.51649e-07
  Iterations, force evaluations = 3 34

Pair  time (%) = 0.000569948 (81.4347)
Neigh time (%) = 0 (0)
Comm  time (%) = 4.53149e-05 (6.47463)
Outpt time (%) = 1.19875e-05 (1.71279)
Other time (%) = 7.26331e-05 (10.3779)

Nlocal:    82 ave 82 max 82 min
Histogram: 1 0 0 0 0 0 0 0 0 0
Nghost:    185 ave 185 max 185 min
Histogram: 1 0 0 0 0 0 0 0 0 0
Neighs:    718 ave 718 max 718 min
Histogram: 1 0 0 0 0 0 0 0 0 0

Total # of neighbors = 718
Ave neighs/atom = 8.7561
Neighbor list builds = 0
Dangerous builds = 0
        # write_dump all atom ${dumpfile}
        next i
jump SELF loop1
        displace_atoms upper move ${xstep1} 0.0 0.0 units lattice
        displace_atoms upper move 0.00333333333333333 0.0 0.0 units lattice
        min_style ${style}
        min_style cg
        minimize ${etol} ${ftol} ${maxiter} ${maxeval}
        minimize 1e-12 ${ftol} ${maxiter} ${maxeval}
        minimize 1e-12 1e-08 ${maxiter} ${maxeval}
        minimize 1e-12 1e-08 10000 ${maxeval}
        minimize 1e-12 1e-08 10000 20000
WARNING: Resetting reneighboring criteria during minimization (../min.cpp:168)
Memory usage per processor = 3.35169 Mbytes
Step Temp PotEng Lx Ly Lz 
    1236            0   -241.98592    2.2449075    38.903005    1.1224537 
    1237            0   -241.98593    2.2449075    38.903005    1.1224537 
    1238            0   -241.98593    2.2449075    38.903005    1.1224537 
    1239            0   -241.98594    2.2449075    38.903005    1.1224537 
    1240            0   -241.98595    2.2449075    38.903005    1.1224537 
    1241            0   -241.98595    2.2449075    38.903005    1.1224537 
Loop time of 0.000874027 on 1 procs for 5 steps with 82 atoms

Minimization stats:
  Stopping criterion = linesearch alpha is zero
  Energy initial, next-to-last, final = 
        -241.985921991     -241.985950522     -241.985950522
  Force two-norm initial, final = 0.0395677 0.017344
  Force max component initial, final = 0.0181399 0.00545787
  Final line search alpha, max atom move = 3.05176e-05 1.66561e-07
  Iterations, force evaluations = 5 45

Pair  time (%) = 0.000697236 (79.7728)
Neigh time (%) = 0 (0)
Comm  time (%) = 5.7589e-05 (6.58893)
Outpt time (%) = 2.19055e-05 (2.50627)
Other time (%) = 9.72968e-05 (11.132)

Nlocal:    82 ave 82 max 82 min
Histogram: 1 0 0 0 0 0 0 0 0 0
Nghost:    185 ave 185 max 185 min
Histogram: 1 0 0 0 0 0 0 0 0 0
Neighs:    718 ave 718 max 718 min
Histogram: 1 0 0 0 0 0 0 0 0 0

Total # of neighbors = 718
Ave neighs/atom = 8.7561
Neighbor list builds = 0
Dangerous builds = 0
        # write_dump all atom ${dumpfile}
        next i
jump SELF loop1
        displace_atoms upper move ${xstep1} 0.0 0.0 units lattice
        displace_atoms upper move 0.00333333333333333 0.0 0.0 units lattice
        min_style ${style}
        min_style cg
        minimize ${etol} ${ftol} ${maxiter} ${maxeval}
        minimize 1e-12 ${ftol} ${maxiter} ${maxeval}
        minimize 1e-12 1e-08 ${maxiter} ${maxeval}
        minimize 1e-12 1e-08 10000 ${maxeval}
        minimize 1e-12 1e-08 10000 20000
WARNING: Resetting reneighboring criteria during minimization (../min.cpp:168)
Memory usage per processor = 3.35169 Mbytes
Step Temp PotEng Lx Ly Lz 
    1241            0    -241.9888    2.2449075    38.902939    1.1224537 
    1242            0   -241.98881    2.2449075    38.902939    1.1224537 
    1243            0   -241.98881    2.2449075    38.902939    1.1224537 
    1244            0   -241.98882    2.2449075    38.902939    1.1224537 
    1245            0   -241.98882    2.2449075    38.902939    1.1224537 
Loop time of 0.000756086 on 1 procs for 4 steps with 82 atoms

Minimization stats:
  Stopping criterion = linesearch alpha is zero
  Energy initial, next-to-last, final = 
        -241.988804556     -241.988815173     -241.988815173
  Force two-norm initial, final = 0.0246073 0.0198341
  Force max component initial, final = 0.00918433 0.00733086
  Final line search alpha, max atom move = 3.05176e-05 2.2372e-07
  Iterations, force evaluations = 4 39

Pair  time (%) = 0.000608733 (80.5111)
Neigh time (%) = 0 (0)
Comm  time (%) = 4.60229e-05 (6.087)
Outpt time (%) = 1.87387e-05 (2.47838)
Other time (%) = 8.25911e-05 (10.9235)

Nlocal:    82 ave 82 max 82 min
Histogram: 1 0 0 0 0 0 0 0 0 0
Nghost:    185 ave 185 max 185 min
Histogram: 1 0 0 0 0 0 0 0 0 0
Neighs:    718 ave 718 max 718 min
Histogram: 1 0 0 0 0 0 0 0 0 0

Total # of neighbors = 718
Ave neighs/atom = 8.7561
Neighbor list builds = 0
Dangerous builds = 0
        # write_dump all atom ${dumpfile}
        next i
jump SELF loop1
        displace_atoms upper move ${xstep1} 0.0 0.0 units lattice
        displace_atoms upper move 0.00333333333333333 0.0 0.0 units lattice
        min_style ${style}
        min_style cg
        minimize ${etol} ${ftol} ${maxiter} ${maxeval}
        minimize 1e-12 ${ftol} ${maxiter} ${maxeval}
        minimize 1e-12 1e-08 ${maxiter} ${maxeval}
        minimize 1e-12 1e-08 10000 ${maxeval}
        minimize 1e-12 1e-08 10000 20000
WARNING: Resetting reneighboring criteria during minimization (../min.cpp:168)
Memory usage per processor = 3.35169 Mbytes
Step Temp PotEng Lx Ly Lz 
    1245            0   -241.99134    2.2449075     38.90289    1.1224537 
    1246            0   -241.99135    2.2449075     38.90289    1.1224537 
    1247            0   -241.99135    2.2449075     38.90289    1.1224537 
    1248            0   -241.99135    2.2449075     38.90289    1.1224537 
Loop time of 0.0251061 on 1 procs for 3 steps with 82 atoms

Minimization stats:
  Stopping criterion = linesearch alpha is zero
  Energy initial, next-to-last, final = 
         -241.99134201     -241.991347392     -241.991347392
  Force two-norm initial, final = 0.0253425 0.0134576
  Force max component initial, final = 0.00825584 0.00262247
  Final line search alpha, max atom move = 6.10352e-05 1.60063e-07
  Iterations, force evaluations = 3 30

Pair  time (%) = 0.00124665 (4.96552)
Neigh time (%) = 0 (0)
Comm  time (%) = 0.000103959 (0.414079)
Outpt time (%) = 0.0235741 (93.8978)
Other time (%) = 0.000181411 (0.722578)

Nlocal:    82 ave 82 max 82 min
Histogram: 1 0 0 0 0 0 0 0 0 0
Nghost:    185 ave 185 max 185 min
Histogram: 1 0 0 0 0 0 0 0 0 0
Neighs:    718 ave 718 max 718 min
Histogram: 1 0 0 0 0 0 0 0 0 0

Total # of neighbors = 718
Ave neighs/atom = 8.7561
Neighbor list builds = 0
Dangerous builds = 0
        # write_dump all atom ${dumpfile}
        next i
jump SELF loop1
        displace_atoms upper move ${xstep1} 0.0 0.0 units lattice
        displace_atoms upper move 0.00333333333333333 0.0 0.0 units lattice
        min_style ${style}
        min_style cg
        minimize ${etol} ${ftol} ${maxiter} ${maxeval}
        minimize 1e-12 ${ftol} ${maxiter} ${maxeval}
        minimize 1e-12 1e-08 ${maxiter} ${maxeval}
        minimize 1e-12 1e-08 10000 ${maxeval}
        minimize 1e-12 1e-08 10000 20000
WARNING: Resetting reneighboring criteria during minimization (../min.cpp:168)
Memory usage per processor = 3.35169 Mbytes
Step Temp PotEng Lx Ly Lz 
    1248            0   -241.99354    2.2449075    38.902873    1.1224537 
    1249            0   -241.99354    2.2449075    38.902873    1.1224537 
    1250            0   -241.99354    2.2449075    38.902873    1.1224537 
Loop time of 0.00578012 on 1 procs for 2 steps with 82 atoms

Minimization stats:
  Stopping criterion = linesearch alpha is zero
  Energy initial, next-to-last, final = 
        -241.993539924     -241.993542184     -241.993542184
  Force two-norm initial, final = 0.0242442 0.0185662
  Force max component initial, final = 0.0101765 0.00608733
  Final line search alpha, max atom move = 3.05176e-05 1.85771e-07
  Iterations, force evaluations = 2 25

Pair  time (%) = 0.000833437 (14.419)
Neigh time (%) = 0 (0)
Comm  time (%) = 6.69075e-05 (1.15755)
Outpt time (%) = 0.00477112 (82.5436)
Other time (%) = 0.000108653 (1.87978)

Nlocal:    82 ave 82 max 82 min
Histogram: 1 0 0 0 0 0 0 0 0 0
Nghost:    185 ave 185 max 185 min
Histogram: 1 0 0 0 0 0 0 0 0 0
Neighs:    718 ave 718 max 718 min
Histogram: 1 0 0 0 0 0 0 0 0 0

Total # of neighbors = 718
Ave neighs/atom = 8.7561
Neighbor list builds = 0
Dangerous builds = 0
        # write_dump all atom ${dumpfile}
        next i
jump SELF loop1
        displace_atoms upper move ${xstep1} 0.0 0.0 units lattice
        displace_atoms upper move 0.00333333333333333 0.0 0.0 units lattice
        min_style ${style}
        min_style cg
        minimize ${etol} ${ftol} ${maxiter} ${maxeval}
        minimize 1e-12 ${ftol} ${maxiter} ${maxeval}
        minimize 1e-12 1e-08 ${maxiter} ${maxeval}
        minimize 1e-12 1e-08 10000 ${maxeval}
        minimize 1e-12 1e-08 10000 20000
WARNING: Resetting reneighboring criteria during minimization (../min.cpp:168)
Memory usage per processor = 3.35169 Mbytes
Step Temp PotEng Lx Ly Lz 
    1250            0    -241.9954    2.2449075     38.90287    1.1224537 
    1251            0    -241.9954    2.2449075     38.90287    1.1224537 
Loop time of 0.000797915 on 1 procs for 1 steps with 82 atoms

Minimization stats:
  Stopping criterion = linesearch alpha is zero
  Energy initial, next-to-last, final = 
        -241.995401296     -241.995401296     -241.995401296
  Force two-norm initial, final = 0.0309484 0.0309484
  Force max component initial, final = 0.0138193 0.0138193
  Final line search alpha, max atom move = 7.62939e-06 1.05433e-07
  Iterations, force evaluations = 1 18

Pair  time (%) = 0.000561022 (70.311)
Neigh time (%) = 0 (0)
Comm  time (%) = 4.23765e-05 (5.3109)
Outpt time (%) = 0 (0)
Other time (%) = 0.000194516 (24.3781)

Nlocal:    82 ave 82 max 82 min
Histogram: 1 0 0 0 0 0 0 0 0 0
Nghost:    185 ave 185 max 185 min
Histogram: 1 0 0 0 0 0 0 0 0 0
Neighs:    718 ave 718 max 718 min
Histogram: 1 0 0 0 0 0 0 0 0 0

Total # of neighbors = 718
Ave neighs/atom = 8.7561
Neighbor list builds = 0
Dangerous builds = 0
        # write_dump all atom ${dumpfile}
        next i
jump SELF loop1
        displace_atoms upper move ${xstep1} 0.0 0.0 units lattice
        displace_atoms upper move 0.00333333333333333 0.0 0.0 units lattice
        min_style ${style}
        min_style cg
        minimize ${etol} ${ftol} ${maxiter} ${maxeval}
        minimize 1e-12 ${ftol} ${maxiter} ${maxeval}
        minimize 1e-12 1e-08 ${maxiter} ${maxeval}
        minimize 1e-12 1e-08 10000 ${maxeval}
        minimize 1e-12 1e-08 10000 20000
WARNING: Resetting reneighboring criteria during minimization (../min.cpp:168)
Memory usage per processor = 3.35169 Mbytes
Step Temp PotEng Lx Ly Lz 
    1251            0   -241.99692    2.2449075     38.90287    1.1224537 
    1252            0   -241.99692    2.2449075     38.90287    1.1224537 
    1253            0   -241.99692    2.2449075     38.90287    1.1224537 
Loop time of 0.00121498 on 1 procs for 2 steps with 82 atoms

Minimization stats:
  Stopping criterion = linesearch alpha is zero
  Energy initial, next-to-last, final = 
        -241.996924342     -241.996924838     -241.996924838
  Force two-norm initial, final = 0.0426241 0.0408046
  Force max component initial, final = 0.0201557 0.0191392
  Final line search alpha, max atom move = 3.8147e-06 7.30101e-08
  Iterations, force evaluations = 2 31

Pair  time (%) = 0.000991988 (81.6466)
Neigh time (%) = 0 (0)
Comm  time (%) = 7.98125e-05 (6.56905)
Outpt time (%) = 1.79558e-05 (1.47787)
Other time (%) = 0.000125222 (10.3065)

Nlocal:    82 ave 82 max 82 min
Histogram: 1 0 0 0 0 0 0 0 0 0
Nghost:    185 ave 185 max 185 min
Histogram: 1 0 0 0 0 0 0 0 0 0
Neighs:    718 ave 718 max 718 min
Histogram: 1 0 0 0 0 0 0 0 0 0

Total # of neighbors = 718
Ave neighs/atom = 8.7561
Neighbor list builds = 0
Dangerous builds = 0
        # write_dump all atom ${dumpfile}
        next i
jump SELF loop1
        displace_atoms upper move ${xstep1} 0.0 0.0 units lattice
        displace_atoms upper move 0.00333333333333333 0.0 0.0 units lattice
        min_style ${style}
        min_style cg
        minimize ${etol} ${ftol} ${maxiter} ${maxeval}
        minimize 1e-12 ${ftol} ${maxiter} ${maxeval}
        minimize 1e-12 1e-08 ${maxiter} ${maxeval}
        minimize 1e-12 1e-08 10000 ${maxeval}
        minimize 1e-12 1e-08 10000 20000
WARNING: Resetting reneighboring criteria during minimization (../min.cpp:168)
Memory usage per processor = 3.35169 Mbytes
Step Temp PotEng Lx Ly Lz 
    1253            0   -241.99811    2.2449075     38.90287    1.1224537 
    1254            0   -241.99811    2.2449075     38.90287    1.1224537 
Loop time of 0.000698938 on 1 procs for 1 steps with 82 atoms

Minimization stats:
  Stopping criterion = linesearch alpha is zero
  Energy initial, next-to-last, final = 
        -241.998108006     -241.998108006     -241.998108006
  Force two-norm initial, final = 0.0501331 0.0501331
  Force max component initial, final = 0.0240582 0.0240582
  Final line search alpha, max atom move = 3.8147e-06 9.17747e-08
  Iterations, force evaluations = 1 19

Pair  time (%) = 0.000579923 (82.9721)
Neigh time (%) = 0 (0)
Comm  time (%) = 4.39672e-05 (6.29057)
Outpt time (%) = 0 (0)
Other time (%) = 7.50474e-05 (10.7373)

Nlocal:    82 ave 82 max 82 min
Histogram: 1 0 0 0 0 0 0 0 0 0
Nghost:    185 ave 185 max 185 min
Histogram: 1 0 0 0 0 0 0 0 0 0
Neighs:    718 ave 718 max 718 min
Histogram: 1 0 0 0 0 0 0 0 0 0

Total # of neighbors = 718
Ave neighs/atom = 8.7561
Neighbor list builds = 0
Dangerous builds = 0
        # write_dump all atom ${dumpfile}
        next i
jump SELF loop1
        displace_atoms upper move ${xstep1} 0.0 0.0 units lattice
        displace_atoms upper move 0.00333333333333333 0.0 0.0 units lattice
        min_style ${style}
        min_style cg
        minimize ${etol} ${ftol} ${maxiter} ${maxeval}
        minimize 1e-12 ${ftol} ${maxiter} ${maxeval}
        minimize 1e-12 1e-08 ${maxiter} ${maxeval}
        minimize 1e-12 1e-08 10000 ${maxeval}
        minimize 1e-12 1e-08 10000 20000
WARNING: Resetting reneighboring criteria during minimization (../min.cpp:168)
Memory usage per processor = 3.35169 Mbytes
Step Temp PotEng Lx Ly Lz 
    1254            0   -241.99895    2.2449075     38.90287    1.1224537 
    1255            0   -241.99895    2.2449075     38.90287    1.1224537 
Loop time of 0.000730031 on 1 procs for 1 steps with 82 atoms

Minimization stats:
  Stopping criterion = linesearch alpha is zero
  Energy initial, next-to-last, final = 
        -241.998954165     -241.998954165     -241.998954165
  Force two-norm initial, final = 0.0569129 0.0569129
  Force max component initial, final = 0.0275776 0.0275776
  Final line search alpha, max atom move = 3.8147e-06 1.052e-07
  Iterations, force evaluations = 1 19

Pair  time (%) = 0.000603245 (82.6328)
Neigh time (%) = 0 (0)
Comm  time (%) = 5.03385e-05 (6.89539)
Outpt time (%) = 0 (0)
Other time (%) = 7.64474e-05 (10.4718)

Nlocal:    82 ave 82 max 82 min
Histogram: 1 0 0 0 0 0 0 0 0 0
Nghost:    185 ave 185 max 185 min
Histogram: 1 0 0 0 0 0 0 0 0 0
Neighs:    718 ave 718 max 718 min
Histogram: 1 0 0 0 0 0 0 0 0 0

Total # of neighbors = 718
Ave neighs/atom = 8.7561
Neighbor list builds = 0
Dangerous builds = 0
        # write_dump all atom ${dumpfile}
        next i
jump SELF loop1
        displace_atoms upper move ${xstep1} 0.0 0.0 units lattice
        displace_atoms upper move 0.00333333333333333 0.0 0.0 units lattice
        min_style ${style}
        min_style cg
        minimize ${etol} ${ftol} ${maxiter} ${maxeval}
        minimize 1e-12 ${ftol} ${maxiter} ${maxeval}
        minimize 1e-12 1e-08 ${maxiter} ${maxeval}
        minimize 1e-12 1e-08 10000 ${maxeval}
        minimize 1e-12 1e-08 10000 20000
WARNING: Resetting reneighboring criteria during minimization (../min.cpp:168)
Memory usage per processor = 3.35169 Mbytes
Step Temp PotEng Lx Ly Lz 
    1255            0   -241.99946    2.2449075     38.90287    1.1224537 
    1256            0   -241.99947    2.2449075     38.90287    1.1224537 
    1257            0   -241.99948    2.2449075     38.90287    1.1224537 
    1258            0   -241.99949    2.2449075     38.90287    1.1224537 
    1259            0   -241.99951    2.2449075     38.90287    1.1224537 
    1260            0   -241.99951    2.2449075     38.90287    1.1224537 
Loop time of 0.00147404 on 1 procs for 5 steps with 82 atoms

Minimization stats:
  Stopping criterion = linesearch alpha is zero
  Energy initial, next-to-last, final = 
        -241.999461343      -241.99950719      -241.99950719
  Force two-norm initial, final = 0.061003 0.017762
  Force max component initial, final = 0.0296863 0.0056192
  Final line search alpha, max atom move = 3.05176e-05 1.71484e-07
  Iterations, force evaluations = 5 46

Pair  time (%) = 0.00119044 (80.7602)
Neigh time (%) = 0 (0)
Comm  time (%) = 8.88814e-05 (6.02979)
Outpt time (%) = 4.19604e-05 (2.84663)
Other time (%) = 0.00015276 (10.3634)

Nlocal:    82 ave 82 max 82 min
Histogram: 1 0 0 0 0 0 0 0 0 0
Nghost:    185 ave 185 max 185 min
Histogram: 1 0 0 0 0 0 0 0 0 0
Neighs:    718 ave 718 max 718 min
Histogram: 1 0 0 0 0 0 0 0 0 0

Total # of neighbors = 718
Ave neighs/atom = 8.7561
Neighbor list builds = 0
Dangerous builds = 0
        # write_dump all atom ${dumpfile}
        next i
jump SELF loop1
        displace_atoms upper move ${xstep1} 0.0 0.0 units lattice
        displace_atoms upper move 0.00333333333333333 0.0 0.0 units lattice
        min_style ${style}
        min_style cg
        minimize ${etol} ${ftol} ${maxiter} ${maxeval}
        minimize 1e-12 ${ftol} ${maxiter} ${maxeval}
        minimize 1e-12 1e-08 ${maxiter} ${maxeval}
        minimize 1e-12 1e-08 10000 ${maxeval}
        minimize 1e-12 1e-08 10000 20000
WARNING: Resetting reneighboring criteria during minimization (../min.cpp:168)
Memory usage per processor = 3.35169 Mbytes
Step Temp PotEng Lx Ly Lz 
    1260            0   -241.99968    2.2449075    38.902821    1.1224537 
    1261            0   -241.99968    2.2449075    38.902821    1.1224537 
Loop time of 0.000631961 on 1 procs for 1 steps with 82 atoms

Minimization stats:
  Stopping criterion = linesearch alpha is zero
  Energy initial, next-to-last, final = 
        -241.999677162     -241.999677162     -241.999677162
  Force two-norm initial, final = 0.0183891 0.0183891
  Force max component initial, final = 0.0056192 0.0056192
  Final line search alpha, max atom move = 3.05176e-05 1.71484e-07
  Iterations, force evaluations = 1 16

Pair  time (%) = 0.000496082 (78.4989)
Neigh time (%) = 0 (0)
Comm  time (%) = 3.80902e-05 (6.0273)
Outpt time (%) = 0 (0)
Other time (%) = 9.77881e-05 (15.4738)

Nlocal:    82 ave 82 max 82 min
Histogram: 1 0 0 0 0 0 0 0 0 0
Nghost:    185 ave 185 max 185 min
Histogram: 1 0 0 0 0 0 0 0 0 0
Neighs:    718 ave 718 max 718 min
Histogram: 1 0 0 0 0 0 0 0 0 0

Total # of neighbors = 718
Ave neighs/atom = 8.7561
Neighbor list builds = 0
Dangerous builds = 0
        # write_dump all atom ${dumpfile}
        next i
jump SELF loop1


