LAMMPS (28 Jun 2014)
# attempt at getting generalized stacking fault (GSF) energy curve

#file prefix
variable prefix string gsf_V_inter2new
variable dumpfile string ${prefix}.*.dump
variable dumpfile string gsf_V_inter2new.*.dump
variable restartfile string ${prefix}.*.equil
variable restartfile string gsf_V_inter2new.*.equil

#Mass (g/mol)
variable m equal 1

# lattice constant (in Angstroms) and orientation of axes (given by lattice vectors)
variable rho equal 0.9165
variable x1 equal 1
variable x2 equal 0
variable x3 equal 0
variable y1 equal 0
variable y2 equal 1
variable y3 equal 0
# length of lattice in different directions (using orientation of lattice vectors)
variable ax equal sqrt(${x1}*${x1}+${x2}*${x2}+${x3}*${x3})
variable ax equal sqrt(1*${x1}+${x2}*${x2}+${x3}*${x3})
variable ax equal sqrt(1*1+${x2}*${x2}+${x3}*${x3})
variable ax equal sqrt(1*1+0*${x2}+${x3}*${x3})
variable ax equal sqrt(1*1+0*0+${x3}*${x3})
variable ax equal sqrt(1*1+0*0+0*${x3})
variable ax equal sqrt(1*1+0*0+0*0)
variable ay equal sqrt(${y1}*${y1}+${y2}*${y2}+${y3}*${y3})
variable ay equal sqrt(0*${y1}+${y2}*${y2}+${y3}*${y3})
variable ay equal sqrt(0*0+${y2}*${y2}+${y3}*${y3})
variable ay equal sqrt(0*0+1*${y2}+${y3}*${y3})
variable ay equal sqrt(0*0+1*1+${y3}*${y3})
variable ay equal sqrt(0*0+1*1+0*${y3})
variable ay equal sqrt(0*0+1*1+0*0)
variable az equal 1

# size of box in lattice units
variable lxpos equal 1
variable lxneg equal -1*${lxpos}
variable lxneg equal -1*1
variable lypos equal 10
variable lyneg equal -1*${lypos}
variable lyneg equal -1*10
variable lzpos equal 0
variable lzneg equal -1

# Define minimization parameters and damping
variable etol equal 1.0e-12
variable ftol equal 1.0e-8
variable maxiter equal 10000
variable maxeval equal 20000
variable style string cg

# boundary conditions
dimension	2
boundary	p s p
atom_style	atomic

# create geometry
units		lj
lattice         hex ${rho}
lattice         hex 0.9165
Lattice spacing in x,y,z = 1.12245 1.94415 1.12245
region		myregion block ${lxneg} ${lxpos} ${lyneg} ${lypos} ${lzneg} ${lzpos} units lattice
region		myregion block -1 ${lxpos} ${lyneg} ${lypos} ${lzneg} ${lzpos} units lattice
region		myregion block -1 1 ${lyneg} ${lypos} ${lzneg} ${lzpos} units lattice
region		myregion block -1 1 -10 ${lypos} ${lzneg} ${lzpos} units lattice
region		myregion block -1 1 -10 10 ${lzneg} ${lzpos} units lattice
region		myregion block -1 1 -10 10 -1 ${lzpos} units lattice
region		myregion block -1 1 -10 10 -1 0 units lattice
create_box	3 myregion
Created orthogonal box = (-1.12245 -19.4415 -1.12245) to (1.12245 19.4415 0)
  1 by 1 by 1 MPI processor grid
create_atoms	1 box
Created 82 atoms

# define masses
mass * $m
mass * 1

# my fake/morse potential
pair_style      table linear 3001
pair_coeff      * * vpotential_inter2new dummy
neighbor	0.3 bin
neigh_modify	delay 5

# define groups
region	    upper block INF INF 0.01 ${lypos} INF INF units lattice
region	    upper block INF INF 0.01 10 INF INF units lattice
group		upper region upper
40 atoms in group upper

# Setup output
thermo 1
thermo_style custom step temp pe lx ly lz
thermo_modify norm no

# Compute initial state by relaxing box
min_style ${style}
min_style cg
minimize ${etol} ${ftol} ${maxiter} ${maxeval}
minimize 1e-12 ${ftol} ${maxiter} ${maxeval}
minimize 1e-12 1e-08 ${maxiter} ${maxeval}
minimize 1e-12 1e-08 10000 ${maxeval}
minimize 1e-12 1e-08 10000 20000
WARNING: Resetting reneighboring criteria during minimization (../min.cpp:168)
Memory usage per processor = 3.35169 Mbytes
Step Temp PotEng Lx Ly Lz 
       0            0   -241.99993    2.2449075    38.890715    1.1224537 
       1            0   -241.99993    2.2449075    38.890715    1.1224537 
       2            0   -241.99993    2.2449075    38.890715    1.1224537 
Loop time of 0.00106504 on 1 procs for 2 steps with 82 atoms

Minimization stats:
  Stopping criterion = linesearch alpha is zero
  Energy initial, next-to-last, final = 
        -241.999927696     -241.999929863     -241.999929863
  Force two-norm initial, final = 0.000778805 0.00455994
  Force max component initial, final = 0.000389403 0.00179508
  Final line search alpha, max atom move = 0.000488281 8.76506e-07
  Iterations, force evaluations = 2 16

Pair  time (%) = 0.000871089 (81.7894)
Neigh time (%) = 0 (0)
Comm  time (%) = 8.32379e-05 (7.81547)
Outpt time (%) = 9.02417e-06 (0.847308)
Other time (%) = 0.000101689 (9.54787)

Nlocal:    82 ave 82 max 82 min
Histogram: 1 0 0 0 0 0 0 0 0 0
Nghost:    185 ave 185 max 185 min
Histogram: 1 0 0 0 0 0 0 0 0 0
Neighs:    718 ave 718 max 718 min
Histogram: 1 0 0 0 0 0 0 0 0 0

Total # of neighbors = 718
Ave neighs/atom = 8.7561
Neighbor list builds = 0
Dangerous builds = 0

# don't allow atoms to relax in x-direction
fix 2 all setforce 0.0 NULL 0.0

# GSF energy curve will have 100*2 steps
variable nsteps equal 300
variable sstep1 equal 1.
variable xstep1 equal ${sstep1}/(${ax}*${nsteps})
variable xstep1 equal 1/(${ax}*${nsteps})
variable xstep1 equal 1/(1*${nsteps})
variable xstep1 equal 1/(1*300)

variable i loop ${nsteps}
variable i loop 300
label loop1
        displace_atoms upper move ${xstep1} 0.0 0.0 units lattice
        displace_atoms upper move 0.00333333333333333 0.0 0.0 units lattice
        min_style ${style}
        min_style cg
        minimize ${etol} ${ftol} ${maxiter} ${maxeval}
        minimize 1e-12 ${ftol} ${maxiter} ${maxeval}
        minimize 1e-12 1e-08 ${maxiter} ${maxeval}
        minimize 1e-12 1e-08 10000 ${maxeval}
        minimize 1e-12 1e-08 10000 20000
WARNING: Resetting reneighboring criteria during minimization (../min.cpp:168)
Memory usage per processor = 3.35169 Mbytes
Step Temp PotEng Lx Ly Lz 
       2            0   -241.99976    2.2449075    38.890812    1.1224537 
       3            0   -241.99976    2.2449075    38.890812    1.1224537 
Loop time of 0.000277049 on 1 procs for 1 steps with 82 atoms

Minimization stats:
  Stopping criterion = linesearch alpha is zero
  Energy initial, next-to-last, final = 
        -241.999757399     -241.999757399     -241.999757399
  Force two-norm initial, final = 0.00478129 0.00478129
  Force max component initial, final = 0.00179508 0.00179508
  Final line search alpha, max atom move = 0.000488281 8.76506e-07
  Iterations, force evaluations = 1 12

Pair  time (%) = 0.000227875 (82.2508)
Neigh time (%) = 0 (0)
Comm  time (%) = 1.58891e-05 (5.7351)
Outpt time (%) = 0 (0)
Other time (%) = 3.32851e-05 (12.0141)

Nlocal:    82 ave 82 max 82 min
Histogram: 1 0 0 0 0 0 0 0 0 0
Nghost:    185 ave 185 max 185 min
Histogram: 1 0 0 0 0 0 0 0 0 0
Neighs:    718 ave 718 max 718 min
Histogram: 1 0 0 0 0 0 0 0 0 0

Total # of neighbors = 718
Ave neighs/atom = 8.7561
Neighbor list builds = 0
Dangerous builds = 0
        # write_dump all atom ${dumpfile}
        next i
jump SELF loop1
        displace_atoms upper move ${xstep1} 0.0 0.0 units lattice
        displace_atoms upper move 0.00333333333333333 0.0 0.0 units lattice
        min_style ${style}
        min_style cg
        minimize ${etol} ${ftol} ${maxiter} ${maxeval}
        minimize 1e-12 ${ftol} ${maxiter} ${maxeval}
        minimize 1e-12 1e-08 ${maxiter} ${maxeval}
        minimize 1e-12 1e-08 10000 ${maxeval}
        minimize 1e-12 1e-08 10000 20000
WARNING: Resetting reneighboring criteria during minimization (../min.cpp:168)
Memory usage per processor = 3.35169 Mbytes
Step Temp PotEng Lx Ly Lz 
       3            0   -241.99924    2.2449075    38.890812    1.1224537 
       4            0   -241.99924    2.2449075    38.890812    1.1224537 
Loop time of 0.000288995 on 1 procs for 1 steps with 82 atoms

Minimization stats:
  Stopping criterion = linesearch alpha is zero
  Energy initial, next-to-last, final = 
        -241.999241512     -241.999241512     -241.999241512
  Force two-norm initial, final = 0.00732734 0.00732734
  Force max component initial, final = 0.00286779 0.00286779
  Final line search alpha, max atom move = 0.00012207 3.50072e-07
  Iterations, force evaluations = 1 14

Pair  time (%) = 0.000237976 (82.3459)
Neigh time (%) = 0 (0)
Comm  time (%) = 1.57913e-05 (5.4642)
Outpt time (%) = 0 (0)
Other time (%) = 3.52282e-05 (12.1899)

Nlocal:    82 ave 82 max 82 min
Histogram: 1 0 0 0 0 0 0 0 0 0
Nghost:    185 ave 185 max 185 min
Histogram: 1 0 0 0 0 0 0 0 0 0
Neighs:    718 ave 718 max 718 min
Histogram: 1 0 0 0 0 0 0 0 0 0

Total # of neighbors = 718
Ave neighs/atom = 8.7561
Neighbor list builds = 0
Dangerous builds = 0
        # write_dump all atom ${dumpfile}
        next i
jump SELF loop1
        displace_atoms upper move ${xstep1} 0.0 0.0 units lattice
        displace_atoms upper move 0.00333333333333333 0.0 0.0 units lattice
        min_style ${style}
        min_style cg
        minimize ${etol} ${ftol} ${maxiter} ${maxeval}
        minimize 1e-12 ${ftol} ${maxiter} ${maxeval}
        minimize 1e-12 1e-08 ${maxiter} ${maxeval}
        minimize 1e-12 1e-08 10000 ${maxeval}
        minimize 1e-12 1e-08 10000 20000
WARNING: Resetting reneighboring criteria during minimization (../min.cpp:168)
Memory usage per processor = 3.35169 Mbytes
Step Temp PotEng Lx Ly Lz 
       4            0   -241.99838    2.2449075    38.890812    1.1224537 
       5            0   -241.99838    2.2449075    38.890812    1.1224537 
Loop time of 0.000308059 on 1 procs for 1 steps with 82 atoms

Minimization stats:
  Stopping criterion = linesearch alpha is zero
  Energy initial, next-to-last, final = 
        -241.998383655     -241.998383655     -241.998383655
  Force two-norm initial, final = 0.01366 0.01366
  Force max component initial, final = 0.00643821 0.00643821
  Final line search alpha, max atom move = 6.10352e-05 3.92957e-07
  Iterations, force evaluations = 1 15

Pair  time (%) = 0.000255034 (82.7873)
Neigh time (%) = 0 (0)
Comm  time (%) = 1.79337e-05 (5.8215)
Outpt time (%) = 0 (0)
Other time (%) = 3.50917e-05 (11.3912)

Nlocal:    82 ave 82 max 82 min
Histogram: 1 0 0 0 0 0 0 0 0 0
Nghost:    185 ave 185 max 185 min
Histogram: 1 0 0 0 0 0 0 0 0 0
Neighs:    718 ave 718 max 718 min
Histogram: 1 0 0 0 0 0 0 0 0 0

Total # of neighbors = 718
Ave neighs/atom = 8.7561
Neighbor list builds = 0
Dangerous builds = 0
        # write_dump all atom ${dumpfile}
        next i
jump SELF loop1
        displace_atoms upper move ${xstep1} 0.0 0.0 units lattice
        displace_atoms upper move 0.00333333333333333 0.0 0.0 units lattice
        min_style ${style}
        min_style cg
        minimize ${etol} ${ftol} ${maxiter} ${maxeval}
        minimize 1e-12 ${ftol} ${maxiter} ${maxeval}
        minimize 1e-12 1e-08 ${maxiter} ${maxeval}
        minimize 1e-12 1e-08 10000 ${maxeval}
        minimize 1e-12 1e-08 10000 20000
WARNING: Resetting reneighboring criteria during minimization (../min.cpp:168)
Memory usage per processor = 3.35169 Mbytes
Step Temp PotEng Lx Ly Lz 
       5            0   -241.99718    2.2449075    38.890812    1.1224537 
       6            0   -241.99718    2.2449075    38.890812    1.1224537 
Loop time of 0.000361031 on 1 procs for 1 steps with 82 atoms

Minimization stats:
  Stopping criterion = linesearch alpha is zero
  Energy initial, next-to-last, final = 
        -241.997184208     -241.997184208     -241.997184208
  Force two-norm initial, final = 0.0233072 0.0233072
  Force max component initial, final = 0.0114284 0.0114284
  Final line search alpha, max atom move = 1.52588e-05 1.74383e-07
  Iterations, force evaluations = 1 17

Pair  time (%) = 0.000300206 (83.1526)
Neigh time (%) = 0 (0)
Comm  time (%) = 2.11251e-05 (5.85132)
Outpt time (%) = 0 (0)
Other time (%) = 3.96994e-05 (10.9961)

Nlocal:    82 ave 82 max 82 min
Histogram: 1 0 0 0 0 0 0 0 0 0
Nghost:    185 ave 185 max 185 min
Histogram: 1 0 0 0 0 0 0 0 0 0
Neighs:    718 ave 718 max 718 min
Histogram: 1 0 0 0 0 0 0 0 0 0

Total # of neighbors = 718
Ave neighs/atom = 8.7561
Neighbor list builds = 0
Dangerous builds = 0
        # write_dump all atom ${dumpfile}
        next i
jump SELF loop1
        displace_atoms upper move ${xstep1} 0.0 0.0 units lattice
        displace_atoms upper move 0.00333333333333333 0.0 0.0 units lattice
        min_style ${style}
        min_style cg
        minimize ${etol} ${ftol} ${maxiter} ${maxeval}
        minimize 1e-12 ${ftol} ${maxiter} ${maxeval}
        minimize 1e-12 1e-08 ${maxiter} ${maxeval}
        minimize 1e-12 1e-08 10000 ${maxeval}
        minimize 1e-12 1e-08 10000 20000
WARNING: Resetting reneighboring criteria during minimization (../min.cpp:168)
Memory usage per processor = 3.35169 Mbytes
Step Temp PotEng Lx Ly Lz 
       6            0   -241.99564    2.2449075    38.890812    1.1224537 
       7            0   -241.99564    2.2449075    38.890812    1.1224537 
       8            0   -241.99564    2.2449075    38.890812    1.1224537 
       9            0   -241.99564    2.2449075    38.890812    1.1224537 
Loop time of 0.000904048 on 1 procs for 3 steps with 82 atoms

Minimization stats:
  Stopping criterion = linesearch alpha is zero
  Energy initial, next-to-last, final = 
        -241.995643567     -241.995644433     -241.995644433
  Force two-norm initial, final = 0.0359625 0.0312651
  Force max component initial, final = 0.0178361 0.015482
  Final line search alpha, max atom move = 7.62939e-06 1.18118e-07
  Iterations, force evaluations = 3 42

Pair  time (%) = 0.000730149 (80.7645)
Neigh time (%) = 0 (0)
Comm  time (%) = 6.35812e-05 (7.03294)
Outpt time (%) = 1.41347e-05 (1.56349)
Other time (%) = 9.61826e-05 (10.6391)

Nlocal:    82 ave 82 max 82 min
Histogram: 1 0 0 0 0 0 0 0 0 0
Nghost:    185 ave 185 max 185 min
Histogram: 1 0 0 0 0 0 0 0 0 0
Neighs:    718 ave 718 max 718 min
Histogram: 1 0 0 0 0 0 0 0 0 0

Total # of neighbors = 718
Ave neighs/atom = 8.7561
Neighbor list builds = 0
Dangerous builds = 0
        # write_dump all atom ${dumpfile}
        next i
jump SELF loop1
        displace_atoms upper move ${xstep1} 0.0 0.0 units lattice
        displace_atoms upper move 0.00333333333333333 0.0 0.0 units lattice
        min_style ${style}
        min_style cg
        minimize ${etol} ${ftol} ${maxiter} ${maxeval}
        minimize 1e-12 ${ftol} ${maxiter} ${maxeval}
        minimize 1e-12 1e-08 ${maxiter} ${maxeval}
        minimize 1e-12 1e-08 10000 ${maxeval}
        minimize 1e-12 1e-08 10000 20000
WARNING: Resetting reneighboring criteria during minimization (../min.cpp:168)
Memory usage per processor = 3.35169 Mbytes
Step Temp PotEng Lx Ly Lz 
       9            0   -241.99376    2.2449075    38.890809    1.1224537 
      10            0   -241.99377    2.2449075    38.890809    1.1224537 
      11            0   -241.99377    2.2449075    38.890809    1.1224537 
Loop time of 0.000488938 on 1 procs for 2 steps with 82 atoms

Minimization stats:
  Stopping criterion = linesearch alpha is zero
  Energy initial, next-to-last, final = 
        -241.993760152     -241.993767243     -241.993767243
  Force two-norm initial, final = 0.046848 0.0156938
  Force max component initial, final = 0.0233238 0.00704691
  Final line search alpha, max atom move = 3.05176e-05 2.15055e-07
  Iterations, force evaluations = 2 24

Pair  time (%) = 0.000397954 (81.3916)
Neigh time (%) = 0 (0)
Comm  time (%) = 3.52605e-05 (7.21164)
Outpt time (%) = 6.01204e-06 (1.22961)
Other time (%) = 4.97111e-05 (10.1672)

Nlocal:    82 ave 82 max 82 min
Histogram: 1 0 0 0 0 0 0 0 0 0
Nghost:    185 ave 185 max 185 min
Histogram: 1 0 0 0 0 0 0 0 0 0
Neighs:    718 ave 718 max 718 min
Histogram: 1 0 0 0 0 0 0 0 0 0

Total # of neighbors = 718
Ave neighs/atom = 8.7561
Neighbor list builds = 0
Dangerous builds = 0
        # write_dump all atom ${dumpfile}
        next i
jump SELF loop1
        displace_atoms upper move ${xstep1} 0.0 0.0 units lattice
        displace_atoms upper move 0.00333333333333333 0.0 0.0 units lattice
        min_style ${style}
        min_style cg
        minimize ${etol} ${ftol} ${maxiter} ${maxeval}
        minimize 1e-12 ${ftol} ${maxiter} ${maxeval}
        minimize 1e-12 1e-08 ${maxiter} ${maxeval}
        minimize 1e-12 1e-08 10000 ${maxeval}
        minimize 1e-12 1e-08 10000 20000
WARNING: Resetting reneighboring criteria during minimization (../min.cpp:168)
Memory usage per processor = 3.35169 Mbytes
Step Temp PotEng Lx Ly Lz 
      11            0   -241.99155    2.2449075    38.890789    1.1224537 
      12            0   -241.99155    2.2449075    38.890789    1.1224537 
      13            0   -241.99155    2.2449075    38.890789    1.1224537 
Loop time of 0.00058 on 1 procs for 2 steps with 82 atoms

Minimization stats:
  Stopping criterion = linesearch alpha is zero
  Energy initial, next-to-last, final = 
        -241.991550751     -241.991550944     -241.991550944
  Force two-norm initial, final = 0.0288861 0.0279066
  Force max component initial, final = 0.0125837 0.0120304
  Final line search alpha, max atom move = 1.52588e-05 1.83569e-07
  Iterations, force evaluations = 2 29

Pair  time (%) = 0.000480136 (82.782)
Neigh time (%) = 0 (0)
Comm  time (%) = 3.9992e-05 (6.89518)
Outpt time (%) = 5.92635e-06 (1.02178)
Other time (%) = 5.39459e-05 (9.30102)

Nlocal:    82 ave 82 max 82 min
Histogram: 1 0 0 0 0 0 0 0 0 0
Nghost:    185 ave 185 max 185 min
Histogram: 1 0 0 0 0 0 0 0 0 0
Neighs:    718 ave 718 max 718 min
Histogram: 1 0 0 0 0 0 0 0 0 0

Total # of neighbors = 718
Ave neighs/atom = 8.7561
Neighbor list builds = 0
Dangerous builds = 0
        # write_dump all atom ${dumpfile}
        next i
jump SELF loop1
        displace_atoms upper move ${xstep1} 0.0 0.0 units lattice
        displace_atoms upper move 0.00333333333333333 0.0 0.0 units lattice
        min_style ${style}
        min_style cg
        minimize ${etol} ${ftol} ${maxiter} ${maxeval}
        minimize 1e-12 ${ftol} ${maxiter} ${maxeval}
        minimize 1e-12 1e-08 ${maxiter} ${maxeval}
        minimize 1e-12 1e-08 10000 ${maxeval}
        minimize 1e-12 1e-08 10000 20000
WARNING: Resetting reneighboring criteria during minimization (../min.cpp:168)
Memory usage per processor = 3.35169 Mbytes
Step Temp PotEng Lx Ly Lz 
      13            0   -241.98899    2.2449075    38.890788    1.1224537 
      14            0     -241.989    2.2449075    38.890788    1.1224537 
      15            0     -241.989    2.2449075    38.890788    1.1224537 
      16            0     -241.989    2.2449075    38.890788    1.1224537 
      17            0     -241.989    2.2449075    38.890788    1.1224537 
      18            0     -241.989    2.2449075    38.890788    1.1224537 
Loop time of 0.0013771 on 1 procs for 5 steps with 82 atoms

Minimization stats:
  Stopping criterion = linesearch alpha is zero
  Energy initial, next-to-last, final = 
        -241.988993908     -241.989002581     -241.989002581
  Force two-norm initial, final = 0.0474892 0.0179964
  Force max component initial, final = 0.0226681 0.00742927
  Final line search alpha, max atom move = 3.05176e-05 2.26723e-07
  Iterations, force evaluations = 5 56

Pair  time (%) = 0.000947388 (68.7958)
Neigh time (%) = 0 (0)
Comm  time (%) = 7.22809e-05 (5.24878)
Outpt time (%) = 2.77716e-05 (2.01667)
Other time (%) = 0.00032966 (23.9387)

Nlocal:    82 ave 82 max 82 min
Histogram: 1 0 0 0 0 0 0 0 0 0
Nghost:    185 ave 185 max 185 min
Histogram: 1 0 0 0 0 0 0 0 0 0
Neighs:    718 ave 718 max 718 min
Histogram: 1 0 0 0 0 0 0 0 0 0

Total # of neighbors = 718
Ave neighs/atom = 8.7561
Neighbor list builds = 0
Dangerous builds = 0
        # write_dump all atom ${dumpfile}
        next i
jump SELF loop1
        displace_atoms upper move ${xstep1} 0.0 0.0 units lattice
        displace_atoms upper move 0.00333333333333333 0.0 0.0 units lattice
        min_style ${style}
        min_style cg
        minimize ${etol} ${ftol} ${maxiter} ${maxeval}
        minimize 1e-12 ${ftol} ${maxiter} ${maxeval}
        minimize 1e-12 1e-08 ${maxiter} ${maxeval}
        minimize 1e-12 1e-08 10000 ${maxeval}
        minimize 1e-12 1e-08 10000 20000
WARNING: Resetting reneighboring criteria during minimization (../min.cpp:168)
Memory usage per processor = 3.35169 Mbytes
Step Temp PotEng Lx Ly Lz 
      18            0   -241.98612    2.2449075    38.890779    1.1224537 
      19            0   -241.98612    2.2449075    38.890779    1.1224537 
      20            0   -241.98612    2.2449075    38.890779    1.1224537 
Loop time of 0.000538936 on 1 procs for 2 steps with 82 atoms

Minimization stats:
  Stopping criterion = linesearch alpha is zero
  Energy initial, next-to-last, final = 
        -241.986116523     -241.986124667     -241.986124667
  Force two-norm initial, final = 0.0356582 0.0259384
  Force max component initial, final = 0.0159035 0.00979253
  Final line search alpha, max atom move = 1.52588e-05 1.49422e-07
  Iterations, force evaluations = 2 24

Pair  time (%) = 0.000408112 (75.7255)
Neigh time (%) = 0 (0)
Comm  time (%) = 2.85617e-05 (5.29964)
Outpt time (%) = 7.96933e-06 (1.47872)
Other time (%) = 9.4293e-05 (17.4962)

Nlocal:    82 ave 82 max 82 min
Histogram: 1 0 0 0 0 0 0 0 0 0
Nghost:    185 ave 185 max 185 min
Histogram: 1 0 0 0 0 0 0 0 0 0
Neighs:    718 ave 718 max 718 min
Histogram: 1 0 0 0 0 0 0 0 0 0

Total # of neighbors = 718
Ave neighs/atom = 8.7561
Neighbor list builds = 0
Dangerous builds = 0
        # write_dump all atom ${dumpfile}
        next i
jump SELF loop1
        displace_atoms upper move ${xstep1} 0.0 0.0 units lattice
        displace_atoms upper move 0.00333333333333333 0.0 0.0 units lattice
        min_style ${style}
        min_style cg
        minimize ${etol} ${ftol} ${maxiter} ${maxeval}
        minimize 1e-12 ${ftol} ${maxiter} ${maxeval}
        minimize 1e-12 1e-08 ${maxiter} ${maxeval}
        minimize 1e-12 1e-08 10000 ${maxeval}
        minimize 1e-12 1e-08 10000 20000
WARNING: Resetting reneighboring criteria during minimization (../min.cpp:168)
Memory usage per processor = 3.35169 Mbytes
Step Temp PotEng Lx Ly Lz 
      20            0   -241.98296    2.2449075    38.890775    1.1224537 
      21            0   -241.98296    2.2449075    38.890775    1.1224537 
Loop time of 0.000406012 on 1 procs for 1 steps with 82 atoms

Minimization stats:
  Stopping criterion = linesearch alpha is zero
  Energy initial, next-to-last, final = 
        -241.982961761     -241.982961761     -241.982961761
  Force two-norm initial, final = 0.0224219 0.0224219
  Force max component initial, final = 0.00979253 0.00979253
  Final line search alpha, max atom move = 1.52588e-05 1.49422e-07
  Iterations, force evaluations = 1 17

Pair  time (%) = 0.000328547 (80.9205)
Neigh time (%) = 0 (0)
Comm  time (%) = 3.35474e-05 (8.26266)
Outpt time (%) = 0 (0)
Other time (%) = 4.39176e-05 (10.8168)

Nlocal:    82 ave 82 max 82 min
Histogram: 1 0 0 0 0 0 0 0 0 0
Nghost:    185 ave 185 max 185 min
Histogram: 1 0 0 0 0 0 0 0 0 0
Neighs:    718 ave 718 max 718 min
Histogram: 1 0 0 0 0 0 0 0 0 0

Total # of neighbors = 718
Ave neighs/atom = 8.7561
Neighbor list builds = 0
Dangerous builds = 0
        # write_dump all atom ${dumpfile}
        next i
jump SELF loop1
        displace_atoms upper move ${xstep1} 0.0 0.0 units lattice
        displace_atoms upper move 0.00333333333333333 0.0 0.0 units lattice
        min_style ${style}
        min_style cg
        minimize ${etol} ${ftol} ${maxiter} ${maxeval}
        minimize 1e-12 ${ftol} ${maxiter} ${maxeval}
        minimize 1e-12 1e-08 ${maxiter} ${maxeval}
        minimize 1e-12 1e-08 10000 ${maxeval}
        minimize 1e-12 1e-08 10000 20000
WARNING: Resetting reneighboring criteria during minimization (../min.cpp:168)
Memory usage per processor = 3.35169 Mbytes
Step Temp PotEng Lx Ly Lz 
      21            0   -241.97961    2.2449075    38.890775    1.1224537 
      22            0   -241.97961    2.2449075    38.890775    1.1224537 
Loop time of 0.000346965 on 1 procs for 1 steps with 82 atoms

Minimization stats:
  Stopping criterion = linesearch alpha is zero
  Energy initial, next-to-last, final = 
        -241.979612414     -241.979612414     -241.979612414
  Force two-norm initial, final = 0.021525 0.021525
  Force max component initial, final = 0.00979253 0.00979253
  Final line search alpha, max atom move = 1.52588e-05 1.49422e-07
  Iterations, force evaluations = 1 17

Pair  time (%) = 0.000287782 (82.9426)
Neigh time (%) = 0 (0)
Comm  time (%) = 2.4866e-05 (7.16671)
Outpt time (%) = 0 (0)
Other time (%) = 3.43173e-05 (9.8907)

Nlocal:    82 ave 82 max 82 min
Histogram: 1 0 0 0 0 0 0 0 0 0
Nghost:    185 ave 185 max 185 min
Histogram: 1 0 0 0 0 0 0 0 0 0
Neighs:    718 ave 718 max 718 min
Histogram: 1 0 0 0 0 0 0 0 0 0

Total # of neighbors = 718
Ave neighs/atom = 8.7561
Neighbor list builds = 0
Dangerous builds = 0
        # write_dump all atom ${dumpfile}
        next i
jump SELF loop1
        displace_atoms upper move ${xstep1} 0.0 0.0 units lattice
        displace_atoms upper move 0.00333333333333333 0.0 0.0 units lattice
        min_style ${style}
        min_style cg
        minimize ${etol} ${ftol} ${maxiter} ${maxeval}
        minimize 1e-12 ${ftol} ${maxiter} ${maxeval}
        minimize 1e-12 1e-08 ${maxiter} ${maxeval}
        minimize 1e-12 1e-08 10000 ${maxeval}
        minimize 1e-12 1e-08 10000 20000
WARNING: Resetting reneighboring criteria during minimization (../min.cpp:168)
Memory usage per processor = 3.35169 Mbytes
Step Temp PotEng Lx Ly Lz 
      22            0   -241.97608    2.2449075    38.890775    1.1224537 
      23            0   -241.97608    2.2449075    38.890775    1.1224537 
Loop time of 0.000346986 on 1 procs for 1 steps with 82 atoms

Minimization stats:
  Stopping criterion = linesearch alpha is zero
  Energy initial, next-to-last, final = 
        -241.976078877     -241.976078877     -241.976078877
  Force two-norm initial, final = 0.0230027 0.0230027
  Force max component initial, final = 0.00979253 0.00979253
  Final line search alpha, max atom move = 1.52588e-05 1.49422e-07
  Iterations, force evaluations = 1 17

Pair  time (%) = 0.000286093 (82.4509)
Neigh time (%) = 0 (0)
Comm  time (%) = 1.79658e-05 (5.17767)
Outpt time (%) = 0 (0)
Other time (%) = 4.2927e-05 (12.3714)

Nlocal:    82 ave 82 max 82 min
Histogram: 1 0 0 0 0 0 0 0 0 0
Nghost:    185 ave 185 max 185 min
Histogram: 1 0 0 0 0 0 0 0 0 0
Neighs:    718 ave 718 max 718 min
Histogram: 1 0 0 0 0 0 0 0 0 0

Total # of neighbors = 718
Ave neighs/atom = 8.7561
Neighbor list builds = 0
Dangerous builds = 0
        # write_dump all atom ${dumpfile}
        next i
jump SELF loop1
        displace_atoms upper move ${xstep1} 0.0 0.0 units lattice
        displace_atoms upper move 0.00333333333333333 0.0 0.0 units lattice
        min_style ${style}
        min_style cg
        minimize ${etol} ${ftol} ${maxiter} ${maxeval}
        minimize 1e-12 ${ftol} ${maxiter} ${maxeval}
        minimize 1e-12 1e-08 ${maxiter} ${maxeval}
        minimize 1e-12 1e-08 10000 ${maxeval}
        minimize 1e-12 1e-08 10000 20000
WARNING: Resetting reneighboring criteria during minimization (../min.cpp:168)
Memory usage per processor = 3.35169 Mbytes
Step Temp PotEng Lx Ly Lz 
      23            0   -241.97236    2.2449075    38.890775    1.1224537 
      24            0   -241.97237    2.2449075    38.890775    1.1224537 
      25            0   -241.97237    2.2449075    38.890775    1.1224537 
Loop time of 0.00188498 on 1 procs for 2 steps with 82 atoms

Minimization stats:
  Stopping criterion = linesearch alpha is zero
  Energy initial, next-to-last, final = 
        -241.972360444     -241.972368639     -241.972368639
  Force two-norm initial, final = 0.0291106 0.0185297
  Force max component initial, final = 0.00980256 0.0065218
  Final line search alpha, max atom move = 3.05176e-05 1.9903e-07
  Iterations, force evaluations = 2 23

Pair  time (%) = 0.00151525 (80.3855)
Neigh time (%) = 0 (0)
Comm  time (%) = 0.000124768 (6.61903)
Outpt time (%) = 2.60826e-05 (1.38371)
Other time (%) = 0.00021888 (11.6118)

Nlocal:    82 ave 82 max 82 min
Histogram: 1 0 0 0 0 0 0 0 0 0
Nghost:    185 ave 185 max 185 min
Histogram: 1 0 0 0 0 0 0 0 0 0
Neighs:    718 ave 718 max 718 min
Histogram: 1 0 0 0 0 0 0 0 0 0

Total # of neighbors = 718
Ave neighs/atom = 8.7561
Neighbor list builds = 0
Dangerous builds = 0
        # write_dump all atom ${dumpfile}
        next i
jump SELF loop1
        displace_atoms upper move ${xstep1} 0.0 0.0 units lattice
        displace_atoms upper move 0.00333333333333333 0.0 0.0 units lattice
        min_style ${style}
        min_style cg
        minimize ${etol} ${ftol} ${maxiter} ${maxeval}
        minimize 1e-12 ${ftol} ${maxiter} ${maxeval}
        minimize 1e-12 1e-08 ${maxiter} ${maxeval}
        minimize 1e-12 1e-08 10000 ${maxeval}
        minimize 1e-12 1e-08 10000 20000
WARNING: Resetting reneighboring criteria during minimization (../min.cpp:168)
Memory usage per processor = 3.35169 Mbytes
Step Temp PotEng Lx Ly Lz 
      25            0   -241.96847    2.2449075    38.890775    1.1224537 
      26            0   -241.96847    2.2449075    38.890775    1.1224537 
Loop time of 0.00145794 on 1 procs for 1 steps with 82 atoms

Minimization stats:
  Stopping criterion = linesearch alpha is zero
  Energy initial, next-to-last, final = 
        -241.968468376     -241.968468376     -241.968468376
  Force two-norm initial, final = 0.0219825 0.0219825
  Force max component initial, final = 0.0065218 0.0065218
  Final line search alpha, max atom move = 1.52588e-05 9.95148e-08
  Iterations, force evaluations = 1 17

Pair  time (%) = 0.00122891 (84.2911)
Neigh time (%) = 0 (0)
Comm  time (%) = 8.91144e-05 (6.11235)
Outpt time (%) = 0 (0)
Other time (%) = 0.000139912 (9.59657)

Nlocal:    82 ave 82 max 82 min
Histogram: 1 0 0 0 0 0 0 0 0 0
Nghost:    185 ave 185 max 185 min
Histogram: 1 0 0 0 0 0 0 0 0 0
Neighs:    718 ave 718 max 718 min
Histogram: 1 0 0 0 0 0 0 0 0 0

Total # of neighbors = 718
Ave neighs/atom = 8.7561
Neighbor list builds = 0
Dangerous builds = 0
        # write_dump all atom ${dumpfile}
        next i
jump SELF loop1
        displace_atoms upper move ${xstep1} 0.0 0.0 units lattice
        displace_atoms upper move 0.00333333333333333 0.0 0.0 units lattice
        min_style ${style}
        min_style cg
        minimize ${etol} ${ftol} ${maxiter} ${maxeval}
        minimize 1e-12 ${ftol} ${maxiter} ${maxeval}
        minimize 1e-12 1e-08 ${maxiter} ${maxeval}
        minimize 1e-12 1e-08 10000 ${maxeval}
        minimize 1e-12 1e-08 10000 20000
WARNING: Resetting reneighboring criteria during minimization (../min.cpp:168)
Memory usage per processor = 3.35169 Mbytes
Step Temp PotEng Lx Ly Lz 
      26            0   -241.96439    2.2449075    38.890775    1.1224537 
      27            0    -241.9644    2.2449075    38.890775    1.1224537 
      28            0    -241.9644    2.2449075    38.890775    1.1224537 
Loop time of 0.00108203 on 1 procs for 2 steps with 82 atoms

Minimization stats:
  Stopping criterion = linesearch alpha is zero
  Energy initial, next-to-last, final = 
        -241.964387784     -241.964399414     -241.964399414
  Force two-norm initial, final = 0.0343557 0.0275052
  Force max component initial, final = 0.0145064 0.0108153
  Final line search alpha, max atom move = 1.52588e-05 1.65028e-07
  Iterations, force evaluations = 2 24

Pair  time (%) = 0.000885115 (81.8017)
Neigh time (%) = 0 (0)
Comm  time (%) = 6.34327e-05 (5.86241)
Outpt time (%) = 1.30291e-05 (1.20414)
Other time (%) = 0.000120449 (11.1318)

Nlocal:    82 ave 82 max 82 min
Histogram: 1 0 0 0 0 0 0 0 0 0
Nghost:    175 ave 175 max 175 min
Histogram: 1 0 0 0 0 0 0 0 0 0
Neighs:    718 ave 718 max 718 min
Histogram: 1 0 0 0 0 0 0 0 0 0

Total # of neighbors = 718
Ave neighs/atom = 8.7561
Neighbor list builds = 0
Dangerous builds = 0
        # write_dump all atom ${dumpfile}
        next i
jump SELF loop1
        displace_atoms upper move ${xstep1} 0.0 0.0 units lattice
        displace_atoms upper move 0.00333333333333333 0.0 0.0 units lattice
        min_style ${style}
        min_style cg
        minimize ${etol} ${ftol} ${maxiter} ${maxeval}
        minimize 1e-12 ${ftol} ${maxiter} ${maxeval}
        minimize 1e-12 1e-08 ${maxiter} ${maxeval}
        minimize 1e-12 1e-08 10000 ${maxeval}
        minimize 1e-12 1e-08 10000 20000
WARNING: Resetting reneighboring criteria during minimization (../min.cpp:168)
Memory usage per processor = 3.35169 Mbytes
Step Temp PotEng Lx Ly Lz 
      28            0   -241.96014    2.2449075    38.890775    1.1224537 
      29            0   -241.96014    2.2449075    38.890775    1.1224537 
Loop time of 0.000935111 on 1 procs for 1 steps with 82 atoms

Minimization stats:
  Stopping criterion = linesearch alpha is zero
  Energy initial, next-to-last, final = 
        -241.960144284     -241.960144284     -241.960144284
  Force two-norm initial, final = 0.0254366 0.0254366
  Force max component initial, final = 0.0108153 0.0108153
  Final line search alpha, max atom move = 1.52588e-05 1.65028e-07
  Iterations, force evaluations = 1 17

Pair  time (%) = 0.000737361 (78.8528)
Neigh time (%) = 0 (0)
Comm  time (%) = 4.55328e-05 (4.86924)
Outpt time (%) = 0 (0)
Other time (%) = 0.000152217 (16.278)

Nlocal:    82 ave 82 max 82 min
Histogram: 1 0 0 0 0 0 0 0 0 0
Nghost:    175 ave 175 max 175 min
Histogram: 1 0 0 0 0 0 0 0 0 0
Neighs:    718 ave 718 max 718 min
Histogram: 1 0 0 0 0 0 0 0 0 0

Total # of neighbors = 718
Ave neighs/atom = 8.7561
Neighbor list builds = 0
Dangerous builds = 0
        # write_dump all atom ${dumpfile}
        next i
jump SELF loop1
        displace_atoms upper move ${xstep1} 0.0 0.0 units lattice
        displace_atoms upper move 0.00333333333333333 0.0 0.0 units lattice
        min_style ${style}
        min_style cg
        minimize ${etol} ${ftol} ${maxiter} ${maxeval}
        minimize 1e-12 ${ftol} ${maxiter} ${maxeval}
        minimize 1e-12 1e-08 ${maxiter} ${maxeval}
        minimize 1e-12 1e-08 10000 ${maxeval}
        minimize 1e-12 1e-08 10000 20000
WARNING: Resetting reneighboring criteria during minimization (../min.cpp:168)
Memory usage per processor = 3.35169 Mbytes
Step Temp PotEng Lx Ly Lz 
      29            0   -241.95571    2.2449075    38.890775    1.1224537 
      30            0   -241.95572    2.2449075    38.890775    1.1224537 
      31            0   -241.95572    2.2449075    38.890775    1.1224537 
Loop time of 0.00360512 on 1 procs for 2 steps with 82 atoms

Minimization stats:
  Stopping criterion = linesearch alpha is zero
  Energy initial, next-to-last, final = 
        -241.955706631      -241.95572358      -241.95572358
  Force two-norm initial, final = 0.0382334 0.0263027
  Force max component initial, final = 0.0146958 0.00921056
  Final line search alpha, max atom move = 1.52588e-05 1.40542e-07
  Iterations, force evaluations = 2 24

Pair  time (%) = 0.000623172 (17.2858)
Neigh time (%) = 0 (0)
Comm  time (%) = 6.79612e-05 (1.88513)
Outpt time (%) = 0.000210998 (5.85275)
Other time (%) = 0.00270299 (74.9764)

Nlocal:    82 ave 82 max 82 min
Histogram: 1 0 0 0 0 0 0 0 0 0
Nghost:    175 ave 175 max 175 min
Histogram: 1 0 0 0 0 0 0 0 0 0
Neighs:    718 ave 718 max 718 min
Histogram: 1 0 0 0 0 0 0 0 0 0

Total # of neighbors = 718
Ave neighs/atom = 8.7561
Neighbor list builds = 0
Dangerous builds = 0
        # write_dump all atom ${dumpfile}
        next i
jump SELF loop1
        displace_atoms upper move ${xstep1} 0.0 0.0 units lattice
        displace_atoms upper move 0.00333333333333333 0.0 0.0 units lattice
        min_style ${style}
        min_style cg
        minimize ${etol} ${ftol} ${maxiter} ${maxeval}
        minimize 1e-12 ${ftol} ${maxiter} ${maxeval}
        minimize 1e-12 1e-08 ${maxiter} ${maxeval}
        minimize 1e-12 1e-08 10000 ${maxeval}
        minimize 1e-12 1e-08 10000 20000
WARNING: Resetting reneighboring criteria during minimization (../min.cpp:168)
Memory usage per processor = 3.35169 Mbytes
Step Temp PotEng Lx Ly Lz 
      31            0   -241.95112    2.2449075    38.890777    1.1224537 
      32            0   -241.95113    2.2449075    38.890777    1.1224537 
      33            0   -241.95113    2.2449075    38.890777    1.1224537 
Loop time of 0.000967014 on 1 procs for 2 steps with 82 atoms

Minimization stats:
  Stopping criterion = linesearch alpha is zero
  Energy initial, next-to-last, final = 
        -241.951117265     -241.951130151     -241.951130151
  Force two-norm initial, final = 0.0300979 0.0294554
  Force max component initial, final = 0.00921056 0.0095601
  Final line search alpha, max atom move = 7.62939e-06 7.29378e-08
  Iterations, force evaluations = 2 24

Pair  time (%) = 0.00078268 (80.9379)
Neigh time (%) = 0 (0)
Comm  time (%) = 5.91771e-05 (6.11957)
Outpt time (%) = 1.20718e-05 (1.24836)
Other time (%) = 0.000113085 (11.6942)

Nlocal:    82 ave 82 max 82 min
Histogram: 1 0 0 0 0 0 0 0 0 0
Nghost:    175 ave 175 max 175 min
Histogram: 1 0 0 0 0 0 0 0 0 0
Neighs:    718 ave 718 max 718 min
Histogram: 1 0 0 0 0 0 0 0 0 0

Total # of neighbors = 718
Ave neighs/atom = 8.7561
Neighbor list builds = 0
Dangerous builds = 0
        # write_dump all atom ${dumpfile}
        next i
jump SELF loop1
        displace_atoms upper move ${xstep1} 0.0 0.0 units lattice
        displace_atoms upper move 0.00333333333333333 0.0 0.0 units lattice
        min_style ${style}
        min_style cg
        minimize ${etol} ${ftol} ${maxiter} ${maxeval}
        minimize 1e-12 ${ftol} ${maxiter} ${maxeval}
        minimize 1e-12 1e-08 ${maxiter} ${maxeval}
        minimize 1e-12 1e-08 10000 ${maxeval}
        minimize 1e-12 1e-08 10000 20000
WARNING: Resetting reneighboring criteria during minimization (../min.cpp:168)
Memory usage per processor = 3.35169 Mbytes
Step Temp PotEng Lx Ly Lz 
      33            0   -241.94636    2.2449075     38.89078    1.1224537 
      34            0   -241.94636    2.2449075     38.89078    1.1224537 
Loop time of 0.00057211 on 1 procs for 1 steps with 82 atoms

Minimization stats:
  Stopping criterion = linesearch alpha is zero
  Energy initial, next-to-last, final = 
        -241.946360674     -241.946360674     -241.946360674
  Force two-norm initial, final = 0.0238848 0.0238848
  Force max component initial, final = 0.00810256 0.00810256
  Final line search alpha, max atom move = 1.52588e-05 1.23635e-07
  Iterations, force evaluations = 1 17

Pair  time (%) = 0.000405581 (70.8921)
Neigh time (%) = 0 (0)
Comm  time (%) = 2.92679e-05 (5.11578)
Outpt time (%) = 0 (0)
Other time (%) = 0.000137261 (23.9921)

Nlocal:    82 ave 82 max 82 min
Histogram: 1 0 0 0 0 0 0 0 0 0
Nghost:    175 ave 175 max 175 min
Histogram: 1 0 0 0 0 0 0 0 0 0
Neighs:    718 ave 718 max 718 min
Histogram: 1 0 0 0 0 0 0 0 0 0

Total # of neighbors = 718
Ave neighs/atom = 8.7561
Neighbor list builds = 0
Dangerous builds = 0
        # write_dump all atom ${dumpfile}
        next i
jump SELF loop1
        displace_atoms upper move ${xstep1} 0.0 0.0 units lattice
        displace_atoms upper move 0.00333333333333333 0.0 0.0 units lattice
        min_style ${style}
        min_style cg
        minimize ${etol} ${ftol} ${maxiter} ${maxeval}
        minimize 1e-12 ${ftol} ${maxiter} ${maxeval}
        minimize 1e-12 1e-08 ${maxiter} ${maxeval}
        minimize 1e-12 1e-08 10000 ${maxeval}
        minimize 1e-12 1e-08 10000 20000
WARNING: Resetting reneighboring criteria during minimization (../min.cpp:168)
Memory usage per processor = 3.35169 Mbytes
Step Temp PotEng Lx Ly Lz 
      34            0   -241.94141    2.2449075     38.89078    1.1224537 
      35            0   -241.94143    2.2449075     38.89078    1.1224537 
      36            0   -241.94144    2.2449075     38.89078    1.1224537 
      37            0   -241.94144    2.2449075     38.89078    1.1224537 
Loop time of 0.00130592 on 1 procs for 3 steps with 82 atoms

Minimization stats:
  Stopping criterion = linesearch alpha is zero
  Energy initial, next-to-last, final = 
        -241.941414224     -241.941437037     -241.941437037
  Force two-norm initial, final = 0.0444318 0.0210728
  Force max component initial, final = 0.0191843 0.00869511
  Final line search alpha, max atom move = 1.52588e-05 1.32677e-07
  Iterations, force evaluations = 3 31

Pair  time (%) = 0.00106089 (81.2367)
Neigh time (%) = 0 (0)
Comm  time (%) = 8.17585e-05 (6.26059)
Outpt time (%) = 3.012e-05 (2.30642)
Other time (%) = 0.000133155 (10.1963)

Nlocal:    82 ave 82 max 82 min
Histogram: 1 0 0 0 0 0 0 0 0 0
Nghost:    175 ave 175 max 175 min
Histogram: 1 0 0 0 0 0 0 0 0 0
Neighs:    718 ave 718 max 718 min
Histogram: 1 0 0 0 0 0 0 0 0 0

Total # of neighbors = 718
Ave neighs/atom = 8.7561
Neighbor list builds = 0
Dangerous builds = 0
        # write_dump all atom ${dumpfile}
        next i
jump SELF loop1
        displace_atoms upper move ${xstep1} 0.0 0.0 units lattice
        displace_atoms upper move 0.00333333333333333 0.0 0.0 units lattice
        min_style ${style}
        min_style cg
        minimize ${etol} ${ftol} ${maxiter} ${maxeval}
        minimize 1e-12 ${ftol} ${maxiter} ${maxeval}
        minimize 1e-12 1e-08 ${maxiter} ${maxeval}
        minimize 1e-12 1e-08 10000 ${maxeval}
        minimize 1e-12 1e-08 10000 20000
WARNING: Resetting reneighboring criteria during minimization (../min.cpp:168)
Memory usage per processor = 3.35169 Mbytes
Step Temp PotEng Lx Ly Lz 
      37            0   -241.93634    2.2449075    38.890784    1.1224537 
      38            0   -241.93634    2.2449075    38.890784    1.1224537 
      39            0   -241.93635    2.2449075    38.890784    1.1224537 
      40            0   -241.93635    2.2449075    38.890784    1.1224537 
Loop time of 0.00130494 on 1 procs for 3 steps with 82 atoms

Minimization stats:
  Stopping criterion = linesearch alpha is zero
  Energy initial, next-to-last, final = 
        -241.936337161     -241.936348852     -241.936348852
  Force two-norm initial, final = 0.0380603 0.0187134
  Force max component initial, final = 0.0158513 0.00600901
  Final line search alpha, max atom move = 3.05176e-05 1.83381e-07
  Iterations, force evaluations = 3 31

Pair  time (%) = 0.00103196 (79.081)
Neigh time (%) = 0 (0)
Comm  time (%) = 7.97496e-05 (6.11136)
Outpt time (%) = 4.50438e-05 (3.45178)
Other time (%) = 0.000148187 (11.3559)

Nlocal:    82 ave 82 max 82 min
Histogram: 1 0 0 0 0 0 0 0 0 0
Nghost:    175 ave 175 max 175 min
Histogram: 1 0 0 0 0 0 0 0 0 0
Neighs:    718 ave 718 max 718 min
Histogram: 1 0 0 0 0 0 0 0 0 0

Total # of neighbors = 718
Ave neighs/atom = 8.7561
Neighbor list builds = 0
Dangerous builds = 0
        # write_dump all atom ${dumpfile}
        next i
jump SELF loop1
        displace_atoms upper move ${xstep1} 0.0 0.0 units lattice
        displace_atoms upper move 0.00333333333333333 0.0 0.0 units lattice
        min_style ${style}
        min_style cg
        minimize ${etol} ${ftol} ${maxiter} ${maxeval}
        minimize 1e-12 ${ftol} ${maxiter} ${maxeval}
        minimize 1e-12 1e-08 ${maxiter} ${maxeval}
        minimize 1e-12 1e-08 10000 ${maxeval}
        minimize 1e-12 1e-08 10000 20000
WARNING: Resetting reneighboring criteria during minimization (../min.cpp:168)
Memory usage per processor = 3.35169 Mbytes
Step Temp PotEng Lx Ly Lz 
      40            0   -241.93109    2.2449075    38.890787    1.1224537 
      41            0   -241.93109    2.2449075    38.890787    1.1224537 
      42            0   -241.93111    2.2449075    38.890787    1.1224537 
      43            0   -241.93111    2.2449075    38.890787    1.1224537 
Loop time of 0.00130995 on 1 procs for 3 steps with 82 atoms

Minimization stats:
  Stopping criterion = linesearch alpha is zero
  Energy initial, next-to-last, final = 
        -241.931085209     -241.931108143     -241.931108143
  Force two-norm initial, final = 0.0428984 0.0222918
  Force max component initial, final = 0.0193971 0.00915321
  Final line search alpha, max atom move = 1.52588e-05 1.39667e-07
  Iterations, force evaluations = 3 31

Pair  time (%) = 0.00106427 (81.2449)
Neigh time (%) = 0 (0)
Comm  time (%) = 7.77025e-05 (5.9317)
Outpt time (%) = 2.8078e-05 (2.14344)
Other time (%) = 0.000139903 (10.68)

Nlocal:    82 ave 82 max 82 min
Histogram: 1 0 0 0 0 0 0 0 0 0
Nghost:    175 ave 175 max 175 min
Histogram: 1 0 0 0 0 0 0 0 0 0
Neighs:    718 ave 718 max 718 min
Histogram: 1 0 0 0 0 0 0 0 0 0

Total # of neighbors = 718
Ave neighs/atom = 8.7561
Neighbor list builds = 0
Dangerous builds = 0
        # write_dump all atom ${dumpfile}
        next i
jump SELF loop1
        displace_atoms upper move ${xstep1} 0.0 0.0 units lattice
        displace_atoms upper move 0.00333333333333333 0.0 0.0 units lattice
        min_style ${style}
        min_style cg
        minimize ${etol} ${ftol} ${maxiter} ${maxeval}
        minimize 1e-12 ${ftol} ${maxiter} ${maxeval}
        minimize 1e-12 1e-08 ${maxiter} ${maxeval}
        minimize 1e-12 1e-08 10000 ${maxeval}
        minimize 1e-12 1e-08 10000 20000
WARNING: Resetting reneighboring criteria during minimization (../min.cpp:168)
Memory usage per processor = 3.35169 Mbytes
Step Temp PotEng Lx Ly Lz 
      43            0   -241.92569    2.2449075    38.890791    1.1224537 
      44            0    -241.9257    2.2449075    38.890791    1.1224537 
      45            0   -241.92571    2.2449075    38.890791    1.1224537 
      46            0   -241.92571    2.2449075    38.890791    1.1224537 
Loop time of 0.00224609 on 1 procs for 3 steps with 82 atoms

Minimization stats:
  Stopping criterion = linesearch alpha is zero
  Energy initial, next-to-last, final = 
        -241.925692493     -241.925713681     -241.925713681
  Force two-norm initial, final = 0.0455319 0.0207801
  Force max component initial, final = 0.0198905 0.00819476
  Final line search alpha, max atom move = 1.52588e-05 1.25042e-07
  Iterations, force evaluations = 3 31

Pair  time (%) = 0.00197439 (87.9033)
Neigh time (%) = 0 (0)
Comm  time (%) = 8.76174e-05 (3.90089)
Outpt time (%) = 3.38859e-05 (1.50866)
Other time (%) = 0.000150199 (6.68712)

Nlocal:    82 ave 82 max 82 min
Histogram: 1 0 0 0 0 0 0 0 0 0
Nghost:    175 ave 175 max 175 min
Histogram: 1 0 0 0 0 0 0 0 0 0
Neighs:    718 ave 718 max 718 min
Histogram: 1 0 0 0 0 0 0 0 0 0

Total # of neighbors = 718
Ave neighs/atom = 8.7561
Neighbor list builds = 0
Dangerous builds = 0
        # write_dump all atom ${dumpfile}
        next i
jump SELF loop1
        displace_atoms upper move ${xstep1} 0.0 0.0 units lattice
        displace_atoms upper move 0.00333333333333333 0.0 0.0 units lattice
        min_style ${style}
        min_style cg
        minimize ${etol} ${ftol} ${maxiter} ${maxeval}
        minimize 1e-12 ${ftol} ${maxiter} ${maxeval}
        minimize 1e-12 1e-08 ${maxiter} ${maxeval}
        minimize 1e-12 1e-08 10000 ${maxeval}
        minimize 1e-12 1e-08 10000 20000
WARNING: Resetting reneighboring criteria during minimization (../min.cpp:168)
Memory usage per processor = 3.35169 Mbytes
Step Temp PotEng Lx Ly Lz 
      46            0   -241.92015    2.2449075    38.890796    1.1224537 
      47            0   -241.92016    2.2449075    38.890796    1.1224537 
      48            0   -241.92016    2.2449075    38.890796    1.1224537 
      49            0   -241.92016    2.2449075    38.890796    1.1224537 
      50            0   -241.92016    2.2449075    38.890796    1.1224537 
Loop time of 0.00115603 on 1 procs for 4 steps with 82 atoms

Minimization stats:
  Stopping criterion = linesearch alpha is zero
  Energy initial, next-to-last, final = 
         -241.92015061     -241.920159043     -241.920159043
  Force two-norm initial, final = 0.0458593 0.026136
  Force max component initial, final = 0.0204516 0.00880772
  Final line search alpha, max atom move = 1.52588e-05 1.34395e-07
  Iterations, force evaluations = 4 48

Pair  time (%) = 0.0009365 (81.0101)
Neigh time (%) = 0 (0)
Comm  time (%) = 7.18039e-05 (6.21126)
Outpt time (%) = 2.90025e-05 (2.50881)
Other time (%) = 0.000118722 (10.2698)

Nlocal:    82 ave 82 max 82 min
Histogram: 1 0 0 0 0 0 0 0 0 0
Nghost:    175 ave 175 max 175 min
Histogram: 1 0 0 0 0 0 0 0 0 0
Neighs:    718 ave 718 max 718 min
Histogram: 1 0 0 0 0 0 0 0 0 0

Total # of neighbors = 718
Ave neighs/atom = 8.7561
Neighbor list builds = 0
Dangerous builds = 0
        # write_dump all atom ${dumpfile}
        next i
jump SELF loop1
        displace_atoms upper move ${xstep1} 0.0 0.0 units lattice
        displace_atoms upper move 0.00333333333333333 0.0 0.0 units lattice
        min_style ${style}
        min_style cg
        minimize ${etol} ${ftol} ${maxiter} ${maxeval}
        minimize 1e-12 ${ftol} ${maxiter} ${maxeval}
        minimize 1e-12 1e-08 ${maxiter} ${maxeval}
        minimize 1e-12 1e-08 10000 ${maxeval}
        minimize 1e-12 1e-08 10000 20000
WARNING: Resetting reneighboring criteria during minimization (../min.cpp:168)
Memory usage per processor = 3.35169 Mbytes
Step Temp PotEng Lx Ly Lz 
      50            0   -241.91444    2.2449075    38.890797    1.1224537 
      51            0   -241.91445    2.2449075    38.890797    1.1224537 
      52            0   -241.91447    2.2449075    38.890797    1.1224537 
      53            0   -241.91449    2.2449075    38.890797    1.1224537 
      54            0   -241.91449    2.2449075    38.890797    1.1224537 
      55            0   -241.91449    2.2449075    38.890797    1.1224537 
Loop time of 0.000942009 on 1 procs for 5 steps with 82 atoms

Minimization stats:
  Stopping criterion = linesearch alpha is zero
  Energy initial, next-to-last, final = 
        -241.914435298     -241.914491998     -241.914491998
  Force two-norm initial, final = 0.0626843 0.0176585
  Force max component initial, final = 0.0298183 0.0057172
  Final line search alpha, max atom move = 3.05176e-05 1.74475e-07
  Iterations, force evaluations = 5 45

Pair  time (%) = 0.000763546 (81.055)
Neigh time (%) = 0 (0)
Comm  time (%) = 5.75439e-05 (6.10863)
Outpt time (%) = 2.17613e-05 (2.31009)
Other time (%) = 9.91584e-05 (10.5263)

Nlocal:    82 ave 82 max 82 min
Histogram: 1 0 0 0 0 0 0 0 0 0
Nghost:    175 ave 175 max 175 min
Histogram: 1 0 0 0 0 0 0 0 0 0
Neighs:    718 ave 718 max 718 min
Histogram: 1 0 0 0 0 0 0 0 0 0

Total # of neighbors = 718
Ave neighs/atom = 8.7561
Neighbor list builds = 0
Dangerous builds = 0
        # write_dump all atom ${dumpfile}
        next i
jump SELF loop1
        displace_atoms upper move ${xstep1} 0.0 0.0 units lattice
        displace_atoms upper move 0.00333333333333333 0.0 0.0 units lattice
        min_style ${style}
        min_style cg
        minimize ${etol} ${ftol} ${maxiter} ${maxeval}
        minimize 1e-12 ${ftol} ${maxiter} ${maxeval}
        minimize 1e-12 1e-08 ${maxiter} ${maxeval}
        minimize 1e-12 1e-08 10000 ${maxeval}
        minimize 1e-12 1e-08 10000 20000
WARNING: Resetting reneighboring criteria during minimization (../min.cpp:168)
Memory usage per processor = 3.35169 Mbytes
Step Temp PotEng Lx Ly Lz 
      55            0   -241.90865    2.2449075    38.890805    1.1224537 
      56            0   -241.90865    2.2449075    38.890805    1.1224537 
      57            0   -241.90865    2.2449075    38.890805    1.1224537 
Loop time of 0.000630926 on 1 procs for 2 steps with 82 atoms

Minimization stats:
  Stopping criterion = linesearch alpha is zero
  Energy initial, next-to-last, final = 
        -241.908651896     -241.908652478     -241.908652478
  Force two-norm initial, final = 0.052317 0.0500513
  Force max component initial, final = 0.0246434 0.0234283
  Final line search alpha, max atom move = 3.8147e-06 8.93718e-08
  Iterations, force evaluations = 2 31

Pair  time (%) = 0.000523002 (82.8942)
Neigh time (%) = 0 (0)
Comm  time (%) = 3.72384e-05 (5.90217)
Outpt time (%) = 6.0444e-06 (0.95802)
Other time (%) = 6.46419e-05 (10.2456)

Nlocal:    82 ave 82 max 82 min
Histogram: 1 0 0 0 0 0 0 0 0 0
Nghost:    175 ave 175 max 175 min
Histogram: 1 0 0 0 0 0 0 0 0 0
Neighs:    718 ave 718 max 718 min
Histogram: 1 0 0 0 0 0 0 0 0 0

Total # of neighbors = 718
Ave neighs/atom = 8.7561
Neighbor list builds = 0
Dangerous builds = 0
        # write_dump all atom ${dumpfile}
        next i
jump SELF loop1
        displace_atoms upper move ${xstep1} 0.0 0.0 units lattice
        displace_atoms upper move 0.00333333333333333 0.0 0.0 units lattice
        min_style ${style}
        min_style cg
        minimize ${etol} ${ftol} ${maxiter} ${maxeval}
        minimize 1e-12 ${ftol} ${maxiter} ${maxeval}
        minimize 1e-12 1e-08 ${maxiter} ${maxeval}
        minimize 1e-12 1e-08 10000 ${maxeval}
        minimize 1e-12 1e-08 10000 20000
WARNING: Resetting reneighboring criteria during minimization (../min.cpp:168)
Memory usage per processor = 3.35169 Mbytes
Step Temp PotEng Lx Ly Lz 
      57            0    -241.9027    2.2449075    38.890805    1.1224537 
      58            0   -241.90276    2.2449075    38.890805    1.1224537 
      59            0   -241.90277    2.2449075    38.890805    1.1224537 
      60            0    -241.9028    2.2449075    38.890805    1.1224537 
      61            0   -241.90283    2.2449075    38.890805    1.1224537 
      62            0   -241.90284    2.2449075    38.890805    1.1224537 
      63            0   -241.90285    2.2449075    38.890805    1.1224537 
      64            0   -241.90285    2.2449075    38.890805    1.1224537 
Loop time of 0.00189694 on 1 procs for 7 steps with 82 atoms

Minimization stats:
  Stopping criterion = linesearch alpha is zero
  Energy initial, next-to-last, final = 
        -241.902695139     -241.902852339     -241.902852339
  Force two-norm initial, final = 0.118911 0.0169792
  Force max component initial, final = 0.0588011 0.00607205
  Final line search alpha, max atom move = 3.05176e-05 1.85304e-07
  Iterations, force evaluations = 7 57

Pair  time (%) = 0.000871047 (45.9185)
Neigh time (%) = 0 (0)
Comm  time (%) = 0.000862298 (45.4573)
Outpt time (%) = 3.41762e-05 (1.80165)
Other time (%) = 0.00012942 (6.82255)

Nlocal:    82 ave 82 max 82 min
Histogram: 1 0 0 0 0 0 0 0 0 0
Nghost:    175 ave 175 max 175 min
Histogram: 1 0 0 0 0 0 0 0 0 0
Neighs:    714 ave 714 max 714 min
Histogram: 1 0 0 0 0 0 0 0 0 0

Total # of neighbors = 714
Ave neighs/atom = 8.70732
Neighbor list builds = 0
Dangerous builds = 0
        # write_dump all atom ${dumpfile}
        next i
jump SELF loop1
        displace_atoms upper move ${xstep1} 0.0 0.0 units lattice
        displace_atoms upper move 0.00333333333333333 0.0 0.0 units lattice
        min_style ${style}
        min_style cg
        minimize ${etol} ${ftol} ${maxiter} ${maxeval}
        minimize 1e-12 ${ftol} ${maxiter} ${maxeval}
        minimize 1e-12 1e-08 ${maxiter} ${maxeval}
        minimize 1e-12 1e-08 10000 ${maxeval}
        minimize 1e-12 1e-08 10000 20000
WARNING: Resetting reneighboring criteria during minimization (../min.cpp:168)
Memory usage per processor = 3.35169 Mbytes
Step Temp PotEng Lx Ly Lz 
      64            0   -241.89694    2.2449075    38.890825    1.1224537 
      65            0   -241.89695    2.2449075    38.890825    1.1224537 
      66            0   -241.89696    2.2449075    38.890825    1.1224537 
      67            0   -241.89697    2.2449075    38.890825    1.1224537 
      68            0   -241.89699    2.2449075    38.890825    1.1224537 
      69            0   -241.89699    2.2449075    38.890825    1.1224537 
      70            0   -241.89699    2.2449075    38.890825    1.1224537 
      71            0   -241.89699    2.2449075    38.890825    1.1224537 
Loop time of 0.00116804 on 1 procs for 7 steps with 82 atoms

Minimization stats:
  Stopping criterion = linesearch alpha is zero
  Energy initial, next-to-last, final = 
         -241.89693672     -241.896993056     -241.896993056
  Force two-norm initial, final = 0.0693692 0.0159921
  Force max component initial, final = 0.0336623 0.00456174
  Final line search alpha, max atom move = 3.05176e-05 1.39213e-07
  Iterations, force evaluations = 7 57

Pair  time (%) = 0.000940115 (80.4868)
Neigh time (%) = 0 (0)
Comm  time (%) = 6.92202e-05 (5.9262)
Outpt time (%) = 3.50268e-05 (2.99878)
Other time (%) = 0.000123675 (10.5883)

Nlocal:    82 ave 82 max 82 min
Histogram: 1 0 0 0 0 0 0 0 0 0
Nghost:    175 ave 175 max 175 min
Histogram: 1 0 0 0 0 0 0 0 0 0
Neighs:    714 ave 714 max 714 min
Histogram: 1 0 0 0 0 0 0 0 0 0

Total # of neighbors = 714
Ave neighs/atom = 8.70732
Neighbor list builds = 0
Dangerous builds = 0
        # write_dump all atom ${dumpfile}
        next i
jump SELF loop1
        displace_atoms upper move ${xstep1} 0.0 0.0 units lattice
        displace_atoms upper move 0.00333333333333333 0.0 0.0 units lattice
        min_style ${style}
        min_style cg
        minimize ${etol} ${ftol} ${maxiter} ${maxeval}
        minimize 1e-12 ${ftol} ${maxiter} ${maxeval}
        minimize 1e-12 1e-08 ${maxiter} ${maxeval}
        minimize 1e-12 1e-08 10000 ${maxeval}
        minimize 1e-12 1e-08 10000 20000
WARNING: Resetting reneighboring criteria during minimization (../min.cpp:168)
Memory usage per processor = 3.35169 Mbytes
Step Temp PotEng Lx Ly Lz 
      71            0   -241.89104    2.2449075     38.89085    1.1224537 
      72            0   -241.89107    2.2449075     38.89085    1.1224537 
      73            0   -241.89107    2.2449075     38.89085    1.1224537 
      74            0   -241.89109    2.2449075     38.89085    1.1224537 
      75            0    -241.8911    2.2449075     38.89085    1.1224537 
      76            0   -241.89111    2.2449075     38.89085    1.1224537 
      77            0   -241.89112    2.2449075     38.89085    1.1224537 
      78            0   -241.89112    2.2449075     38.89085    1.1224537 
Loop time of 0.0012041 on 1 procs for 7 steps with 82 atoms

Minimization stats:
  Stopping criterion = linesearch alpha is zero
  Energy initial, next-to-last, final = 
        -241.891044396      -241.89111885      -241.89111885
  Force two-norm initial, final = 0.0784925 0.0140213
  Force max component initial, final = 0.0385532 0.00447856
  Final line search alpha, max atom move = 3.05176e-05 1.36675e-07
  Iterations, force evaluations = 7 57

Pair  time (%) = 0.000976989 (81.1386)
Neigh time (%) = 0 (0)
Comm  time (%) = 7.34434e-05 (6.09945)
Outpt time (%) = 3.5985e-05 (2.98855)
Other time (%) = 0.000117681 (9.77335)

Nlocal:    82 ave 82 max 82 min
Histogram: 1 0 0 0 0 0 0 0 0 0
Nghost:    175 ave 175 max 175 min
Histogram: 1 0 0 0 0 0 0 0 0 0
Neighs:    714 ave 714 max 714 min
Histogram: 1 0 0 0 0 0 0 0 0 0

Total # of neighbors = 714
Ave neighs/atom = 8.70732
Neighbor list builds = 0
Dangerous builds = 0
        # write_dump all atom ${dumpfile}
        next i
jump SELF loop1
        displace_atoms upper move ${xstep1} 0.0 0.0 units lattice
        displace_atoms upper move 0.00333333333333333 0.0 0.0 units lattice
        min_style ${style}
        min_style cg
        minimize ${etol} ${ftol} ${maxiter} ${maxeval}
        minimize 1e-12 ${ftol} ${maxiter} ${maxeval}
        minimize 1e-12 1e-08 ${maxiter} ${maxeval}
        minimize 1e-12 1e-08 10000 ${maxeval}
        minimize 1e-12 1e-08 10000 20000
WARNING: Resetting reneighboring criteria during minimization (../min.cpp:168)
Memory usage per processor = 3.35169 Mbytes
Step Temp PotEng Lx Ly Lz 
      78            0   -241.88516    2.2449075    38.890915    1.1224537 
      79            0   -241.88517    2.2449075    38.890915    1.1224537 
      80            0   -241.88518    2.2449075    38.890915    1.1224537 
      81            0   -241.88519    2.2449075    38.890915    1.1224537 
      82            0    -241.8852    2.2449075    38.890915    1.1224537 
      83            0   -241.88521    2.2449075    38.890915    1.1224537 
      84            0   -241.88523    2.2449075    38.890915    1.1224537 
      85            0   -241.88523    2.2449075    38.890915    1.1224537 
      86            0   -241.88523    2.2449075    38.890915    1.1224537 
Loop time of 0.00133009 on 1 procs for 8 steps with 82 atoms

Minimization stats:
  Stopping criterion = linesearch alpha is zero
  Energy initial, next-to-last, final = 
        -241.885159584     -241.885230623     -241.885230623
  Force two-norm initial, final = 0.0733719 0.0213422
  Force max component initial, final = 0.0360143 0.00670867
  Final line search alpha, max atom move = 1.52588e-05 1.02366e-07
  Iterations, force evaluations = 8 71

Pair  time (%) = 0.00105792 (79.538)
Neigh time (%) = 0 (0)
Comm  time (%) = 8.12102e-05 (6.10563)
Outpt time (%) = 4.81773e-05 (3.62212)
Other time (%) = 0.000142775 (10.7343)

Nlocal:    82 ave 82 max 82 min
Histogram: 1 0 0 0 0 0 0 0 0 0
Nghost:    175 ave 175 max 175 min
Histogram: 1 0 0 0 0 0 0 0 0 0
Neighs:    714 ave 714 max 714 min
Histogram: 1 0 0 0 0 0 0 0 0 0

Total # of neighbors = 714
Ave neighs/atom = 8.70732
Neighbor list builds = 0
Dangerous builds = 0
        # write_dump all atom ${dumpfile}
        next i
jump SELF loop1
        displace_atoms upper move ${xstep1} 0.0 0.0 units lattice
        displace_atoms upper move 0.00333333333333333 0.0 0.0 units lattice
        min_style ${style}
        min_style cg
        minimize ${etol} ${ftol} ${maxiter} ${maxeval}
        minimize 1e-12 ${ftol} ${maxiter} ${maxeval}
        minimize 1e-12 1e-08 ${maxiter} ${maxeval}
        minimize 1e-12 1e-08 10000 ${maxeval}
        minimize 1e-12 1e-08 10000 20000
WARNING: Resetting reneighboring criteria during minimization (../min.cpp:168)
Memory usage per processor = 3.35169 Mbytes
Step Temp PotEng Lx Ly Lz 
      86            0   -241.87927    2.2449075    38.891067    1.1224537 
      87            0   -241.87927    2.2449075    38.891067    1.1224537 
      88            0   -241.87927    2.2449075    38.891067    1.1224537 
Loop time of 0.000754996 on 1 procs for 2 steps with 82 atoms

Minimization stats:
  Stopping criterion = linesearch alpha is zero
  Energy initial, next-to-last, final = 
        -241.879271922     -241.879271971     -241.879271971
  Force two-norm initial, final = 0.0610568 0.0608765
  Force max component initial, final = 0.0292742 0.029183
  Final line search alpha, max atom move = 1.90735e-06 5.56622e-08
  Iterations, force evaluations = 2 36

Pair  time (%) = 0.000608773 (80.6326)
Neigh time (%) = 0 (0)
Comm  time (%) = 6.47993e-05 (8.58274)
Outpt time (%) = 9.09716e-06 (1.20493)
Other time (%) = 7.23266e-05 (9.57973)

Nlocal:    82 ave 82 max 82 min
Histogram: 1 0 0 0 0 0 0 0 0 0
Nghost:    175 ave 175 max 175 min
Histogram: 1 0 0 0 0 0 0 0 0 0
Neighs:    714 ave 714 max 714 min
Histogram: 1 0 0 0 0 0 0 0 0 0

Total # of neighbors = 714
Ave neighs/atom = 8.70732
Neighbor list builds = 0
Dangerous builds = 0
        # write_dump all atom ${dumpfile}
        next i
jump SELF loop1
        displace_atoms upper move ${xstep1} 0.0 0.0 units lattice
        displace_atoms upper move 0.00333333333333333 0.0 0.0 units lattice
        min_style ${style}
        min_style cg
        minimize ${etol} ${ftol} ${maxiter} ${maxeval}
        minimize 1e-12 ${ftol} ${maxiter} ${maxeval}
        minimize 1e-12 1e-08 ${maxiter} ${maxeval}
        minimize 1e-12 1e-08 10000 ${maxeval}
        minimize 1e-12 1e-08 10000 20000
WARNING: Resetting reneighboring criteria during minimization (../min.cpp:168)
Memory usage per processor = 3.35169 Mbytes
Step Temp PotEng Lx Ly Lz 
      88            0   -241.87322    2.2449075    38.891067    1.1224537 
      89            0   -241.87329    2.2449075    38.891067    1.1224537 
      90            0    -241.8733    2.2449075    38.891067    1.1224537 
      91            0   -241.87331    2.2449075    38.891067    1.1224537 
      92            0   -241.87333    2.2449075    38.891067    1.1224537 
      93            0   -241.87335    2.2449075    38.891067    1.1224537 
      94            0   -241.87337    2.2449075    38.891067    1.1224537 
      95            0   -241.87339    2.2449075    38.891067    1.1224537 
      96            0   -241.87341    2.2449075    38.891067    1.1224537 
      97            0   -241.87341    2.2449075    38.891067    1.1224537 
Loop time of 0.00129307 on 1 procs for 9 steps with 82 atoms

Minimization stats:
  Stopping criterion = linesearch alpha is zero
  Energy initial, next-to-last, final = 
        -241.873216623     -241.873410384     -241.873410384
  Force two-norm initial, final = 0.131935 0.0359616
  Force max component initial, final = 0.0653981 0.0107438
  Final line search alpha, max atom move = 7.62939e-06 8.19688e-08
  Iterations, force evaluations = 9 71

Pair  time (%) = 0.00102854 (79.5422)
Neigh time (%) = 0 (0)
Comm  time (%) = 7.68591e-05 (5.94392)
Outpt time (%) = 4.48159e-05 (3.46585)
Other time (%) = 0.000142858 (11.048)

Nlocal:    82 ave 82 max 82 min
Histogram: 1 0 0 0 0 0 0 0 0 0
Nghost:    175 ave 175 max 175 min
Histogram: 1 0 0 0 0 0 0 0 0 0
Neighs:    714 ave 714 max 714 min
Histogram: 1 0 0 0 0 0 0 0 0 0

Total # of neighbors = 714
Ave neighs/atom = 8.70732
Neighbor list builds = 0
Dangerous builds = 0
        # write_dump all atom ${dumpfile}
        next i
jump SELF loop1
        displace_atoms upper move ${xstep1} 0.0 0.0 units lattice
        displace_atoms upper move 0.00333333333333333 0.0 0.0 units lattice
        min_style ${style}
        min_style cg
        minimize ${etol} ${ftol} ${maxiter} ${maxeval}
        minimize 1e-12 ${ftol} ${maxiter} ${maxeval}
        minimize 1e-12 1e-08 ${maxiter} ${maxeval}
        minimize 1e-12 1e-08 10000 ${maxeval}
        minimize 1e-12 1e-08 10000 20000
WARNING: Resetting reneighboring criteria during minimization (../min.cpp:168)
Memory usage per processor = 3.35169 Mbytes
Step Temp PotEng Lx Ly Lz 
      97            0   -241.86743    2.2449075      38.8916    1.1224537 
      98            0   -241.86744    2.2449075      38.8916    1.1224537 
      99            0   -241.86745    2.2449075      38.8916    1.1224537 
     100            0   -241.86745    2.2449075      38.8916    1.1224537 
     101            0   -241.86746    2.2449075      38.8916    1.1224537 
     102            0   -241.86747    2.2449075      38.8916    1.1224537 
     103            0   -241.86747    2.2449075      38.8916    1.1224537 
     104            0   -241.86748    2.2449075      38.8916    1.1224537 
     105            0   -241.86748    2.2449075      38.8916    1.1224537 
     106            0   -241.86748    2.2449075      38.8916    1.1224537 
     107            0   -241.86748    2.2449075      38.8916    1.1224537 
     108            0   -241.86748    2.2449075      38.8916    1.1224537 
Loop time of 0.00191605 on 1 procs for 11 steps with 82 atoms

Minimization stats:
  Stopping criterion = linesearch alpha is zero
  Energy initial, next-to-last, final = 
        -241.867428855     -241.867483168     -241.867483168
  Force two-norm initial, final = 0.0576309 0.017477
  Force max component initial, final = 0.0249498 0.00355049
  Final line search alpha, max atom move = 3.05176e-05 1.08352e-07
  Iterations, force evaluations = 11 84

Pair  time (%) = 0.00151909 (79.2823)
Neigh time (%) = 0 (0)
Comm  time (%) = 0.000155605 (8.12115)
Outpt time (%) = 6.27794e-05 (3.2765)
Other time (%) = 0.000178577 (9.32008)

Nlocal:    82 ave 82 max 82 min
Histogram: 1 0 0 0 0 0 0 0 0 0
Nghost:    175 ave 175 max 175 min
Histogram: 1 0 0 0 0 0 0 0 0 0
Neighs:    714 ave 714 max 714 min
Histogram: 1 0 0 0 0 0 0 0 0 0

Total # of neighbors = 714
Ave neighs/atom = 8.70732
Neighbor list builds = 0
Dangerous builds = 0
        # write_dump all atom ${dumpfile}
        next i
jump SELF loop1
        displace_atoms upper move ${xstep1} 0.0 0.0 units lattice
        displace_atoms upper move 0.00333333333333333 0.0 0.0 units lattice
        min_style ${style}
        min_style cg
        minimize ${etol} ${ftol} ${maxiter} ${maxeval}
        minimize 1e-12 ${ftol} ${maxiter} ${maxeval}
        minimize 1e-12 1e-08 ${maxiter} ${maxeval}
        minimize 1e-12 1e-08 10000 ${maxeval}
        minimize 1e-12 1e-08 10000 20000
WARNING: Resetting reneighboring criteria during minimization (../min.cpp:168)
Memory usage per processor = 3.35169 Mbytes
Step Temp PotEng Lx Ly Lz 
     108            0   -241.86148    2.2449075     38.89224    1.1224537 
     109            0   -241.86149    2.2449075     38.89224    1.1224537 
     110            0    -241.8615    2.2449075     38.89224    1.1224537 
     111            0    -241.8615    2.2449075     38.89224    1.1224537 
     112            0   -241.86151    2.2449075     38.89224    1.1224537 
     113            0   -241.86152    2.2449075     38.89224    1.1224537 
     114            0   -241.86154    2.2449075     38.89224    1.1224537 
     115            0   -241.86154    2.2449075     38.89224    1.1224537 
Loop time of 0.001088 on 1 procs for 7 steps with 82 atoms

Minimization stats:
  Stopping criterion = linesearch alpha is zero
  Energy initial, next-to-last, final = 
         -241.86147515     -241.861537262     -241.861537262
  Force two-norm initial, final = 0.07007 0.0334262
  Force max component initial, final = 0.0339846 0.00981267
  Final line search alpha, max atom move = 6.10352e-05 5.98918e-07
  Iterations, force evaluations = 7 55

Pair  time (%) = 0.000764721 (70.287)
Neigh time (%) = 0 (0)
Comm  time (%) = 4.99418e-05 (4.59025)
Outpt time (%) = 0.000134867 (12.3959)
Other time (%) = 0.000138468 (12.7269)

Nlocal:    82 ave 82 max 82 min
Histogram: 1 0 0 0 0 0 0 0 0 0
Nghost:    175 ave 175 max 175 min
Histogram: 1 0 0 0 0 0 0 0 0 0
Neighs:    714 ave 714 max 714 min
Histogram: 1 0 0 0 0 0 0 0 0 0

Total # of neighbors = 714
Ave neighs/atom = 8.70732
Neighbor list builds = 0
Dangerous builds = 0
        # write_dump all atom ${dumpfile}
        next i
jump SELF loop1
        displace_atoms upper move ${xstep1} 0.0 0.0 units lattice
        displace_atoms upper move 0.00333333333333333 0.0 0.0 units lattice
        min_style ${style}
        min_style cg
        minimize ${etol} ${ftol} ${maxiter} ${maxeval}
        minimize 1e-12 ${ftol} ${maxiter} ${maxeval}
        minimize 1e-12 1e-08 ${maxiter} ${maxeval}
        minimize 1e-12 1e-08 10000 ${maxeval}
        minimize 1e-12 1e-08 10000 20000
WARNING: Resetting reneighboring criteria during minimization (../min.cpp:168)
Memory usage per processor = 3.35169 Mbytes
Step Temp PotEng Lx Ly Lz 
     115            0   -241.85553    2.2449075    38.892826    1.1224537 
     116            0   -241.85555    2.2449075    38.892826    1.1224537 
     117            0   -241.85555    2.2449075    38.892826    1.1224537 
     118            0   -241.85555    2.2449075    38.892826    1.1224537 
     119            0   -241.85557    2.2449075    38.892826    1.1224537 
     120            0   -241.85559    2.2449075    38.892826    1.1224537 
     121            0    -241.8556    2.2449075    38.892826    1.1224537 
     122            0   -241.85561    2.2449075    38.892826    1.1224537 
     123            0   -241.85562    2.2449075    38.892826    1.1224537 
     124            0   -241.85562    2.2449075    38.892826    1.1224537 
Loop time of 0.0013861 on 1 procs for 9 steps with 82 atoms

Minimization stats:
  Stopping criterion = linesearch alpha is zero
  Energy initial, next-to-last, final = 
        -241.855529062     -241.855618484     -241.855618484
  Force two-norm initial, final = 0.0645899 0.0222643
  Force max component initial, final = 0.0285937 0.00653444
  Final line search alpha, max atom move = 1.52588e-05 9.97077e-08
  Iterations, force evaluations = 9 71

Pair  time (%) = 0.00109953 (79.3255)
Neigh time (%) = 0 (0)
Comm  time (%) = 8.27138e-05 (5.96737)
Outpt time (%) = 4.57488e-05 (3.30053)
Other time (%) = 0.000158106 (11.4066)

Nlocal:    82 ave 82 max 82 min
Histogram: 1 0 0 0 0 0 0 0 0 0
Nghost:    175 ave 175 max 175 min
Histogram: 1 0 0 0 0 0 0 0 0 0
Neighs:    714 ave 714 max 714 min
Histogram: 1 0 0 0 0 0 0 0 0 0

Total # of neighbors = 714
Ave neighs/atom = 8.70732
Neighbor list builds = 0
Dangerous builds = 0
        # write_dump all atom ${dumpfile}
        next i
jump SELF loop1
        displace_atoms upper move ${xstep1} 0.0 0.0 units lattice
        displace_atoms upper move 0.00333333333333333 0.0 0.0 units lattice
        min_style ${style}
        min_style cg
        minimize ${etol} ${ftol} ${maxiter} ${maxeval}
        minimize 1e-12 ${ftol} ${maxiter} ${maxeval}
        minimize 1e-12 1e-08 ${maxiter} ${maxeval}
        minimize 1e-12 1e-08 10000 ${maxeval}
        minimize 1e-12 1e-08 10000 20000
WARNING: Resetting reneighboring criteria during minimization (../min.cpp:168)
Memory usage per processor = 3.35169 Mbytes
Step Temp PotEng Lx Ly Lz 
     124            0   -241.84959    2.2449075    38.894118    1.1224537 
     125            0   -241.84961    2.2449075    38.894118    1.1224537 
     126            0   -241.84963    2.2449075    38.894118    1.1224537 
     127            0   -241.84963    2.2449075    38.894118    1.1224537 
     128            0   -241.84964    2.2449075    38.894118    1.1224537 
     129            0   -241.84965    2.2449075    38.894118    1.1224537 
     130            0   -241.84965    2.2449075    38.894118    1.1224537 
     131            0   -241.84966    2.2449075    38.894118    1.1224537 
     132            0   -241.84967    2.2449075    38.894118    1.1224537 
     133            0   -241.84971    2.2449075    38.894118    1.1224537 
     134            0   -241.84977    2.2449075    38.894118    1.1224537 
     135            0   -241.84979    2.2449075    38.894118    1.1224537 
     136            0   -241.84982    2.2449075    38.894118    1.1224537 
     137            0   -241.84982    2.2449075    38.894118    1.1224537 
     138            0   -241.84983    2.2449075    38.894118    1.1224537 
     139            0   -241.84985    2.2449075    38.894118    1.1224537 
     140            0   -241.84986    2.2449075    38.894118    1.1224537 
     141            0   -241.84987    2.2449075    38.894118    1.1224537 
     142            0   -241.84989    2.2449075    38.894118    1.1224537 
     143            0    -241.8499    2.2449075    38.894118    1.1224537 
     144            0   -241.84992    2.2449075    38.894118    1.1224537 
     145            0   -241.84993    2.2449075    38.894118    1.1224537 
     146            0   -241.84993    2.2449075    38.894118    1.1224537 
     147            0   -241.84994    2.2449075    38.894118    1.1224537 
     148            0   -241.84994    2.2449075    38.894118    1.1224537 
     149            0   -241.84994    2.2449075    38.894118    1.1224537 
     150            0   -241.84994    2.2449075    38.894118    1.1224537 
Loop time of 0.00404303 on 1 procs for 26 steps with 82 atoms

Minimization stats:
  Stopping criterion = linesearch alpha is zero
  Energy initial, next-to-last, final = 
        -241.849588463     -241.849937959     -241.849937959
  Force two-norm initial, final = 0.0784172 0.00977446
  Force max component initial, final = 0.0376382 0.00213416
  Final line search alpha, max atom move = 0.00012207 2.60517e-07
  Iterations, force evaluations = 26 181

Pair  time (%) = 0.00330104 (81.6477)
Neigh time (%) = 0 (0)
Comm  time (%) = 0.000210648 (5.21016)
Outpt time (%) = 0.000145647 (3.60241)
Other time (%) = 0.000385693 (9.5397)

Nlocal:    82 ave 82 max 82 min
Histogram: 1 0 0 0 0 0 0 0 0 0
Nghost:    175 ave 175 max 175 min
Histogram: 1 0 0 0 0 0 0 0 0 0
Neighs:    714 ave 714 max 714 min
Histogram: 1 0 0 0 0 0 0 0 0 0

Total # of neighbors = 714
Ave neighs/atom = 8.70732
Neighbor list builds = 0
Dangerous builds = 0
        # write_dump all atom ${dumpfile}
        next i
jump SELF loop1
        displace_atoms upper move ${xstep1} 0.0 0.0 units lattice
        displace_atoms upper move 0.00333333333333333 0.0 0.0 units lattice
        min_style ${style}
        min_style cg
        minimize ${etol} ${ftol} ${maxiter} ${maxeval}
        minimize 1e-12 ${ftol} ${maxiter} ${maxeval}
        minimize 1e-12 1e-08 ${maxiter} ${maxeval}
        minimize 1e-12 1e-08 10000 ${maxeval}
        minimize 1e-12 1e-08 10000 20000
WARNING: Resetting reneighboring criteria during minimization (../min.cpp:168)
Memory usage per processor = 3.35169 Mbytes
Step Temp PotEng Lx Ly Lz 
     150            0   -241.84394    2.2449075    38.907024    1.1224537 
     151            0   -241.84396    2.2449075    38.907024    1.1224537 
     152            0   -241.84396    2.2449075    38.907024    1.1224537 
Loop time of 0.000487115 on 1 procs for 2 steps with 82 atoms

Minimization stats:
  Stopping criterion = linesearch alpha is zero
  Energy initial, next-to-last, final = 
        -241.843935262     -241.843959553     -241.843959553
  Force two-norm initial, final = 0.0719496 0.0247646
  Force max component initial, final = 0.0356826 0.0104213
  Final line search alpha, max atom move = 1.52588e-05 1.59016e-07
  Iterations, force evaluations = 2 25

Pair  time (%) = 0.000408369 (83.8343)
Neigh time (%) = 0 (0)
Comm  time (%) = 2.7885e-05 (5.72451)
Outpt time (%) = -3.56231e-08 (-0.00731308)
Other time (%) = 5.08964e-05 (10.4485)

Nlocal:    82 ave 82 max 82 min
Histogram: 1 0 0 0 0 0 0 0 0 0
Nghost:    175 ave 175 max 175 min
Histogram: 1 0 0 0 0 0 0 0 0 0
Neighs:    714 ave 714 max 714 min
Histogram: 1 0 0 0 0 0 0 0 0 0

Total # of neighbors = 714
Ave neighs/atom = 8.70732
Neighbor list builds = 0
Dangerous builds = 0
        # write_dump all atom ${dumpfile}
        next i
jump SELF loop1
        displace_atoms upper move ${xstep1} 0.0 0.0 units lattice
        displace_atoms upper move 0.00333333333333333 0.0 0.0 units lattice
        min_style ${style}
        min_style cg
        minimize ${etol} ${ftol} ${maxiter} ${maxeval}
        minimize 1e-12 ${ftol} ${maxiter} ${maxeval}
        minimize 1e-12 1e-08 ${maxiter} ${maxeval}
        minimize 1e-12 1e-08 10000 ${maxeval}
        minimize 1e-12 1e-08 10000 20000
WARNING: Resetting reneighboring criteria during minimization (../min.cpp:168)
Memory usage per processor = 3.35169 Mbytes
Step Temp PotEng Lx Ly Lz 
     152            0   -241.83792    2.2449075    38.907005    1.1224537 
     153            0   -241.83796    2.2449075    38.907005    1.1224537 
     154            0   -241.83798    2.2449075    38.907005    1.1224537 
     155            0   -241.83798    2.2449075    38.907005    1.1224537 
     156            0   -241.83798    2.2449075    38.907005    1.1224537 
Loop time of 0.000941894 on 1 procs for 4 steps with 82 atoms

Minimization stats:
  Stopping criterion = linesearch alpha is zero
  Energy initial, next-to-last, final = 
        -241.837916496     -241.837980815     -241.837980815
  Force two-norm initial, final = 0.0870356 0.0311074
  Force max component initial, final = 0.0421779 0.0123761
  Final line search alpha, max atom move = 7.62939e-06 9.4422e-08
  Iterations, force evaluations = 4 41

Pair  time (%) = 0.000739179 (78.478)
Neigh time (%) = 0 (0)
Comm  time (%) = 6.51039e-05 (6.91202)
Outpt time (%) = 2.29122e-05 (2.43256)
Other time (%) = 0.000114699 (12.1775)

Nlocal:    82 ave 82 max 82 min
Histogram: 1 0 0 0 0 0 0 0 0 0
Nghost:    175 ave 175 max 175 min
Histogram: 1 0 0 0 0 0 0 0 0 0
Neighs:    714 ave 714 max 714 min
Histogram: 1 0 0 0 0 0 0 0 0 0

Total # of neighbors = 714
Ave neighs/atom = 8.70732
Neighbor list builds = 0
Dangerous builds = 0
        # write_dump all atom ${dumpfile}
        next i
jump SELF loop1
        displace_atoms upper move ${xstep1} 0.0 0.0 units lattice
        displace_atoms upper move 0.00333333333333333 0.0 0.0 units lattice
        min_style ${style}
        min_style cg
        minimize ${etol} ${ftol} ${maxiter} ${maxeval}
        minimize 1e-12 ${ftol} ${maxiter} ${maxeval}
        minimize 1e-12 1e-08 ${maxiter} ${maxeval}
        minimize 1e-12 1e-08 10000 ${maxeval}
[...]
        displace_atoms upper move 0.00333333333333333 0.0 0.0 units lattice
        min_style ${style}
        min_style cg
        minimize ${etol} ${ftol} ${maxiter} ${maxeval}
        minimize 1e-12 ${ftol} ${maxiter} ${maxeval}
        minimize 1e-12 1e-08 ${maxiter} ${maxeval}
        minimize 1e-12 1e-08 10000 ${maxeval}
        minimize 1e-12 1e-08 10000 20000
WARNING: Resetting reneighboring criteria during minimization (../min.cpp:168)
Memory usage per processor = 3.35169 Mbytes
Step Temp PotEng Lx Ly Lz 
    1251            0   -241.98271    2.2449075    38.906194    1.1224537 
    1252            0   -241.98271    2.2449075    38.906194    1.1224537 
Loop time of 0.000391093 on 1 procs for 1 steps with 82 atoms

Minimization stats:
  Stopping criterion = linesearch alpha is zero
  Energy initial, next-to-last, final = 
        -241.982708616     -241.982708616     -241.982708616
  Force two-norm initial, final = 0.0526078 0.0526078
  Force max component initial, final = 0.0154971 0.0154971
  Final line search alpha, max atom move = 3.8147e-06 5.91169e-08
  Iterations, force evaluations = 1 19

Pair  time (%) = 0.000326085 (83.3778)
Neigh time (%) = 0 (0)
Comm  time (%) = 3.35635e-05 (8.58197)
Outpt time (%) = 0 (0)
Other time (%) = 3.14447e-05 (8.04021)

Nlocal:    82 ave 82 max 82 min
Histogram: 1 0 0 0 0 0 0 0 0 0
Nghost:    185 ave 185 max 185 min
Histogram: 1 0 0 0 0 0 0 0 0 0
Neighs:    718 ave 718 max 718 min
Histogram: 1 0 0 0 0 0 0 0 0 0

Total # of neighbors = 718
Ave neighs/atom = 8.7561
Neighbor list builds = 0
Dangerous builds = 0
        # write_dump all atom ${dumpfile}
        next i
jump SELF loop1
        displace_atoms upper move ${xstep1} 0.0 0.0 units lattice
        displace_atoms upper move 0.00333333333333333 0.0 0.0 units lattice
        min_style ${style}
        min_style cg
        minimize ${etol} ${ftol} ${maxiter} ${maxeval}
        minimize 1e-12 ${ftol} ${maxiter} ${maxeval}
        minimize 1e-12 1e-08 ${maxiter} ${maxeval}
        minimize 1e-12 1e-08 10000 ${maxeval}
        minimize 1e-12 1e-08 10000 20000
WARNING: Resetting reneighboring criteria during minimization (../min.cpp:168)
Memory usage per processor = 3.35169 Mbytes
Step Temp PotEng Lx Ly Lz 
    1252            0   -241.98586    2.2449075    38.906194    1.1224537 
    1253            0   -241.98586    2.2449075    38.906194    1.1224537 
Loop time of 0.000392943 on 1 procs for 1 steps with 82 atoms

Minimization stats:
  Stopping criterion = linesearch alpha is zero
  Energy initial, next-to-last, final = 
        -241.985858242     -241.985858242     -241.985858242
  Force two-norm initial, final = 0.0560502 0.0560502
  Force max component initial, final = 0.0154971 0.0154971
  Final line search alpha, max atom move = 3.8147e-06 5.91169e-08
  Iterations, force evaluations = 1 19

Pair  time (%) = 0.000327714 (83.3999)
Neigh time (%) = 0 (0)
Comm  time (%) = 2.41068e-05 (6.13494)
Outpt time (%) = 0 (0)
Other time (%) = 4.1122e-05 (10.4651)

Nlocal:    82 ave 82 max 82 min
Histogram: 1 0 0 0 0 0 0 0 0 0
Nghost:    185 ave 185 max 185 min
Histogram: 1 0 0 0 0 0 0 0 0 0
Neighs:    718 ave 718 max 718 min
Histogram: 1 0 0 0 0 0 0 0 0 0

Total # of neighbors = 718
Ave neighs/atom = 8.7561
Neighbor list builds = 0
Dangerous builds = 0
        # write_dump all atom ${dumpfile}
        next i
jump SELF loop1
        displace_atoms upper move ${xstep1} 0.0 0.0 units lattice
        displace_atoms upper move 0.00333333333333333 0.0 0.0 units lattice
        min_style ${style}
        min_style cg
        minimize ${etol} ${ftol} ${maxiter} ${maxeval}
        minimize 1e-12 ${ftol} ${maxiter} ${maxeval}
        minimize 1e-12 1e-08 ${maxiter} ${maxeval}
        minimize 1e-12 1e-08 10000 ${maxeval}
        minimize 1e-12 1e-08 10000 20000
WARNING: Resetting reneighboring criteria during minimization (../min.cpp:168)
Memory usage per processor = 3.35169 Mbytes
Step Temp PotEng Lx Ly Lz 
    1253            0    -241.9887    2.2449075    38.906194    1.1224537 
    1254            0   -241.98872    2.2449075    38.906194    1.1224537 
    1255            0   -241.98873    2.2449075    38.906194    1.1224537 
    1256            0   -241.98873    2.2449075    38.906194    1.1224537 
    1257            0   -241.98874    2.2449075    38.906194    1.1224537 
    1258            0   -241.98874    2.2449075    38.906194    1.1224537 
Loop time of 0.00113804 on 1 procs for 5 steps with 82 atoms

Minimization stats:
  Stopping criterion = linesearch alpha is zero
  Energy initial, next-to-last, final = 
        -241.988702774     -241.988735082     -241.988735082
  Force two-norm initial, final = 0.0686554 0.0268453
  Force max component initial, final = 0.0225621 0.00726074
  Final line search alpha, max atom move = 1.52588e-05 1.1079e-07
  Iterations, force evaluations = 5 51

Pair  time (%) = 0.0009265 (81.4123)
Neigh time (%) = 0 (0)
Comm  time (%) = 7.49123e-05 (6.5826)
Outpt time (%) = 2.4928e-05 (2.19044)
Other time (%) = 0.000111694 (9.81468)

Nlocal:    82 ave 82 max 82 min
Histogram: 1 0 0 0 0 0 0 0 0 0
Nghost:    185 ave 185 max 185 min
Histogram: 1 0 0 0 0 0 0 0 0 0
Neighs:    718 ave 718 max 718 min
Histogram: 1 0 0 0 0 0 0 0 0 0

Total # of neighbors = 718
Ave neighs/atom = 8.7561
Neighbor list builds = 0
Dangerous builds = 0
        # write_dump all atom ${dumpfile}
        next i
jump SELF loop1
        displace_atoms upper move ${xstep1} 0.0 0.0 units lattice
        displace_atoms upper move 0.00333333333333333 0.0 0.0 units lattice
        min_style ${style}
        min_style cg
        minimize ${etol} ${ftol} ${maxiter} ${maxeval}
        minimize 1e-12 ${ftol} ${maxiter} ${maxeval}
        minimize 1e-12 1e-08 ${maxiter} ${maxeval}
        minimize 1e-12 1e-08 10000 ${maxeval}
        minimize 1e-12 1e-08 10000 20000
WARNING: Resetting reneighboring criteria during minimization (../min.cpp:168)
Memory usage per processor = 3.35169 Mbytes
Step Temp PotEng Lx Ly Lz 
    1258            0   -241.99127    2.2449075    38.906002    1.1224537 
    1259            0   -241.99127    2.2449075    38.906002    1.1224537 
Loop time of 0.000386012 on 1 procs for 1 steps with 82 atoms

Minimization stats:
  Stopping criterion = linesearch alpha is zero
  Energy initial, next-to-last, final = 
        -241.991265681     -241.991265681     -241.991265681
  Force two-norm initial, final = 0.0245472 0.0245472
  Force max component initial, final = 0.00726074 0.00726074
  Final line search alpha, max atom move = 1.52588e-05 1.1079e-07
  Iterations, force evaluations = 1 17

Pair  time (%) = 0.000324067 (83.9527)
Neigh time (%) = 0 (0)
Comm  time (%) = 2.30508e-05 (5.97154)
Outpt time (%) = 0 (0)
Other time (%) = 3.88937e-05 (10.0758)

Nlocal:    82 ave 82 max 82 min
Histogram: 1 0 0 0 0 0 0 0 0 0
Nghost:    185 ave 185 max 185 min
Histogram: 1 0 0 0 0 0 0 0 0 0
Neighs:    718 ave 718 max 718 min
Histogram: 1 0 0 0 0 0 0 0 0 0

Total # of neighbors = 718
Ave neighs/atom = 8.7561
Neighbor list builds = 0
Dangerous builds = 0
        # write_dump all atom ${dumpfile}
        next i
jump SELF loop1
        displace_atoms upper move ${xstep1} 0.0 0.0 units lattice
        displace_atoms upper move 0.00333333333333333 0.0 0.0 units lattice
        min_style ${style}
        min_style cg
        minimize ${etol} ${ftol} ${maxiter} ${maxeval}
        minimize 1e-12 ${ftol} ${maxiter} ${maxeval}
        minimize 1e-12 1e-08 ${maxiter} ${maxeval}
        minimize 1e-12 1e-08 10000 ${maxeval}
        minimize 1e-12 1e-08 10000 20000
WARNING: Resetting reneighboring criteria during minimization (../min.cpp:168)
Memory usage per processor = 3.35169 Mbytes
Step Temp PotEng Lx Ly Lz 
    1259            0   -241.99346    2.2449075    38.906002    1.1224537 
    1260            0   -241.99347    2.2449075    38.906002    1.1224537 
    1261            0   -241.99347    2.2449075    38.906002    1.1224537 
    1262            0   -241.99349    2.2449075    38.906002    1.1224537 
    1263            0   -241.99351    2.2449075    38.906002    1.1224537 
    1264            0   -241.99352    2.2449075    38.906002    1.1224537 
    1265            0   -241.99353    2.2449075    38.906002    1.1224537 
    1266            0   -241.99353    2.2449075    38.906002    1.1224537 
Loop time of 0.001382 on 1 procs for 7 steps with 82 atoms

Minimization stats:
  Stopping criterion = linesearch alpha is zero
  Energy initial, next-to-last, final = 
        -241.993459701     -241.993533073     -241.993533073
  Force two-norm initial, final = 0.0348847 0.0324559
  Force max component initial, final = 0.013014 0.00995992
  Final line search alpha, max atom move = 7.62939e-06 7.59881e-08
  Iterations, force evaluations = 7 57

Pair  time (%) = 0.000954865 (69.0932)
Neigh time (%) = 0 (0)
Comm  time (%) = 6.68907e-05 (4.84016)
Outpt time (%) = 0.000204923 (14.8281)
Other time (%) = 0.000155317 (11.2386)

Nlocal:    82 ave 82 max 82 min
Histogram: 1 0 0 0 0 0 0 0 0 0
Nghost:    185 ave 185 max 185 min
Histogram: 1 0 0 0 0 0 0 0 0 0
Neighs:    718 ave 718 max 718 min
Histogram: 1 0 0 0 0 0 0 0 0 0

Total # of neighbors = 718
Ave neighs/atom = 8.7561
Neighbor list builds = 0
Dangerous builds = 0
        # write_dump all atom ${dumpfile}
        next i
jump SELF loop1
        displace_atoms upper move ${xstep1} 0.0 0.0 units lattice
        displace_atoms upper move 0.00333333333333333 0.0 0.0 units lattice
        min_style ${style}
        min_style cg
        minimize ${etol} ${ftol} ${maxiter} ${maxeval}
        minimize 1e-12 ${ftol} ${maxiter} ${maxeval}
        minimize 1e-12 1e-08 ${maxiter} ${maxeval}
        minimize 1e-12 1e-08 10000 ${maxeval}
        minimize 1e-12 1e-08 10000 20000
WARNING: Resetting reneighboring criteria during minimization (../min.cpp:168)
Memory usage per processor = 3.35169 Mbytes
Step Temp PotEng Lx Ly Lz 
    1266            0   -241.99541    2.2449075    38.903463    1.1224537 
    1267            0   -241.99541    2.2449075    38.903463    1.1224537 
Loop time of 0.000381076 on 1 procs for 1 steps with 82 atoms

Minimization stats:
  Stopping criterion = linesearch alpha is zero
  Energy initial, next-to-last, final = 
        -241.995406514     -241.995406514     -241.995406514
  Force two-norm initial, final = 0.0286888 0.0286888
  Force max component initial, final = 0.00995992 0.00995992
  Final line search alpha, max atom move = 7.62939e-06 7.59881e-08
  Iterations, force evaluations = 1 18

Pair  time (%) = 0.000315089 (82.6841)
Neigh time (%) = 0 (0)
Comm  time (%) = 2.53012e-05 (6.63942)
Outpt time (%) = 0 (0)
Other time (%) = 4.06853e-05 (10.6764)

Nlocal:    82 ave 82 max 82 min
Histogram: 1 0 0 0 0 0 0 0 0 0
Nghost:    185 ave 185 max 185 min
Histogram: 1 0 0 0 0 0 0 0 0 0
Neighs:    718 ave 718 max 718 min
Histogram: 1 0 0 0 0 0 0 0 0 0

Total # of neighbors = 718
Ave neighs/atom = 8.7561
Neighbor list builds = 0
Dangerous builds = 0
        # write_dump all atom ${dumpfile}
        next i
jump SELF loop1
        displace_atoms upper move ${xstep1} 0.0 0.0 units lattice
        displace_atoms upper move 0.00333333333333333 0.0 0.0 units lattice
        min_style ${style}
        min_style cg
        minimize ${etol} ${ftol} ${maxiter} ${maxeval}
        minimize 1e-12 ${ftol} ${maxiter} ${maxeval}
        minimize 1e-12 1e-08 ${maxiter} ${maxeval}
        minimize 1e-12 1e-08 10000 ${maxeval}
        minimize 1e-12 1e-08 10000 20000
WARNING: Resetting reneighboring criteria during minimization (../min.cpp:168)
Memory usage per processor = 3.35169 Mbytes
Step Temp PotEng Lx Ly Lz 
    1267            0   -241.99694    2.2449075    38.903463    1.1224537 
    1268            0   -241.99694    2.2449075    38.903463    1.1224537 
Loop time of 0.000373031 on 1 procs for 1 steps with 82 atoms

Minimization stats:
  Stopping criterion = linesearch alpha is zero
  Energy initial, next-to-last, final = 
        -241.996938994     -241.996938994     -241.996938994
  Force two-norm initial, final = 0.0315562 0.0315562
  Force max component initial, final = 0.00995992 0.00995992
  Final line search alpha, max atom move = 7.62939e-06 7.59881e-08
  Iterations, force evaluations = 1 18

Pair  time (%) = 0.000311259 (83.4405)
Neigh time (%) = 0 (0)
Comm  time (%) = 2.40249e-05 (6.44044)
Outpt time (%) = 0 (0)
Other time (%) = 3.77474e-05 (10.1191)

Nlocal:    82 ave 82 max 82 min
Histogram: 1 0 0 0 0 0 0 0 0 0
Nghost:    185 ave 185 max 185 min
Histogram: 1 0 0 0 0 0 0 0 0 0
Neighs:    718 ave 718 max 718 min
Histogram: 1 0 0 0 0 0 0 0 0 0

Total # of neighbors = 718
Ave neighs/atom = 8.7561
Neighbor list builds = 0
Dangerous builds = 0
        # write_dump all atom ${dumpfile}
        next i
jump SELF loop1
        displace_atoms upper move ${xstep1} 0.0 0.0 units lattice
        displace_atoms upper move 0.00333333333333333 0.0 0.0 units lattice
        min_style ${style}
        min_style cg
        minimize ${etol} ${ftol} ${maxiter} ${maxeval}
        minimize 1e-12 ${ftol} ${maxiter} ${maxeval}
        minimize 1e-12 1e-08 ${maxiter} ${maxeval}
        minimize 1e-12 1e-08 10000 ${maxeval}
        minimize 1e-12 1e-08 10000 20000
WARNING: Resetting reneighboring criteria during minimization (../min.cpp:168)
Memory usage per processor = 3.35169 Mbytes
Step Temp PotEng Lx Ly Lz 
    1268            0   -241.99813    2.2449075    38.903463    1.1224537 
    1269            0   -241.99813    2.2449075    38.903463    1.1224537 
Loop time of 0.00110996 on 1 procs for 1 steps with 82 atoms

Minimization stats:
  Stopping criterion = linesearch alpha is zero
  Energy initial, next-to-last, final = 
        -241.998132118     -241.998132118     -241.998132118
  Force two-norm initial, final = 0.0368155 0.0368155
  Force max component initial, final = 0.011567 0.011567
  Final line search alpha, max atom move = 7.62939e-06 8.82492e-08
  Iterations, force evaluations = 1 18

Pair  time (%) = 0.00103821 (93.5359)
Neigh time (%) = 0 (0)
Comm  time (%) = 2.19441e-05 (1.97701)
Outpt time (%) = 0 (0)
Other time (%) = 4.98047e-05 (4.48707)

Nlocal:    82 ave 82 max 82 min
Histogram: 1 0 0 0 0 0 0 0 0 0
Nghost:    185 ave 185 max 185 min
Histogram: 1 0 0 0 0 0 0 0 0 0
Neighs:    718 ave 718 max 718 min
Histogram: 1 0 0 0 0 0 0 0 0 0

Total # of neighbors = 718
Ave neighs/atom = 8.7561
Neighbor list builds = 0
Dangerous builds = 0
        # write_dump all atom ${dumpfile}
        next i
jump SELF loop1
        displace_atoms upper move ${xstep1} 0.0 0.0 units lattice
        displace_atoms upper move 0.00333333333333333 0.0 0.0 units lattice
        min_style ${style}
        min_style cg
        minimize ${etol} ${ftol} ${maxiter} ${maxeval}
        minimize 1e-12 ${ftol} ${maxiter} ${maxeval}
        minimize 1e-12 1e-08 ${maxiter} ${maxeval}
        minimize 1e-12 1e-08 10000 ${maxeval}
        minimize 1e-12 1e-08 10000 20000
WARNING: Resetting reneighboring criteria during minimization (../min.cpp:168)
Memory usage per processor = 3.35169 Mbytes
Step Temp PotEng Lx Ly Lz 
    1269            0   -241.99899    2.2449075    38.903463    1.1224537 
    1270            0   -241.99899    2.2449075    38.903463    1.1224537 
Loop time of 0.00038907 on 1 procs for 1 steps with 82 atoms

Minimization stats:
  Stopping criterion = linesearch alpha is zero
  Energy initial, next-to-last, final = 
        -241.998985447     -241.998985447     -241.998985447
  Force two-norm initial, final = 0.0416365 0.0416365
  Force max component initial, final = 0.0151181 0.0151181
  Final line search alpha, max atom move = 3.8147e-06 5.76709e-08
  Iterations, force evaluations = 1 19

Pair  time (%) = 0.000325169 (83.5761)
Neigh time (%) = 0 (0)
Comm  time (%) = 3.06865e-05 (7.88715)
Outpt time (%) = 0 (0)
Other time (%) = 3.32138e-05 (8.53671)

Nlocal:    82 ave 82 max 82 min
Histogram: 1 0 0 0 0 0 0 0 0 0
Nghost:    185 ave 185 max 185 min
Histogram: 1 0 0 0 0 0 0 0 0 0
Neighs:    718 ave 718 max 718 min
Histogram: 1 0 0 0 0 0 0 0 0 0

Total # of neighbors = 718
Ave neighs/atom = 8.7561
Neighbor list builds = 0
Dangerous builds = 0
        # write_dump all atom ${dumpfile}
        next i
jump SELF loop1
        displace_atoms upper move ${xstep1} 0.0 0.0 units lattice
        displace_atoms upper move 0.00333333333333333 0.0 0.0 units lattice
        min_style ${style}
        min_style cg
        minimize ${etol} ${ftol} ${maxiter} ${maxeval}
        minimize 1e-12 ${ftol} ${maxiter} ${maxeval}
        minimize 1e-12 1e-08 ${maxiter} ${maxeval}
        minimize 1e-12 1e-08 10000 ${maxeval}
        minimize 1e-12 1e-08 10000 20000
WARNING: Resetting reneighboring criteria during minimization (../min.cpp:168)
Memory usage per processor = 3.35169 Mbytes
Step Temp PotEng Lx Ly Lz 
    1270            0    -241.9995    2.2449075    38.903463    1.1224537 
    1271            0    -241.9995    2.2449075    38.903463    1.1224537 
    1272            0    -241.9995    2.2449075    38.903463    1.1224537 
    1273            0    -241.9995    2.2449075    38.903463    1.1224537 
    1274            0    -241.9995    2.2449075    38.903463    1.1224537 
    1275            0    -241.9995    2.2449075    38.903463    1.1224537 
Loop time of 0.00152107 on 1 procs for 5 steps with 82 atoms

Minimization stats:
  Stopping criterion = linesearch alpha is zero
  Energy initial, next-to-last, final = 
        -241.999498613     -241.999499149     -241.999499149
  Force two-norm initial, final = 0.0448312 0.0423774
  Force max component initial, final = 0.0172551 0.0159501
  Final line search alpha, max atom move = 3.8147e-06 6.08447e-08
  Iterations, force evaluations = 5 78

Pair  time (%) = 0.00126071 (82.8832)
Neigh time (%) = 0 (0)
Comm  time (%) = 9.3339e-05 (6.1364)
Outpt time (%) = 2.4945e-05 (1.63996)
Other time (%) = 0.000142075 (9.34043)

Nlocal:    82 ave 82 max 82 min
Histogram: 1 0 0 0 0 0 0 0 0 0
Nghost:    185 ave 185 max 185 min
Histogram: 1 0 0 0 0 0 0 0 0 0
Neighs:    718 ave 718 max 718 min
Histogram: 1 0 0 0 0 0 0 0 0 0

Total # of neighbors = 718
Ave neighs/atom = 8.7561
Neighbor list builds = 0
Dangerous builds = 0
        # write_dump all atom ${dumpfile}
        next i
jump SELF loop1
        displace_atoms upper move ${xstep1} 0.0 0.0 units lattice
        displace_atoms upper move 0.00333333333333333 0.0 0.0 units lattice
        min_style ${style}
        min_style cg
        minimize ${etol} ${ftol} ${maxiter} ${maxeval}
        minimize 1e-12 ${ftol} ${maxiter} ${maxeval}
        minimize 1e-12 1e-08 ${maxiter} ${maxeval}
        minimize 1e-12 1e-08 10000 ${maxeval}
        minimize 1e-12 1e-08 10000 20000
WARNING: Resetting reneighboring criteria during minimization (../min.cpp:168)
Memory usage per processor = 3.35169 Mbytes
Step Temp PotEng Lx Ly Lz 
    1275            0   -241.99967    2.2449075    38.903462    1.1224537 
    1276            0   -241.99967    2.2449075    38.903462    1.1224537 
Loop time of 0.000390036 on 1 procs for 1 steps with 82 atoms

Minimization stats:
  Stopping criterion = linesearch alpha is zero
  Energy initial, next-to-last, final = 
        -241.999669291     -241.999669291     -241.999669291
  Force two-norm initial, final = 0.0434502 0.0434502
  Force max component initial, final = 0.0166572 0.0166572
  Final line search alpha, max atom move = 3.8147e-06 6.35423e-08
  Iterations, force evaluations = 1 19

Pair  time (%) = 0.000318147 (81.5686)
Neigh time (%) = 0 (0)
Comm  time (%) = 3.42245e-05 (8.7747)
Outpt time (%) = 0 (0)
Other time (%) = 3.76645e-05 (9.65668)

Nlocal:    82 ave 82 max 82 min
Histogram: 1 0 0 0 0 0 0 0 0 0
Nghost:    185 ave 185 max 185 min
Histogram: 1 0 0 0 0 0 0 0 0 0
Neighs:    718 ave 718 max 718 min
Histogram: 1 0 0 0 0 0 0 0 0 0

Total # of neighbors = 718
Ave neighs/atom = 8.7561
Neighbor list builds = 0
Dangerous builds = 0
        # write_dump all atom ${dumpfile}
        next i
jump SELF loop1


