LAMMPS (28 Jun 2014)
# attempt at getting GSF energy

#file prefix
variable prefix string gsf_V_inter4_3dnorm
variable dumpfile string ${prefix}.*.dump
variable dumpfile string gsf_V_inter4_3dnorm.*.dump
variable restartfile string ${prefix}.*.equil
variable restartfile string gsf_V_inter4_3dnorm.*.equil

#Mass (g/mol)
variable m equal 1.0

# lattice constant (in Angstroms) and orientation of axes (given by lattice vectors)
variable rho equal 1.4142
variable x1 equal 1
variable x2 equal -2
variable x3 equal 1
variable y1 equal 1
variable y2 equal 1
variable y3 equal 1
variable z1 equal -1
variable z2 equal 0
variable z3 equal 1
# length of lattice in different directions (using orientation of lattice vectors)
variable ax equal sqrt(${x1}*${x1}+${x2}*${x2}+${x3}*${x3})
variable ax equal sqrt(1*${x1}+${x2}*${x2}+${x3}*${x3})
variable ax equal sqrt(1*1+${x2}*${x2}+${x3}*${x3})
variable ax equal sqrt(1*1+-2*${x2}+${x3}*${x3})
variable ax equal sqrt(1*1+-2*-2+${x3}*${x3})
variable ax equal sqrt(1*1+-2*-2+1*${x3})
variable ax equal sqrt(1*1+-2*-2+1*1)
variable ay equal sqrt(${y1}*${y1}+${y2}*${y2}+${y3}*${y3})
variable ay equal sqrt(1*${y1}+${y2}*${y2}+${y3}*${y3})
variable ay equal sqrt(1*1+${y2}*${y2}+${y3}*${y3})
variable ay equal sqrt(1*1+1*${y2}+${y3}*${y3})
variable ay equal sqrt(1*1+1*1+${y3}*${y3})
variable ay equal sqrt(1*1+1*1+1*${y3})
variable ay equal sqrt(1*1+1*1+1*1)
variable az equal sqrt(${z1}*${z1}+${z2}*${z2}+${z3}*${z3})
variable az equal sqrt(-1*${z1}+${z2}*${z2}+${z3}*${z3})
variable az equal sqrt(-1*-1+${z2}*${z2}+${z3}*${z3})
variable az equal sqrt(-1*-1+0*${z2}+${z3}*${z3})
variable az equal sqrt(-1*-1+0*0+${z3}*${z3})
variable az equal sqrt(-1*-1+0*0+1*${z3})
variable az equal sqrt(-1*-1+0*0+1*1)

# size of box in lattice units
variable lxpos equal 2
variable lxneg equal 0
variable lypos equal 15
variable lyneg equal -1*${lypos}
variable lyneg equal -1*15
variable lzpos equal 2
variable lzneg equal 0

# Define minimization parameters and damping
variable etol equal 1.0e-12
variable ftol equal 1.0e-8
variable maxiter equal 10000
variable maxeval equal 20000
variable style string hftn

# boundary conditions
dimension	3
boundary	p s p
atom_style	atomic

# create geometry
units		lj
lattice         fcc ${rho} orient x ${x1} ${x2} ${x3} orient y ${y1} ${y2} ${y3} orient z ${z1} ${z2} ${z3} spacing ${ax} ${ay} ${az}
lattice         fcc 1.4142 orient x ${x1} ${x2} ${x3} orient y ${y1} ${y2} ${y3} orient z ${z1} ${z2} ${z3} spacing ${ax} ${ay} ${az}
lattice         fcc 1.4142 orient x 1 ${x2} ${x3} orient y ${y1} ${y2} ${y3} orient z ${z1} ${z2} ${z3} spacing ${ax} ${ay} ${az}
lattice         fcc 1.4142 orient x 1 -2 ${x3} orient y ${y1} ${y2} ${y3} orient z ${z1} ${z2} ${z3} spacing ${ax} ${ay} ${az}
lattice         fcc 1.4142 orient x 1 -2 1 orient y ${y1} ${y2} ${y3} orient z ${z1} ${z2} ${z3} spacing ${ax} ${ay} ${az}
lattice         fcc 1.4142 orient x 1 -2 1 orient y 1 ${y2} ${y3} orient z ${z1} ${z2} ${z3} spacing ${ax} ${ay} ${az}
lattice         fcc 1.4142 orient x 1 -2 1 orient y 1 1 ${y3} orient z ${z1} ${z2} ${z3} spacing ${ax} ${ay} ${az}
lattice         fcc 1.4142 orient x 1 -2 1 orient y 1 1 1 orient z ${z1} ${z2} ${z3} spacing ${ax} ${ay} ${az}
lattice         fcc 1.4142 orient x 1 -2 1 orient y 1 1 1 orient z -1 ${z2} ${z3} spacing ${ax} ${ay} ${az}
lattice         fcc 1.4142 orient x 1 -2 1 orient y 1 1 1 orient z -1 0 ${z3} spacing ${ax} ${ay} ${az}
lattice         fcc 1.4142 orient x 1 -2 1 orient y 1 1 1 orient z -1 0 1 spacing ${ax} ${ay} ${az}
lattice         fcc 1.4142 orient x 1 -2 1 orient y 1 1 1 orient z -1 0 1 spacing 2.44948974278318 ${ay} ${az}
lattice         fcc 1.4142 orient x 1 -2 1 orient y 1 1 1 orient z -1 0 1 spacing 2.44948974278318 1.73205080756888 ${az}
lattice         fcc 1.4142 orient x 1 -2 1 orient y 1 1 1 orient z -1 0 1 spacing 2.44948974278318 1.73205080756888 1.4142135623731
Lattice spacing in x,y,z = 3.46411 2.4495 2.00001
region		myregion block ${lxneg} ${lxpos} ${lyneg} ${lypos} ${lzneg} ${lzpos} units lattice
region		myregion block 0 ${lxpos} ${lyneg} ${lypos} ${lzneg} ${lzpos} units lattice
region		myregion block 0 2 ${lyneg} ${lypos} ${lzneg} ${lzpos} units lattice
region		myregion block 0 2 -15 ${lypos} ${lzneg} ${lzpos} units lattice
region		myregion block 0 2 -15 15 ${lzneg} ${lzpos} units lattice
region		myregion block 0 2 -15 15 0 ${lzpos} units lattice
region		myregion block 0 2 -15 15 0 2 units lattice
create_box	1 myregion
Created orthogonal box = (0 -36.7425 0) to (6.92823 36.7425 4.00001)
  1 by 1 by 1 MPI processor grid
create_atoms	1 box
Created 2912 atoms

# define masses
mass * $m
mass * 1

# my fake/morse potential
pair_style      table linear 3001
pair_coeff      * * vpotential_inter43dnorm dummy
neighbor	0.3 bin
neigh_modify	delay 5

# define groups. Nudge to separate planes cleanly
region	    upper block INF INF 0.01 ${lypos} INF INF units lattice
region	    upper block INF INF 0.01 15 INF INF units lattice
group		upper region upper
1440 atoms in group upper

# Setup output
thermo 1
thermo_style custom step temp pe lx ly lz
thermo_modify norm no

# Compute initial state by relaxing box
min_style ${style}
min_style hftn
minimize ${etol} ${ftol} ${maxiter} ${maxeval}
minimize 1e-12 ${ftol} ${maxiter} ${maxeval}
minimize 1e-12 1e-08 ${maxiter} ${maxeval}
minimize 1e-12 1e-08 10000 ${maxeval}
minimize 1e-12 1e-08 10000 20000
WARNING: Resetting reneighboring criteria during minimization (../min.cpp:168)
Memory usage per processor = 5.2861 Mbytes
Step Temp PotEng Lx Ly Lz 
       0            0    -17375.98    6.9282254    73.499624    4.0000128 
       1            0    -17375.98    6.9282254    73.499624    4.0000128 
       2            0    -17375.98    6.9282254    73.499624    4.0000128 
       3            0    -17375.98    6.9282254    73.499624    4.0000128 
       4            0    -17375.98    6.9282254    73.499624    4.0000128 
       5            0    -17375.98    6.9282254    73.499624    4.0000128 
       6            0    -17375.98    6.9282254    73.499624    4.0000128 
       7            0    -17375.98    6.9282254    73.499624    4.0000128 
       8            0    -17375.98    6.9282254    73.499624    4.0000128 
       9            0    -17375.98    6.9282254    73.499624    4.0000128 
Loop time of 0.545037 on 1 procs for 8 steps with 2912 atoms

Minimization stats:
  Stopping criterion = energy tolerance
  Energy initial, next-to-last, final = 
        -17375.9798394     -17375.9798394     -17375.9798394
  Force two-norm initial, final = 0.00609867 0.00609591
  Force max component initial, final = 0.000762334 0.000761988
  Final line search alpha, max atom move = 0 0
  Iterations, force evaluations = 8 189

Pair  time (%) = 0.495129 (90.8432)
Neigh time (%) = 0 (0)
Comm  time (%) = 0.0129688 (2.37944)
Outpt time (%) = 0.000784786 (0.143988)
Other time (%) = 0.0361546 (6.63341)

Nlocal:    2912 ave 2912 max 2912 min
Histogram: 1 0 0 0 0 0 0 0 0 0
Nghost:    7129 ave 7129 max 7129 min
Histogram: 1 0 0 0 0 0 0 0 0 0
Neighs:    112224 ave 112224 max 112224 min
Histogram: 1 0 0 0 0 0 0 0 0 0

Total # of neighbors = 112224
Ave neighs/atom = 38.5385
Neighbor list builds = 0
Dangerous builds = 0

# don't allow atoms to relax in x- and y-directions
fix 2 all setforce 0.0 NULL 0.0

# GSF energy curve will have 100*2 steps
variable nsteps equal 100
# first partial is parallel to x-axis
variable angle1 equal 0
# second partial is at 60 degrees to first partial
variable angle2 equal PI/180*60
# partial dislocations have length a*sqrt(6)/6
variable sstep1 equal sqrt(6)/6
variable sstep2 equal sqrt(6)/6
variable xstep1 equal cos(${angle1})*${sstep1}/(${ax}*${nsteps})
variable xstep1 equal cos(0)*${sstep1}/(${ax}*${nsteps})
variable xstep1 equal cos(0)*0.408248290463863/(${ax}*${nsteps})
variable xstep1 equal cos(0)*0.408248290463863/(2.44948974278318*${nsteps})
variable xstep1 equal cos(0)*0.408248290463863/(2.44948974278318*100)
variable zstep1 equal sin(${angle1})*${sstep1}/(${az}*${nsteps})
variable zstep1 equal sin(0)*${sstep1}/(${az}*${nsteps})
variable zstep1 equal sin(0)*0.408248290463863/(${az}*${nsteps})
variable zstep1 equal sin(0)*0.408248290463863/(1.4142135623731*${nsteps})
variable zstep1 equal sin(0)*0.408248290463863/(1.4142135623731*100)
variable xstep2 equal cos(${angle2})*${sstep2}/(${ax}*${nsteps})
variable xstep2 equal cos(1.0471975511966)*${sstep2}/(${ax}*${nsteps})
variable xstep2 equal cos(1.0471975511966)*0.408248290463863/(${ax}*${nsteps})
variable xstep2 equal cos(1.0471975511966)*0.408248290463863/(2.44948974278318*${nsteps})
variable xstep2 equal cos(1.0471975511966)*0.408248290463863/(2.44948974278318*100)
variable zstep2 equal sin(${angle2})*${sstep2}/(${az}*${nsteps})
variable zstep2 equal sin(1.0471975511966)*${sstep2}/(${az}*${nsteps})
variable zstep2 equal sin(1.0471975511966)*0.408248290463863/(${az}*${nsteps})
variable zstep2 equal sin(1.0471975511966)*0.408248290463863/(1.4142135623731*${nsteps})
variable zstep2 equal sin(1.0471975511966)*0.408248290463863/(1.4142135623731*100)

variable i loop ${nsteps}
variable i loop 100
label loop1
        displace_atoms upper move ${xstep1} 0.0 ${zstep1} units lattice
        displace_atoms upper move 0.00166666666666667 0.0 ${zstep1} units lattice
        displace_atoms upper move 0.00166666666666667 0.0 0 units lattice
        min_style ${style}
        min_style hftn
        minimize ${etol} ${ftol} ${maxiter} ${maxeval}
        minimize 1e-12 ${ftol} ${maxiter} ${maxeval}
        minimize 1e-12 1e-08 ${maxiter} ${maxeval}
        minimize 1e-12 1e-08 10000 ${maxeval}
        minimize 1e-12 1e-08 10000 20000
WARNING: Resetting reneighboring criteria during minimization (../min.cpp:168)
Memory usage per processor = 5.2861 Mbytes
Step Temp PotEng Lx Ly Lz 
       9            0   -17375.952    6.9282254    73.499624    4.0000128 
      10            0   -17375.952    6.9282254    73.499624    4.0000128 
      11            0   -17375.952    6.9282254    73.499624    4.0000128 
      12            0   -17375.952    6.9282254    73.499624    4.0000128 
      13            0   -17375.952    6.9282254    73.499624    4.0000128 
      14            0   -17375.952    6.9282254    73.499624    4.0000128 
      15            0   -17375.952    6.9282254    73.499624    4.0000128 
      16            0   -17375.952    6.9282254    73.499624    4.0000128 
      17            0   -17375.952    6.9282254    73.499624    4.0000128 
Loop time of 0.283012 on 1 procs for 7 steps with 2912 atoms

Minimization stats:
  Stopping criterion = energy tolerance
  Energy initial, next-to-last, final = 
        -17375.9515433     -17375.9515433     -17375.9515433
  Force two-norm initial, final = 0.109461 0.109449
  Force max component initial, final = 0.0136614 0.0136599
  Final line search alpha, max atom move = 0 0
  Iterations, force evaluations = 7 102

Pair  time (%) = 0.262465 (92.7398)
Neigh time (%) = 0 (0)
Comm  time (%) = 0.00560586 (1.98079)
Outpt time (%) = 0.000701146 (0.247744)
Other time (%) = 0.0142401 (5.03162)

Nlocal:    2912 ave 2912 max 2912 min
Histogram: 1 0 0 0 0 0 0 0 0 0
Nghost:    7129 ave 7129 max 7129 min
Histogram: 1 0 0 0 0 0 0 0 0 0
Neighs:    112224 ave 112224 max 112224 min
Histogram: 1 0 0 0 0 0 0 0 0 0

Total # of neighbors = 112224
Ave neighs/atom = 38.5385
Neighbor list builds = 0
Dangerous builds = 0
        next i
jump SELF loop1
        displace_atoms upper move ${xstep1} 0.0 ${zstep1} units lattice
        displace_atoms upper move 0.00166666666666667 0.0 ${zstep1} units lattice
        displace_atoms upper move 0.00166666666666667 0.0 0 units lattice
        min_style ${style}
        min_style hftn
        minimize ${etol} ${ftol} ${maxiter} ${maxeval}
        minimize 1e-12 ${ftol} ${maxiter} ${maxeval}
        minimize 1e-12 1e-08 ${maxiter} ${maxeval}
        minimize 1e-12 1e-08 10000 ${maxeval}
        minimize 1e-12 1e-08 10000 20000
WARNING: Resetting reneighboring criteria during minimization (../min.cpp:168)
Memory usage per processor = 5.2861 Mbytes
Step Temp PotEng Lx Ly Lz 
      17            0   -17375.869    6.9282254    73.499624    4.0000128 
      18            0   -17375.869    6.9282254    73.499624    4.0000128 
      19            0   -17375.869    6.9282254    73.499624    4.0000128 
      20            0   -17375.869    6.9282254    73.499624    4.0000128 
      21            0   -17375.869    6.9282254    73.499624    4.0000128 
      22            0   -17375.869    6.9282254    73.499624    4.0000128 
      23            0   -17375.869    6.9282254    73.499624    4.0000128 
      24            0   -17375.869    6.9282254    73.499624    4.0000128 
      25            0   -17375.869    6.9282254    73.499624    4.0000128 
Loop time of 0.233748 on 1 procs for 7 steps with 2912 atoms

Minimization stats:
  Stopping criterion = energy tolerance
  Energy initial, next-to-last, final = 
        -17375.8694319     -17375.8694319     -17375.8694319
  Force two-norm initial, final = 0.424444 0.424433
  Force max component initial, final = 0.05305 0.0530487
  Final line search alpha, max atom move = 0 0
  Iterations, force evaluations = 7 62

Pair  time (%) = 0.210136 (89.8983)
Neigh time (%) = 0 (0)
Comm  time (%) = 0.00633751 (2.71126)
Outpt time (%) = 0.00700707 (2.9977)
Other time (%) = 0.0102679 (4.3927)

Nlocal:    2912 ave 2912 max 2912 min
Histogram: 1 0 0 0 0 0 0 0 0 0
Nghost:    7264 ave 7264 max 7264 min
Histogram: 1 0 0 0 0 0 0 0 0 0
Neighs:    112224 ave 112224 max 112224 min
Histogram: 1 0 0 0 0 0 0 0 0 0

Total # of neighbors = 112224
Ave neighs/atom = 38.5385
Neighbor list builds = 0
Dangerous builds = 0
        next i
jump SELF loop1
        displace_atoms upper move ${xstep1} 0.0 ${zstep1} units lattice
        displace_atoms upper move 0.00166666666666667 0.0 ${zstep1} units lattice
        displace_atoms upper move 0.00166666666666667 0.0 0 units lattice
        min_style ${style}
        min_style hftn
        minimize ${etol} ${ftol} ${maxiter} ${maxeval}
        minimize 1e-12 ${ftol} ${maxiter} ${maxeval}
        minimize 1e-12 1e-08 ${maxiter} ${maxeval}
        minimize 1e-12 1e-08 10000 ${maxeval}
        minimize 1e-12 1e-08 10000 20000
WARNING: Resetting reneighboring criteria during minimization (../min.cpp:168)
Memory usage per processor = 5.2861 Mbytes
Step Temp PotEng Lx Ly Lz 
      25            0   -17375.735    6.9282254    73.499624    4.0000128 
      26            0   -17375.735    6.9282254    73.499624    4.0000128 
      27            0   -17375.735    6.9282254    73.499624    4.0000128 
      28            0   -17375.735    6.9282254    73.499624    4.0000128 
      29            0   -17375.735    6.9282254    73.499624    4.0000128 
      30            0   -17375.735    6.9282254    73.499624    4.0000128 
      31            0   -17375.735    6.9282254    73.499624    4.0000128 
      32            0   -17375.735    6.9282254    73.499624    4.0000128 
      33            0   -17375.735    6.9282254    73.499624    4.0000128 
      34            0   -17375.735    6.9282254    73.499624    4.0000128 
      35            0   -17375.735    6.9282254    73.499624    4.0000128 
      36            0   -17375.735    6.9282254    73.499624    4.0000128 
      37            0   -17375.735    6.9282254    73.499624    4.0000128 
      38            0   -17375.735    6.9282254    73.499624    4.0000128 
      39            0   -17375.735    6.9282254    73.499624    4.0000128 
      40            0   -17375.735    6.9282254    73.499624    4.0000128 
      41            0   -17375.735    6.9282254    73.499624    4.0000128 
      42            0   -17375.735    6.9282254    73.499624    4.0000128 
Loop time of 0.331842 on 1 procs for 16 steps with 2912 atoms

Minimization stats:
  Stopping criterion = energy tolerance
  Energy initial, next-to-last, final = 
        -17375.7345948     -17375.7349906     -17375.7349934
  Force two-norm initial, final = 0.941728 0.332754
  Force max component initial, final = 0.117713 0.0354725
  Final line search alpha, max atom move = 0 0
  Iterations, force evaluations = 16 113

Pair  time (%) = 0.308117 (92.8505)
Neigh time (%) = 0 (0)
Comm  time (%) = 0.00804714 (2.42499)
Outpt time (%) = 0.00268707 (0.809745)
Other time (%) = 0.0129908 (3.91475)

Nlocal:    2912 ave 2912 max 2912 min
Histogram: 1 0 0 0 0 0 0 0 0 0
Nghost:    7264 ave 7264 max 7264 min
Histogram: 1 0 0 0 0 0 0 0 0 0
Neighs:    112224 ave 112224 max 112224 min
Histogram: 1 0 0 0 0 0 0 0 0 0

Total # of neighbors = 112224
Ave neighs/atom = 38.5385
Neighbor list builds = 0
Dangerous builds = 0
        next i
jump SELF loop1
        displace_atoms upper move ${xstep1} 0.0 ${zstep1} units lattice
        displace_atoms upper move 0.00166666666666667 0.0 ${zstep1} units lattice
        displace_atoms upper move 0.00166666666666667 0.0 0 units lattice
        min_style ${style}
        min_style hftn
        minimize ${etol} ${ftol} ${maxiter} ${maxeval}
        minimize 1e-12 ${ftol} ${maxiter} ${maxeval}
        minimize 1e-12 1e-08 ${maxiter} ${maxeval}
        minimize 1e-12 1e-08 10000 ${maxeval}
        minimize 1e-12 1e-08 10000 20000
WARNING: Resetting reneighboring criteria during minimization (../min.cpp:168)
Memory usage per processor = 5.2861 Mbytes
Step Temp PotEng Lx Ly Lz 
      42            0   -17375.551    6.9282254    73.499622    4.0000128 
      43            0   -17375.551    6.9282254    73.499622    4.0000128 
      44            0   -17375.552    6.9282254    73.499622    4.0000128 
      45            0   -17375.552    6.9282254    73.499622    4.0000128 
      46            0   -17375.552    6.9282254    73.499622    4.0000128 
      47            0   -17375.552    6.9282254    73.499622    4.0000128 
      48            0   -17375.552    6.9282254    73.499622    4.0000128 
      49            0   -17375.552    6.9282254    73.499622    4.0000128 
      50            0   -17375.552    6.9282254    73.499622    4.0000128 
      51            0   -17375.552    6.9282254    73.499622    4.0000128 
      52            0   -17375.552    6.9282254    73.499622    4.0000128 
Loop time of 0.227341 on 1 procs for 9 steps with 2912 atoms

Minimization stats:
  Stopping criterion = energy tolerance
  Energy initial, next-to-last, final = 
        -17375.5511928     -17375.5511928     -17375.5518007
  Force two-norm initial, final = 1.00238 0.402495
  Force max component initial, final = 0.1234 0.0481629
  Final line search alpha, max atom move = 0 0
  Iterations, force evaluations = 9 82

Pair  time (%) = 0.210306 (92.507)
Neigh time (%) = 0 (0)
Comm  time (%) = 0.00610166 (2.68392)
Outpt time (%) = 0.000970981 (0.427103)
Other time (%) = 0.00996191 (4.38192)

Nlocal:    2912 ave 2912 max 2912 min
Histogram: 1 0 0 0 0 0 0 0 0 0
Nghost:    7264 ave 7264 max 7264 min
Histogram: 1 0 0 0 0 0 0 0 0 0
Neighs:    112224 ave 112224 max 112224 min
Histogram: 1 0 0 0 0 0 0 0 0 0

Total # of neighbors = 112224
Ave neighs/atom = 38.5385
Neighbor list builds = 0
Dangerous builds = 0
        next i
jump SELF loop1
        displace_atoms upper move ${xstep1} 0.0 ${zstep1} units lattice
        displace_atoms upper move 0.00166666666666667 0.0 ${zstep1} units lattice
        displace_atoms upper move 0.00166666666666667 0.0 0 units lattice
        min_style ${style}
        min_style hftn
        minimize ${etol} ${ftol} ${maxiter} ${maxeval}
        minimize 1e-12 ${ftol} ${maxiter} ${maxeval}
        minimize 1e-12 1e-08 ${maxiter} ${maxeval}
        minimize 1e-12 1e-08 10000 ${maxeval}
        minimize 1e-12 1e-08 10000 20000
WARNING: Resetting reneighboring criteria during minimization (../min.cpp:168)
Memory usage per processor = 5.2861 Mbytes
Step Temp PotEng Lx Ly Lz 
      52            0   -17375.322    6.9282254     73.49962    4.0000128 
      53            0   -17375.323    6.9282254     73.49962    4.0000128 
      54            0   -17375.326    6.9282254     73.49962    4.0000128 
      55            0   -17375.326    6.9282254     73.49962    4.0000128 
      56            0   -17375.326    6.9282254     73.49962    4.0000128 
Loop time of 1.4238 on 1 procs for 3 steps with 2912 atoms

Minimization stats:
  Stopping criterion = force tolerance
  Energy initial, next-to-last, final = 
        -17375.3223872     -17375.3255593     -17375.3255794
  Force two-norm initial, final = 1.04744 3.38162e-11
  Force max component initial, final = 0.121475 2.57639e-12
  Final line search alpha, max atom move = 0 0
  Iterations, force evaluations = 3 499

Pair  time (%) = 1.31495 (92.3551)
Neigh time (%) = 0 (0)
Comm  time (%) = 0.0284185 (1.99596)
Outpt time (%) = 0.000299992 (0.0210699)
Other time (%) = 0.0801298 (5.6279)

Nlocal:    2912 ave 2912 max 2912 min
Histogram: 1 0 0 0 0 0 0 0 0 0
Nghost:    7264 ave 7264 max 7264 min
Histogram: 1 0 0 0 0 0 0 0 0 0
Neighs:    112224 ave 112224 max 112224 min
Histogram: 1 0 0 0 0 0 0 0 0 0

Total # of neighbors = 112224
Ave neighs/atom = 38.5385
Neighbor list builds = 0
Dangerous builds = 0
        next i
jump SELF loop1
        displace_atoms upper move ${xstep1} 0.0 ${zstep1} units lattice
        displace_atoms upper move 0.00166666666666667 0.0 ${zstep1} units lattice
        displace_atoms upper move 0.00166666666666667 0.0 0 units lattice
        min_style ${style}
        min_style hftn
        minimize ${etol} ${ftol} ${maxiter} ${maxeval}
        minimize 1e-12 ${ftol} ${maxiter} ${maxeval}
        minimize 1e-12 1e-08 ${maxiter} ${maxeval}
        minimize 1e-12 1e-08 10000 ${maxeval}
        minimize 1e-12 1e-08 10000 20000
WARNING: Resetting reneighboring criteria during minimization (../min.cpp:168)
Memory usage per processor = 5.2861 Mbytes
Step Temp PotEng Lx Ly Lz 
      56            0   -17375.055    6.9282254    73.500775    4.0000128 
      57            0   -17375.055    6.9282254    73.500775    4.0000128 
      58            0   -17375.055    6.9282254    73.500775    4.0000128 
      59            0   -17375.055    6.9282254    73.500775    4.0000128 
      60            0   -17375.056    6.9282254    73.500775    4.0000128 
      61            0   -17375.056    6.9282254    73.500775    4.0000128 
      62            0   -17375.056    6.9282254    73.500775    4.0000128 
      63            0   -17375.056    6.9282254    73.500775    4.0000128 
      64            0   -17375.056    6.9282254    73.500775    4.0000128 
      65            0   -17375.056    6.9282254    73.500775    4.0000128 
      66            0   -17375.056    6.9282254    73.500775    4.0000128 
      67            0   -17375.056    6.9282254    73.500775    4.0000128 
      68            0   -17375.056    6.9282254    73.500775    4.0000128 
      69            0   -17375.056    6.9282254    73.500775    4.0000128 
      70            0   -17375.056    6.9282254    73.500775    4.0000128 
Loop time of 0.281097 on 1 procs for 13 steps with 2912 atoms

Minimization stats:
  Stopping criterion = energy tolerance
  Energy initial, next-to-last, final = 
        -17375.0549157     -17375.0556184     -17375.0556198
  Force two-norm initial, final = 1.03085 0.370167
  Force max component initial, final = 0.128856 0.0393018
  Final line search alpha, max atom move = 0 0
  Iterations, force evaluations = 13 98

Pair  time (%) = 0.26017 (92.5553)
Neigh time (%) = 0 (0)
Comm  time (%) = 0.00842727 (2.99799)
Outpt time (%) = 0.00118718 (0.422337)
Other time (%) = 0.0113124 (4.02439)

Nlocal:    2912 ave 2912 max 2912 min
Histogram: 1 0 0 0 0 0 0 0 0 0
Nghost:    7264 ave 7264 max 7264 min
Histogram: 1 0 0 0 0 0 0 0 0 0
Neighs:    112224 ave 112224 max 112224 min
Histogram: 1 0 0 0 0 0 0 0 0 0

Total # of neighbors = 112224
Ave neighs/atom = 38.5385
Neighbor list builds = 0
Dangerous builds = 0
        next i
jump SELF loop1
        displace_atoms upper move ${xstep1} 0.0 ${zstep1} units lattice
        displace_atoms upper move 0.00166666666666667 0.0 ${zstep1} units lattice
        displace_atoms upper move 0.00166666666666667 0.0 0 units lattice
        min_style ${style}
        min_style hftn
        minimize ${etol} ${ftol} ${maxiter} ${maxeval}
        minimize 1e-12 ${ftol} ${maxiter} ${maxeval}
        minimize 1e-12 1e-08 ${maxiter} ${maxeval}
        minimize 1e-12 1e-08 10000 ${maxeval}
        minimize 1e-12 1e-08 10000 20000
WARNING: Resetting reneighboring criteria during minimization (../min.cpp:168)
Memory usage per processor = 5.2861 Mbytes
Step Temp PotEng Lx Ly Lz 
      70            0   -17374.744    6.9282254    73.500775    4.0000128 
      71            0   -17374.746    6.9282254    73.500775    4.0000128 
      72            0   -17374.749    6.9282254    73.500775    4.0000128 
      73            0   -17374.749    6.9282254    73.500775    4.0000128 
      74            0   -17374.749    6.9282254    73.500775    4.0000128 
Loop time of 1.3641 on 1 procs for 3 steps with 2912 atoms

Minimization stats:
  Stopping criterion = force tolerance
  Energy initial, next-to-last, final = 
        -17374.7444252       -17374.74872      -17374.748739
  Force two-norm initial, final = 1.50941 3.20465e-10
  Force max component initial, final = 0.187089 2.70779e-11
  Final line search alpha, max atom move = 0 0
  Iterations, force evaluations = 3 481

Pair  time (%) = 1.26491 (92.7281)
Neigh time (%) = 0 (0)
Comm  time (%) = 0.0188611 (1.38267)
Outpt time (%) = 0.000502096 (0.0368077)
Other time (%) = 0.0798326 (5.85238)

Nlocal:    2912 ave 2912 max 2912 min
Histogram: 1 0 0 0 0 0 0 0 0 0
Nghost:    7264 ave 7264 max 7264 min
Histogram: 1 0 0 0 0 0 0 0 0 0
Neighs:    112224 ave 112224 max 112224 min
Histogram: 1 0 0 0 0 0 0 0 0 0

Total # of neighbors = 112224
Ave neighs/atom = 38.5385
Neighbor list builds = 0
Dangerous builds = 0
        next i
jump SELF loop1
        displace_atoms upper move ${xstep1} 0.0 ${zstep1} units lattice
        displace_atoms upper move 0.00166666666666667 0.0 ${zstep1} units lattice
        displace_atoms upper move 0.00166666666666667 0.0 0 units lattice
        min_style ${style}
        min_style hftn
        minimize ${etol} ${ftol} ${maxiter} ${maxeval}
        minimize 1e-12 ${ftol} ${maxiter} ${maxeval}
        minimize 1e-12 1e-08 ${maxiter} ${maxeval}
        minimize 1e-12 1e-08 10000 ${maxeval}
        minimize 1e-12 1e-08 10000 20000
WARNING: Resetting reneighboring criteria during minimization (../min.cpp:168)
Memory usage per processor = 5.2861 Mbytes
Step Temp PotEng Lx Ly Lz 
      74            0   -17374.404    6.9282254    73.502068    4.0000128 
      75            0   -17374.404    6.9282254    73.502068    4.0000128 
      76            0   -17374.406    6.9282254    73.502068    4.0000128 
      77            0   -17374.406    6.9282254    73.502068    4.0000128 
      78            0   -17374.406    6.9282254    73.502068    4.0000128 
Loop time of 1.32641 on 1 procs for 3 steps with 2912 atoms

Minimization stats:
  Stopping criterion = force tolerance
  Energy initial, next-to-last, final = 
        -17374.4039355     -17374.4058038     -17374.4058329
  Force two-norm initial, final = 1.30614 7.34689e-11
  Force max component initial, final = 0.163267 5.13332e-12
  Final line search alpha, max atom move = 0 0
  Iterations, force evaluations = 3 482

Pair  time (%) = 1.22525 (92.3733)
Neigh time (%) = 0 (0)
Comm  time (%) = 0.0281915 (2.1254)
Outpt time (%) = 0.000541027 (0.0407888)
Other time (%) = 0.072429 (5.46052)

Nlocal:    2912 ave 2912 max 2912 min
Histogram: 1 0 0 0 0 0 0 0 0 0
Nghost:    7264 ave 7264 max 7264 min
Histogram: 1 0 0 0 0 0 0 0 0 0
Neighs:    112224 ave 112224 max 112224 min
Histogram: 1 0 0 0 0 0 0 0 0 0

Total # of neighbors = 112224
Ave neighs/atom = 38.5385
Neighbor list builds = 0
Dangerous builds = 0
        next i
jump SELF loop1
        displace_atoms upper move ${xstep1} 0.0 ${zstep1} units lattice
        displace_atoms upper move 0.00166666666666667 0.0 ${zstep1} units lattice
        displace_atoms upper move 0.00166666666666667 0.0 0 units lattice
        min_style ${style}
        min_style hftn
        minimize ${etol} ${ftol} ${maxiter} ${maxeval}
        minimize 1e-12 ${ftol} ${maxiter} ${maxeval}
        minimize 1e-12 1e-08 ${maxiter} ${maxeval}
        minimize 1e-12 1e-08 10000 ${maxeval}
        minimize 1e-12 1e-08 10000 20000
WARNING: Resetting reneighboring criteria during minimization (../min.cpp:168)
Memory usage per processor = 5.2861 Mbytes
Step Temp PotEng Lx Ly Lz 
      78            0   -17374.029    6.9282254    73.502836    4.0000128 
      79            0   -17374.029    6.9282254    73.502836    4.0000128 
      80            0   -17374.031    6.9282254    73.502836    4.0000128 
      81            0   -17374.031    6.9282254    73.502836    4.0000128 
      82            0   -17374.031    6.9282254    73.502836    4.0000128 
Loop time of 1.29008 on 1 procs for 3 steps with 2912 atoms

Minimization stats:
  Stopping criterion = force tolerance
  Energy initial, next-to-last, final = 
        -17374.0287113     -17374.0310985     -17374.0311304
  Force two-norm initial, final = 1.42498 8.13782e-11
  Force max component initial, final = 0.178123 5.83332e-12
  Final line search alpha, max atom move = 0 0
  Iterations, force evaluations = 3 482

Pair  time (%) = 1.19383 (92.5396)
Neigh time (%) = 0 (0)
Comm  time (%) = 0.0207642 (1.60953)
Outpt time (%) = 0.000352168 (0.0272982)
Other time (%) = 0.075129 (5.82361)

Nlocal:    2912 ave 2912 max 2912 min
Histogram: 1 0 0 0 0 0 0 0 0 0
Nghost:    7264 ave 7264 max 7264 min
Histogram: 1 0 0 0 0 0 0 0 0 0
Neighs:    112224 ave 112224 max 112224 min
Histogram: 1 0 0 0 0 0 0 0 0 0

Total # of neighbors = 112224
Ave neighs/atom = 38.5385
Neighbor list builds = 0
Dangerous builds = 0
        next i
jump SELF loop1
        displace_atoms upper move ${xstep1} 0.0 ${zstep1} units lattice
        displace_atoms upper move 0.00166666666666667 0.0 ${zstep1} units lattice
        displace_atoms upper move 0.00166666666666667 0.0 0 units lattice
        min_style ${style}
        min_style hftn
        minimize ${etol} ${ftol} ${maxiter} ${maxeval}
        minimize 1e-12 ${ftol} ${maxiter} ${maxeval}
        minimize 1e-12 1e-08 ${maxiter} ${maxeval}
        minimize 1e-12 1e-08 10000 ${maxeval}
        minimize 1e-12 1e-08 10000 20000
WARNING: Resetting reneighboring criteria during minimization (../min.cpp:168)
Memory usage per processor = 5.2861 Mbytes
Step Temp PotEng Lx Ly Lz 
      82            0   -17373.625    6.9282254    73.503674    4.0000128 
      83            0   -17373.626    6.9282254    73.503674    4.0000128 
      84            0   -17373.628    6.9282254    73.503674    4.0000128 
      85            0   -17373.628    6.9282254    73.503674    4.0000128 
      86            0   -17373.628    6.9282254    73.503674    4.0000128 
Loop time of 1.345 on 1 procs for 3 steps with 2912 atoms

Minimization stats:
  Stopping criterion = force tolerance
  Energy initial, next-to-last, final = 
        -17373.6253387     -17373.6282263     -17373.6282605
  Force two-norm initial, final = 1.52862 9.1592e-11
  Force max component initial, final = 0.191078 5.59026e-12
  Final line search alpha, max atom move = 0 0
  Iterations, force evaluations = 3 485

Pair  time (%) = 1.24997 (92.9345)
Neigh time (%) = 0 (0)
Comm  time (%) = 0.0197324 (1.46709)
Outpt time (%) = 0.000281758 (0.0209485)
Other time (%) = 0.0750165 (5.57743)

Nlocal:    2912 ave 2912 max 2912 min
Histogram: 1 0 0 0 0 0 0 0 0 0
Nghost:    7264 ave 7264 max 7264 min
Histogram: 1 0 0 0 0 0 0 0 0 0
Neighs:    112224 ave 112224 max 112224 min
Histogram: 1 0 0 0 0 0 0 0 0 0

Total # of neighbors = 112224
Ave neighs/atom = 38.5385
Neighbor list builds = 0
Dangerous builds = 0
        next i
jump SELF loop1
        displace_atoms upper move ${xstep1} 0.0 ${zstep1} units lattice
        displace_atoms upper move 0.00166666666666667 0.0 ${zstep1} units lattice
        displace_atoms upper move 0.00166666666666667 0.0 0 units lattice
        min_style ${style}
        min_style hftn
        minimize ${etol} ${ftol} ${maxiter} ${maxeval}
        minimize 1e-12 ${ftol} ${maxiter} ${maxeval}
        minimize 1e-12 1e-08 ${maxiter} ${maxeval}
        minimize 1e-12 1e-08 10000 ${maxeval}
        minimize 1e-12 1e-08 10000 20000
WARNING: Resetting reneighboring criteria during minimization (../min.cpp:168)
Memory usage per processor = 5.2861 Mbytes
Step Temp PotEng Lx Ly Lz 
      86            0   -17373.197    6.9282254    73.504574    4.0000128 
      87            0   -17373.198    6.9282254    73.504574    4.0000128 
      88            0     -17373.2    6.9282254    73.504574    4.0000128 
      89            0     -17373.2    6.9282254    73.504574    4.0000128 
      90            0     -17373.2    6.9282254    73.504574    4.0000128 
Loop time of 1.30402 on 1 procs for 3 steps with 2912 atoms

Minimization stats:
  Stopping criterion = force tolerance
  Energy initial, next-to-last, final = 
        -17373.1969425     -17373.1998928     -17373.1999272
  Force two-norm initial, final = 1.6198 1.02583e-10
  Force max component initial, final = 0.202475 6.63053e-12
  Final line search alpha, max atom move = 0 0
  Iterations, force evaluations = 3 484

Pair  time (%) = 1.21017 (92.8028)
Neigh time (%) = 0 (0)
Comm  time (%) = 0.021036 (1.61316)
Outpt time (%) = 0.000530883 (0.0407112)
Other time (%) = 0.0722862 (5.54333)

Nlocal:    2912 ave 2912 max 2912 min
Histogram: 1 0 0 0 0 0 0 0 0 0
Nghost:    7264 ave 7264 max 7264 min
Histogram: 1 0 0 0 0 0 0 0 0 0
Neighs:    112224 ave 112224 max 112224 min
Histogram: 1 0 0 0 0 0 0 0 0 0

Total # of neighbors = 112224
Ave neighs/atom = 38.5385
Neighbor list builds = 0
Dangerous builds = 0
        next i
jump SELF loop1
        displace_atoms upper move ${xstep1} 0.0 ${zstep1} units lattice
        displace_atoms upper move 0.00166666666666667 0.0 ${zstep1} units lattice
        displace_atoms upper move 0.00166666666666667 0.0 0 units lattice
        min_style ${style}
        min_style hftn
        minimize ${etol} ${ftol} ${maxiter} ${maxeval}
        minimize 1e-12 ${ftol} ${maxiter} ${maxeval}
        minimize 1e-12 1e-08 ${maxiter} ${maxeval}
        minimize 1e-12 1e-08 10000 ${maxeval}
        minimize 1e-12 1e-08 10000 20000
WARNING: Resetting reneighboring criteria during minimization (../min.cpp:168)
Memory usage per processor = 5.2861 Mbytes
Step Temp PotEng Lx Ly Lz 
      90            0   -17372.746    6.9282254     73.50553    4.0000128 
      91            0   -17372.747    6.9282254     73.50553    4.0000128 
      92            0   -17372.749    6.9282254     73.50553    4.0000128 
      93            0   -17372.749    6.9282254     73.50553    4.0000128 
      94            0   -17372.749    6.9282254     73.50553    4.0000128 
Loop time of 1.2917 on 1 procs for 3 steps with 2912 atoms

Minimization stats:
  Stopping criterion = force tolerance
  Energy initial, next-to-last, final = 
        -17372.7461199     -17372.7492982     -17372.7493279
  Force two-norm initial, final = 1.69853 4.67109e-11
  Force max component initial, final = 0.212316 4.01528e-12
  Final line search alpha, max atom move = 0 0
  Iterations, force evaluations = 3 484

Pair  time (%) = 1.18572 (91.7957)
Neigh time (%) = 0 (0)
Comm  time (%) = 0.0311664 (2.41282)
Outpt time (%) = 0.000336018 (0.0260137)
Other time (%) = 0.0744728 (5.76549)

Nlocal:    2912 ave 2912 max 2912 min
Histogram: 1 0 0 0 0 0 0 0 0 0
Nghost:    7264 ave 7264 max 7264 min
Histogram: 1 0 0 0 0 0 0 0 0 0
Neighs:    112224 ave 112224 max 112224 min
Histogram: 1 0 0 0 0 0 0 0 0 0

Total # of neighbors = 112224
Ave neighs/atom = 38.5385
Neighbor list builds = 0
Dangerous builds = 0
        next i
jump SELF loop1
        displace_atoms upper move ${xstep1} 0.0 ${zstep1} units lattice
        displace_atoms upper move 0.00166666666666667 0.0 ${zstep1} units lattice
        displace_atoms upper move 0.00166666666666667 0.0 0 units lattice
        min_style ${style}
        min_style hftn
        minimize ${etol} ${ftol} ${maxiter} ${maxeval}
        minimize 1e-12 ${ftol} ${maxiter} ${maxeval}
        minimize 1e-12 1e-08 ${maxiter} ${maxeval}
        minimize 1e-12 1e-08 10000 ${maxeval}
        minimize 1e-12 1e-08 10000 20000
WARNING: Resetting reneighboring criteria during minimization (../min.cpp:168)
Memory usage per processor = 5.2861 Mbytes
Step Temp PotEng Lx Ly Lz 
      94            0   -17372.276    6.9282254    73.506535    4.0000128 
      95            0   -17372.277    6.9282254    73.506535    4.0000128 
      96            0   -17372.279    6.9282254    73.506535    4.0000128 
      97            0   -17372.279    6.9282254    73.506535    4.0000128 
      98            0   -17372.279    6.9282254    73.506535    4.0000128 
Loop time of 1.28069 on 1 procs for 3 steps with 2912 atoms

Minimization stats:
  Stopping criterion = force tolerance
  Energy initial, next-to-last, final = 
        -17372.2759151     -17372.2786671        -17372.2787
  Force two-norm initial, final = 1.60709 5.62425e-11
  Force max component initial, final = 0.200886 4.06389e-12
  Final line search alpha, max atom move = 0 0
  Iterations, force evaluations = 3 482

Pair  time (%) = 1.17737 (91.9326)
Neigh time (%) = 0 (0)
Comm  time (%) = 0.0224051 (1.74945)
Outpt time (%) = 0.00029398 (0.0229548)
Other time (%) = 0.080619 (6.29495)

Nlocal:    2912 ave 2912 max 2912 min
Histogram: 1 0 0 0 0 0 0 0 0 0
Nghost:    7264 ave 7264 max 7264 min
Histogram: 1 0 0 0 0 0 0 0 0 0
Neighs:    112224 ave 112224 max 112224 min
Histogram: 1 0 0 0 0 0 0 0 0 0

Total # of neighbors = 112224
Ave neighs/atom = 38.5385
Neighbor list builds = 0
Dangerous builds = 0
        next i
jump SELF loop1
        displace_atoms upper move ${xstep1} 0.0 ${zstep1} units lattice
        displace_atoms upper move 0.00166666666666667 0.0 ${zstep1} units lattice
        displace_atoms upper move 0.00166666666666667 0.0 0 units lattice
        min_style ${style}
        min_style hftn
        minimize ${etol} ${ftol} ${maxiter} ${maxeval}
        minimize 1e-12 ${ftol} ${maxiter} ${maxeval}
        minimize 1e-12 1e-08 ${maxiter} ${maxeval}
        minimize 1e-12 1e-08 10000 ${maxeval}
        minimize 1e-12 1e-08 10000 20000
WARNING: Resetting reneighboring criteria during minimization (../min.cpp:168)
Memory usage per processor = 5.2861 Mbytes
Step Temp PotEng Lx Ly Lz 
      98            0   -17371.776    6.9282254    73.507402    4.0000128 
      99            0   -17371.776    6.9282254    73.507402    4.0000128 
     100            0   -17371.776    6.9282254    73.507402    4.0000128 
     101            0   -17371.776    6.9282254    73.507402    4.0000128 
     102            0   -17371.776    6.9282254    73.507402    4.0000128 
     103            0   -17371.776    6.9282254    73.507402    4.0000128 
     104            0   -17371.776    6.9282254    73.507402    4.0000128 
     105            0   -17371.776    6.9282254    73.507402    4.0000128 
     106            0   -17371.776    6.9282254    73.507402    4.0000128 
     107            0   -17371.776    6.9282254    73.507402    4.0000128 
     108            0   -17371.776    6.9282254    73.507402    4.0000128 
Loop time of 0.208739 on 1 procs for 9 steps with 2912 atoms

Minimization stats:
  Stopping criterion = energy tolerance
  Energy initial, next-to-last, final = 
        -17371.7757383     -17371.7757383     -17371.7762128
  Force two-norm initial, final = 1.08935 0.576496
  Force max component initial, final = 0.136169 0.0688856
  Final line search alpha, max atom move = 0 0
  Iterations, force evaluations = 9 74

Pair  time (%) = 0.190093 (91.0672)
Neigh time (%) = 0 (0)
Comm  time (%) = 0.00644672 (3.08841)
Outpt time (%) = 0.00440194 (2.10883)
Other time (%) = 0.0077976 (3.73557)

Nlocal:    2912 ave 2912 max 2912 min
Histogram: 1 0 0 0 0 0 0 0 0 0
Nghost:    7264 ave 7264 max 7264 min
Histogram: 1 0 0 0 0 0 0 0 0 0
Neighs:    112224 ave 112224 max 112224 min
Histogram: 1 0 0 0 0 0 0 0 0 0

Total # of neighbors = 112224
Ave neighs/atom = 38.5385
Neighbor list builds = 0
Dangerous builds = 0
        next i
jump SELF loop1
        displace_atoms upper move ${xstep1} 0.0 ${zstep1} units lattice
        displace_atoms upper move 0.00166666666666667 0.0 ${zstep1} units lattice
        displace_atoms upper move 0.00166666666666667 0.0 0 units lattice
        min_style ${style}
        min_style hftn
        minimize ${etol} ${ftol} ${maxiter} ${maxeval}
        minimize 1e-12 ${ftol} ${maxiter} ${maxeval}
        minimize 1e-12 1e-08 ${maxiter} ${maxeval}
        minimize 1e-12 1e-08 10000 ${maxeval}
        minimize 1e-12 1e-08 10000 20000
WARNING: Resetting reneighboring criteria during minimization (../min.cpp:168)
Memory usage per processor = 5.2861 Mbytes
Step Temp PotEng Lx Ly Lz 
     108            0   -17371.238    6.9282254    73.507402    4.0000128 
     109            0   -17371.239    6.9282254    73.507402    4.0000128 
     110            0   -17371.242    6.9282254    73.507402    4.0000128 
     111            0   -17371.242    6.9282254    73.507402    4.0000128 
     112            0   -17371.242    6.9282254    73.507402    4.0000128 
Loop time of 1.28899 on 1 procs for 3 steps with 2912 atoms

Minimization stats:
  Stopping criterion = force tolerance
  Energy initial, next-to-last, final = 
        -17371.2378623     -17371.2419774     -17371.2420072
  Force two-norm initial, final = 1.7068 3.95826e-11
  Force max component initial, final = 0.212298 2.92601e-12
  Final line search alpha, max atom move = 0 0
  Iterations, force evaluations = 3 482

Pair  time (%) = 1.19743 (92.8971)
Neigh time (%) = 0 (0)
Comm  time (%) = 0.0184075 (1.42805)
Outpt time (%) = 0.000256789 (0.0199217)
Other time (%) = 0.0728913 (5.65492)

Nlocal:    2912 ave 2912 max 2912 min
Histogram: 1 0 0 0 0 0 0 0 0 0
Nghost:    7264 ave 7264 max 7264 min
Histogram: 1 0 0 0 0 0 0 0 0 0
Neighs:    112224 ave 112224 max 112224 min
Histogram: 1 0 0 0 0 0 0 0 0 0

Total # of neighbors = 112224
Ave neighs/atom = 38.5385
Neighbor list builds = 0
Dangerous builds = 0
        next i
jump SELF loop1
        displace_atoms upper move ${xstep1} 0.0 ${zstep1} units lattice
        displace_atoms upper move 0.00166666666666667 0.0 ${zstep1} units lattice
        displace_atoms upper move 0.00166666666666667 0.0 0 units lattice
        min_style ${style}
        min_style hftn
        minimize ${etol} ${ftol} ${maxiter} ${maxeval}
        minimize 1e-12 ${ftol} ${maxiter} ${maxeval}
        minimize 1e-12 1e-08 ${maxiter} ${maxeval}
        minimize 1e-12 1e-08 10000 ${maxeval}
        minimize 1e-12 1e-08 10000 20000
WARNING: Resetting reneighboring criteria during minimization (../min.cpp:168)
Memory usage per processor = 5.2861 Mbytes
Step Temp PotEng Lx Ly Lz 
     112            0   -17370.675    6.9282254    73.508595    4.0000128 
     113            0   -17370.675    6.9282254    73.508595    4.0000128 
     114            0   -17370.675    6.9282254    73.508595    4.0000128 
     115            0   -17370.675    6.9282254    73.508595    4.0000128 
     116            0   -17370.675    6.9282254    73.508595    4.0000128 
     117            0   -17370.675    6.9282254    73.508595    4.0000128 
     118            0   -17370.675    6.9282254    73.508595    4.0000128 
     119            0   -17370.675    6.9282254    73.508595    4.0000128 
     120            0   -17370.675    6.9282254    73.508595    4.0000128 
     121            0   -17370.675    6.9282254    73.508595    4.0000128 
     122            0   -17370.675    6.9282254    73.508595    4.0000128 
     123            0   -17370.675    6.9282254    73.508595    4.0000128 
Loop time of 0.232831 on 1 procs for 10 steps with 2912 atoms

Minimization stats:
  Stopping criterion = energy tolerance
  Energy initial, next-to-last, final = 
         -17370.674615      -17370.674615     -17370.6752155
  Force two-norm initial, final = 1.17493 0.62252
  Force max component initial, final = 0.146866 0.0744703
  Final line search alpha, max atom move = 0 0
  Iterations, force evaluations = 10 83

Pair  time (%) = 0.209554 (90.0027)
Neigh time (%) = 0 (0)
Comm  time (%) = 0.00679717 (2.91936)
Outpt time (%) = 0.00123307 (0.5296)
Other time (%) = 0.0152466 (6.54837)

Nlocal:    2912 ave 2912 max 2912 min
Histogram: 1 0 0 0 0 0 0 0 0 0
Nghost:    7264 ave 7264 max 7264 min
Histogram: 1 0 0 0 0 0 0 0 0 0
Neighs:    112160 ave 112160 max 112160 min
Histogram: 1 0 0 0 0 0 0 0 0 0

Total # of neighbors = 112160
Ave neighs/atom = 38.5165
Neighbor list builds = 0
Dangerous builds = 0
        next i
jump SELF loop1
        displace_atoms upper move ${xstep1} 0.0 ${zstep1} units lattice
        displace_atoms upper move 0.00166666666666667 0.0 ${zstep1} units lattice
        displace_atoms upper move 0.00166666666666667 0.0 0 units lattice
        min_style ${style}
        min_style hftn
        minimize ${etol} ${ftol} ${maxiter} ${maxeval}
        minimize 1e-12 ${ftol} ${maxiter} ${maxeval}
        minimize 1e-12 1e-08 ${maxiter} ${maxeval}
        minimize 1e-12 1e-08 10000 ${maxeval}
        minimize 1e-12 1e-08 10000 20000
WARNING: Resetting reneighboring criteria during minimization (../min.cpp:168)
Memory usage per processor = 5.2861 Mbytes
Step Temp PotEng Lx Ly Lz 
     123            0   -17370.076    6.9282254    73.508595    4.0000128 
     124            0   -17370.078    6.9282254    73.508595    4.0000128 
     125            0   -17370.081    6.9282254    73.508595    4.0000128 
     126            0   -17370.081    6.9282254    73.508595    4.0000128 
     127            0   -17370.081    6.9282254    73.508595    4.0000128 
Loop time of 1.31823 on 1 procs for 3 steps with 2912 atoms

Minimization stats:
  Stopping criterion = force tolerance
  Energy initial, next-to-last, final = 
        -17370.0758111     -17370.0805448     -17370.0805763
  Force two-norm initial, final = 1.8314 4.07187e-11
  Force max component initial, final = 0.22781 3.55833e-12
  Final line search alpha, max atom move = 0 0
  Iterations, force evaluations = 3 482

Pair  time (%) = 1.20896 (91.7107)
Neigh time (%) = 0 (0)
Comm  time (%) = 0.028046 (2.12755)
Outpt time (%) = 0.00692904 (0.525632)
Other time (%) = 0.0742971 (5.63612)

Nlocal:    2912 ave 2912 max 2912 min
Histogram: 1 0 0 0 0 0 0 0 0 0
Nghost:    7264 ave 7264 max 7264 min
Histogram: 1 0 0 0 0 0 0 0 0 0
Neighs:    112160 ave 112160 max 112160 min
Histogram: 1 0 0 0 0 0 0 0 0 0

Total # of neighbors = 112160
Ave neighs/atom = 38.5165
Neighbor list builds = 0
Dangerous builds = 0
        next i
jump SELF loop1
        displace_atoms upper move ${xstep1} 0.0 ${zstep1} units lattice
        displace_atoms upper move 0.00166666666666667 0.0 ${zstep1} units lattice
        displace_atoms upper move 0.00166666666666667 0.0 0 units lattice
        min_style ${style}
        min_style hftn
        minimize ${etol} ${ftol} ${maxiter} ${maxeval}
        minimize 1e-12 ${ftol} ${maxiter} ${maxeval}
        minimize 1e-12 1e-08 ${maxiter} ${maxeval}
        minimize 1e-12 1e-08 10000 ${maxeval}
        minimize 1e-12 1e-08 10000 20000
WARNING: Resetting reneighboring criteria during minimization (../min.cpp:168)
Memory usage per processor = 5.2861 Mbytes
Step Temp PotEng Lx Ly Lz 
     127            0   -17369.456    6.9282254    73.509861    4.0000128 
     128            0   -17369.456    6.9282254    73.509861    4.0000128 
     129            0   -17369.456    6.9282254    73.509861    4.0000128 
     130            0   -17369.456    6.9282254    73.509861    4.0000128 
     131            0   -17369.456    6.9282254    73.509861    4.0000128 
     132            0   -17369.456    6.9282254    73.509861    4.0000128 
     133            0   -17369.456    6.9282254    73.509861    4.0000128 
     134            0   -17369.456    6.9282254    73.509861    4.0000128 
     135            0   -17369.456    6.9282254    73.509861    4.0000128 
Loop time of 0.180255 on 1 procs for 7 steps with 2912 atoms

Minimization stats:
  Stopping criterion = energy tolerance
  Energy initial, next-to-last, final = 
        -17369.4564558     -17369.4564558     -17369.4564558
  Force two-norm initial, final = 1.24529 1.24514
  Force max component initial, final = 0.155661 0.155642
  Final line search alpha, max atom move = 0 0
  Iterations, force evaluations = 7 62

Pair  time (%) = 0.16495 (91.5095)
Neigh time (%) = 0 (0)
Comm  time (%) = 0.00239482 (1.32857)
Outpt time (%) = 0.00353283 (1.9599)
Other time (%) = 0.00937698 (5.20206)

Nlocal:    2912 ave 2912 max 2912 min
Histogram: 1 0 0 0 0 0 0 0 0 0
Nghost:    7264 ave 7264 max 7264 min
Histogram: 1 0 0 0 0 0 0 0 0 0
Neighs:    112160 ave 112160 max 112160 min
Histogram: 1 0 0 0 0 0 0 0 0 0

Total # of neighbors = 112160
Ave neighs/atom = 38.5165
Neighbor list builds = 0
Dangerous builds = 0
        next i
jump SELF loop1
        displace_atoms upper move ${xstep1} 0.0 ${zstep1} units lattice
        displace_atoms upper move 0.00166666666666667 0.0 ${zstep1} units lattice
        displace_atoms upper move 0.00166666666666667 0.0 0 units lattice
        min_style ${style}
        min_style hftn
        minimize ${etol} ${ftol} ${maxiter} ${maxeval}
        minimize 1e-12 ${ftol} ${maxiter} ${maxeval}
        minimize 1e-12 1e-08 ${maxiter} ${maxeval}
        minimize 1e-12 1e-08 10000 ${maxeval}
        minimize 1e-12 1e-08 10000 20000
WARNING: Resetting reneighboring criteria during minimization (../min.cpp:168)
Memory usage per processor = 5.2861 Mbytes
Step Temp PotEng Lx Ly Lz 
     135            0   -17368.802    6.9282254    73.509861    4.0000128 
     136            0   -17368.807    6.9282254    73.509861    4.0000128 
     137            0   -17368.809    6.9282254    73.509861    4.0000128 
     138            0   -17368.809    6.9282254    73.509861    4.0000128 
     139            0   -17368.809    6.9282254    73.509861    4.0000128 
Loop time of 1.36815 on 1 procs for 3 steps with 2912 atoms

Minimization stats:
  Stopping criterion = force tolerance
  Energy initial, next-to-last, final = 
        -17368.8024968     -17368.8094175      -17368.809479
  Force two-norm initial, final = 2.54244 1.44963e-10
  Force max component initial, final = 0.317805 1.04222e-11
  Final line search alpha, max atom move = 0 0
  Iterations, force evaluations = 3 480

Pair  time (%) = 1.25777 (91.9322)
Neigh time (%) = 0 (0)
Comm  time (%) = 0.0316187 (2.31106)
Outpt time (%) = 0.000546951 (0.0399775)
Other time (%) = 0.0782136 (5.71676)

Nlocal:    2912 ave 2912 max 2912 min
Histogram: 1 0 0 0 0 0 0 0 0 0
Nghost:    7264 ave 7264 max 7264 min
Histogram: 1 0 0 0 0 0 0 0 0 0
Neighs:    112032 ave 112032 max 112032 min
Histogram: 1 0 0 0 0 0 0 0 0 0

Total # of neighbors = 112032
Ave neighs/atom = 38.4725
Neighbor list builds = 0
Dangerous builds = 0
        next i
jump SELF loop1
        displace_atoms upper move ${xstep1} 0.0 ${zstep1} units lattice
        displace_atoms upper move 0.00166666666666667 0.0 ${zstep1} units lattice
        displace_atoms upper move 0.00166666666666667 0.0 0 units lattice
        min_style ${style}
        min_style hftn
        minimize ${etol} ${ftol} ${maxiter} ${maxeval}
        minimize 1e-12 ${ftol} ${maxiter} ${maxeval}
        minimize 1e-12 1e-08 ${maxiter} ${maxeval}
        minimize 1e-12 1e-08 10000 ${maxeval}
        minimize 1e-12 1e-08 10000 20000
WARNING: Resetting reneighboring criteria during minimization (../min.cpp:168)
Memory usage per processor = 5.2861 Mbytes
Step Temp PotEng Lx Ly Lz 
     139            0   -17368.135    6.9282254    73.511188    4.0000128 
     140            0   -17368.136    6.9282254    73.511188    4.0000128 
     141            0   -17368.137    6.9282254    73.511188    4.0000128 
     142            0   -17368.137    6.9282254    73.511188    4.0000128 
     143            0   -17368.137    6.9282254    73.511188    4.0000128 
Loop time of 1.33057 on 1 procs for 3 steps with 2912 atoms

Minimization stats:
  Stopping criterion = force tolerance
  Energy initial, next-to-last, final = 
        -17368.1353392     -17368.1370755     -17368.1371017
  Force two-norm initial, final = 1.30643 5.93623e-11
  Force max component initial, final = 0.163304 3.82082e-12
  Final line search alpha, max atom move = 0 0
  Iterations, force evaluations = 3 485

Pair  time (%) = 1.23856 (93.0852)
Neigh time (%) = 0 (0)
Comm  time (%) = 0.0179578 (1.34963)
Outpt time (%) = 0.000394131 (0.0296213)
Other time (%) = 0.0736537 (5.53551)

Nlocal:    2912 ave 2912 max 2912 min
Histogram: 1 0 0 0 0 0 0 0 0 0
Nghost:    7264 ave 7264 max 7264 min
Histogram: 1 0 0 0 0 0 0 0 0 0
Neighs:    112032 ave 112032 max 112032 min
Histogram: 1 0 0 0 0 0 0 0 0 0

Total # of neighbors = 112032
Ave neighs/atom = 38.4725
Neighbor list builds = 0
Dangerous builds = 0
        next i
jump SELF loop1
        displace_atoms upper move ${xstep1} 0.0 ${zstep1} units lattice
        displace_atoms upper move 0.00166666666666667 0.0 ${zstep1} units lattice
        displace_atoms upper move 0.00166666666666667 0.0 0 units lattice
        min_style ${style}
        min_style hftn
        minimize ${etol} ${ftol} ${maxiter} ${maxeval}
        minimize 1e-12 ${ftol} ${maxiter} ${maxeval}
        minimize 1e-12 1e-08 ${maxiter} ${maxeval}
        minimize 1e-12 1e-08 10000 ${maxeval}
        minimize 1e-12 1e-08 10000 20000
WARNING: Resetting reneighboring criteria during minimization (../min.cpp:168)
Memory usage per processor = 5.2861 Mbytes
Step Temp PotEng Lx Ly Lz 
     143            0   -17367.442    6.9282254    73.511872    4.0000128 
     144            0   -17367.442    6.9282254    73.511872    4.0000128 
     145            0   -17367.442    6.9282254    73.511872    4.0000128 
     146            0   -17367.442    6.9282254    73.511872    4.0000128 
     147            0   -17367.442    6.9282254    73.511872    4.0000128 
     148            0   -17367.442    6.9282254    73.511872    4.0000128 
     149            0   -17367.442    6.9282254    73.511872    4.0000128 
     150            0   -17367.442    6.9282254    73.511872    4.0000128 
     151            0   -17367.442    6.9282254    73.511872    4.0000128 
     152            0   -17367.442    6.9282254    73.511872    4.0000128 
Loop time of 0.184112 on 1 procs for 8 steps with 2912 atoms

Minimization stats:
  Stopping criterion = energy tolerance
  Energy initial, next-to-last, final = 
        -17367.4420226     -17367.4420226     -17367.4420881
  Force two-norm initial, final = 1.32661 0.763658
  Force max component initial, final = 0.165827 0.092739
  Final line search alpha, max atom move = 0 0
  Iterations, force evaluations = 8 65

Pair  time (%) = 0.174416 (94.7339)
Neigh time (%) = 0 (0)
Comm  time (%) = 0.00265825 (1.44382)
Outpt time (%) = 0.000831134 (0.451428)
Other time (%) = 0.00620614 (3.37085)

Nlocal:    2912 ave 2912 max 2912 min
Histogram: 1 0 0 0 0 0 0 0 0 0
Nghost:    7264 ave 7264 max 7264 min
Histogram: 1 0 0 0 0 0 0 0 0 0
Neighs:    112032 ave 112032 max 112032 min
Histogram: 1 0 0 0 0 0 0 0 0 0

Total # of neighbors = 112032
Ave neighs/atom = 38.4725
Neighbor list builds = 0
Dangerous builds = 0
        next i
jump SELF loop1
        displace_atoms upper move ${xstep1} 0.0 ${zstep1} units lattice
        displace_atoms upper move 0.00166666666666667 0.0 ${zstep1} units lattice
        displace_atoms upper move 0.00166666666666667 0.0 0 units lattice
        min_style ${style}
        min_style hftn
        minimize ${etol} ${ftol} ${maxiter} ${maxeval}
        minimize 1e-12 ${ftol} ${maxiter} ${maxeval}
        minimize 1e-12 1e-08 ${maxiter} ${maxeval}
        minimize 1e-12 1e-08 10000 ${maxeval}
        minimize 1e-12 1e-08 10000 20000
WARNING: Resetting reneighboring criteria during minimization (../min.cpp:168)
Memory usage per processor = 5.2861 Mbytes
Step Temp PotEng Lx Ly Lz 
     152            0   -17366.724    6.9282254    73.511872    4.0000128 
     153            0   -17366.727    6.9282254    73.511872    4.0000128 
     154            0    -17366.73    6.9282254    73.511872    4.0000128 
     155            0    -17366.73    6.9282254    73.511872    4.0000128 
     156            0    -17366.73    6.9282254    73.511872    4.0000128 
Loop time of 1.31184 on 1 procs for 3 steps with 2912 atoms

Minimization stats:
  Stopping criterion = force tolerance
  Energy initial, next-to-last, final = 
        -17366.7241727     -17366.7299253     -17366.7299598
  Force two-norm initial, final = 2.11121 4.58416e-11
  Force max component initial, final = 0.26293 5.07499e-12
  Final line search alpha, max atom move = 0 0
  Iterations, force evaluations = 3 476

Pair  time (%) = 1.2167 (92.7477)
Neigh time (%) = 0 (0)
Comm  time (%) = 0.0209579 (1.5976)
Outpt time (%) = 0.000261969 (0.0199697)
Other time (%) = 0.0739183 (5.63472)

Nlocal:    2912 ave 2912 max 2912 min
Histogram: 1 0 0 0 0 0 0 0 0 0
Nghost:    7264 ave 7264 max 7264 min
Histogram: 1 0 0 0 0 0 0 0 0 0
Neighs:    112032 ave 112032 max 112032 min
Histogram: 1 0 0 0 0 0 0 0 0 0

Total # of neighbors = 112032
Ave neighs/atom = 38.4725
Neighbor list builds = 0
Dangerous builds = 0
        next i
jump SELF loop1
        displace_atoms upper move ${xstep1} 0.0 ${zstep1} units lattice
        displace_atoms upper move 0.00166666666666667 0.0 ${zstep1} units lattice
        displace_atoms upper move 0.00166666666666667 0.0 0 units lattice
        min_style ${style}
        min_style hftn
        minimize ${etol} ${ftol} ${maxiter} ${maxeval}
        minimize 1e-12 ${ftol} ${maxiter} ${maxeval}
        minimize 1e-12 1e-08 ${maxiter} ${maxeval}
        minimize 1e-12 1e-08 10000 ${maxeval}
        minimize 1e-12 1e-08 10000 20000
WARNING: Resetting reneighboring criteria during minimization (../min.cpp:168)
Memory usage per processor = 5.2861 Mbytes
Step Temp PotEng Lx Ly Lz 
     156            0   -17365.997    6.9282254     73.51327    4.0000128 
     157            0   -17365.997    6.9282254     73.51327    4.0000128 
     158            0   -17365.999    6.9282254     73.51327    4.0000128 
     159            0   -17365.999    6.9282254     73.51327    4.0000128 
     160            0   -17365.999    6.9282254     73.51327    4.0000128 
Loop time of 1.35862 on 1 procs for 3 steps with 2912 atoms

Minimization stats:
  Stopping criterion = force tolerance
  Energy initial, next-to-last, final = 
        -17365.9970878     -17365.9988138     -17365.9988479
  Force two-norm initial, final = 1.36698 2.61642e-10
  Force max component initial, final = 0.170872 1.85791e-11
  Final line search alpha, max atom move = 0 0
  Iterations, force evaluations = 3 471

Pair  time (%) = 1.26218 (92.9019)
Neigh time (%) = 0 (0)
Comm  time (%) = 0.0209828 (1.54442)
Outpt time (%) = 0.000514821 (0.037893)
Other time (%) = 0.0749377 (5.51573)

Nlocal:    2912 ave 2912 max 2912 min
Histogram: 1 0 0 0 0 0 0 0 0 0
Nghost:    7264 ave 7264 max 7264 min
Histogram: 1 0 0 0 0 0 0 0 0 0
Neighs:    112032 ave 112032 max 112032 min
Histogram: 1 0 0 0 0 0 0 0 0 0

Total # of neighbors = 112032
Ave neighs/atom = 38.4725
Neighbor list builds = 0
Dangerous builds = 0
        next i
jump SELF loop1
        displace_atoms upper move ${xstep1} 0.0 ${zstep1} units lattice
        displace_atoms upper move 0.00166666666666667 0.0 ${zstep1} units lattice
        displace_atoms upper move 0.00166666666666667 0.0 0 units lattice
        min_style ${style}
        min_style hftn
        minimize ${etol} ${ftol} ${maxiter} ${maxeval}
        minimize 1e-12 ${ftol} ${maxiter} ${maxeval}
        minimize 1e-12 1e-08 ${maxiter} ${maxeval}
        minimize 1e-12 1e-08 10000 ${maxeval}
        minimize 1e-12 1e-08 10000 20000
WARNING: Resetting reneighboring criteria during minimization (../min.cpp:168)
Memory usage per processor = 5.2861 Mbytes
Step Temp PotEng Lx Ly Lz 
     160            0    -17365.25    6.9282254    73.513983    4.0000128 
     161            0    -17365.25    6.9282254    73.513983    4.0000128 
     162            0   -17365.252    6.9282254    73.513983    4.0000128 
     163            0   -17365.252    6.9282254    73.513983    4.0000128 
     164            0   -17365.252    6.9282254    73.513983    4.0000128 
Loop time of 1.36694 on 1 procs for 3 steps with 2912 atoms

Minimization stats:
  Stopping criterion = force tolerance
  Energy initial, next-to-last, final = 
        -17365.2496445      -17365.251646     -17365.2516736
  Force two-norm initial, final = 1.38505 8.30748e-11
  Force max component initial, final = 0.173131 6.61111e-12
  Final line search alpha, max atom move = 0 0
  Iterations, force evaluations = 3 482

Pair  time (%) = 1.26835 (92.7875)
Neigh time (%) = 0 (0)
Comm  time (%) = 0.020538 (1.50248)
Outpt time (%) = 0.000427869 (0.0313013)
Other time (%) = 0.0776241 (5.6787)

Nlocal:    2912 ave 2912 max 2912 min
Histogram: 1 0 0 0 0 0 0 0 0 0
Nghost:    7264 ave 7264 max 7264 min
Histogram: 1 0 0 0 0 0 0 0 0 0
Neighs:    112032 ave 112032 max 112032 min
Histogram: 1 0 0 0 0 0 0 0 0 0

Total # of neighbors = 112032
Ave neighs/atom = 38.4725
Neighbor list builds = 0
Dangerous builds = 0
        next i
jump SELF loop1
        displace_atoms upper move ${xstep1} 0.0 ${zstep1} units lattice
        displace_atoms upper move 0.00166666666666667 0.0 ${zstep1} units lattice
        displace_atoms upper move 0.00166666666666667 0.0 0 units lattice
        min_style ${style}
        min_style hftn
        minimize ${etol} ${ftol} ${maxiter} ${maxeval}
        minimize 1e-12 ${ftol} ${maxiter} ${maxeval}
        minimize 1e-12 1e-08 ${maxiter} ${maxeval}
        minimize 1e-12 1e-08 10000 ${maxeval}
        minimize 1e-12 1e-08 10000 20000
WARNING: Resetting reneighboring criteria during minimization (../min.cpp:168)
Memory usage per processor = 5.2861 Mbytes
Step Temp PotEng Lx Ly Lz 
     164            0   -17364.489    6.9282254    73.514705    4.0000128 
     165            0    -17364.49    6.9282254    73.514705    4.0000128 
     166            0   -17364.491    6.9282254    73.514705    4.0000128 
     167            0   -17364.491    6.9282254    73.514705    4.0000128 
     168            0   -17364.491    6.9282254    73.514705    4.0000128 
Loop time of 1.37261 on 1 procs for 3 steps with 2912 atoms

Minimization stats:
  Stopping criterion = force tolerance
  Energy initial, next-to-last, final = 
        -17364.4892227     -17364.4914097     -17364.4914365
  Force two-norm initial, final = 1.39526 8.12762e-11
  Force max component initial, final = 0.174408 4.56943e-12
  Final line search alpha, max atom move = 0 0
  Iterations, force evaluations = 3 487

Pair  time (%) = 1.27078 (92.5812)
Neigh time (%) = 0 (0)
Comm  time (%) = 0.0240722 (1.75376)
Outpt time (%) = 0.000689933 (0.0502643)
Other time (%) = 0.0770693 (5.6148)

Nlocal:    2912 ave 2912 max 2912 min
Histogram: 1 0 0 0 0 0 0 0 0 0
Nghost:    7264 ave 7264 max 7264 min
Histogram: 1 0 0 0 0 0 0 0 0 0
Neighs:    112032 ave 112032 max 112032 min
Histogram: 1 0 0 0 0 0 0 0 0 0

Total # of neighbors = 112032
Ave neighs/atom = 38.4725
Neighbor list builds = 0
Dangerous builds = 0
        next i
jump SELF loop1
        displace_atoms upper move ${xstep1} 0.0 ${zstep1} units lattice
        displace_atoms upper move 0.00166666666666667 0.0 ${zstep1} units lattice
        displace_atoms upper move 0.00166666666666667 0.0 0 units lattice
        min_style ${style}
        min_style hftn
        minimize ${etol} ${ftol} ${maxiter} ${maxeval}
        minimize 1e-12 ${ftol} ${maxiter} ${maxeval}
        minimize 1e-12 1e-08 ${maxiter} ${maxeval}
        minimize 1e-12 1e-08 10000 ${maxeval}
        minimize 1e-12 1e-08 10000 20000
WARNING: Resetting reneighboring criteria during minimization (../min.cpp:168)
Memory usage per processor = 5.2861 Mbytes
Step Temp PotEng Lx Ly Lz 
     168            0   -17363.717    6.9282254    73.515432    4.0000128 
     169            0   -17363.717    6.9282254    73.515432    4.0000128 
     170            0   -17363.719    6.9282254    73.515432    4.0000128 
     171            0   -17363.719    6.9282254    73.515432    4.0000128 
     172            0   -17363.719    6.9282254    73.515432    4.0000128 
Loop time of 1.37535 on 1 procs for 3 steps with 2912 atoms

Minimization stats:
  Stopping criterion = force tolerance
  Energy initial, next-to-last, final = 
        -17363.7167731     -17363.7186134      -17363.718641
  Force two-norm initial, final = 1.37514 4.60815e-11
  Force max component initial, final = 0.171893 3.05277e-12
  Final line search alpha, max atom move = 0 0
  Iterations, force evaluations = 3 489

Pair  time (%) = 1.27782 (92.9089)
Neigh time (%) = 0 (0)
Comm  time (%) = 0.0217792 (1.58354)
Outpt time (%) = 0.000325811 (0.0236893)
Other time (%) = 0.0754227 (5.48389)

Nlocal:    2912 ave 2912 max 2912 min
Histogram: 1 0 0 0 0 0 0 0 0 0
Nghost:    7264 ave 7264 max 7264 min
Histogram: 1 0 0 0 0 0 0 0 0 0
Neighs:    112032 ave 112032 max 112032 min
Histogram: 1 0 0 0 0 0 0 0 0 0

Total # of neighbors = 112032
Ave neighs/atom = 38.4725
Neighbor list builds = 0
Dangerous builds = 0
        next i
jump SELF loop1
        displace_atoms upper move ${xstep1} 0.0 ${zstep1} units lattice
        displace_atoms upper move 0.00166666666666667 0.0 ${zstep1} units lattice
        displace_atoms upper move 0.00166666666666667 0.0 0 units lattice
        min_style ${style}
        min_style hftn
        minimize ${etol} ${ftol} ${maxiter} ${maxeval}
        minimize 1e-12 ${ftol} ${maxiter} ${maxeval}
        minimize 1e-12 1e-08 ${maxiter} ${maxeval}
        minimize 1e-12 1e-08 10000 ${maxeval}
        minimize 1e-12 1e-08 10000 20000
WARNING: Resetting reneighboring criteria during minimization (../min.cpp:168)
Memory usage per processor = 5.2861 Mbytes
Step Temp PotEng Lx Ly Lz 
     172            0   -17362.936    6.9282254    73.516154    4.0000128 
     173            0   -17362.936    6.9282254    73.516154    4.0000128 
     174            0   -17362.938    6.9282254    73.516154    4.0000128 
     175            0   -17362.938    6.9282254    73.516154    4.0000128 
     176            0   -17362.938    6.9282254    73.516154    4.0000128 
Loop time of 1.3453 on 1 procs for 3 steps with 2912 atoms

Minimization stats:
  Stopping criterion = force tolerance
  Energy initial, next-to-last, final = 
        -17362.9361607     -17362.9379712     -17362.9379977
  Force two-norm initial, final = 1.30894 5.33897e-11
  Force max component initial, final = 0.163618 3.59721e-12
  Final line search alpha, max atom move = 0 0
  Iterations, force evaluations = 3 489

Pair  time (%) = 1.24596 (92.6155)
Neigh time (%) = 0 (0)
Comm  time (%) = 0.0217089 (1.61369)
Outpt time (%) = 0.000417023 (0.0309985)
Other time (%) = 0.0772174 (5.73979)

Nlocal:    2912 ave 2912 max 2912 min
Histogram: 1 0 0 0 0 0 0 0 0 0
Nghost:    7264 ave 7264 max 7264 min
Histogram: 1 0 0 0 0 0 0 0 0 0
Neighs:    112032 ave 112032 max 112032 min
Histogram: 1 0 0 0 0 0 0 0 0 0

Total # of neighbors = 112032
Ave neighs/atom = 38.4725
Neighbor list builds = 0
Dangerous builds = 0
        next i
jump SELF loop1
        displace_atoms upper move ${xstep1} 0.0 ${zstep1} units lattice
        displace_atoms upper move 0.00166666666666667 0.0 ${zstep1} units lattice
        displace_atoms upper move 0.00166666666666667 0.0 0 units lattice
        min_style ${style}
        min_style hftn
        minimize ${etol} ${ftol} ${maxiter} ${maxeval}
        minimize 1e-12 ${ftol} ${maxiter} ${maxeval}
        minimize 1e-12 1e-08 ${maxiter} ${maxeval}
        minimize 1e-12 1e-08 10000 ${maxeval}
        minimize 1e-12 1e-08 10000 20000
WARNING: Resetting reneighboring criteria during minimization (../min.cpp:168)
Memory usage per processor = 5.2861 Mbytes
Step Temp PotEng Lx Ly Lz 
     176            0   -17362.151    6.9282254    73.516846    4.0000128 
     177            0   -17362.152    6.9282254    73.516846    4.0000128 
     178            0   -17362.153    6.9282254    73.516846    4.0000128 
     179            0   -17362.153    6.9282254    73.516846    4.0000128 
     180            0   -17362.153    6.9282254    73.516846    4.0000128 
Loop time of 1.3206 on 1 procs for 3 steps with 2912 atoms

Minimization stats:
  Stopping criterion = force tolerance
  Energy initial, next-to-last, final = 
        -17362.1511687      -17362.153058     -17362.1530831
  Force two-norm initial, final = 1.24482 9.24303e-11
  Force max component initial, final = 0.155603 6.14442e-12
  Final line search alpha, max atom move = 0 0
  Iterations, force evaluations = 3 483

Pair  time (%) = 1.23231 (93.3144)
Neigh time (%) = 0 (0)
Comm  time (%) = 0.0174246 (1.31944)
Outpt time (%) = 0.000477152 (0.0361313)
Other time (%) = 0.0703888 (5.33004)

Nlocal:    2912 ave 2912 max 2912 min
Histogram: 1 0 0 0 0 0 0 0 0 0
Nghost:    7264 ave 7264 max 7264 min
Histogram: 1 0 0 0 0 0 0 0 0 0
Neighs:    112032 ave 112032 max 112032 min
Histogram: 1 0 0 0 0 0 0 0 0 0

Total # of neighbors = 112032
Ave neighs/atom = 38.4725
Neighbor list builds = 0
Dangerous builds = 0
        next i
jump SELF loop1
        displace_atoms upper move ${xstep1} 0.0 ${zstep1} units lattice
        displace_atoms upper move 0.00166666666666667 0.0 ${zstep1} units lattice
        displace_atoms upper move 0.00166666666666667 0.0 0 units lattice
        min_style ${style}
        min_style hftn
        minimize ${etol} ${ftol} ${maxiter} ${maxeval}
        minimize 1e-12 ${ftol} ${maxiter} ${maxeval}
        minimize 1e-12 1e-08 ${maxiter} ${maxeval}
        minimize 1e-12 1e-08 10000 ${maxeval}
        minimize 1e-12 1e-08 10000 20000
WARNING: Resetting reneighboring criteria during minimization (../min.cpp:168)
Memory usage per processor = 5.2861 Mbytes
Step Temp PotEng Lx Ly Lz 
     180            0   -17361.365    6.9282254    73.517509    4.0000128 
     181            0   -17361.365    6.9282254    73.517509    4.0000128 
     182            0   -17361.365    6.9282254    73.517509    4.0000128 
     183            0   -17361.365    6.9282254    73.517509    4.0000128 
     184            0   -17361.365    6.9282254    73.517509    4.0000128 
     185            0   -17361.365    6.9282254    73.517509    4.0000128 
     186            0   -17361.365    6.9282254    73.517509    4.0000128 
     187            0   -17361.365    6.9282254    73.517509    4.0000128 
     188            0   -17361.365    6.9282254    73.517509    4.0000128 
     189            0   -17361.365    6.9282254    73.517509    4.0000128 
Loop time of 0.192955 on 1 procs for 8 steps with 2912 atoms

Minimization stats:
  Stopping criterion = energy tolerance
  Energy initial, next-to-last, final = 
        -17361.3653163     -17361.3653163     -17361.3653163
  Force two-norm initial, final = 1.17941 1.17937
  Force max component initial, final = 0.147426 0.147422
  Final line search alpha, max atom move = 0 0
  Iterations, force evaluations = 8 69

Pair  time (%) = 0.174334 (90.3498)
Neigh time (%) = 0 (0)
Comm  time (%) = 0.00667204 (3.45783)
Outpt time (%) = 0.00352689 (1.82783)
Other time (%) = 0.00842153 (4.36451)

Nlocal:    2912 ave 2912 max 2912 min
Histogram: 1 0 0 0 0 0 0 0 0 0
Nghost:    7264 ave 7264 max 7264 min
Histogram: 1 0 0 0 0 0 0 0 0 0
Neighs:    112032 ave 112032 max 112032 min
Histogram: 1 0 0 0 0 0 0 0 0 0

Total # of neighbors = 112032
Ave neighs/atom = 38.4725
Neighbor list builds = 0
Dangerous builds = 0
        next i
jump SELF loop1
        displace_atoms upper move ${xstep1} 0.0 ${zstep1} units lattice
        displace_atoms upper move 0.00166666666666667 0.0 ${zstep1} units lattice
        displace_atoms upper move 0.00166666666666667 0.0 0 units lattice
        min_style ${style}
        min_style hftn
        minimize ${etol} ${ftol} ${maxiter} ${maxeval}
        minimize 1e-12 ${ftol} ${maxiter} ${maxeval}
        minimize 1e-12 1e-08 ${maxiter} ${maxeval}
        minimize 1e-12 1e-08 10000 ${maxeval}
        minimize 1e-12 1e-08 10000 20000
WARNING: Resetting reneighboring criteria during minimization (../min.cpp:168)
Memory usage per processor = 5.2861 Mbytes
Step Temp PotEng Lx Ly Lz 
     189            0   -17360.577    6.9282254    73.517509    4.0000128 
     190            0   -17360.579    6.9282254    73.517509    4.0000128 
     191            0   -17360.582    6.9282254    73.517509    4.0000128 
     192            0   -17360.582    6.9282254    73.517509    4.0000128 
     193            0   -17360.582    6.9282254    73.517509    4.0000128 
Loop time of 1.30585 on 1 procs for 3 steps with 2912 atoms

Minimization stats:
  Stopping criterion = force tolerance
  Energy initial, next-to-last, final = 
          -17360.57708     -17360.5821319     -17360.5821778
  Force two-norm initial, final = 2.29534 4.82906e-11
  Force max component initial, final = 0.286917 3.49963e-12
  Final line search alpha, max atom move = 0 0
  Iterations, force evaluations = 3 484

Pair  time (%) = 1.21307 (92.8944)
Neigh time (%) = 0 (0)
Comm  time (%) = 0.0203593 (1.55908)
Outpt time (%) = 0.000342295 (0.0262124)
Other time (%) = 0.0720872 (5.52031)

Nlocal:    2912 ave 2912 max 2912 min
Histogram: 1 0 0 0 0 0 0 0 0 0
Nghost:    7264 ave 7264 max 7264 min
Histogram: 1 0 0 0 0 0 0 0 0 0
Neighs:    112032 ave 112032 max 112032 min
Histogram: 1 0 0 0 0 0 0 0 0 0

Total # of neighbors = 112032
Ave neighs/atom = 38.4725
Neighbor list builds = 0
Dangerous builds = 0
        next i
jump SELF loop1
        displace_atoms upper move ${xstep1} 0.0 ${zstep1} units lattice
        displace_atoms upper move 0.00166666666666667 0.0 ${zstep1} units lattice
        displace_atoms upper move 0.00166666666666667 0.0 0 units lattice
        min_style ${style}
        min_style hftn
        minimize ${etol} ${ftol} ${maxiter} ${maxeval}
        minimize 1e-12 ${ftol} ${maxiter} ${maxeval}
        minimize 1e-12 1e-08 ${maxiter} ${maxeval}
        minimize 1e-12 1e-08 10000 ${maxeval}
        minimize 1e-12 1e-08 10000 20000
WARNING: Resetting reneighboring criteria during minimization (../min.cpp:168)
Memory usage per processor = 5.2861 Mbytes
Step Temp PotEng Lx Ly Lz 
     193            0   -17359.803    6.9282254    73.518745    4.0000128 
     194            0   -17359.803    6.9282254    73.518745    4.0000128 
     195            0   -17359.804    6.9282254    73.518745    4.0000128 
     196            0   -17359.804    6.9282254    73.518745    4.0000128 
     197            0   -17359.804    6.9282254    73.518745    4.0000128 
Loop time of 1.3564 on 1 procs for 3 steps with 2912 atoms

Minimization stats:
  Stopping criterion = force tolerance
  Energy initial, next-to-last, final = 
        -17359.8027957     -17359.8040863     -17359.8041033
  Force two-norm initial, final = 1.0443 3.5634e-11
  Force max component initial, final = 0.130537 3.07221e-12
  Final line search alpha, max atom move = 0 0
  Iterations, force evaluations = 3 493

Pair  time (%) = 1.25617 (92.6102)
Neigh time (%) = 0 (0)
Comm  time (%) = 0.0262116 (1.93244)
Outpt time (%) = 0.000529835 (0.0390617)
Other time (%) = 0.0734946 (5.41835)

Nlocal:    2912 ave 2912 max 2912 min
Histogram: 1 0 0 0 0 0 0 0 0 0
Nghost:    7264 ave 7264 max 7264 min
Histogram: 1 0 0 0 0 0 0 0 0 0
Neighs:    112032 ave 112032 max 112032 min
Histogram: 1 0 0 0 0 0 0 0 0 0

Total # of neighbors = 112032
Ave neighs/atom = 38.4725
Neighbor list builds = 0
Dangerous builds = 0
        next i
jump SELF loop1
        displace_atoms upper move ${xstep1} 0.0 ${zstep1} units lattice
        displace_atoms upper move 0.00166666666666667 0.0 ${zstep1} units lattice
        displace_atoms upper move 0.00166666666666667 0.0 0 units lattice
        min_style ${style}
        min_style hftn
        minimize ${etol} ${ftol} ${maxiter} ${maxeval}
        minimize 1e-12 ${ftol} ${maxiter} ${maxeval}
        minimize 1e-12 1e-08 ${maxiter} ${maxeval}
        minimize 1e-12 1e-08 10000 ${maxeval}
        minimize 1e-12 1e-08 10000 20000
WARNING: Resetting reneighboring criteria during minimization (../min.cpp:168)
Memory usage per processor = 5.2861 Mbytes
Step Temp PotEng Lx Ly Lz 
     197            0   -17359.034    6.9282254    73.519315    4.0000128 
     198            0   -17359.034    6.9282254    73.519315    4.0000128 
     199            0   -17359.036    6.9282254    73.519315    4.0000128 
     200            0   -17359.036    6.9282254    73.519315    4.0000128 
     201            0   -17359.036    6.9282254    73.519315    4.0000128 
Loop time of 1.36673 on 1 procs for 3 steps with 2912 atoms

Minimization stats:
  Stopping criterion = force tolerance
  Energy initial, next-to-last, final = 
        -17359.0341959      -17359.035697      -17359.035712
  Force two-norm initial, final = 0.974127 3.03948e-11
  Force max component initial, final = 0.121766 2.05139e-12
  Final line search alpha, max atom move = 0 0
  Iterations, force evaluations = 3 491

Pair  time (%) = 1.27473 (93.2685)
Neigh time (%) = 0 (0)
Comm  time (%) = 0.0180771 (1.32265)
Outpt time (%) = 0.000584723 (0.0427825)
Other time (%) = 0.0733398 (5.36606)

Nlocal:    2912 ave 2912 max 2912 min
Histogram: 1 0 0 0 0 0 0 0 0 0
Nghost:    7264 ave 7264 max 7264 min
Histogram: 1 0 0 0 0 0 0 0 0 0
Neighs:    112032 ave 112032 max 112032 min
Histogram: 1 0 0 0 0 0 0 0 0 0

Total # of neighbors = 112032
Ave neighs/atom = 38.4725
Neighbor list builds = 0
Dangerous builds = 0
        next i
jump SELF loop1
        displace_atoms upper move ${xstep1} 0.0 ${zstep1} units lattice
        displace_atoms upper move 0.00166666666666667 0.0 ${zstep1} units lattice
        displace_atoms upper move 0.00166666666666667 0.0 0 units lattice
        min_style ${style}
        min_style hftn
        minimize ${etol} ${ftol} ${maxiter} ${maxeval}
        minimize 1e-12 ${ftol} ${maxiter} ${maxeval}
        minimize 1e-12 1e-08 ${maxiter} ${maxeval}
        minimize 1e-12 1e-08 10000 ${maxeval}
        minimize 1e-12 1e-08 10000 20000
WARNING: Resetting reneighboring criteria during minimization (../min.cpp:168)
Memory usage per processor = 5.2861 Mbytes
Step Temp PotEng Lx Ly Lz 
     201            0   -17358.279    6.9282254    73.519849    4.0000128 
     202            0   -17358.279    6.9282254    73.519849    4.0000128 
     203            0   -17358.279    6.9282254    73.519849    4.0000128 
     204            0   -17358.279    6.9282254    73.519849    4.0000128 
     205            0   -17358.279    6.9282254    73.519849    4.0000128 
     206            0   -17358.279    6.9282254    73.519849    4.0000128 
     207            0   -17358.279    6.9282254    73.519849    4.0000128 
     208            0   -17358.279    6.9282254    73.519849    4.0000128 
     209            0   -17358.279    6.9282254    73.519849    4.0000128 
     210            0   -17358.279    6.9282254    73.519849    4.0000128 
Loop time of 0.193473 on 1 procs for 8 steps with 2912 atoms

Minimization stats:
  Stopping criterion = energy tolerance
  Energy initial, next-to-last, final = 
         -17358.278655      -17358.278655      -17358.278655
  Force two-norm initial, final = 0.902742 0.902715
  Force max component initial, final = 0.112843 0.112839
  Final line search alpha, max atom move = 0 0
  Iterations, force evaluations = 8 69

Pair  time (%) = 0.180428 (93.2576)
Neigh time (%) = 0 (0)
Comm  time (%) = 0.00291442 (1.50637)
Outpt time (%) = 0.00361405 (1.86799)
Other time (%) = 0.00651622 (3.36803)

Nlocal:    2912 ave 2912 max 2912 min
Histogram: 1 0 0 0 0 0 0 0 0 0
Nghost:    7264 ave 7264 max 7264 min
Histogram: 1 0 0 0 0 0 0 0 0 0
Neighs:    111968 ave 111968 max 111968 min
Histogram: 1 0 0 0 0 0 0 0 0 0

Total # of neighbors = 111968
Ave neighs/atom = 38.4505
Neighbor list builds = 0
Dangerous builds = 0
        next i
jump SELF loop1
[...]
    2002            0   -17374.753    6.9282254    73.505748    4.0000128 
    2003            0   -17374.753    6.9282254    73.505748    4.0000128 
Loop time of 0.23223 on 1 procs for 8 steps with 2912 atoms

Minimization stats:
  Stopping criterion = energy tolerance
  Energy initial, next-to-last, final = 
        -17374.7531776     -17374.7531776     -17374.7533745
  Force two-norm initial, final = 1.29342 0.663942
  Force max component initial, final = 0.161651 0.0780432
  Final line search alpha, max atom move = 0 0
  Iterations, force evaluations = 8 67

Pair  time (%) = 0.219804 (94.6495)
Neigh time (%) = 0 (0)
Comm  time (%) = 0.00302063 (1.30071)
Outpt time (%) = 0.00115212 (0.496111)
Other time (%) = 0.00825278 (3.55371)

Nlocal:    2912 ave 2912 max 2912 min
Histogram: 1 0 0 0 0 0 0 0 0 0
Nghost:    7264 ave 7264 max 7264 min
Histogram: 1 0 0 0 0 0 0 0 0 0
Neighs:    112224 ave 112224 max 112224 min
Histogram: 1 0 0 0 0 0 0 0 0 0

Total # of neighbors = 112224
Ave neighs/atom = 38.5385
Neighbor list builds = 0
Dangerous builds = 0
        next j
jump SELF loop2
        displace_atoms upper move ${xstep2} 0.0 ${zstep2} units lattice
        displace_atoms upper move 0.000833333333333329 0.0 ${zstep2} units lattice
        displace_atoms upper move 0.000833333333333329 0.0 0.00249999999999999 units lattice
        min_style ${style}
        min_style hftn
        minimize ${etol} ${ftol} ${maxiter} ${maxeval}
        minimize 1e-12 ${ftol} ${maxiter} ${maxeval}
        minimize 1e-12 1e-08 ${maxiter} ${maxeval}
        minimize 1e-12 1e-08 10000 ${maxeval}
        minimize 1e-12 1e-08 10000 20000
WARNING: Resetting reneighboring criteria during minimization (../min.cpp:168)
Memory usage per processor = 5.2861 Mbytes
Step Temp PotEng Lx Ly Lz 
    2003            0   -17375.057    6.9282254    73.505748    4.0000128 
    2004            0   -17375.059    6.9282254    73.505748    4.0000128 
    2005            0   -17375.059    6.9282254    73.505748    4.0000128 
    2006            0    -17375.06    6.9282254    73.505748    4.0000128 
    2007            0   -17375.062    6.9282254    73.505748    4.0000128 
    2008            0   -17375.062    6.9282254    73.505748    4.0000128 
    2009            0   -17375.062    6.9282254    73.505748    4.0000128 
    2010            0   -17375.062    6.9282254    73.505748    4.0000128 
    2011            0   -17375.062    6.9282254    73.505748    4.0000128 
    2012            0   -17375.062    6.9282254    73.505748    4.0000128 
    2013            0   -17375.062    6.9282254    73.505748    4.0000128 
    2014            0   -17375.062    6.9282254    73.505748    4.0000128 
    2015            0   -17375.062    6.9282254    73.505748    4.0000128 
    2016            0   -17375.062    6.9282254    73.505748    4.0000128 
    2017            0   -17375.062    6.9282254    73.505748    4.0000128 
    2018            0   -17375.062    6.9282254    73.505748    4.0000128 
    2019            0   -17375.062    6.9282254    73.505748    4.0000128 
    2020            0   -17375.062    6.9282254    73.505748    4.0000128 
Loop time of 1.37181 on 1 procs for 16 steps with 2912 atoms

Minimization stats:
  Stopping criterion = energy tolerance
  Energy initial, next-to-last, final = 
        -17375.0571888      -17375.061961     -17375.0619648
  Force two-norm initial, final = 1.7937 0.0645046
  Force max component initial, final = 0.222428 0.00529908
  Final line search alpha, max atom move = 0 0
  Iterations, force evaluations = 16 455

Pair  time (%) = 1.25523 (91.5015)
Neigh time (%) = 0 (0)
Comm  time (%) = 0.0204152 (1.48819)
Outpt time (%) = 0.00756871 (0.551731)
Other time (%) = 0.0885995 (6.45858)

Nlocal:    2912 ave 2912 max 2912 min
Histogram: 1 0 0 0 0 0 0 0 0 0
Nghost:    7264 ave 7264 max 7264 min
Histogram: 1 0 0 0 0 0 0 0 0 0
Neighs:    112224 ave 112224 max 112224 min
Histogram: 1 0 0 0 0 0 0 0 0 0

Total # of neighbors = 112224
Ave neighs/atom = 38.5385
Neighbor list builds = 0
Dangerous builds = 0
        next j
jump SELF loop2
        displace_atoms upper move ${xstep2} 0.0 ${zstep2} units lattice
        displace_atoms upper move 0.000833333333333329 0.0 ${zstep2} units lattice
        displace_atoms upper move 0.000833333333333329 0.0 0.00249999999999999 units lattice
        min_style ${style}
        min_style hftn
        minimize ${etol} ${ftol} ${maxiter} ${maxeval}
        minimize 1e-12 ${ftol} ${maxiter} ${maxeval}
        minimize 1e-12 1e-08 ${maxiter} ${maxeval}
        minimize 1e-12 1e-08 10000 ${maxeval}
        minimize 1e-12 1e-08 10000 20000
WARNING: Resetting reneighboring criteria during minimization (../min.cpp:168)
Memory usage per processor = 5.2861 Mbytes
Step Temp PotEng Lx Ly Lz 
    2020            0    -17375.33    6.9282254    73.504038    4.0000128 
    2021            0    -17375.33    6.9282254    73.504038    4.0000128 
    2022            0    -17375.33    6.9282254    73.504038    4.0000128 
    2023            0   -17375.331    6.9282254    73.504038    4.0000128 
    2024            0   -17375.331    6.9282254    73.504038    4.0000128 
    2025            0   -17375.331    6.9282254    73.504038    4.0000128 
    2026            0   -17375.331    6.9282254    73.504038    4.0000128 
    2027            0   -17375.331    6.9282254    73.504038    4.0000128 
    2028            0   -17375.331    6.9282254    73.504038    4.0000128 
    2029            0   -17375.331    6.9282254    73.504038    4.0000128 
    2030            0   -17375.331    6.9282254    73.504038    4.0000128 
    2031            0   -17375.331    6.9282254    73.504038    4.0000128 
    2032            0   -17375.331    6.9282254    73.504038    4.0000128 
    2033            0   -17375.331    6.9282254    73.504038    4.0000128 
    2034            0   -17375.331    6.9282254    73.504038    4.0000128 
Loop time of 1.08113 on 1 procs for 13 steps with 2912 atoms

Minimization stats:
  Stopping criterion = energy tolerance
  Energy initial, next-to-last, final = 
        -17375.3297376     -17375.3312447     -17375.3312588
  Force two-norm initial, final = 1.03122 0.0279667
  Force max component initial, final = 0.128662 0.00136226
  Final line search alpha, max atom move = 0 0
  Iterations, force evaluations = 13 332

Pair  time (%) = 1.00849 (93.2807)
Neigh time (%) = 0 (0)
Comm  time (%) = 0.0181141 (1.67548)
Outpt time (%) = 0.00176705 (0.163444)
Other time (%) = 0.052763 (4.88036)

Nlocal:    2912 ave 2912 max 2912 min
Histogram: 1 0 0 0 0 0 0 0 0 0
Nghost:    7264 ave 7264 max 7264 min
Histogram: 1 0 0 0 0 0 0 0 0 0
Neighs:    112224 ave 112224 max 112224 min
Histogram: 1 0 0 0 0 0 0 0 0 0

Total # of neighbors = 112224
Ave neighs/atom = 38.5385
Neighbor list builds = 0
Dangerous builds = 0
        next j
jump SELF loop2
        displace_atoms upper move ${xstep2} 0.0 ${zstep2} units lattice
        displace_atoms upper move 0.000833333333333329 0.0 ${zstep2} units lattice
        displace_atoms upper move 0.000833333333333329 0.0 0.00249999999999999 units lattice
        min_style ${style}
        min_style hftn
        minimize ${etol} ${ftol} ${maxiter} ${maxeval}
        minimize 1e-12 ${ftol} ${maxiter} ${maxeval}
        minimize 1e-12 1e-08 ${maxiter} ${maxeval}
        minimize 1e-12 1e-08 10000 ${maxeval}
        minimize 1e-12 1e-08 10000 20000
WARNING: Resetting reneighboring criteria during minimization (../min.cpp:168)
Memory usage per processor = 5.2861 Mbytes
Step Temp PotEng Lx Ly Lz 
    2034            0   -17375.557    6.9282254    73.503082    4.0000128 
    2035            0   -17375.557    6.9282254    73.503082    4.0000128 
    2036            0   -17375.558    6.9282254    73.503082    4.0000128 
    2037            0   -17375.558    6.9282254    73.503082    4.0000128 
    2038            0   -17375.558    6.9282254    73.503082    4.0000128 
    2039            0   -17375.558    6.9282254    73.503082    4.0000128 
    2040            0   -17375.558    6.9282254    73.503082    4.0000128 
    2041            0   -17375.558    6.9282254    73.503082    4.0000128 
    2042            0   -17375.558    6.9282254    73.503082    4.0000128 
    2043            0   -17375.558    6.9282254    73.503082    4.0000128 
Loop time of 0.218256 on 1 procs for 8 steps with 2912 atoms

Minimization stats:
  Stopping criterion = energy tolerance
  Energy initial, next-to-last, final = 
        -17375.5573848     -17375.5573848     -17375.5576595
  Force two-norm initial, final = 0.866941 0.392756
  Force max component initial, final = 0.108316 0.0437487
  Final line search alpha, max atom move = 0 0
  Iterations, force evaluations = 8 69

Pair  time (%) = 0.204726 (93.8006)
Neigh time (%) = 0 (0)
Comm  time (%) = 0.00350244 (1.60474)
Outpt time (%) = 0.00120972 (0.554267)
Other time (%) = 0.00881832 (4.04036)

Nlocal:    2912 ave 2912 max 2912 min
Histogram: 1 0 0 0 0 0 0 0 0 0
Nghost:    7264 ave 7264 max 7264 min
Histogram: 1 0 0 0 0 0 0 0 0 0
Neighs:    112224 ave 112224 max 112224 min
Histogram: 1 0 0 0 0 0 0 0 0 0

Total # of neighbors = 112224
Ave neighs/atom = 38.5385
Neighbor list builds = 0
Dangerous builds = 0
        next j
jump SELF loop2
        displace_atoms upper move ${xstep2} 0.0 ${zstep2} units lattice
        displace_atoms upper move 0.000833333333333329 0.0 ${zstep2} units lattice
        displace_atoms upper move 0.000833333333333329 0.0 0.00249999999999999 units lattice
        min_style ${style}
        min_style hftn
        minimize ${etol} ${ftol} ${maxiter} ${maxeval}
        minimize 1e-12 ${ftol} ${maxiter} ${maxeval}
        minimize 1e-12 1e-08 ${maxiter} ${maxeval}
        minimize 1e-12 1e-08 10000 ${maxeval}
        minimize 1e-12 1e-08 10000 20000
WARNING: Resetting reneighboring criteria during minimization (../min.cpp:168)
Memory usage per processor = 5.2861 Mbytes
Step Temp PotEng Lx Ly Lz 
    2043            0   -17375.738    6.9282254    73.503082    4.0000128 
    2044            0   -17375.738    6.9282254    73.503082    4.0000128 
    2045            0   -17375.738    6.9282254    73.503082    4.0000128 
    2046            0    -17375.74    6.9282254    73.503082    4.0000128 
    2047            0    -17375.74    6.9282254    73.503082    4.0000128 
    2048            0   -17375.741    6.9282254    73.503082    4.0000128 
    2049            0   -17375.741    6.9282254    73.503082    4.0000128 
    2050            0   -17375.741    6.9282254    73.503082    4.0000128 
    2051            0   -17375.741    6.9282254    73.503082    4.0000128 
    2052            0   -17375.741    6.9282254    73.503082    4.0000128 
    2053            0   -17375.741    6.9282254    73.503082    4.0000128 
    2054            0   -17375.741    6.9282254    73.503082    4.0000128 
    2055            0   -17375.741    6.9282254    73.503082    4.0000128 
    2056            0   -17375.741    6.9282254    73.503082    4.0000128 
    2057            0   -17375.741    6.9282254    73.503082    4.0000128 
    2058            0   -17375.741    6.9282254    73.503082    4.0000128 
Loop time of 1.07557 on 1 procs for 14 steps with 2912 atoms

Minimization stats:
  Stopping criterion = energy tolerance
  Energy initial, next-to-last, final = 
        -17375.7378638     -17375.7411522     -17375.7411558
  Force two-norm initial, final = 1.05441 0.0198769
  Force max component initial, final = 0.129907 0.00106448
  Final line search alpha, max atom move = 0 0
  Iterations, force evaluations = 14 363

Pair  time (%) = 0.985179 (91.5962)
Neigh time (%) = 0 (0)
Comm  time (%) = 0.0207276 (1.92713)
Outpt time (%) = 0.00164728 (0.153155)
Other time (%) = 0.0680138 (6.32353)

Nlocal:    2912 ave 2912 max 2912 min
Histogram: 1 0 0 0 0 0 0 0 0 0
Nghost:    7129 ave 7129 max 7129 min
Histogram: 1 0 0 0 0 0 0 0 0 0
Neighs:    112224 ave 112224 max 112224 min
Histogram: 1 0 0 0 0 0 0 0 0 0

Total # of neighbors = 112224
Ave neighs/atom = 38.5385
Neighbor list builds = 0
Dangerous builds = 0
        next j
jump SELF loop2
        displace_atoms upper move ${xstep2} 0.0 ${zstep2} units lattice
        displace_atoms upper move 0.000833333333333329 0.0 ${zstep2} units lattice
        displace_atoms upper move 0.000833333333333329 0.0 0.00249999999999999 units lattice
        min_style ${style}
        min_style hftn
        minimize ${etol} ${ftol} ${maxiter} ${maxeval}
        minimize 1e-12 ${ftol} ${maxiter} ${maxeval}
        minimize 1e-12 1e-08 ${maxiter} ${maxeval}
        minimize 1e-12 1e-08 10000 ${maxeval}
        minimize 1e-12 1e-08 10000 20000
WARNING: Resetting reneighboring criteria during minimization (../min.cpp:168)
Memory usage per processor = 5.2861 Mbytes
Step Temp PotEng Lx Ly Lz 
    2058            0   -17375.874    6.9282254    73.502466    4.0000128 
    2059            0   -17375.874    6.9282254    73.502466    4.0000128 
    2060            0   -17375.874    6.9282254    73.502466    4.0000128 
    2061            0   -17375.874    6.9282254    73.502466    4.0000128 
    2062            0   -17375.874    6.9282254    73.502466    4.0000128 
    2063            0   -17375.874    6.9282254    73.502466    4.0000128 
    2064            0   -17375.874    6.9282254    73.502466    4.0000128 
    2065            0   -17375.874    6.9282254    73.502466    4.0000128 
    2066            0   -17375.874    6.9282254    73.502466    4.0000128 
Loop time of 0.19728 on 1 procs for 7 steps with 2912 atoms

Minimization stats:
  Stopping criterion = energy tolerance
  Energy initial, next-to-last, final = 
        -17375.8744827     -17375.8744827     -17375.8744827
  Force two-norm initial, final = 0.510074 0.510056
  Force max component initial, final = 0.0637131 0.0637109
  Final line search alpha, max atom move = 0 0
  Iterations, force evaluations = 7 66

Pair  time (%) = 0.180833 (91.6631)
Neigh time (%) = 0 (0)
Comm  time (%) = 0.00329273 (1.66906)
Outpt time (%) = 0.001062 (0.538321)
Other time (%) = 0.0120923 (6.12951)

Nlocal:    2912 ave 2912 max 2912 min
Histogram: 1 0 0 0 0 0 0 0 0 0
Nghost:    7129 ave 7129 max 7129 min
Histogram: 1 0 0 0 0 0 0 0 0 0
Neighs:    112224 ave 112224 max 112224 min
Histogram: 1 0 0 0 0 0 0 0 0 0

Total # of neighbors = 112224
Ave neighs/atom = 38.5385
Neighbor list builds = 0
Dangerous builds = 0
        next j
jump SELF loop2
        displace_atoms upper move ${xstep2} 0.0 ${zstep2} units lattice
        displace_atoms upper move 0.000833333333333329 0.0 ${zstep2} units lattice
        displace_atoms upper move 0.000833333333333329 0.0 0.00249999999999999 units lattice
        min_style ${style}
        min_style hftn
        minimize ${etol} ${ftol} ${maxiter} ${maxeval}
        minimize 1e-12 ${ftol} ${maxiter} ${maxeval}
        minimize 1e-12 1e-08 ${maxiter} ${maxeval}
        minimize 1e-12 1e-08 10000 ${maxeval}
        minimize 1e-12 1e-08 10000 20000
WARNING: Resetting reneighboring criteria during minimization (../min.cpp:168)
Memory usage per processor = 5.2861 Mbytes
Step Temp PotEng Lx Ly Lz 
    2066            0   -17375.956    6.9282254    73.502466    4.0000128 
    2067            0   -17375.956    6.9282254    73.502466    4.0000128 
    2068            0   -17375.956    6.9282254    73.502466    4.0000128 
    2069            0   -17375.956    6.9282254    73.502466    4.0000128 
    2070            0   -17375.956    6.9282254    73.502466    4.0000128 
    2071            0   -17375.956    6.9282254    73.502466    4.0000128 
    2072            0   -17375.956    6.9282254    73.502466    4.0000128 
    2073            0   -17375.956    6.9282254    73.502466    4.0000128 
    2074            0   -17375.956    6.9282254    73.502466    4.0000128 
    2075            0   -17375.956    6.9282254    73.502466    4.0000128 
    2076            0   -17375.956    6.9282254    73.502466    4.0000128 
Loop time of 0.231235 on 1 procs for 9 steps with 2912 atoms

Minimization stats:
  Stopping criterion = energy tolerance
  Energy initial, next-to-last, final = 
         -17375.956153      -17375.956153     -17375.9563051
  Force two-norm initial, final = 0.82382 0.379004
  Force max component initial, final = 0.10295 0.0429044
  Final line search alpha, max atom move = 0 0
  Iterations, force evaluations = 9 76

Pair  time (%) = 0.210779 (91.1534)
Neigh time (%) = 0 (0)
Comm  time (%) = 0.00647946 (2.80211)
Outpt time (%) = 0.00210798 (0.911616)
Other time (%) = 0.011869 (5.13288)

Nlocal:    2912 ave 2912 max 2912 min
Histogram: 1 0 0 0 0 0 0 0 0 0
Nghost:    7129 ave 7129 max 7129 min
Histogram: 1 0 0 0 0 0 0 0 0 0
Neighs:    112224 ave 112224 max 112224 min
Histogram: 1 0 0 0 0 0 0 0 0 0

Total # of neighbors = 112224
Ave neighs/atom = 38.5385
Neighbor list builds = 0
Dangerous builds = 0
        next j
jump SELF loop2
        displace_atoms upper move ${xstep2} 0.0 ${zstep2} units lattice
        displace_atoms upper move 0.000833333333333329 0.0 ${zstep2} units lattice
        displace_atoms upper move 0.000833333333333329 0.0 0.00249999999999999 units lattice
        min_style ${style}
        min_style hftn
        minimize ${etol} ${ftol} ${maxiter} ${maxeval}
        minimize 1e-12 ${ftol} ${maxiter} ${maxeval}
        minimize 1e-12 1e-08 ${maxiter} ${maxeval}
        minimize 1e-12 1e-08 10000 ${maxeval}
        minimize 1e-12 1e-08 10000 20000
WARNING: Resetting reneighboring criteria during minimization (../min.cpp:168)
Memory usage per processor = 5.2861 Mbytes
Step Temp PotEng Lx Ly Lz 
    2076            0   -17375.984    6.9282254    73.502464    4.0000128 
    2077            0   -17375.984    6.9282254    73.502464    4.0000128 
    2078            0   -17375.984    6.9282254    73.502464    4.0000128 
    2079            0   -17375.984    6.9282254    73.502464    4.0000128 
    2080            0   -17375.985    6.9282254    73.502464    4.0000128 
    2081            0   -17375.985    6.9282254    73.502464    4.0000128 
    2082            0   -17375.985    6.9282254    73.502464    4.0000128 
    2083            0   -17375.985    6.9282254    73.502464    4.0000128 
    2084            0   -17375.985    6.9282254    73.502464    4.0000128 
    2085            0   -17375.985    6.9282254    73.502464    4.0000128 
    2086            0   -17375.985    6.9282254    73.502464    4.0000128 
    2087            0   -17375.985    6.9282254    73.502464    4.0000128 
    2088            0   -17375.985    6.9282254    73.502464    4.0000128 
    2089            0   -17375.985    6.9282254    73.502464    4.0000128 
    2090            0   -17375.985    6.9282254    73.502464    4.0000128 
    2091            0   -17375.985    6.9282254    73.502464    4.0000128 
    2092            0   -17375.985    6.9282254    73.502464    4.0000128 
    2093            0   -17375.985    6.9282254    73.502464    4.0000128 
    2094            0   -17375.985    6.9282254    73.502464    4.0000128 
    2095            0   -17375.985    6.9282254    73.502464    4.0000128 
Loop time of 1.1126 on 1 procs for 18 steps with 2912 atoms

Minimization stats:
  Stopping criterion = energy tolerance
  Energy initial, next-to-last, final = 
         -17375.983794     -17375.9853484     -17375.9853551
  Force two-norm initial, final = 0.476601 0.014557
  Force max component initial, final = 0.0560856 0.000504983
  Final line search alpha, max atom move = 0 0
  Iterations, force evaluations = 18 369

Pair  time (%) = 1.03124 (92.6878)
Neigh time (%) = 0 (0)
Comm  time (%) = 0.021156 (1.90149)
Outpt time (%) = 0.00210354 (0.189065)
Other time (%) = 0.0580958 (5.22163)

Nlocal:    2912 ave 2912 max 2912 min
Histogram: 1 0 0 0 0 0 0 0 0 0
Nghost:    7129 ave 7129 max 7129 min
Histogram: 1 0 0 0 0 0 0 0 0 0
Neighs:    112224 ave 112224 max 112224 min
Histogram: 1 0 0 0 0 0 0 0 0 0

Total # of neighbors = 112224
Ave neighs/atom = 38.5385
Neighbor list builds = 0
Dangerous builds = 0
        next j
jump SELF loop2


