LAMMPS (28 Jun 2014)
# attempt at getting GSF energy

#file prefix
variable prefix string gsf_V_brittle_3d
variable dumpfile string ${prefix}.*.dump
variable dumpfile string gsf_V_brittle_3d.*.dump
variable restartfile string ${prefix}.*.equil
variable restartfile string gsf_V_brittle_3d.*.equil

#Mass (g/mol)
variable m equal 1.0

# lattice constant (in Angstroms) and orientation of axes (given by lattice vectors)
variable rho equal 1.0
variable x1 equal 1
variable x2 equal -2
variable x3 equal 1
variable y1 equal 1
variable y2 equal 1
variable y3 equal 1
variable z1 equal -1
variable z2 equal 0
variable z3 equal 1
# length of lattice in different directions (using orientation of lattice vectors)
variable ax equal sqrt(${x1}*${x1}+${x2}*${x2}+${x3}*${x3})
variable ax equal sqrt(1*${x1}+${x2}*${x2}+${x3}*${x3})
variable ax equal sqrt(1*1+${x2}*${x2}+${x3}*${x3})
variable ax equal sqrt(1*1+-2*${x2}+${x3}*${x3})
variable ax equal sqrt(1*1+-2*-2+${x3}*${x3})
variable ax equal sqrt(1*1+-2*-2+1*${x3})
variable ax equal sqrt(1*1+-2*-2+1*1)
variable ay equal sqrt(${y1}*${y1}+${y2}*${y2}+${y3}*${y3})
variable ay equal sqrt(1*${y1}+${y2}*${y2}+${y3}*${y3})
variable ay equal sqrt(1*1+${y2}*${y2}+${y3}*${y3})
variable ay equal sqrt(1*1+1*${y2}+${y3}*${y3})
variable ay equal sqrt(1*1+1*1+${y3}*${y3})
variable ay equal sqrt(1*1+1*1+1*${y3})
variable ay equal sqrt(1*1+1*1+1*1)
variable az equal sqrt(${z1}*${z1}+${z2}*${z2}+${z3}*${z3})
variable az equal sqrt(-1*${z1}+${z2}*${z2}+${z3}*${z3})
variable az equal sqrt(-1*-1+${z2}*${z2}+${z3}*${z3})
variable az equal sqrt(-1*-1+0*${z2}+${z3}*${z3})
variable az equal sqrt(-1*-1+0*0+${z3}*${z3})
variable az equal sqrt(-1*-1+0*0+1*${z3})
variable az equal sqrt(-1*-1+0*0+1*1)

# size of box in lattice units
variable lxpos equal 2
variable lxneg equal 0
variable lypos equal 15
variable lyneg equal -1*${lypos}
variable lyneg equal -1*15
variable lzpos equal 2
variable lzneg equal 0

# Define minimization parameters and damping
variable etol equal 1.0e-12
variable ftol equal 1.0e-8
variable maxiter equal 10000
variable maxeval equal 20000
variable style string hftn

# boundary conditions
dimension	3
boundary	p s p
atom_style	atomic

# create geometry
units		lj
lattice         fcc ${rho} orient x ${x1} ${x2} ${x3} orient y ${y1} ${y2} ${y3} orient z ${z1} ${z2} ${z3} spacing ${ax} ${ay} ${az}
lattice         fcc 1 orient x ${x1} ${x2} ${x3} orient y ${y1} ${y2} ${y3} orient z ${z1} ${z2} ${z3} spacing ${ax} ${ay} ${az}
lattice         fcc 1 orient x 1 ${x2} ${x3} orient y ${y1} ${y2} ${y3} orient z ${z1} ${z2} ${z3} spacing ${ax} ${ay} ${az}
lattice         fcc 1 orient x 1 -2 ${x3} orient y ${y1} ${y2} ${y3} orient z ${z1} ${z2} ${z3} spacing ${ax} ${ay} ${az}
lattice         fcc 1 orient x 1 -2 1 orient y ${y1} ${y2} ${y3} orient z ${z1} ${z2} ${z3} spacing ${ax} ${ay} ${az}
lattice         fcc 1 orient x 1 -2 1 orient y 1 ${y2} ${y3} orient z ${z1} ${z2} ${z3} spacing ${ax} ${ay} ${az}
lattice         fcc 1 orient x 1 -2 1 orient y 1 1 ${y3} orient z ${z1} ${z2} ${z3} spacing ${ax} ${ay} ${az}
lattice         fcc 1 orient x 1 -2 1 orient y 1 1 1 orient z ${z1} ${z2} ${z3} spacing ${ax} ${ay} ${az}
lattice         fcc 1 orient x 1 -2 1 orient y 1 1 1 orient z -1 ${z2} ${z3} spacing ${ax} ${ay} ${az}
lattice         fcc 1 orient x 1 -2 1 orient y 1 1 1 orient z -1 0 ${z3} spacing ${ax} ${ay} ${az}
lattice         fcc 1 orient x 1 -2 1 orient y 1 1 1 orient z -1 0 1 spacing ${ax} ${ay} ${az}
lattice         fcc 1 orient x 1 -2 1 orient y 1 1 1 orient z -1 0 1 spacing 2.44948974278318 ${ay} ${az}
lattice         fcc 1 orient x 1 -2 1 orient y 1 1 1 orient z -1 0 1 spacing 2.44948974278318 1.73205080756888 ${az}
lattice         fcc 1 orient x 1 -2 1 orient y 1 1 1 orient z -1 0 1 spacing 2.44948974278318 1.73205080756888 1.4142135623731
Lattice spacing in x,y,z = 3.88832 2.74946 2.24492
region		myregion block ${lxneg} ${lxpos} ${lyneg} ${lypos} ${lzneg} ${lzpos} units lattice
region		myregion block 0 ${lxpos} ${lyneg} ${lypos} ${lzneg} ${lzpos} units lattice
region		myregion block 0 2 ${lyneg} ${lypos} ${lzneg} ${lzpos} units lattice
region		myregion block 0 2 -15 ${lypos} ${lzneg} ${lzpos} units lattice
region		myregion block 0 2 -15 15 ${lzneg} ${lzpos} units lattice
region		myregion block 0 2 -15 15 0 ${lzpos} units lattice
region		myregion block 0 2 -15 15 0 2 units lattice
create_box	1 myregion
Created orthogonal box = (0 -41.2419 0) to (7.77665 41.2419 4.48985)
  1 by 1 by 1 MPI processor grid
create_atoms	1 box
Created 2912 atoms

# define masses
mass * $m
mass * 1

# my fake/morse potential
pair_style      table linear 3001
pair_coeff      * * vpotential_inter13d dummy
neighbor	0.3 bin
neigh_modify	delay 5

# define groups. Nudge to separate planes cleanly
region	    upper block INF INF 0.01 ${lypos} INF INF units lattice
region	    upper block INF INF 0.01 15 INF INF units lattice
group		upper region upper
1440 atoms in group upper

# Setup output
thermo 1
thermo_style custom step temp pe lx ly lz
thermo_modify norm no

# Compute initial state by relaxing box
min_style ${style}
min_style hftn
minimize ${etol} ${ftol} ${maxiter} ${maxeval}
minimize 1e-12 ${ftol} ${maxiter} ${maxeval}
minimize 1e-12 1e-08 ${maxiter} ${maxeval}
minimize 1e-12 1e-08 10000 ${maxeval}
minimize 1e-12 1e-08 10000 20000
WARNING: Resetting reneighboring criteria during minimization (../min.cpp:168)
Memory usage per processor = 5.28939 Mbytes
Step Temp PotEng Lx Ly Lz 
       0            0   -17375.986    7.7766452    82.500275    4.4898482 
       1            0   -17375.986    7.7766452    82.500275    4.4898482 
       2            0   -17375.986    7.7766452    82.500275    4.4898482 
Loop time of 1.47172 on 1 procs for 1 steps with 2912 atoms

Minimization stats:
  Stopping criterion = force tolerance
  Energy initial, next-to-last, final = 
        -17375.9855515     -17375.9855515     -17375.9858427
  Force two-norm initial, final = 0.00252636 4.78485e-12
  Force max component initial, final = 0.000315795 3.56737e-13
  Final line search alpha, max atom move = 0 0
  Iterations, force evaluations = 1 629

Pair  time (%) = 1.34489 (91.3821)
Neigh time (%) = 0 (0)
Comm  time (%) = 0.0297377 (2.0206)
Outpt time (%) = 0.000104996 (0.00713419)
Other time (%) = 0.0969887 (6.59014)

Nlocal:    2912 ave 2912 max 2912 min
Histogram: 1 0 0 0 0 0 0 0 0 0
Nghost:    7129 ave 7129 max 7129 min
Histogram: 1 0 0 0 0 0 0 0 0 0
Neighs:    77856 ave 77856 max 77856 min
Histogram: 1 0 0 0 0 0 0 0 0 0

Total # of neighbors = 77856
Ave neighs/atom = 26.7363
Neighbor list builds = 0
Dangerous builds = 0

# don't allow atoms to relax in x- and y-directions
fix 2 all setforce 0.0 NULL 0.0

# GSF energy curve will have 100*2 steps
variable nsteps equal 100
# first partial is parallel to x-axis
variable angle1 equal 0
# second partial is at 60 degrees to first partial
variable angle2 equal PI/180*60
# partial dislocations have length a*sqrt(6)/6
variable sstep1 equal sqrt(6)/6
variable sstep2 equal sqrt(6)/6
variable xstep1 equal cos(${angle1})*${sstep1}/(${ax}*${nsteps})
variable xstep1 equal cos(0)*${sstep1}/(${ax}*${nsteps})
variable xstep1 equal cos(0)*0.408248290463863/(${ax}*${nsteps})
variable xstep1 equal cos(0)*0.408248290463863/(2.44948974278318*${nsteps})
variable xstep1 equal cos(0)*0.408248290463863/(2.44948974278318*100)
variable zstep1 equal sin(${angle1})*${sstep1}/(${az}*${nsteps})
variable zstep1 equal sin(0)*${sstep1}/(${az}*${nsteps})
variable zstep1 equal sin(0)*0.408248290463863/(${az}*${nsteps})
variable zstep1 equal sin(0)*0.408248290463863/(1.4142135623731*${nsteps})
variable zstep1 equal sin(0)*0.408248290463863/(1.4142135623731*100)
variable xstep2 equal cos(${angle2})*${sstep2}/(${ax}*${nsteps})
variable xstep2 equal cos(1.0471975511966)*${sstep2}/(${ax}*${nsteps})
variable xstep2 equal cos(1.0471975511966)*0.408248290463863/(${ax}*${nsteps})
variable xstep2 equal cos(1.0471975511966)*0.408248290463863/(2.44948974278318*${nsteps})
variable xstep2 equal cos(1.0471975511966)*0.408248290463863/(2.44948974278318*100)
variable zstep2 equal sin(${angle2})*${sstep2}/(${az}*${nsteps})
variable zstep2 equal sin(1.0471975511966)*${sstep2}/(${az}*${nsteps})
variable zstep2 equal sin(1.0471975511966)*0.408248290463863/(${az}*${nsteps})
variable zstep2 equal sin(1.0471975511966)*0.408248290463863/(1.4142135623731*${nsteps})
variable zstep2 equal sin(1.0471975511966)*0.408248290463863/(1.4142135623731*100)

variable i loop ${nsteps}
variable i loop 100
label loop1
        displace_atoms upper move ${xstep1} 0.0 ${zstep1} units lattice
        displace_atoms upper move 0.00166666666666667 0.0 ${zstep1} units lattice
        displace_atoms upper move 0.00166666666666667 0.0 0 units lattice
        min_style ${style}
        min_style hftn
        minimize ${etol} ${ftol} ${maxiter} ${maxeval}
        minimize 1e-12 ${ftol} ${maxiter} ${maxeval}
        minimize 1e-12 1e-08 ${maxiter} ${maxeval}
        minimize 1e-12 1e-08 10000 ${maxeval}
        minimize 1e-12 1e-08 10000 20000
WARNING: Resetting reneighboring criteria during minimization (../min.cpp:168)
Memory usage per processor = 5.28939 Mbytes
Step Temp PotEng Lx Ly Lz 
       2            0   -17375.958    7.7766452    82.500442    4.4898482 
       3            0   -17375.958    7.7766452    82.500442    4.4898482 
       4            0   -17375.958    7.7766452    82.500442    4.4898482 
       5            0   -17375.958    7.7766452    82.500442    4.4898482 
       6            0   -17375.958    7.7766452    82.500442    4.4898482 
       7            0   -17375.958    7.7766452    82.500442    4.4898482 
       8            0   -17375.958    7.7766452    82.500442    4.4898482 
       9            0   -17375.958    7.7766452    82.500442    4.4898482 
Loop time of 0.156804 on 1 procs for 6 steps with 2912 atoms

Minimization stats:
  Stopping criterion = energy tolerance
  Energy initial, next-to-last, final = 
        -17375.9576916     -17375.9576916     -17375.9576916
  Force two-norm initial, final = 0.0967175 0.0967002
  Force max component initial, final = 0.0120897 0.0120875
  Final line search alpha, max atom move = 0 0
  Iterations, force evaluations = 6 65

Pair  time (%) = 0.144578 (92.2029)
Neigh time (%) = 0 (0)
Comm  time (%) = 0.00466585 (2.97559)
Outpt time (%) = 0.000658011 (0.419639)
Other time (%) = 0.00690231 (4.40187)

Nlocal:    2912 ave 2912 max 2912 min
Histogram: 1 0 0 0 0 0 0 0 0 0
Nghost:    7129 ave 7129 max 7129 min
Histogram: 1 0 0 0 0 0 0 0 0 0
Neighs:    77856 ave 77856 max 77856 min
Histogram: 1 0 0 0 0 0 0 0 0 0

Total # of neighbors = 77856
Ave neighs/atom = 26.7363
Neighbor list builds = 0
Dangerous builds = 0
        next i
jump SELF loop1
        displace_atoms upper move ${xstep1} 0.0 ${zstep1} units lattice
        displace_atoms upper move 0.00166666666666667 0.0 ${zstep1} units lattice
        displace_atoms upper move 0.00166666666666667 0.0 0 units lattice
        min_style ${style}
        min_style hftn
        minimize ${etol} ${ftol} ${maxiter} ${maxeval}
        minimize 1e-12 ${ftol} ${maxiter} ${maxeval}
        minimize 1e-12 1e-08 ${maxiter} ${maxeval}
        minimize 1e-12 1e-08 10000 ${maxeval}
        minimize 1e-12 1e-08 10000 20000
WARNING: Resetting reneighboring criteria during minimization (../min.cpp:168)
Memory usage per processor = 5.28939 Mbytes
Step Temp PotEng Lx Ly Lz 
       9            0   -17375.875    7.7766452    82.500442    4.4898482 
      10            0   -17375.875    7.7766452    82.500442    4.4898482 
      11            0   -17375.875    7.7766452    82.500442    4.4898482 
      12            0   -17375.875    7.7766452    82.500442    4.4898482 
      13            0   -17375.875    7.7766452    82.500442    4.4898482 
      14            0   -17375.875    7.7766452    82.500442    4.4898482 
      15            0   -17375.875    7.7766452    82.500442    4.4898482 
      16            0   -17375.875    7.7766452    82.500442    4.4898482 
      17            0   -17375.875    7.7766452    82.500442    4.4898482 
      18            0   -17375.875    7.7766452    82.500442    4.4898482 
      19            0   -17375.875    7.7766452    82.500442    4.4898482 
Loop time of 0.177917 on 1 procs for 9 steps with 2912 atoms

Minimization stats:
  Stopping criterion = energy tolerance
  Energy initial, next-to-last, final = 
        -17375.8752298     -17375.8752972     -17375.8753178
  Force two-norm initial, final = 0.379021 0.0896676
  Force max component initial, final = 0.0473777 0.0103845
  Final line search alpha, max atom move = 0 0
  Iterations, force evaluations = 9 72

Pair  time (%) = 0.160764 (90.3591)
Neigh time (%) = 0 (0)
Comm  time (%) = 0.00545872 (3.06813)
Outpt time (%) = 0.00358388 (2.01436)
Other time (%) = 0.00811021 (4.55842)

Nlocal:    2912 ave 2912 max 2912 min
Histogram: 1 0 0 0 0 0 0 0 0 0
Nghost:    7129 ave 7129 max 7129 min
Histogram: 1 0 0 0 0 0 0 0 0 0
Neighs:    77856 ave 77856 max 77856 min
Histogram: 1 0 0 0 0 0 0 0 0 0

Total # of neighbors = 77856
Ave neighs/atom = 26.7363
Neighbor list builds = 0
Dangerous builds = 0
        next i
jump SELF loop1
        displace_atoms upper move ${xstep1} 0.0 ${zstep1} units lattice
        displace_atoms upper move 0.00166666666666667 0.0 ${zstep1} units lattice
        displace_atoms upper move 0.00166666666666667 0.0 0 units lattice
        min_style ${style}
        min_style hftn
        minimize ${etol} ${ftol} ${maxiter} ${maxeval}
        minimize 1e-12 ${ftol} ${maxiter} ${maxeval}
        minimize 1e-12 1e-08 ${maxiter} ${maxeval}
        minimize 1e-12 1e-08 10000 ${maxeval}
        minimize 1e-12 1e-08 10000 20000
WARNING: Resetting reneighboring criteria during minimization (../min.cpp:168)
Memory usage per processor = 5.28939 Mbytes
Step Temp PotEng Lx Ly Lz 
      19            0   -17375.741    7.7766452    82.500442    4.4898482 
      20            0   -17375.741    7.7766452    82.500442    4.4898482 
      21            0   -17375.741    7.7766452    82.500442    4.4898482 
      22            0   -17375.741    7.7766452    82.500442    4.4898482 
      23            0   -17375.741    7.7766452    82.500442    4.4898482 
      24            0   -17375.741    7.7766452    82.500442    4.4898482 
      25            0   -17375.741    7.7766452    82.500442    4.4898482 
      26            0   -17375.741    7.7766452    82.500442    4.4898482 
      27            0   -17375.741    7.7766452    82.500442    4.4898482 
      28            0   -17375.741    7.7766452    82.500442    4.4898482 
Loop time of 0.183402 on 1 procs for 8 steps with 2912 atoms

Minimization stats:
  Stopping criterion = energy tolerance
  Energy initial, next-to-last, final = 
        -17375.7411028     -17375.7411028     -17375.7411027
  Force two-norm initial, final = 0.49275 0.492724
  Force max component initial, final = 0.0606575 0.060654
  Final line search alpha, max atom move = 0 0
  Iterations, force evaluations = 8 75

Pair  time (%) = 0.17142 (93.4667)
Neigh time (%) = 0 (0)
Comm  time (%) = 0.00291097 (1.58721)
Outpt time (%) = 0.000588741 (0.321012)
Other time (%) = 0.00848244 (4.62506)

Nlocal:    2912 ave 2912 max 2912 min
Histogram: 1 0 0 0 0 0 0 0 0 0
Nghost:    7129 ave 7129 max 7129 min
Histogram: 1 0 0 0 0 0 0 0 0 0
Neighs:    77856 ave 77856 max 77856 min
Histogram: 1 0 0 0 0 0 0 0 0 0

Total # of neighbors = 77856
Ave neighs/atom = 26.7363
Neighbor list builds = 0
Dangerous builds = 0
        next i
jump SELF loop1
        displace_atoms upper move ${xstep1} 0.0 ${zstep1} units lattice
        displace_atoms upper move 0.00166666666666667 0.0 ${zstep1} units lattice
        displace_atoms upper move 0.00166666666666667 0.0 0 units lattice
        min_style ${style}
        min_style hftn
        minimize ${etol} ${ftol} ${maxiter} ${maxeval}
        minimize 1e-12 ${ftol} ${maxiter} ${maxeval}
        minimize 1e-12 1e-08 ${maxiter} ${maxeval}
        minimize 1e-12 1e-08 10000 ${maxeval}
        minimize 1e-12 1e-08 10000 20000
WARNING: Resetting reneighboring criteria during minimization (../min.cpp:168)
Memory usage per processor = 5.28939 Mbytes
Step Temp PotEng Lx Ly Lz 
      28            0   -17375.557    7.7766452    82.500442    4.4898482 
      29            0   -17375.558    7.7766452    82.500442    4.4898482 
      30            0    -17375.56    7.7766452    82.500442    4.4898482 
      31            0    -17375.56    7.7766452    82.500442    4.4898482 
      32            0    -17375.56    7.7766452    82.500442    4.4898482 
Loop time of 1.46987 on 1 procs for 3 steps with 2912 atoms

Minimization stats:
  Stopping criterion = force tolerance
  Energy initial, next-to-last, final = 
        -17375.5573507     -17375.5596613     -17375.5596792
  Force two-norm initial, final = 1.11464 8.04844e-12
  Force max component initial, final = 0.138919 6.72673e-13
  Final line search alpha, max atom move = 0 0
  Iterations, force evaluations = 3 621

Pair  time (%) = 1.33836 (91.0531)
Neigh time (%) = 0 (0)
Comm  time (%) = 0.027762 (1.88873)
Outpt time (%) = 0.00026604 (0.0180995)
Other time (%) = 0.103481 (7.04011)

Nlocal:    2912 ave 2912 max 2912 min
Histogram: 1 0 0 0 0 0 0 0 0 0
Nghost:    7129 ave 7129 max 7129 min
Histogram: 1 0 0 0 0 0 0 0 0 0
Neighs:    77856 ave 77856 max 77856 min
Histogram: 1 0 0 0 0 0 0 0 0 0

Total # of neighbors = 77856
Ave neighs/atom = 26.7363
Neighbor list builds = 0
Dangerous builds = 0
        next i
jump SELF loop1
        displace_atoms upper move ${xstep1} 0.0 ${zstep1} units lattice
        displace_atoms upper move 0.00166666666666667 0.0 ${zstep1} units lattice
        displace_atoms upper move 0.00166666666666667 0.0 0 units lattice
        min_style ${style}
        min_style hftn
        minimize ${etol} ${ftol} ${maxiter} ${maxeval}
        minimize 1e-12 ${ftol} ${maxiter} ${maxeval}
        minimize 1e-12 1e-08 ${maxiter} ${maxeval}
        minimize 1e-12 1e-08 10000 ${maxeval}
        minimize 1e-12 1e-08 10000 20000
WARNING: Resetting reneighboring criteria during minimization (../min.cpp:168)
Memory usage per processor = 5.28939 Mbytes
Step Temp PotEng Lx Ly Lz 
      32            0   -17375.331    7.7766452     82.50152    4.4898482 
      33            0   -17375.332    7.7766452     82.50152    4.4898482 
      34            0   -17375.332    7.7766452     82.50152    4.4898482 
      35            0   -17375.332    7.7766452     82.50152    4.4898482 
      36            0   -17375.332    7.7766452     82.50152    4.4898482 
Loop time of 1.22604 on 1 procs for 3 steps with 2912 atoms

Minimization stats:
  Stopping criterion = force tolerance
  Energy initial, next-to-last, final = 
        -17375.3314276     -17375.3323558     -17375.3323659
  Force two-norm initial, final = 0.775681 1.19457e-11
  Force max component initial, final = 0.0969602 1.97683e-12
  Final line search alpha, max atom move = 0 0
  Iterations, force evaluations = 3 509

Pair  time (%) = 1.11653 (91.0679)
Neigh time (%) = 0 (0)
Comm  time (%) = 0.0231665 (1.88954)
Outpt time (%) = 0.00487512 (0.397632)
Other time (%) = 0.0814693 (6.64493)

Nlocal:    2912 ave 2912 max 2912 min
Histogram: 1 0 0 0 0 0 0 0 0 0
Nghost:    7009 ave 7009 max 7009 min
Histogram: 1 0 0 0 0 0 0 0 0 0
Neighs:    77856 ave 77856 max 77856 min
Histogram: 1 0 0 0 0 0 0 0 0 0

Total # of neighbors = 77856
Ave neighs/atom = 26.7363
Neighbor list builds = 0
Dangerous builds = 0
        next i
jump SELF loop1
        displace_atoms upper move ${xstep1} 0.0 ${zstep1} units lattice
        displace_atoms upper move 0.00166666666666667 0.0 ${zstep1} units lattice
        displace_atoms upper move 0.00166666666666667 0.0 0 units lattice
        min_style ${style}
        min_style hftn
        minimize ${etol} ${ftol} ${maxiter} ${maxeval}
        minimize 1e-12 ${ftol} ${maxiter} ${maxeval}
        minimize 1e-12 1e-08 ${maxiter} ${maxeval}
        minimize 1e-12 1e-08 10000 ${maxeval}
        minimize 1e-12 1e-08 10000 20000
WARNING: Resetting reneighboring criteria during minimization (../min.cpp:168)
Memory usage per processor = 5.28939 Mbytes
Step Temp PotEng Lx Ly Lz 
      36            0   -17375.067    7.7766452    82.502093    4.4898482 
      37            0   -17375.067    7.7766452    82.502093    4.4898482 
      38            0   -17375.067    7.7766452    82.502093    4.4898482 
      39            0   -17375.067    7.7766452    82.502093    4.4898482 
Loop time of 0.749334 on 1 procs for 2 steps with 2912 atoms

Minimization stats:
  Stopping criterion = force tolerance
  Energy initial, next-to-last, final = 
        -17375.0666804     -17375.0667434     -17375.0674073
  Force two-norm initial, final = 0.593649 2.99754e-09
  Force max component initial, final = 0.0742061 3.91571e-10
  Final line search alpha, max atom move = 0 0
  Iterations, force evaluations = 2 313

Pair  time (%) = 0.684146 (91.3006)
Neigh time (%) = 0 (0)
Comm  time (%) = 0.0132104 (1.76295)
Outpt time (%) = 0.000157916 (0.0210741)
Other time (%) = 0.0518192 (6.91537)

Nlocal:    2912 ave 2912 max 2912 min
Histogram: 1 0 0 0 0 0 0 0 0 0
Nghost:    7009 ave 7009 max 7009 min
Histogram: 1 0 0 0 0 0 0 0 0 0
Neighs:    77856 ave 77856 max 77856 min
Histogram: 1 0 0 0 0 0 0 0 0 0

Total # of neighbors = 77856
Ave neighs/atom = 26.7363
Neighbor list builds = 0
Dangerous builds = 0
        next i
jump SELF loop1
        displace_atoms upper move ${xstep1} 0.0 ${zstep1} units lattice
        displace_atoms upper move 0.00166666666666667 0.0 ${zstep1} units lattice
        displace_atoms upper move 0.00166666666666667 0.0 0 units lattice
        min_style ${style}
        min_style hftn
        minimize ${etol} ${ftol} ${maxiter} ${maxeval}
        minimize 1e-12 ${ftol} ${maxiter} ${maxeval}
        minimize 1e-12 1e-08 ${maxiter} ${maxeval}
        minimize 1e-12 1e-08 10000 ${maxeval}
        minimize 1e-12 1e-08 10000 20000
WARNING: Resetting reneighboring criteria during minimization (../min.cpp:168)
Memory usage per processor = 5.28939 Mbytes
Step Temp PotEng Lx Ly Lz 
      39            0   -17374.775    7.7766452    82.502545    4.4898482 
      40            0   -17374.775    7.7766452    82.502545    4.4898482 
      41            0   -17374.775    7.7766452    82.502545    4.4898482 
      42            0   -17374.775    7.7766452    82.502545    4.4898482 
      43            0   -17374.775    7.7766452    82.502545    4.4898482 
Loop time of 1.18949 on 1 procs for 3 steps with 2912 atoms

Minimization stats:
  Stopping criterion = force tolerance
  Energy initial, next-to-last, final = 
        -17374.7745568     -17374.7754743     -17374.7754799
  Force two-norm initial, final = 0.660928 5.89763e-11
  Force max component initial, final = 0.082616 3.63792e-12
  Final line search alpha, max atom move = 0 0
  Iterations, force evaluations = 3 493

Pair  time (%) = 1.09089 (91.7107)
Neigh time (%) = 0 (0)
Comm  time (%) = 0.0218698 (1.83858)
Outpt time (%) = 0.000282015 (0.0237088)
Other time (%) = 0.0764489 (6.42702)

Nlocal:    2912 ave 2912 max 2912 min
Histogram: 1 0 0 0 0 0 0 0 0 0
Nghost:    7009 ave 7009 max 7009 min
Histogram: 1 0 0 0 0 0 0 0 0 0
Neighs:    77856 ave 77856 max 77856 min
Histogram: 1 0 0 0 0 0 0 0 0 0

Total # of neighbors = 77856
Ave neighs/atom = 26.7363
Neighbor list builds = 0
Dangerous builds = 0
        next i
jump SELF loop1
        displace_atoms upper move ${xstep1} 0.0 ${zstep1} units lattice
        displace_atoms upper move 0.00166666666666667 0.0 ${zstep1} units lattice
        displace_atoms upper move 0.00166666666666667 0.0 0 units lattice
        min_style ${style}
        min_style hftn
        minimize ${etol} ${ftol} ${maxiter} ${maxeval}
        minimize 1e-12 ${ftol} ${maxiter} ${maxeval}
        minimize 1e-12 1e-08 ${maxiter} ${maxeval}
        minimize 1e-12 1e-08 10000 ${maxeval}
        minimize 1e-12 1e-08 10000 20000
WARNING: Resetting reneighboring criteria during minimization (../min.cpp:168)
Memory usage per processor = 5.28939 Mbytes
Step Temp PotEng Lx Ly Lz 
      43            0   -17374.459    7.7766452    82.503046    4.4898482 
      44            0   -17374.459    7.7766452    82.503046    4.4898482 
      45            0    -17374.46    7.7766452    82.503046    4.4898482 
      46            0    -17374.46    7.7766452    82.503046    4.4898482 
Loop time of 0.726395 on 1 procs for 2 steps with 2912 atoms

Minimization stats:
  Stopping criterion = force tolerance
  Energy initial, next-to-last, final = 
        -17374.4585874     -17374.4587154     -17374.4595904
  Force two-norm initial, final = 0.781618 7.12313e-09
  Force max component initial, final = 0.0977023 9.00682e-10
  Final line search alpha, max atom move = 0 0
  Iterations, force evaluations = 2 307

Pair  time (%) = 0.667783 (91.9311)
Neigh time (%) = 0 (0)
Comm  time (%) = 0.0142074 (1.95588)
Outpt time (%) = 0.000158087 (0.0217632)
Other time (%) = 0.0442466 (6.09126)

Nlocal:    2912 ave 2912 max 2912 min
Histogram: 1 0 0 0 0 0 0 0 0 0
Nghost:    7009 ave 7009 max 7009 min
Histogram: 1 0 0 0 0 0 0 0 0 0
Neighs:    77856 ave 77856 max 77856 min
Histogram: 1 0 0 0 0 0 0 0 0 0

Total # of neighbors = 77856
Ave neighs/atom = 26.7363
Neighbor list builds = 0
Dangerous builds = 0
        next i
jump SELF loop1
        displace_atoms upper move ${xstep1} 0.0 ${zstep1} units lattice
        displace_atoms upper move 0.00166666666666667 0.0 ${zstep1} units lattice
        displace_atoms upper move 0.00166666666666667 0.0 0 units lattice
        min_style ${style}
        min_style hftn
        minimize ${etol} ${ftol} ${maxiter} ${maxeval}
        minimize 1e-12 ${ftol} ${maxiter} ${maxeval}
        minimize 1e-12 1e-08 ${maxiter} ${maxeval}
        minimize 1e-12 1e-08 10000 ${maxeval}
        minimize 1e-12 1e-08 10000 20000
WARNING: Resetting reneighboring criteria during minimization (../min.cpp:168)
Memory usage per processor = 5.28939 Mbytes
Step Temp PotEng Lx Ly Lz 
      46            0   -17374.122    7.7766452    82.503638    4.4898482 
      47            0   -17374.122    7.7766452    82.503638    4.4898482 
      48            0   -17374.123    7.7766452    82.503638    4.4898482 
      49            0   -17374.123    7.7766452    82.503638    4.4898482 
      50            0   -17374.123    7.7766452    82.503638    4.4898482 
Loop time of 1.54025 on 1 procs for 3 steps with 2912 atoms

Minimization stats:
  Stopping criterion = force tolerance
  Energy initial, next-to-last, final = 
        -17374.1216695     -17374.1228411     -17374.1228552
  Force two-norm initial, final = 0.890376 9.27861e-12
  Force max component initial, final = 0.111297 1.06392e-12
  Final line search alpha, max atom move = 0 0
  Iterations, force evaluations = 3 659

Pair  time (%) = 1.41438 (91.828)
Neigh time (%) = 0 (0)
Comm  time (%) = 0.0248156 (1.61114)
Outpt time (%) = 0.000322891 (0.0209635)
Other time (%) = 0.100731 (6.53987)

Nlocal:    2912 ave 2912 max 2912 min
Histogram: 1 0 0 0 0 0 0 0 0 0
Nghost:    7009 ave 7009 max 7009 min
Histogram: 1 0 0 0 0 0 0 0 0 0
Neighs:    77856 ave 77856 max 77856 min
Histogram: 1 0 0 0 0 0 0 0 0 0

Total # of neighbors = 77856
Ave neighs/atom = 26.7363
Neighbor list builds = 0
Dangerous builds = 0
        next i
jump SELF loop1
        displace_atoms upper move ${xstep1} 0.0 ${zstep1} units lattice
        displace_atoms upper move 0.00166666666666667 0.0 ${zstep1} units lattice
        displace_atoms upper move 0.00166666666666667 0.0 0 units lattice
        min_style ${style}
        min_style hftn
        minimize ${etol} ${ftol} ${maxiter} ${maxeval}
        minimize 1e-12 ${ftol} ${maxiter} ${maxeval}
        minimize 1e-12 1e-08 ${maxiter} ${maxeval}
        minimize 1e-12 1e-08 10000 ${maxeval}
        minimize 1e-12 1e-08 10000 20000
WARNING: Resetting reneighboring criteria during minimization (../min.cpp:168)
Memory usage per processor = 5.28939 Mbytes
Step Temp PotEng Lx Ly Lz 
      50            0   -17373.767    7.7766452    82.504311    4.4898482 
      51            0   -17373.767    7.7766452    82.504311    4.4898482 
      52            0   -17373.769    7.7766452    82.504311    4.4898482 
      53            0   -17373.769    7.7766452    82.504311    4.4898482 
      54            0   -17373.769    7.7766452    82.504311    4.4898482 
Loop time of 1.50912 on 1 procs for 3 steps with 2912 atoms

Minimization stats:
  Stopping criterion = force tolerance
  Energy initial, next-to-last, final = 
        -17373.7671315     -17373.7686012     -17373.7686166
  Force two-norm initial, final = 0.98632 1.06761e-11
  Force max component initial, final = 0.12329 1.84642e-12
  Final line search alpha, max atom move = 0 0
  Iterations, force evaluations = 3 651

Pair  time (%) = 1.388 (91.9741)
Neigh time (%) = 0 (0)
Comm  time (%) = 0.0240534 (1.59387)
Outpt time (%) = 0.000281837 (0.0186756)
Other time (%) = 0.0967855 (6.41338)

Nlocal:    2912 ave 2912 max 2912 min
Histogram: 1 0 0 0 0 0 0 0 0 0
Nghost:    7009 ave 7009 max 7009 min
Histogram: 1 0 0 0 0 0 0 0 0 0
Neighs:    77856 ave 77856 max 77856 min
Histogram: 1 0 0 0 0 0 0 0 0 0

Total # of neighbors = 77856
Ave neighs/atom = 26.7363
Neighbor list builds = 0
Dangerous builds = 0
        next i
jump SELF loop1
        displace_atoms upper move ${xstep1} 0.0 ${zstep1} units lattice
        displace_atoms upper move 0.00166666666666667 0.0 ${zstep1} units lattice
        displace_atoms upper move 0.00166666666666667 0.0 0 units lattice
        min_style ${style}
        min_style hftn
        minimize ${etol} ${ftol} ${maxiter} ${maxeval}
        minimize 1e-12 ${ftol} ${maxiter} ${maxeval}
        minimize 1e-12 1e-08 ${maxiter} ${maxeval}
        minimize 1e-12 1e-08 10000 ${maxeval}
        minimize 1e-12 1e-08 10000 20000
WARNING: Resetting reneighboring criteria during minimization (../min.cpp:168)
Memory usage per processor = 5.28939 Mbytes
Step Temp PotEng Lx Ly Lz 
      54            0   -17373.397    7.7766452    82.505053    4.4898482 
      55            0   -17373.398    7.7766452    82.505053    4.4898482 
      56            0   -17373.399    7.7766452    82.505053    4.4898482 
      57            0   -17373.399    7.7766452    82.505053    4.4898482 
      58            0   -17373.399    7.7766452    82.505053    4.4898482 
Loop time of 1.15259 on 1 procs for 3 steps with 2912 atoms

Minimization stats:
  Stopping criterion = force tolerance
  Energy initial, next-to-last, final = 
        -17373.3971092     -17373.3988212     -17373.3988381
  Force two-norm initial, final = 1.07478 5.75813e-11
  Force max component initial, final = 0.134347 3.92621e-12
  Final line search alpha, max atom move = 0 0
  Iterations, force evaluations = 3 489

Pair  time (%) = 1.05552 (91.5779)
Neigh time (%) = 0 (0)
Comm  time (%) = 0.0198932 (1.72595)
Outpt time (%) = 0.00429091 (0.372282)
Other time (%) = 0.0728886 (6.32387)

Nlocal:    2912 ave 2912 max 2912 min
Histogram: 1 0 0 0 0 0 0 0 0 0
Nghost:    7009 ave 7009 max 7009 min
Histogram: 1 0 0 0 0 0 0 0 0 0
Neighs:    77856 ave 77856 max 77856 min
Histogram: 1 0 0 0 0 0 0 0 0 0

Total # of neighbors = 77856
Ave neighs/atom = 26.7363
Neighbor list builds = 0
Dangerous builds = 0
        next i
jump SELF loop1
        displace_atoms upper move ${xstep1} 0.0 ${zstep1} units lattice
        displace_atoms upper move 0.00166666666666667 0.0 ${zstep1} units lattice
        displace_atoms upper move 0.00166666666666667 0.0 0 units lattice
        min_style ${style}
        min_style hftn
        minimize ${etol} ${ftol} ${maxiter} ${maxeval}
        minimize 1e-12 ${ftol} ${maxiter} ${maxeval}
        minimize 1e-12 1e-08 ${maxiter} ${maxeval}
        minimize 1e-12 1e-08 10000 ${maxeval}
        minimize 1e-12 1e-08 10000 20000
WARNING: Resetting reneighboring criteria during minimization (../min.cpp:168)
Memory usage per processor = 5.28939 Mbytes
Step Temp PotEng Lx Ly Lz 
      58            0   -17373.015    7.7766452    82.505861    4.4898482 
      59            0   -17373.016    7.7766452    82.505861    4.4898482 
      60            0   -17373.017    7.7766452    82.505861    4.4898482 
      61            0   -17373.017    7.7766452    82.505861    4.4898482 
      62            0   -17373.017    7.7766452    82.505861    4.4898482 
Loop time of 1.11716 on 1 procs for 3 steps with 2912 atoms

Minimization stats:
  Stopping criterion = force tolerance
  Energy initial, next-to-last, final = 
         -17373.015264     -17373.0170864     -17373.0171044
  Force two-norm initial, final = 1.14829 9.27637e-11
  Force max component initial, final = 0.143536 5.2647e-12
  Final line search alpha, max atom move = 0 0
  Iterations, force evaluations = 3 487

Pair  time (%) = 1.02379 (91.6416)
Neigh time (%) = 0 (0)
Comm  time (%) = 0.0184934 (1.65539)
Outpt time (%) = 0.00027397 (0.0245237)
Other time (%) = 0.0746094 (6.67847)

Nlocal:    2912 ave 2912 max 2912 min
Histogram: 1 0 0 0 0 0 0 0 0 0
Nghost:    7009 ave 7009 max 7009 min
Histogram: 1 0 0 0 0 0 0 0 0 0
Neighs:    77856 ave 77856 max 77856 min
Histogram: 1 0 0 0 0 0 0 0 0 0

Total # of neighbors = 77856
Ave neighs/atom = 26.7363
Neighbor list builds = 0
Dangerous builds = 0
        next i
jump SELF loop1
        displace_atoms upper move ${xstep1} 0.0 ${zstep1} units lattice
        displace_atoms upper move 0.00166666666666667 0.0 ${zstep1} units lattice
        displace_atoms upper move 0.00166666666666667 0.0 0 units lattice
        min_style ${style}
        min_style hftn
        minimize ${etol} ${ftol} ${maxiter} ${maxeval}
        minimize 1e-12 ${ftol} ${maxiter} ${maxeval}
        minimize 1e-12 1e-08 ${maxiter} ${maxeval}
        minimize 1e-12 1e-08 10000 ${maxeval}
        minimize 1e-12 1e-08 10000 20000
WARNING: Resetting reneighboring criteria during minimization (../min.cpp:168)
Memory usage per processor = 5.28939 Mbytes
Step Temp PotEng Lx Ly Lz 
      62            0   -17372.624    7.7766452    82.506722    4.4898482 
      63            0   -17372.625    7.7766452    82.506722    4.4898482 
      64            0   -17372.626    7.7766452    82.506722    4.4898482 
      65            0   -17372.626    7.7766452    82.506722    4.4898482 
      66            0   -17372.626    7.7766452    82.506722    4.4898482 
Loop time of 1.13196 on 1 procs for 3 steps with 2912 atoms

Minimization stats:
  Stopping criterion = force tolerance
  Energy initial, next-to-last, final = 
        -17372.6239206     -17372.6258792     -17372.6259023
  Force two-norm initial, final = 1.21298 1.48199e-10
  Force max component initial, final = 0.151623 9.28701e-12
  Final line search alpha, max atom move = 0 0
  Iterations, force evaluations = 3 483

Pair  time (%) = 1.03219 (91.1854)
Neigh time (%) = 0 (0)
Comm  time (%) = 0.0207426 (1.83245)
Outpt time (%) = 0.000544906 (0.0481381)
Other time (%) = 0.078491 (6.93405)

Nlocal:    2912 ave 2912 max 2912 min
Histogram: 1 0 0 0 0 0 0 0 0 0
Nghost:    7009 ave 7009 max 7009 min
Histogram: 1 0 0 0 0 0 0 0 0 0
Neighs:    77856 ave 77856 max 77856 min
Histogram: 1 0 0 0 0 0 0 0 0 0

Total # of neighbors = 77856
Ave neighs/atom = 26.7363
Neighbor list builds = 0
Dangerous builds = 0
        next i
jump SELF loop1
        displace_atoms upper move ${xstep1} 0.0 ${zstep1} units lattice
        displace_atoms upper move 0.00166666666666667 0.0 ${zstep1} units lattice
        displace_atoms upper move 0.00166666666666667 0.0 0 units lattice
        min_style ${style}
        min_style hftn
        minimize ${etol} ${ftol} ${maxiter} ${maxeval}
        minimize 1e-12 ${ftol} ${maxiter} ${maxeval}
        minimize 1e-12 1e-08 ${maxiter} ${maxeval}
        minimize 1e-12 1e-08 10000 ${maxeval}
        minimize 1e-12 1e-08 10000 20000
WARNING: Resetting reneighboring criteria during minimization (../min.cpp:168)
Memory usage per processor = 5.28939 Mbytes
Step Temp PotEng Lx Ly Lz 
      66            0   -17372.228    7.7766452    82.507639    4.4898482 
      67            0   -17372.229    7.7766452    82.507639    4.4898482 
      68            0    -17372.23    7.7766452    82.507639    4.4898482 
      69            0    -17372.23    7.7766452    82.507639    4.4898482 
      70            0    -17372.23    7.7766452    82.507639    4.4898482 
Loop time of 1.10543 on 1 procs for 3 steps with 2912 atoms

Minimization stats:
  Stopping criterion = force tolerance
  Energy initial, next-to-last, final = 
        -17372.2275666     -17372.2303706     -17372.2303995
  Force two-norm initial, final = 1.4318 3.98487e-11
  Force max component initial, final = 0.178975 2.82796e-12
  Final line search alpha, max atom move = 0 0
  Iterations, force evaluations = 3 484

Pair  time (%) = 1.00976 (91.3454)
Neigh time (%) = 0 (0)
Comm  time (%) = 0.0209717 (1.89715)
Outpt time (%) = 0.00360698 (0.326295)
Other time (%) = 0.0710924 (6.43118)

Nlocal:    2912 ave 2912 max 2912 min
Histogram: 1 0 0 0 0 0 0 0 0 0
Nghost:    7009 ave 7009 max 7009 min
Histogram: 1 0 0 0 0 0 0 0 0 0
Neighs:    77792 ave 77792 max 77792 min
Histogram: 1 0 0 0 0 0 0 0 0 0

Total # of neighbors = 77792
Ave neighs/atom = 26.7143
Neighbor list builds = 0
Dangerous builds = 0
        next i
jump SELF loop1
        displace_atoms upper move ${xstep1} 0.0 ${zstep1} units lattice
        displace_atoms upper move 0.00166666666666667 0.0 ${zstep1} units lattice
        displace_atoms upper move 0.00166666666666667 0.0 0 units lattice
        min_style ${style}
        min_style hftn
        minimize ${etol} ${ftol} ${maxiter} ${maxeval}
        minimize 1e-12 ${ftol} ${maxiter} ${maxeval}
        minimize 1e-12 1e-08 ${maxiter} ${maxeval}
        minimize 1e-12 1e-08 10000 ${maxeval}
        minimize 1e-12 1e-08 10000 20000
WARNING: Resetting reneighboring criteria during minimization (../min.cpp:168)
Memory usage per processor = 5.28939 Mbytes
Step Temp PotEng Lx Ly Lz 
      70            0   -17371.832    7.7766452    82.508733    4.4898482 
      71            0   -17371.833    7.7766452    82.508733    4.4898482 
      72            0   -17371.835    7.7766452    82.508733    4.4898482 
      73            0   -17371.835    7.7766452    82.508733    4.4898482 
      74            0   -17371.835    7.7766452    82.508733    4.4898482 
Loop time of 1.10076 on 1 procs for 3 steps with 2912 atoms

Minimization stats:
  Stopping criterion = force tolerance
  Energy initial, next-to-last, final = 
        -17371.8316729     -17371.8346313     -17371.8346537
  Force two-norm initial, final = 1.41859 5.10174e-11
  Force max component initial, final = 0.177324 3.67224e-12
  Final line search alpha, max atom move = 0 0
  Iterations, force evaluations = 3 487

Pair  time (%) = 1.00463 (91.2667)
Neigh time (%) = 0 (0)
Comm  time (%) = 0.0179779 (1.63323)
Outpt time (%) = 0.000269035 (0.0244408)
Other time (%) = 0.0778853 (7.07559)

Nlocal:    2912 ave 2912 max 2912 min
Histogram: 1 0 0 0 0 0 0 0 0 0
Nghost:    7009 ave 7009 max 7009 min
Histogram: 1 0 0 0 0 0 0 0 0 0
Neighs:    77792 ave 77792 max 77792 min
Histogram: 1 0 0 0 0 0 0 0 0 0

Total # of neighbors = 77792
Ave neighs/atom = 26.7143
Neighbor list builds = 0
Dangerous builds = 0
        next i
jump SELF loop1
        displace_atoms upper move ${xstep1} 0.0 ${zstep1} units lattice
        displace_atoms upper move 0.00166666666666667 0.0 ${zstep1} units lattice
        displace_atoms upper move 0.00166666666666667 0.0 0 units lattice
        min_style ${style}
        min_style hftn
        minimize ${etol} ${ftol} ${maxiter} ${maxeval}
        minimize 1e-12 ${ftol} ${maxiter} ${maxeval}
        minimize 1e-12 1e-08 ${maxiter} ${maxeval}
        minimize 1e-12 1e-08 10000 ${maxeval}
        minimize 1e-12 1e-08 10000 20000
WARNING: Resetting reneighboring criteria during minimization (../min.cpp:168)
Memory usage per processor = 5.28939 Mbytes
Step Temp PotEng Lx Ly Lz 
      74            0   -17371.436    7.7766452    82.509807    4.4898482 
      75            0   -17371.438    7.7766452    82.509807    4.4898482 
      76            0   -17371.439    7.7766452    82.509807    4.4898482 
      77            0   -17371.439    7.7766452    82.509807    4.4898482 
      78            0   -17371.439    7.7766452    82.509807    4.4898482 
Loop time of 1.12104 on 1 procs for 3 steps with 2912 atoms

Minimization stats:
  Stopping criterion = force tolerance
  Energy initial, next-to-last, final = 
        -17371.4361943     -17371.4394233     -17371.4394449
  Force two-norm initial, final = 1.39898 1.001e-10
  Force max component initial, final = 0.174873 7.04247e-12
  Final line search alpha, max atom move = 0 0
  Iterations, force evaluations = 3 485

Pair  time (%) = 1.02198 (91.1633)
Neigh time (%) = 0 (0)
Comm  time (%) = 0.0185741 (1.65686)
Outpt time (%) = 0.00036993 (0.0329987)
Other time (%) = 0.0801188 (7.14681)

Nlocal:    2912 ave 2912 max 2912 min
Histogram: 1 0 0 0 0 0 0 0 0 0
Nghost:    7009 ave 7009 max 7009 min
Histogram: 1 0 0 0 0 0 0 0 0 0
Neighs:    77792 ave 77792 max 77792 min
Histogram: 1 0 0 0 0 0 0 0 0 0

Total # of neighbors = 77792
Ave neighs/atom = 26.7143
Neighbor list builds = 0
Dangerous builds = 0
        next i
jump SELF loop1
        displace_atoms upper move ${xstep1} 0.0 ${zstep1} units lattice
        displace_atoms upper move 0.00166666666666667 0.0 ${zstep1} units lattice
        displace_atoms upper move 0.00166666666666667 0.0 0 units lattice
        min_style ${style}
        min_style hftn
        minimize ${etol} ${ftol} ${maxiter} ${maxeval}
        minimize 1e-12 ${ftol} ${maxiter} ${maxeval}
        minimize 1e-12 1e-08 ${maxiter} ${maxeval}
        minimize 1e-12 1e-08 10000 ${maxeval}
        minimize 1e-12 1e-08 10000 20000
WARNING: Resetting reneighboring criteria during minimization (../min.cpp:168)
Memory usage per processor = 5.28939 Mbytes
Step Temp PotEng Lx Ly Lz 
      78            0   -17371.042    7.7766452    82.510858    4.4898482 
      79            0   -17371.043    7.7766452    82.510858    4.4898482 
      80            0   -17371.045    7.7766452    82.510858    4.4898482 
      81            0   -17371.045    7.7766452    82.510858    4.4898482 
      82            0   -17371.045    7.7766452    82.510858    4.4898482 
Loop time of 1.08819 on 1 procs for 3 steps with 2912 atoms

Minimization stats:
  Stopping criterion = force tolerance
  Energy initial, next-to-last, final = 
        -17371.0420833     -17371.0447057     -17371.0447328
  Force two-norm initial, final = 1.37698 1.25571e-10
  Force max component initial, final = 0.172122 7.92106e-12
  Final line search alpha, max atom move = 0 0
  Iterations, force evaluations = 3 483

Pair  time (%) = 0.992985 (91.2506)
Neigh time (%) = 0 (0)
Comm  time (%) = 0.0224548 (2.06349)
Outpt time (%) = 0.000389103 (0.0357567)
Other time (%) = 0.0723661 (6.65011)

Nlocal:    2912 ave 2912 max 2912 min
Histogram: 1 0 0 0 0 0 0 0 0 0
Nghost:    7009 ave 7009 max 7009 min
Histogram: 1 0 0 0 0 0 0 0 0 0
Neighs:    77792 ave 77792 max 77792 min
Histogram: 1 0 0 0 0 0 0 0 0 0

Total # of neighbors = 77792
Ave neighs/atom = 26.7143
Neighbor list builds = 0
Dangerous builds = 0
        next i
jump SELF loop1
        displace_atoms upper move ${xstep1} 0.0 ${zstep1} units lattice
        displace_atoms upper move 0.00166666666666667 0.0 ${zstep1} units lattice
        displace_atoms upper move 0.00166666666666667 0.0 0 units lattice
        min_style ${style}
        min_style hftn
        minimize ${etol} ${ftol} ${maxiter} ${maxeval}
        minimize 1e-12 ${ftol} ${maxiter} ${maxeval}
        minimize 1e-12 1e-08 ${maxiter} ${maxeval}
        minimize 1e-12 1e-08 10000 ${maxeval}
        minimize 1e-12 1e-08 10000 20000
WARNING: Resetting reneighboring criteria during minimization (../min.cpp:168)
Memory usage per processor = 5.28939 Mbytes
Step Temp PotEng Lx Ly Lz 
      82            0   -17370.649    7.7766452    82.511885    4.4898482 
      83            0    -17370.65    7.7766452    82.511885    4.4898482 
      84            0   -17370.652    7.7766452    82.511885    4.4898482 
      85            0   -17370.652    7.7766452    82.511885    4.4898482 
      86            0   -17370.652    7.7766452    82.511885    4.4898482 
Loop time of 1.0794 on 1 procs for 3 steps with 2912 atoms

Minimization stats:
  Stopping criterion = force tolerance
  Energy initial, next-to-last, final = 
        -17370.6493726      -17370.652032     -17370.6520529
  Force two-norm initial, final = 1.35233 8.23214e-11
  Force max component initial, final = 0.169042 5.25097e-12
  Final line search alpha, max atom move = 0 0
  Iterations, force evaluations = 3 485

Pair  time (%) = 0.98478 (91.2337)
Neigh time (%) = 0 (0)
Comm  time (%) = 0.0252302 (2.33742)
Outpt time (%) = 0.000362015 (0.0335384)
Other time (%) = 0.0690321 (6.39539)

Nlocal:    2912 ave 2912 max 2912 min
Histogram: 1 0 0 0 0 0 0 0 0 0
Nghost:    7009 ave 7009 max 7009 min
Histogram: 1 0 0 0 0 0 0 0 0 0
Neighs:    77792 ave 77792 max 77792 min
Histogram: 1 0 0 0 0 0 0 0 0 0

Total # of neighbors = 77792
Ave neighs/atom = 26.7143
Neighbor list builds = 0
Dangerous builds = 0
        next i
jump SELF loop1
        displace_atoms upper move ${xstep1} 0.0 ${zstep1} units lattice
        displace_atoms upper move 0.00166666666666667 0.0 ${zstep1} units lattice
        displace_atoms upper move 0.00166666666666667 0.0 0 units lattice
        min_style ${style}
        min_style hftn
        minimize ${etol} ${ftol} ${maxiter} ${maxeval}
        minimize 1e-12 ${ftol} ${maxiter} ${maxeval}
        minimize 1e-12 1e-08 ${maxiter} ${maxeval}
        minimize 1e-12 1e-08 10000 ${maxeval}
        minimize 1e-12 1e-08 10000 20000
WARNING: Resetting reneighboring criteria during minimization (../min.cpp:168)
Memory usage per processor = 5.28939 Mbytes
Step Temp PotEng Lx Ly Lz 
      86            0   -17370.259    7.7766452    82.512887    4.4898482 
      87            0    -17370.26    7.7766452    82.512887    4.4898482 
      88            0   -17370.262    7.7766452    82.512887    4.4898482 
      89            0   -17370.262    7.7766452    82.512887    4.4898482 
      90            0   -17370.262    7.7766452    82.512887    4.4898482 
Loop time of 1.08128 on 1 procs for 3 steps with 2912 atoms

Minimization stats:
  Stopping criterion = force tolerance
  Energy initial, next-to-last, final = 
        -17370.2592633     -17370.2620488     -17370.2620733
  Force two-norm initial, final = 1.32655 3.07339e-11
  Force max component initial, final = 0.165818 2.40926e-12
  Final line search alpha, max atom move = 0 0
  Iterations, force evaluations = 3 484

Pair  time (%) = 0.989375 (91.5006)
Neigh time (%) = 0 (0)
Comm  time (%) = 0.0183948 (1.70121)
Outpt time (%) = 0.000513793 (0.0475172)
Other time (%) = 0.072994 (6.75072)

Nlocal:    2912 ave 2912 max 2912 min
Histogram: 1 0 0 0 0 0 0 0 0 0
Nghost:    7009 ave 7009 max 7009 min
Histogram: 1 0 0 0 0 0 0 0 0 0
Neighs:    77792 ave 77792 max 77792 min
Histogram: 1 0 0 0 0 0 0 0 0 0

Total # of neighbors = 77792
Ave neighs/atom = 26.7143
Neighbor list builds = 0
Dangerous builds = 0
        next i
jump SELF loop1
        displace_atoms upper move ${xstep1} 0.0 ${zstep1} units lattice
        displace_atoms upper move 0.00166666666666667 0.0 ${zstep1} units lattice
        displace_atoms upper move 0.00166666666666667 0.0 0 units lattice
        min_style ${style}
        min_style hftn
        minimize ${etol} ${ftol} ${maxiter} ${maxeval}
        minimize 1e-12 ${ftol} ${maxiter} ${maxeval}
        minimize 1e-12 1e-08 ${maxiter} ${maxeval}
        minimize 1e-12 1e-08 10000 ${maxeval}
        minimize 1e-12 1e-08 10000 20000
WARNING: Resetting reneighboring criteria during minimization (../min.cpp:168)
Memory usage per processor = 5.28939 Mbytes
Step Temp PotEng Lx Ly Lz 
      90            0   -17369.872    7.7766452    82.513863    4.4898482 
      91            0   -17369.873    7.7766452    82.513863    4.4898482 
      92            0   -17369.875    7.7766452    82.513863    4.4898482 
      93            0   -17369.875    7.7766452    82.513863    4.4898482 
      94            0   -17369.875    7.7766452    82.513863    4.4898482 
Loop time of 1.09231 on 1 procs for 3 steps with 2912 atoms

Minimization stats:
  Stopping criterion = force tolerance
  Energy initial, next-to-last, final = 
        -17369.8724704     -17369.8747209     -17369.8747408
  Force two-norm initial, final = 1.29941 3.89728e-11
  Force max component initial, final = 0.162427 2.95839e-12
  Final line search alpha, max atom move = 0 0
  Iterations, force evaluations = 3 491

Pair  time (%) = 0.991105 (90.735)
Neigh time (%) = 0 (0)
Comm  time (%) = 0.0274234 (2.51059)
Outpt time (%) = 0.0004039 (0.0369768)
Other time (%) = 0.0733751 (6.71744)

Nlocal:    2912 ave 2912 max 2912 min
Histogram: 1 0 0 0 0 0 0 0 0 0
Nghost:    7009 ave 7009 max 7009 min
Histogram: 1 0 0 0 0 0 0 0 0 0
Neighs:    77792 ave 77792 max 77792 min
Histogram: 1 0 0 0 0 0 0 0 0 0

Total # of neighbors = 77792
Ave neighs/atom = 26.7143
Neighbor list builds = 0
Dangerous builds = 0
        next i
jump SELF loop1
        displace_atoms upper move ${xstep1} 0.0 ${zstep1} units lattice
        displace_atoms upper move 0.00166666666666667 0.0 ${zstep1} units lattice
        displace_atoms upper move 0.00166666666666667 0.0 0 units lattice
        min_style ${style}
        min_style hftn
        minimize ${etol} ${ftol} ${maxiter} ${maxeval}
        minimize 1e-12 ${ftol} ${maxiter} ${maxeval}
        minimize 1e-12 1e-08 ${maxiter} ${maxeval}
        minimize 1e-12 1e-08 10000 ${maxeval}
        minimize 1e-12 1e-08 10000 20000
WARNING: Resetting reneighboring criteria during minimization (../min.cpp:168)
Memory usage per processor = 5.28939 Mbytes
Step Temp PotEng Lx Ly Lz 
      94            0   -17369.489    7.7766452    82.514814    4.4898482 
      95            0    -17369.49    7.7766452    82.514814    4.4898482 
      96            0   -17369.492    7.7766452    82.514814    4.4898482 
      97            0   -17369.492    7.7766452    82.514814    4.4898482 
      98            0   -17369.492    7.7766452    82.514814    4.4898482 
Loop time of 1.06744 on 1 procs for 3 steps with 2912 atoms

Minimization stats:
  Stopping criterion = force tolerance
  Energy initial, next-to-last, final = 
        -17369.4892136     -17369.4917232     -17369.4917476
  Force two-norm initial, final = 1.26977 4.674e-11
  Force max component initial, final = 0.158721 3.62419e-12
  Final line search alpha, max atom move = 0 0
  Iterations, force evaluations = 3 480

Pair  time (%) = 0.979596 (91.7704)
Neigh time (%) = 0 (0)
Comm  time (%) = 0.0183098 (1.71529)
Outpt time (%) = 0.000252806 (0.0236833)
Other time (%) = 0.0692839 (6.49065)

Nlocal:    2912 ave 2912 max 2912 min
Histogram: 1 0 0 0 0 0 0 0 0 0
Nghost:    7009 ave 7009 max 7009 min
Histogram: 1 0 0 0 0 0 0 0 0 0
Neighs:    77792 ave 77792 max 77792 min
Histogram: 1 0 0 0 0 0 0 0 0 0

Total # of neighbors = 77792
Ave neighs/atom = 26.7143
Neighbor list builds = 0
Dangerous builds = 0
        next i
jump SELF loop1
        displace_atoms upper move ${xstep1} 0.0 ${zstep1} units lattice
        displace_atoms upper move 0.00166666666666667 0.0 ${zstep1} units lattice
        displace_atoms upper move 0.00166666666666667 0.0 0 units lattice
        min_style ${style}
        min_style hftn
        minimize ${etol} ${ftol} ${maxiter} ${maxeval}
        minimize 1e-12 ${ftol} ${maxiter} ${maxeval}
        minimize 1e-12 1e-08 ${maxiter} ${maxeval}
        minimize 1e-12 1e-08 10000 ${maxeval}
        minimize 1e-12 1e-08 10000 20000
WARNING: Resetting reneighboring criteria during minimization (../min.cpp:168)
Memory usage per processor = 5.28939 Mbytes
Step Temp PotEng Lx Ly Lz 
      98            0   -17369.111    7.7766452    82.515737    4.4898482 
      99            0   -17369.112    7.7766452    82.515737    4.4898482 
     100            0   -17369.113    7.7766452    82.515737    4.4898482 
     101            0   -17369.113    7.7766452    82.515737    4.4898482 
     102            0   -17369.113    7.7766452    82.515737    4.4898482 
Loop time of 1.0854 on 1 procs for 3 steps with 2912 atoms

Minimization stats:
  Stopping criterion = force tolerance
  Energy initial, next-to-last, final = 
        -17369.1108848     -17369.1128678     -17369.1128916
  Force two-norm initial, final = 1.23896 7.58613e-11
  Force max component initial, final = 0.15487 5.83441e-12
  Final line search alpha, max atom move = 0 0
  Iterations, force evaluations = 3 487

Pair  time (%) = 0.995241 (91.6939)
Neigh time (%) = 0 (0)
Comm  time (%) = 0.0172 (1.58468)
Outpt time (%) = 0.00025689 (0.0236679)
Other time (%) = 0.0726975 (6.69779)

Nlocal:    2912 ave 2912 max 2912 min
Histogram: 1 0 0 0 0 0 0 0 0 0
Nghost:    7009 ave 7009 max 7009 min
Histogram: 1 0 0 0 0 0 0 0 0 0
Neighs:    77792 ave 77792 max 77792 min
Histogram: 1 0 0 0 0 0 0 0 0 0

Total # of neighbors = 77792
Ave neighs/atom = 26.7143
Neighbor list builds = 0
Dangerous builds = 0
        next i
jump SELF loop1
        displace_atoms upper move ${xstep1} 0.0 ${zstep1} units lattice
        displace_atoms upper move 0.00166666666666667 0.0 ${zstep1} units lattice
        displace_atoms upper move 0.00166666666666667 0.0 0 units lattice
        min_style ${style}
        min_style hftn
        minimize ${etol} ${ftol} ${maxiter} ${maxeval}
        minimize 1e-12 ${ftol} ${maxiter} ${maxeval}
        minimize 1e-12 1e-08 ${maxiter} ${maxeval}
        minimize 1e-12 1e-08 10000 ${maxeval}
        minimize 1e-12 1e-08 10000 20000
WARNING: Resetting reneighboring criteria during minimization (../min.cpp:168)
Memory usage per processor = 5.28939 Mbytes
Step Temp PotEng Lx Ly Lz 
     102            0   -17368.737    7.7766452    82.516633    4.4898482 
     103            0   -17368.738    7.7766452    82.516633    4.4898482 
     104            0    -17368.74    7.7766452    82.516633    4.4898482 
     105            0    -17368.74    7.7766452    82.516633    4.4898482 
     106            0    -17368.74    7.7766452    82.516633    4.4898482 
Loop time of 1.08369 on 1 procs for 3 steps with 2912 atoms

Minimization stats:
  Stopping criterion = force tolerance
  Energy initial, next-to-last, final = 
        -17368.7373199     -17368.7395196     -17368.7395425
  Force two-norm initial, final = 1.20682 1.79282e-10
  Force max component initial, final = 0.150853 1.28906e-11
  Final line search alpha, max atom move = 0 0
  Iterations, force evaluations = 3 485

Pair  time (%) = 0.991236 (91.469)
Neigh time (%) = 0 (0)
Comm  time (%) = 0.0196903 (1.81698)
Outpt time (%) = 0.000238985 (0.022053)
Other time (%) = 0.07252 (6.69198)

Nlocal:    2912 ave 2912 max 2912 min
Histogram: 1 0 0 0 0 0 0 0 0 0
Nghost:    7009 ave 7009 max 7009 min
Histogram: 1 0 0 0 0 0 0 0 0 0
Neighs:    77792 ave 77792 max 77792 min
Histogram: 1 0 0 0 0 0 0 0 0 0

Total # of neighbors = 77792
Ave neighs/atom = 26.7143
Neighbor list builds = 0
Dangerous builds = 0
        next i
jump SELF loop1
        displace_atoms upper move ${xstep1} 0.0 ${zstep1} units lattice
        displace_atoms upper move 0.00166666666666667 0.0 ${zstep1} units lattice
        displace_atoms upper move 0.00166666666666667 0.0 0 units lattice
        min_style ${style}
        min_style hftn
        minimize ${etol} ${ftol} ${maxiter} ${maxeval}
        minimize 1e-12 ${ftol} ${maxiter} ${maxeval}
        minimize 1e-12 1e-08 ${maxiter} ${maxeval}
        minimize 1e-12 1e-08 10000 ${maxeval}
        minimize 1e-12 1e-08 10000 20000
WARNING: Resetting reneighboring criteria during minimization (../min.cpp:168)
Memory usage per processor = 5.28939 Mbytes
Step Temp PotEng Lx Ly Lz 
     106            0    -17368.37    7.7766452    82.517501    4.4898482 
     107            0   -17368.371    7.7766452    82.517501    4.4898482 
     108            0   -17368.372    7.7766452    82.517501    4.4898482 
     109            0   -17368.372    7.7766452    82.517501    4.4898482 
     110            0   -17368.372    7.7766452    82.517501    4.4898482 
Loop time of 1.1031 on 1 procs for 3 steps with 2912 atoms

Minimization stats:
  Stopping criterion = force tolerance
  Energy initial, next-to-last, final = 
        -17368.3699932      -17368.371801     -17368.3718232
  Force two-norm initial, final = 1.17295 4.43394e-11
  Force max component initial, final = 0.146619 4.22823e-12
  Final line search alpha, max atom move = 0 0
  Iterations, force evaluations = 3 487

Pair  time (%) = 1.00704 (91.2918)
Neigh time (%) = 0 (0)
Comm  time (%) = 0.0201739 (1.82883)
Outpt time (%) = 0.000273917 (0.0248315)
Other time (%) = 0.0756126 (6.85454)

Nlocal:    2912 ave 2912 max 2912 min
Histogram: 1 0 0 0 0 0 0 0 0 0
Nghost:    7009 ave 7009 max 7009 min
Histogram: 1 0 0 0 0 0 0 0 0 0
Neighs:    77792 ave 77792 max 77792 min
Histogram: 1 0 0 0 0 0 0 0 0 0

Total # of neighbors = 77792
Ave neighs/atom = 26.7143
Neighbor list builds = 0
Dangerous builds = 0
        next i
jump SELF loop1
        displace_atoms upper move ${xstep1} 0.0 ${zstep1} units lattice
        displace_atoms upper move 0.00166666666666667 0.0 ${zstep1} units lattice
        displace_atoms upper move 0.00166666666666667 0.0 0 units lattice
        min_style ${style}
        min_style hftn
        minimize ${etol} ${ftol} ${maxiter} ${maxeval}
        minimize 1e-12 ${ftol} ${maxiter} ${maxeval}
        minimize 1e-12 1e-08 ${maxiter} ${maxeval}
        minimize 1e-12 1e-08 10000 ${maxeval}
        minimize 1e-12 1e-08 10000 20000
WARNING: Resetting reneighboring criteria during minimization (../min.cpp:168)
Memory usage per processor = 5.28939 Mbytes
Step Temp PotEng Lx Ly Lz 
     110            0   -17368.009    7.7766452    82.518341    4.4898482 
     111            0    -17368.01    7.7766452    82.518341    4.4898482 
     112            0   -17368.011    7.7766452    82.518341    4.4898482 
     113            0   -17368.011    7.7766452    82.518341    4.4898482 
     114            0   -17368.011    7.7766452    82.518341    4.4898482 
Loop time of 1.11043 on 1 procs for 3 steps with 2912 atoms

Minimization stats:
  Stopping criterion = force tolerance
  Energy initial, next-to-last, final = 
         -17368.008954     -17368.0108822     -17368.0109035
  Force two-norm initial, final = 1.13766 7.09995e-11
  Force max component initial, final = 0.142208 4.62634e-12
  Final line search alpha, max atom move = 0 0
  Iterations, force evaluations = 3 485

Pair  time (%) = 1.01769 (91.6486)
Neigh time (%) = 0 (0)
Comm  time (%) = 0.0199067 (1.7927)
Outpt time (%) = 0.000355808 (0.0320423)
Other time (%) = 0.0724744 (6.5267)

Nlocal:    2912 ave 2912 max 2912 min
Histogram: 1 0 0 0 0 0 0 0 0 0
Nghost:    7009 ave 7009 max 7009 min
Histogram: 1 0 0 0 0 0 0 0 0 0
Neighs:    77792 ave 77792 max 77792 min
Histogram: 1 0 0 0 0 0 0 0 0 0

Total # of neighbors = 77792
Ave neighs/atom = 26.7143
Neighbor list builds = 0
Dangerous builds = 0
        next i
jump SELF loop1
        displace_atoms upper move ${xstep1} 0.0 ${zstep1} units lattice
        displace_atoms upper move 0.00166666666666667 0.0 ${zstep1} units lattice
        displace_atoms upper move 0.00166666666666667 0.0 0 units lattice
        min_style ${style}
        min_style hftn
        minimize ${etol} ${ftol} ${maxiter} ${maxeval}
        minimize 1e-12 ${ftol} ${maxiter} ${maxeval}
        minimize 1e-12 1e-08 ${maxiter} ${maxeval}
        minimize 1e-12 1e-08 10000 ${maxeval}
        minimize 1e-12 1e-08 10000 20000
WARNING: Resetting reneighboring criteria during minimization (../min.cpp:168)
Memory usage per processor = 5.28939 Mbytes
Step Temp PotEng Lx Ly Lz 
     114            0   -17367.655    7.7766452    82.519151    4.4898482 
     115            0   -17367.656    7.7766452    82.519151    4.4898482 
     116            0   -17367.657    7.7766452    82.519151    4.4898482 
     117            0   -17367.657    7.7766452    82.519151    4.4898482 
     118            0   -17367.657    7.7766452    82.519151    4.4898482 
Loop time of 1.11433 on 1 procs for 3 steps with 2912 atoms

Minimization stats:
  Stopping criterion = force tolerance
  Energy initial, next-to-last, final = 
        -17367.6551479     -17367.6568046     -17367.6568209
  Force two-norm initial, final = 1.10196 5.79028e-11
  Force max component initial, final = 0.137746 3.6036e-12
  Final line search alpha, max atom move = 0 0
  Iterations, force evaluations = 3 489

Pair  time (%) = 1.0235 (91.8487)
Neigh time (%) = 0 (0)
Comm  time (%) = 0.0191171 (1.71557)
Outpt time (%) = 0.000811975 (0.0728668)
Other time (%) = 0.0709036 (6.36289)

Nlocal:    2912 ave 2912 max 2912 min
Histogram: 1 0 0 0 0 0 0 0 0 0
Nghost:    7009 ave 7009 max 7009 min
Histogram: 1 0 0 0 0 0 0 0 0 0
Neighs:    77792 ave 77792 max 77792 min
Histogram: 1 0 0 0 0 0 0 0 0 0

Total # of neighbors = 77792
Ave neighs/atom = 26.7143
Neighbor list builds = 0
Dangerous builds = 0
        next i
jump SELF loop1
        displace_atoms upper move ${xstep1} 0.0 ${zstep1} units lattice
        displace_atoms upper move 0.00166666666666667 0.0 ${zstep1} units lattice
        displace_atoms upper move 0.00166666666666667 0.0 0 units lattice
        min_style ${style}
        min_style hftn
        minimize ${etol} ${ftol} ${maxiter} ${maxeval}
        minimize 1e-12 ${ftol} ${maxiter} ${maxeval}
        minimize 1e-12 1e-08 ${maxiter} ${maxeval}
        minimize 1e-12 1e-08 10000 ${maxeval}
        minimize 1e-12 1e-08 10000 20000
WARNING: Resetting reneighboring criteria during minimization (../min.cpp:168)
Memory usage per processor = 5.28939 Mbytes
Step Temp PotEng Lx Ly Lz 
     118            0   -17367.309    7.7766452    82.519932    4.4898482 
     119            0    -17367.31    7.7766452    82.519932    4.4898482 
     120            0   -17367.311    7.7766452    82.519932    4.4898482 
     121            0   -17367.311    7.7766452    82.519932    4.4898482 
     122            0   -17367.311    7.7766452    82.519932    4.4898482 
Loop time of 1.14372 on 1 procs for 3 steps with 2912 atoms

Minimization stats:
  Stopping criterion = force tolerance
  Energy initial, next-to-last, final = 
        -17367.3094317     -17367.3110722     -17367.3110877
  Force two-norm initial, final = 1.0623 4.93568e-11
  Force max component initial, final = 0.132788 6.14341e-12
  Final line search alpha, max atom move = 0 0
  Iterations, force evaluations = 3 501

Pair  time (%) = 1.04032 (90.9588)
Neigh time (%) = 0 (0)
Comm  time (%) = 0.0194604 (1.7015)
Outpt time (%) = 0.010379 (0.907473)
Other time (%) = 0.0735674 (6.43227)

Nlocal:    2912 ave 2912 max 2912 min
Histogram: 1 0 0 0 0 0 0 0 0 0
Nghost:    7009 ave 7009 max 7009 min
Histogram: 1 0 0 0 0 0 0 0 0 0
Neighs:    77792 ave 77792 max 77792 min
Histogram: 1 0 0 0 0 0 0 0 0 0

Total # of neighbors = 77792
Ave neighs/atom = 26.7143
Neighbor list builds = 0
Dangerous builds = 0
        next i
jump SELF loop1
        displace_atoms upper move ${xstep1} 0.0 ${zstep1} units lattice
        displace_atoms upper move 0.00166666666666667 0.0 ${zstep1} units lattice
        displace_atoms upper move 0.00166666666666667 0.0 0 units lattice
        min_style ${style}
        min_style hftn
        minimize ${etol} ${ftol} ${maxiter} ${maxeval}
        minimize 1e-12 ${ftol} ${maxiter} ${maxeval}
        minimize 1e-12 1e-08 ${maxiter} ${maxeval}
        minimize 1e-12 1e-08 10000 ${maxeval}
        minimize 1e-12 1e-08 10000 20000
WARNING: Resetting reneighboring criteria during minimization (../min.cpp:168)
Memory usage per processor = 5.28939 Mbytes
Step Temp PotEng Lx Ly Lz 
     122            0   -17366.972    7.7766452    82.520682    4.4898482 
     123            0   -17366.972    7.7766452    82.520682    4.4898482 
     124            0   -17366.973    7.7766452    82.520682    4.4898482 
     125            0   -17366.973    7.7766452    82.520682    4.4898482 
     126            0   -17366.973    7.7766452    82.520682    4.4898482 
Loop time of 1.12796 on 1 procs for 3 steps with 2912 atoms

Minimization stats:
  Stopping criterion = force tolerance
  Energy initial, next-to-last, final = 
        -17366.9716389     -17366.9730994     -17366.9731145
  Force two-norm initial, final = 1.02601 4.41511e-11
  Force max component initial, final = 0.128251 2.82111e-12
  Final line search alpha, max atom move = 0 0
  Iterations, force evaluations = 3 489

Pair  time (%) = 1.03197 (91.4906)
Neigh time (%) = 0 (0)
Comm  time (%) = 0.0231935 (2.05624)
Outpt time (%) = 0.000266959 (0.0236675)
Other time (%) = 0.0725219 (6.4295)

Nlocal:    2912 ave 2912 max 2912 min
Histogram: 1 0 0 0 0 0 0 0 0 0
Nghost:    7009 ave 7009 max 7009 min
Histogram: 1 0 0 0 0 0 0 0 0 0
Neighs:    77792 ave 77792 max 77792 min
Histogram: 1 0 0 0 0 0 0 0 0 0

Total # of neighbors = 77792
Ave neighs/atom = 26.7143
Neighbor list builds = 0
Dangerous builds = 0
        next i
jump SELF loop1
        displace_atoms upper move ${xstep1} 0.0 ${zstep1} units lattice
        displace_atoms upper move 0.00166666666666667 0.0 ${zstep1} units lattice
        displace_atoms upper move 0.00166666666666667 0.0 0 units lattice
        min_style ${style}
        min_style hftn
        minimize ${etol} ${ftol} ${maxiter} ${maxeval}
        minimize 1e-12 ${ftol} ${maxiter} ${maxeval}
        minimize 1e-12 1e-08 ${maxiter} ${maxeval}
        minimize 1e-12 1e-08 10000 ${maxeval}
        minimize 1e-12 1e-08 10000 20000
WARNING: Resetting reneighboring criteria during minimization (../min.cpp:168)
Memory usage per processor = 5.28939 Mbytes
Step Temp PotEng Lx Ly Lz 
     126            0   -17366.643    7.7766452    82.521404    4.4898482 
     127            0   -17366.644    7.7766452    82.521404    4.4898482 
     128            0   -17366.645    7.7766452    82.521404    4.4898482 
     129            0   -17366.645    7.7766452    82.521404    4.4898482 
     130            0   -17366.645    7.7766452    82.521404    4.4898482 
Loop time of 1.50527 on 1 procs for 3 steps with 2912 atoms

Minimization stats:
  Stopping criterion = force tolerance
  Energy initial, next-to-last, final = 
        -17366.6433209     -17366.6446782     -17366.6446925
  Force two-norm initial, final = 0.983826 1.21752e-11
  Force max component initial, final = 0.122978 1.64736e-12
  Final line search alpha, max atom move = 0 0
  Iterations, force evaluations = 3 659

Pair  time (%) = 1.38356 (91.9144)
Neigh time (%) = 0 (0)
Comm  time (%) = 0.0247793 (1.64617)
Outpt time (%) = 0.000232204 (0.015426)
Other time (%) = 0.0966996 (6.42405)

Nlocal:    2912 ave 2912 max 2912 min
Histogram: 1 0 0 0 0 0 0 0 0 0
Nghost:    7009 ave 7009 max 7009 min
Histogram: 1 0 0 0 0 0 0 0 0 0
Neighs:    77792 ave 77792 max 77792 min
Histogram: 1 0 0 0 0 0 0 0 0 0

Total # of neighbors = 77792
Ave neighs/atom = 26.7143
Neighbor list builds = 0
Dangerous builds = 0
        next i
jump SELF loop1
        displace_atoms upper move ${xstep1} 0.0 ${zstep1} units lattice
        displace_atoms upper move 0.00166666666666667 0.0 ${zstep1} units lattice
        displace_atoms upper move 0.00166666666666667 0.0 0 units lattice
        min_style ${style}
        min_style hftn
        minimize ${etol} ${ftol} ${maxiter} ${maxeval}
        minimize 1e-12 ${ftol} ${maxiter} ${maxeval}
        minimize 1e-12 1e-08 ${maxiter} ${maxeval}
        minimize 1e-12 1e-08 10000 ${maxeval}
        minimize 1e-12 1e-08 10000 20000
WARNING: Resetting reneighboring criteria during minimization (../min.cpp:168)
Memory usage per processor = 5.28939 Mbytes
Step Temp PotEng Lx Ly Lz 
     130            0   -17366.325    7.7766452    82.522093    4.4898482 
     131            0   -17366.325    7.7766452    82.522093    4.4898482 
     132            0   -17366.326    7.7766452    82.522093    4.4898482 
     133            0   -17366.326    7.7766452    82.522093    4.4898482 
     134            0   -17366.326    7.7766452    82.522093    4.4898482 
Loop time of 1.12666 on 1 procs for 3 steps with 2912 atoms

Minimization stats:
  Stopping criterion = force tolerance
  Energy initial, next-to-last, final = 
        -17366.3247495     -17366.3258849     -17366.3258987
  Force two-norm initial, final = 0.942331 2.6869e-11
  Force max component initial, final = 0.117791 2.42986e-12
  Final line search alpha, max atom move = 0 0
  Iterations, force evaluations = 3 491

Pair  time (%) = 1.03353 (91.7341)
Neigh time (%) = 0 (0)
Comm  time (%) = 0.0189747 (1.68416)
Outpt time (%) = 0.000429036 (0.0380804)
Other time (%) = 0.0737247 (6.54366)

Nlocal:    2912 ave 2912 max 2912 min
Histogram: 1 0 0 0 0 0 0 0 0 0
Nghost:    7009 ave 7009 max 7009 min
Histogram: 1 0 0 0 0 0 0 0 0 0
Neighs:    77792 ave 77792 max 77792 min
Histogram: 1 0 0 0 0 0 0 0 0 0

Total # of neighbors = 77792
Ave neighs/atom = 26.7143
Neighbor list builds = 0
Dangerous builds = 0
        next i
jump SELF loop1
        displace_atoms upper move ${xstep1} 0.0 ${zstep1} units lattice
        displace_atoms upper move 0.00166666666666667 0.0 ${zstep1} units lattice
        displace_atoms upper move 0.00166666666666667 0.0 0 units lattice
        min_style ${style}
        min_style hftn
        minimize ${etol} ${ftol} ${maxiter} ${maxeval}
        minimize 1e-12 ${ftol} ${maxiter} ${maxeval}
        minimize 1e-12 1e-08 ${maxiter} ${maxeval}
        minimize 1e-12 1e-08 10000 ${maxeval}
        minimize 1e-12 1e-08 10000 20000
WARNING: Resetting reneighboring criteria during minimization (../min.cpp:168)
Memory usage per processor = 5.28939 Mbytes
Step Temp PotEng Lx Ly Lz 
     134            0   -17366.016    7.7766452    82.522752    4.4898482 
     135            0   -17366.016    7.7766452    82.522752    4.4898482 
     136            0   -17366.017    7.7766452    82.522752    4.4898482 
     137            0   -17366.017    7.7766452    82.522752    4.4898482 
     138            0   -17366.017    7.7766452    82.522752    4.4898482 
Loop time of 1.14058 on 1 procs for 3 steps with 2912 atoms

Minimization stats:
  Stopping criterion = force tolerance
  Energy initial, next-to-last, final = 
        -17366.0160883     -17366.0171835     -17366.0171942
  Force two-norm initial, final = 0.901141 1.39848e-11
  Force max component initial, final = 0.112643 1.97683e-12
  Final line search alpha, max atom move = 0 0
  Iterations, force evaluations = 3 499

Pair  time (%) = 1.04548 (91.6622)
Neigh time (%) = 0 (0)
Comm  time (%) = 0.0210011 (1.84127)
Outpt time (%) = 0.000302217 (0.0264969)
Other time (%) = 0.0737953 (6.47)

Nlocal:    2912 ave 2912 max 2912 min
Histogram: 1 0 0 0 0 0 0 0 0 0
Nghost:    7009 ave 7009 max 7009 min
Histogram: 1 0 0 0 0 0 0 0 0 0
Neighs:    77792 ave 77792 max 77792 min
Histogram: 1 0 0 0 0 0 0 0 0 0

Total # of neighbors = 77792
Ave neighs/atom = 26.7143
Neighbor list builds = 0
Dangerous builds = 0
        next i
jump SELF loop1
        displace_atoms upper move ${xstep1} 0.0 ${zstep1} units lattice
        displace_atoms upper move 0.00166666666666667 0.0 ${zstep1} units lattice
        displace_atoms upper move 0.00166666666666667 0.0 0 units lattice
        min_style ${style}
        min_style hftn
        minimize ${etol} ${ftol} ${maxiter} ${maxeval}
        minimize 1e-12 ${ftol} ${maxiter} ${maxeval}
        minimize 1e-12 1e-08 ${maxiter} ${maxeval}
        minimize 1e-12 1e-08 10000 ${maxeval}
        minimize 1e-12 1e-08 10000 20000
WARNING: Resetting reneighboring criteria during minimization (../min.cpp:168)
Memory usage per processor = 5.28939 Mbytes
Step Temp PotEng Lx Ly Lz 
     138            0   -17365.719    7.7766452     82.52338    4.4898482 
     139            0   -17365.719    7.7766452     82.52338    4.4898482 
     140            0    -17365.72    7.7766452     82.52338    4.4898482 
     141            0    -17365.72    7.7766452     82.52338    4.4898482 
Loop time of 0.71085 on 1 procs for 2 steps with 2912 atoms

Minimization stats:
  Stopping criterion = force tolerance
  Energy initial, next-to-last, final = 
        -17365.7185929     -17365.7188645     -17365.7197338
  Force two-norm initial, final = 0.856829 8.42658e-09
  Force max component initial, final = 0.107104 1.03594e-09
  Final line search alpha, max atom move = 0 0
  Iterations, force evaluations = 2 307

Pair  time (%) = 0.649734 (91.4025)
Neigh time (%) = 0 (0)
Comm  time (%) = 0.0132555 (1.86474)
Outpt time (%) = 0.000142829 (0.0200927)
Other time (%) = 0.0477171 (6.71269)

Nlocal:    2912 ave 2912 max 2912 min
Histogram: 1 0 0 0 0 0 0 0 0 0
Nghost:    7009 ave 7009 max 7009 min
Histogram: 1 0 0 0 0 0 0 0 0 0
Neighs:    77792 ave 77792 max 77792 min
Histogram: 1 0 0 0 0 0 0 0 0 0

Total # of neighbors = 77792
Ave neighs/atom = 26.7143
Neighbor list builds = 0
Dangerous builds = 0
        next i
jump SELF loop1
        displace_atoms upper move ${xstep1} 0.0 ${zstep1} units lattice
        displace_atoms upper move 0.00166666666666667 0.0 ${zstep1} units lattice
        displace_atoms upper move 0.00166666666666667 0.0 0 units lattice
        min_style ${style}
        min_style hftn
        minimize ${etol} ${ftol} ${maxiter} ${maxeval}
        minimize 1e-12 ${ftol} ${maxiter} ${maxeval}
        minimize 1e-12 1e-08 ${maxiter} ${maxeval}
        minimize 1e-12 1e-08 10000 ${maxeval}
        minimize 1e-12 1e-08 10000 20000
WARNING: Resetting reneighboring criteria during minimization (../min.cpp:168)
Memory usage per processor = 5.28939 Mbytes
Step Temp PotEng Lx Ly Lz 
     141            0   -17365.433    7.7766452    82.523974    4.4898482 
     142            0   -17365.433    7.7766452    82.523974    4.4898482 
     143            0   -17365.433    7.7766452    82.523974    4.4898482 
     144            0   -17365.433    7.7766452    82.523974    4.4898482 
     145            0   -17365.433    7.7766452    82.523974    4.4898482 
     146            0   -17365.433    7.7766452    82.523974    4.4898482 
     147            0   -17365.433    7.7766452    82.523974    4.4898482 
     148            0   -17365.433    7.7766452    82.523974    4.4898482 
     149            0   -17365.433    7.7766452    82.523974    4.4898482 
Loop time of 0.152404 on 1 procs for 7 steps with 2912 atoms

Minimization stats:
  Stopping criterion = energy tolerance
  Energy initial, next-to-last, final = 
        -17365.4328235     -17365.4328235     -17365.4328235
  Force two-norm initial, final = 0.812088 0.811989
  Force max component initial, final = 0.101511 0.101499
  Final line search alpha, max atom move = 0 0
  Iterations, force evaluations = 7 62

Pair  time (%) = 0.139315 (91.4119)
Neigh time (%) = 0 (0)
Comm  time (%) = 0.00332442 (2.18132)
Outpt time (%) = 0.000837399 (0.54946)
Other time (%) = 0.00892678 (5.85731)

Nlocal:    2912 ave 2912 max 2912 min
Histogram: 1 0 0 0 0 0 0 0 0 0
Nghost:    7009 ave 7009 max 7009 min
Histogram: 1 0 0 0 0 0 0 0 0 0
Neighs:    77792 ave 77792 max 77792 min
Histogram: 1 0 0 0 0 0 0 0 0 0

Total # of neighbors = 77792
Ave neighs/atom = 26.7143
Neighbor list builds = 0
Dangerous builds = 0
        next i
jump SELF loop1
        displace_atoms upper move ${xstep1} 0.0 ${zstep1} units lattice
        displace_atoms upper move 0.00166666666666667 0.0 ${zstep1} units lattice
        displace_atoms upper move 0.00166666666666667 0.0 0 units lattice
        min_style ${style}
        min_style hftn
        minimize ${etol} ${ftol} ${maxiter} ${maxeval}
        minimize 1e-12 ${ftol} ${maxiter} ${maxeval}
        minimize 1e-12 1e-08 ${maxiter} ${maxeval}
        minimize 1e-12 1e-08 10000 ${maxeval}
        minimize 1e-12 1e-08 10000 20000
WARNING: Resetting reneighboring criteria during minimization (../min.cpp:168)
Memory usage per processor = 5.28939 Mbytes
Step Temp PotEng Lx Ly Lz 
     149            0   -17365.156    7.7766452    82.523974    4.4898482 
     150            0   -17365.158    7.7766452    82.523974    4.4898482 
     151            0   -17365.159    7.7766452    82.523974    4.4898482 
     152            0   -17365.159    7.7766452    82.523974    4.4898482 
     153            0   -17365.159    7.7766452    82.523974    4.4898482 
Loop time of 1.10877 on 1 procs for 3 steps with 2912 atoms

Minimization stats:
  Stopping criterion = force tolerance
  Energy initial, next-to-last, final = 
        -17365.1563165     -17365.1594033     -17365.1594326
  Force two-norm initial, final = 1.58778 8.44166e-11
  Force max component initial, final = 0.198473 5.74517e-12
  Final line search alpha, max atom move = 0 0
  Iterations, force evaluations = 3 485

Pair  time (%) = 1.01739 (91.7582)
Neigh time (%) = 0 (0)
Comm  time (%) = 0.0174205 (1.57115)
Outpt time (%) = 0.000419755 (0.0378576)
Other time (%) = 0.0735429 (6.63282)

Nlocal:    2912 ave 2912 max 2912 min
Histogram: 1 0 0 0 0 0 0 0 0 0
Nghost:    7009 ave 7009 max 7009 min
Histogram: 1 0 0 0 0 0 0 0 0 0
Neighs:    77792 ave 77792 max 77792 min
Histogram: 1 0 0 0 0 0 0 0 0 0

Total # of neighbors = 77792
Ave neighs/atom = 26.7143
Neighbor list builds = 0
Dangerous builds = 0
        next i
jump SELF loop1
        displace_atoms upper move ${xstep1} 0.0 ${zstep1} units lattice
        displace_atoms upper move 0.00166666666666667 0.0 ${zstep1} units lattice
        displace_atoms upper move 0.00166666666666667 0.0 0 units lattice
        min_style ${style}
        min_style hftn
        minimize ${etol} ${ftol} ${maxiter} ${maxeval}
        minimize 1e-12 ${ftol} ${maxiter} ${maxeval}
        minimize 1e-12 1e-08 ${maxiter} ${maxeval}
        minimize 1e-12 1e-08 10000 ${maxeval}
        minimize 1e-12 1e-08 10000 20000
WARNING: Resetting reneighboring criteria during minimization (../min.cpp:168)
Memory usage per processor = 5.28939 Mbytes
Step Temp PotEng Lx Ly Lz 
     153            0   -17364.897    7.7766452    82.525068    4.4898482 
     154            0   -17364.897    7.7766452    82.525068    4.4898482 
     155            0   -17364.898    7.7766452    82.525068    4.4898482 
     156            0   -17364.898    7.7766452    82.525068    4.4898482 
     157            0   -17364.898    7.7766452    82.525068    4.4898482 
Loop time of 1.2793 on 1 procs for 3 steps with 2912 atoms

Minimization stats:
  Stopping criterion = force tolerance
  Energy initial, next-to-last, final = 
         -17364.897375     -17364.8981342     -17364.8981399
  Force two-norm initial, final = 0.721106 1.22044e-11
  Force max component initial, final = 0.0901383 1.53067e-12
  Final line search alpha, max atom move = 0 0
  Iterations, force evaluations = 3 561

Pair  time (%) = 1.17406 (91.7735)
Neigh time (%) = 0 (0)
Comm  time (%) = 0.0208519 (1.62995)
Outpt time (%) = 0.000250956 (0.0196167)
Other time (%) = 0.0841387 (6.57693)

Nlocal:    2912 ave 2912 max 2912 min
Histogram: 1 0 0 0 0 0 0 0 0 0
Nghost:    7009 ave 7009 max 7009 min
Histogram: 1 0 0 0 0 0 0 0 0 0
Neighs:    77792 ave 77792 max 77792 min
Histogram: 1 0 0 0 0 0 0 0 0 0

Total # of neighbors = 77792
Ave neighs/atom = 26.7143
Neighbor list builds = 0
Dangerous builds = 0
        next i
jump SELF loop1
        displace_atoms upper move ${xstep1} 0.0 ${zstep1} units lattice
        displace_atoms upper move 0.00166666666666667 0.0 ${zstep1} units lattice
        displace_atoms upper move 0.00166666666666667 0.0 0 units lattice
        min_style ${style}
        min_style hftn
        minimize ${etol} ${ftol} ${maxiter} ${maxeval}
        minimize 1e-12 ${ftol} ${maxiter} ${maxeval}
        minimize 1e-12 1e-08 ${maxiter} ${maxeval}
        minimize 1e-12 1e-08 10000 ${maxeval}
        minimize 1e-12 1e-08 10000 20000
WARNING: Resetting reneighboring criteria during minimization (../min.cpp:168)
Memory usage per processor = 5.28939 Mbytes
Step Temp PotEng Lx Ly Lz 
[...]
Outpt time (%) = 0.00275371 (0.247955)
Other time (%) = 0.0772165 (6.95289)

Nlocal:    2912 ave 2912 max 2912 min
Histogram: 1 0 0 0 0 0 0 0 0 0
Nghost:    7129 ave 7129 max 7129 min
Histogram: 1 0 0 0 0 0 0 0 0 0
Neighs:    77856 ave 77856 max 77856 min
Histogram: 1 0 0 0 0 0 0 0 0 0

Total # of neighbors = 77856
Ave neighs/atom = 26.7363
Neighbor list builds = 0
Dangerous builds = 0
        next j
jump SELF loop2
        displace_atoms upper move ${xstep2} 0.0 ${zstep2} units lattice
        displace_atoms upper move 0.000833333333333329 0.0 ${zstep2} units lattice
        displace_atoms upper move 0.000833333333333329 0.0 0.00249999999999999 units lattice
        min_style ${style}
        min_style hftn
        minimize ${etol} ${ftol} ${maxiter} ${maxeval}
        minimize 1e-12 ${ftol} ${maxiter} ${maxeval}
        minimize 1e-12 1e-08 ${maxiter} ${maxeval}
        minimize 1e-12 1e-08 10000 ${maxeval}
        minimize 1e-12 1e-08 10000 20000
WARNING: Resetting reneighboring criteria during minimization (../min.cpp:168)
Memory usage per processor = 5.28939 Mbytes
Step Temp PotEng Lx Ly Lz 
    1912            0    -17375.07    7.7766452    82.505386    4.4898482 
    1913            0    -17375.07    7.7766452    82.505386    4.4898482 
    1914            0    -17375.07    7.7766452    82.505386    4.4898482 
    1915            0    -17375.07    7.7766452    82.505386    4.4898482 
    1916            0    -17375.07    7.7766452    82.505386    4.4898482 
    1917            0    -17375.07    7.7766452    82.505386    4.4898482 
    1918            0    -17375.07    7.7766452    82.505386    4.4898482 
    1919            0    -17375.07    7.7766452    82.505386    4.4898482 
    1920            0    -17375.07    7.7766452    82.505386    4.4898482 
    1921            0    -17375.07    7.7766452    82.505386    4.4898482 
Loop time of 0.200903 on 1 procs for 8 steps with 2912 atoms

Minimization stats:
  Stopping criterion = energy tolerance
  Energy initial, next-to-last, final = 
        -17375.0701705     -17375.0701705     -17375.0701705
  Force two-norm initial, final = 0.653922 0.653881
  Force max component initial, final = 0.0815312 0.0815261
  Final line search alpha, max atom move = 0 0
  Iterations, force evaluations = 8 79

Pair  time (%) = 0.185897 (92.531)
Neigh time (%) = 0 (0)
Comm  time (%) = 0.00581781 (2.89583)
Outpt time (%) = 0.000916018 (0.455951)
Other time (%) = 0.00827164 (4.11723)

Nlocal:    2912 ave 2912 max 2912 min
Histogram: 1 0 0 0 0 0 0 0 0 0
Nghost:    7129 ave 7129 max 7129 min
Histogram: 1 0 0 0 0 0 0 0 0 0
Neighs:    77856 ave 77856 max 77856 min
Histogram: 1 0 0 0 0 0 0 0 0 0

Total # of neighbors = 77856
Ave neighs/atom = 26.7363
Neighbor list builds = 0
Dangerous builds = 0
        next j
jump SELF loop2
        displace_atoms upper move ${xstep2} 0.0 ${zstep2} units lattice
        displace_atoms upper move 0.000833333333333329 0.0 ${zstep2} units lattice
        displace_atoms upper move 0.000833333333333329 0.0 0.00249999999999999 units lattice
        min_style ${style}
        min_style hftn
        minimize ${etol} ${ftol} ${maxiter} ${maxeval}
        minimize 1e-12 ${ftol} ${maxiter} ${maxeval}
        minimize 1e-12 1e-08 ${maxiter} ${maxeval}
        minimize 1e-12 1e-08 10000 ${maxeval}
        minimize 1e-12 1e-08 10000 20000
WARNING: Resetting reneighboring criteria during minimization (../min.cpp:168)
Memory usage per processor = 5.28939 Mbytes
Step Temp PotEng Lx Ly Lz 
    1921            0   -17375.333    7.7766452    82.505386    4.4898482 
    1922            0   -17375.334    7.7766452    82.505386    4.4898482 
    1923            0   -17375.334    7.7766452    82.505386    4.4898482 
    1924            0   -17375.336    7.7766452    82.505386    4.4898482 
    1925            0   -17375.336    7.7766452    82.505386    4.4898482 
    1926            0   -17375.336    7.7766452    82.505386    4.4898482 
    1927            0   -17375.336    7.7766452    82.505386    4.4898482 
    1928            0   -17375.336    7.7766452    82.505386    4.4898482 
    1929            0   -17375.336    7.7766452    82.505386    4.4898482 
    1930            0   -17375.336    7.7766452    82.505386    4.4898482 
    1931            0   -17375.336    7.7766452    82.505386    4.4898482 
    1932            0   -17375.336    7.7766452    82.505386    4.4898482 
    1933            0   -17375.336    7.7766452    82.505386    4.4898482 
    1934            0   -17375.336    7.7766452    82.505386    4.4898482 
    1935            0   -17375.336    7.7766452    82.505386    4.4898482 
    1936            0   -17375.336    7.7766452    82.505386    4.4898482 
    1937            0   -17375.336    7.7766452    82.505386    4.4898482 
    1938            0   -17375.336    7.7766452    82.505386    4.4898482 
    1939            0   -17375.336    7.7766452    82.505386    4.4898482 
    1940            0   -17375.336    7.7766452    82.505386    4.4898482 
    1941            0   -17375.336    7.7766452    82.505386    4.4898482 
    1942            0   -17375.336    7.7766452    82.505386    4.4898482 
    1943            0   -17375.336    7.7766452    82.505386    4.4898482 
Loop time of 1.05353 on 1 procs for 21 steps with 2912 atoms

Minimization stats:
  Stopping criterion = energy tolerance
  Energy initial, next-to-last, final = 
        -17375.3333008     -17375.3363713     -17375.3363717
  Force two-norm initial, final = 1.27867 0.00942092
  Force max component initial, final = 0.159731 0.000309445
  Final line search alpha, max atom move = 0 0
  Iterations, force evaluations = 21 430

Pair  time (%) = 0.959624 (91.087)
Neigh time (%) = 0 (0)
Comm  time (%) = 0.0194439 (1.8456)
Outpt time (%) = 0.00224409 (0.213008)
Other time (%) = 0.0722132 (6.85444)

Nlocal:    2912 ave 2912 max 2912 min
Histogram: 1 0 0 0 0 0 0 0 0 0
Nghost:    7129 ave 7129 max 7129 min
Histogram: 1 0 0 0 0 0 0 0 0 0
Neighs:    77856 ave 77856 max 77856 min
Histogram: 1 0 0 0 0 0 0 0 0 0

Total # of neighbors = 77856
Ave neighs/atom = 26.7363
Neighbor list builds = 0
Dangerous builds = 0
        next j
jump SELF loop2
        displace_atoms upper move ${xstep2} 0.0 ${zstep2} units lattice
        displace_atoms upper move 0.000833333333333329 0.0 ${zstep2} units lattice
        displace_atoms upper move 0.000833333333333329 0.0 0.00249999999999999 units lattice
        min_style ${style}
        min_style hftn
        minimize ${etol} ${ftol} ${maxiter} ${maxeval}
        minimize 1e-12 ${ftol} ${maxiter} ${maxeval}
        minimize 1e-12 1e-08 ${maxiter} ${maxeval}
        minimize 1e-12 1e-08 10000 ${maxeval}
        minimize 1e-12 1e-08 10000 20000
WARNING: Resetting reneighboring criteria during minimization (../min.cpp:168)
Memory usage per processor = 5.28939 Mbytes
Step Temp PotEng Lx Ly Lz 
    1943            0   -17375.563    7.7766452    82.504477    4.4898482 
    1944            0   -17375.563    7.7766452    82.504477    4.4898482 
    1945            0   -17375.563    7.7766452    82.504477    4.4898482 
    1946            0   -17375.563    7.7766452    82.504477    4.4898482 
    1947            0   -17375.563    7.7766452    82.504477    4.4898482 
    1948            0   -17375.563    7.7766452    82.504477    4.4898482 
    1949            0   -17375.563    7.7766452    82.504477    4.4898482 
    1950            0   -17375.563    7.7766452    82.504477    4.4898482 
    1951            0   -17375.563    7.7766452    82.504477    4.4898482 
    1952            0   -17375.563    7.7766452    82.504477    4.4898482 
    1953            0   -17375.563    7.7766452    82.504477    4.4898482 
Loop time of 0.181611 on 1 procs for 9 steps with 2912 atoms

Minimization stats:
  Stopping criterion = energy tolerance
  Energy initial, next-to-last, final = 
        -17375.5627994     -17375.5627994      -17375.562925
  Force two-norm initial, final = 0.770991 0.396282
  Force max component initial, final = 0.096372 0.0466511
  Final line search alpha, max atom move = 0 0
  Iterations, force evaluations = 9 74

Pair  time (%) = 0.165365 (91.0544)
Neigh time (%) = 0 (0)
Comm  time (%) = 0.00289491 (1.59402)
Outpt time (%) = 0.00102123 (0.56232)
Other time (%) = 0.0123301 (6.78927)

Nlocal:    2912 ave 2912 max 2912 min
Histogram: 1 0 0 0 0 0 0 0 0 0
Nghost:    7129 ave 7129 max 7129 min
Histogram: 1 0 0 0 0 0 0 0 0 0
Neighs:    77856 ave 77856 max 77856 min
Histogram: 1 0 0 0 0 0 0 0 0 0

Total # of neighbors = 77856
Ave neighs/atom = 26.7363
Neighbor list builds = 0
Dangerous builds = 0
        next j
jump SELF loop2
        displace_atoms upper move ${xstep2} 0.0 ${zstep2} units lattice
        displace_atoms upper move 0.000833333333333329 0.0 ${zstep2} units lattice
        displace_atoms upper move 0.000833333333333329 0.0 0.00249999999999999 units lattice
        min_style ${style}
        min_style hftn
        minimize ${etol} ${ftol} ${maxiter} ${maxeval}
        minimize 1e-12 ${ftol} ${maxiter} ${maxeval}
        minimize 1e-12 1e-08 ${maxiter} ${maxeval}
        minimize 1e-12 1e-08 10000 ${maxeval}
        minimize 1e-12 1e-08 10000 20000
WARNING: Resetting reneighboring criteria during minimization (../min.cpp:168)
Memory usage per processor = 5.28939 Mbytes
Step Temp PotEng Lx Ly Lz 
    1953            0   -17375.743    7.7766452    82.504477    4.4898482 
    1954            0   -17375.744    7.7766452    82.504477    4.4898482 
    1955            0   -17375.744    7.7766452    82.504477    4.4898482 
    1956            0   -17375.745    7.7766452    82.504477    4.4898482 
    1957            0   -17375.745    7.7766452    82.504477    4.4898482 
    1958            0   -17375.745    7.7766452    82.504477    4.4898482 
    1959            0   -17375.745    7.7766452    82.504477    4.4898482 
    1960            0   -17375.745    7.7766452    82.504477    4.4898482 
    1961            0   -17375.745    7.7766452    82.504477    4.4898482 
    1962            0   -17375.745    7.7766452    82.504477    4.4898482 
    1963            0   -17375.745    7.7766452    82.504477    4.4898482 
    1964            0   -17375.745    7.7766452    82.504477    4.4898482 
    1965            0   -17375.745    7.7766452    82.504477    4.4898482 
    1966            0   -17375.745    7.7766452    82.504477    4.4898482 
    1967            0   -17375.745    7.7766452    82.504477    4.4898482 
    1968            0   -17375.745    7.7766452    82.504477    4.4898482 
    1969            0   -17375.745    7.7766452    82.504477    4.4898482 
Loop time of 1.06571 on 1 procs for 15 steps with 2912 atoms

Minimization stats:
  Stopping criterion = energy tolerance
  Energy initial, next-to-last, final = 
        -17375.7433642     -17375.7450721     -17375.7450863
  Force two-norm initial, final = 0.997352 0.0542059
  Force max component initial, final = 0.123555 0.00508837
  Final line search alpha, max atom move = 0 0
  Iterations, force evaluations = 15 436

Pair  time (%) = 0.967899 (90.8222)
Neigh time (%) = 0 (0)
Comm  time (%) = 0.0198576 (1.86332)
Outpt time (%) = 0.00200801 (0.18842)
Other time (%) = 0.0759432 (7.12608)

Nlocal:    2912 ave 2912 max 2912 min
Histogram: 1 0 0 0 0 0 0 0 0 0
Nghost:    7129 ave 7129 max 7129 min
Histogram: 1 0 0 0 0 0 0 0 0 0
Neighs:    77856 ave 77856 max 77856 min
Histogram: 1 0 0 0 0 0 0 0 0 0

Total # of neighbors = 77856
Ave neighs/atom = 26.7363
Neighbor list builds = 0
Dangerous builds = 0
        next j
jump SELF loop2
        displace_atoms upper move ${xstep2} 0.0 ${zstep2} units lattice
        displace_atoms upper move 0.000833333333333329 0.0 ${zstep2} units lattice
        displace_atoms upper move 0.000833333333333329 0.0 0.00249999999999999 units lattice
        min_style ${style}
        min_style hftn
        minimize ${etol} ${ftol} ${maxiter} ${maxeval}
        minimize 1e-12 ${ftol} ${maxiter} ${maxeval}
        minimize 1e-12 1e-08 ${maxiter} ${maxeval}
        minimize 1e-12 1e-08 10000 ${maxeval}
        minimize 1e-12 1e-08 10000 20000
WARNING: Resetting reneighboring criteria during minimization (../min.cpp:168)
Memory usage per processor = 5.28939 Mbytes
Step Temp PotEng Lx Ly Lz 
    1969            0   -17375.878    7.7766452    82.503136    4.4898482 
    1970            0   -17375.879    7.7766452    82.503136    4.4898482 
    1971            0   -17375.879    7.7766452    82.503136    4.4898482 
    1972            0   -17375.879    7.7766452    82.503136    4.4898482 
    1973            0   -17375.879    7.7766452    82.503136    4.4898482 
    1974            0   -17375.879    7.7766452    82.503136    4.4898482 
    1975            0   -17375.879    7.7766452    82.503136    4.4898482 
    1976            0   -17375.879    7.7766452    82.503136    4.4898482 
    1977            0   -17375.879    7.7766452    82.503136    4.4898482 
    1978            0   -17375.879    7.7766452    82.503136    4.4898482 
    1979            0   -17375.879    7.7766452    82.503136    4.4898482 
    1980            0   -17375.879    7.7766452    82.503136    4.4898482 
    1981            0   -17375.879    7.7766452    82.503136    4.4898482 
    1982            0   -17375.879    7.7766452    82.503136    4.4898482 
    1983            0   -17375.879    7.7766452    82.503136    4.4898482 
    1984            0   -17375.879    7.7766452    82.503136    4.4898482 
    1985            0   -17375.879    7.7766452    82.503136    4.4898482 
    1986            0   -17375.879    7.7766452    82.503136    4.4898482 
    1987            0   -17375.879    7.7766452    82.503136    4.4898482 
    1988            0   -17375.879    7.7766452    82.503136    4.4898482 
Loop time of 0.82347 on 1 procs for 18 steps with 2912 atoms

Minimization stats:
  Stopping criterion = energy tolerance
  Energy initial, next-to-last, final = 
        -17375.8782451     -17375.8788228     -17375.8788233
  Force two-norm initial, final = 0.471362 0.00931356
  Force max component initial, final = 0.058558 0.000350523
  Final line search alpha, max atom move = 0 0
  Iterations, force evaluations = 18 337

Pair  time (%) = 0.742707 (90.1924)
Neigh time (%) = 0 (0)
Comm  time (%) = 0.0222779 (2.70537)
Outpt time (%) = 0.00718432 (0.872445)
Other time (%) = 0.0513006 (6.22981)

Nlocal:    2912 ave 2912 max 2912 min
Histogram: 1 0 0 0 0 0 0 0 0 0
Nghost:    7129 ave 7129 max 7129 min
Histogram: 1 0 0 0 0 0 0 0 0 0
Neighs:    77856 ave 77856 max 77856 min
Histogram: 1 0 0 0 0 0 0 0 0 0

Total # of neighbors = 77856
Ave neighs/atom = 26.7363
Neighbor list builds = 0
Dangerous builds = 0
        next j
jump SELF loop2
        displace_atoms upper move ${xstep2} 0.0 ${zstep2} units lattice
        displace_atoms upper move 0.000833333333333329 0.0 ${zstep2} units lattice
        displace_atoms upper move 0.000833333333333329 0.0 0.00249999999999999 units lattice
        min_style ${style}
        min_style hftn
        minimize ${etol} ${ftol} ${maxiter} ${maxeval}
        minimize 1e-12 ${ftol} ${maxiter} ${maxeval}
        minimize 1e-12 1e-08 ${maxiter} ${maxeval}
        minimize 1e-12 1e-08 10000 ${maxeval}
        minimize 1e-12 1e-08 10000 20000
WARNING: Resetting reneighboring criteria during minimization (../min.cpp:168)
Memory usage per processor = 5.28939 Mbytes
Step Temp PotEng Lx Ly Lz 
    1988            0   -17375.961    7.7766452     82.50267    4.4898482 
    1989            0   -17375.961    7.7766452     82.50267    4.4898482 
    1990            0   -17375.961    7.7766452     82.50267    4.4898482 
    1991            0   -17375.961    7.7766452     82.50267    4.4898482 
    1992            0   -17375.961    7.7766452     82.50267    4.4898482 
    1993            0   -17375.961    7.7766452     82.50267    4.4898482 
    1994            0   -17375.961    7.7766452     82.50267    4.4898482 
    1995            0   -17375.961    7.7766452     82.50267    4.4898482 
    1996            0   -17375.961    7.7766452     82.50267    4.4898482 
    1997            0   -17375.961    7.7766452     82.50267    4.4898482 
    1998            0   -17375.961    7.7766452     82.50267    4.4898482 
    1999            0   -17375.961    7.7766452     82.50267    4.4898482 
    2000            0   -17375.961    7.7766452     82.50267    4.4898482 
    2001            0   -17375.961    7.7766452     82.50267    4.4898482 
    2002            0   -17375.961    7.7766452     82.50267    4.4898482 
Loop time of 0.765018 on 1 procs for 13 steps with 2912 atoms

Minimization stats:
  Stopping criterion = energy tolerance
  Energy initial, next-to-last, final = 
        -17375.9608102     -17375.9610521     -17375.9610732
  Force two-norm initial, final = 0.279973 0.0141375
  Force max component initial, final = 0.0349796 0.000722412
  Final line search alpha, max atom move = 0 0
  Iterations, force evaluations = 13 314

Pair  time (%) = 0.696935 (91.1005)
Neigh time (%) = 0 (0)
Comm  time (%) = 0.0157464 (2.0583)
Outpt time (%) = 0.00158257 (0.206866)
Other time (%) = 0.0507536 (6.6343)

Nlocal:    2912 ave 2912 max 2912 min
Histogram: 1 0 0 0 0 0 0 0 0 0
Nghost:    7129 ave 7129 max 7129 min
Histogram: 1 0 0 0 0 0 0 0 0 0
Neighs:    77856 ave 77856 max 77856 min
Histogram: 1 0 0 0 0 0 0 0 0 0

Total # of neighbors = 77856
Ave neighs/atom = 26.7363
Neighbor list builds = 0
Dangerous builds = 0
        next j
jump SELF loop2
        displace_atoms upper move ${xstep2} 0.0 ${zstep2} units lattice
        displace_atoms upper move 0.000833333333333329 0.0 ${zstep2} units lattice
        displace_atoms upper move 0.000833333333333329 0.0 0.00249999999999999 units lattice
        min_style ${style}
        min_style hftn
        minimize ${etol} ${ftol} ${maxiter} ${maxeval}
        minimize 1e-12 ${ftol} ${maxiter} ${maxeval}
        minimize 1e-12 1e-08 ${maxiter} ${maxeval}
        minimize 1e-12 1e-08 10000 ${maxeval}
        minimize 1e-12 1e-08 10000 20000
WARNING: Resetting reneighboring criteria during minimization (../min.cpp:168)
Memory usage per processor = 5.28939 Mbytes
Step Temp PotEng Lx Ly Lz 
    2002            0   -17375.989    7.7766452    82.502428    4.4898482 
    2003            0   -17375.989    7.7766452    82.502428    4.4898482 
    2004            0   -17375.989    7.7766452    82.502428    4.4898482 
    2005            0   -17375.989    7.7766452    82.502428    4.4898482 
    2006            0   -17375.989    7.7766452    82.502428    4.4898482 
    2007            0   -17375.989    7.7766452    82.502428    4.4898482 
    2008            0   -17375.989    7.7766452    82.502428    4.4898482 
    2009            0   -17375.989    7.7766452    82.502428    4.4898482 
    2010            0   -17375.989    7.7766452    82.502428    4.4898482 
    2011            0   -17375.989    7.7766452    82.502428    4.4898482 
    2012            0   -17375.989    7.7766452    82.502428    4.4898482 
    2013            0   -17375.989    7.7766452    82.502428    4.4898482 
Loop time of 0.580272 on 1 procs for 10 steps with 2912 atoms

Minimization stats:
  Stopping criterion = energy tolerance
  Energy initial, next-to-last, final = 
        -17375.9890613     -17375.9891088     -17375.9891769
  Force two-norm initial, final = 0.0970368 0.0186692
  Force max component initial, final = 0.0120106 0.00159082
  Final line search alpha, max atom move = 0 0
  Iterations, force evaluations = 10 235

Pair  time (%) = 0.531252 (91.5522)
Neigh time (%) = 0 (0)
Comm  time (%) = 0.00977852 (1.68516)
Outpt time (%) = 0.00100705 (0.173547)
Other time (%) = 0.0382349 (6.58913)

Nlocal:    2912 ave 2912 max 2912 min
Histogram: 1 0 0 0 0 0 0 0 0 0
Nghost:    7129 ave 7129 max 7129 min
Histogram: 1 0 0 0 0 0 0 0 0 0
Neighs:    77856 ave 77856 max 77856 min
Histogram: 1 0 0 0 0 0 0 0 0 0

Total # of neighbors = 77856
Ave neighs/atom = 26.7363
Neighbor list builds = 0
Dangerous builds = 0
        next j
jump SELF loop2


