LAMMPS (28 Jun 2014)
# attempt at getting generalized stacking fault (GSF) energy curve

#file prefix
variable prefix string gsf_V_brittlenewlarge
variable dumpfile string ${prefix}.*.dump
variable dumpfile string gsf_V_brittlenewlarge.*.dump
variable restartfile string ${prefix}.*.equil
variable restartfile string gsf_V_brittlenewlarge.*.equil

#Mass (g/mol)
variable m equal 1

# lattice constant (in Angstroms) and orientation of axes (given by lattice vectors)
variable rho equal 0.9165
variable x1 equal 1
variable x2 equal 0
variable x3 equal 0
variable y1 equal 0
variable y2 equal 1
variable y3 equal 0
# length of lattice in different directions (using orientation of lattice vectors)
variable ax equal sqrt(${x1}*${x1}+${x2}*${x2}+${x3}*${x3})
variable ax equal sqrt(1*${x1}+${x2}*${x2}+${x3}*${x3})
variable ax equal sqrt(1*1+${x2}*${x2}+${x3}*${x3})
variable ax equal sqrt(1*1+0*${x2}+${x3}*${x3})
variable ax equal sqrt(1*1+0*0+${x3}*${x3})
variable ax equal sqrt(1*1+0*0+0*${x3})
variable ax equal sqrt(1*1+0*0+0*0)
variable ay equal sqrt(${y1}*${y1}+${y2}*${y2}+${y3}*${y3})
variable ay equal sqrt(0*${y1}+${y2}*${y2}+${y3}*${y3})
variable ay equal sqrt(0*0+${y2}*${y2}+${y3}*${y3})
variable ay equal sqrt(0*0+1*${y2}+${y3}*${y3})
variable ay equal sqrt(0*0+1*1+${y3}*${y3})
variable ay equal sqrt(0*0+1*1+0*${y3})
variable ay equal sqrt(0*0+1*1+0*0)
variable az equal 1

# size of box in lattice units
variable lxpos equal 1
variable lxneg equal -1*${lxpos}
variable lxneg equal -1*1
variable lypos equal 20
variable lyneg equal -1*${lypos}
variable lyneg equal -1*20
variable lzpos equal 0
variable lzneg equal -1

# Define minimization parameters and damping
variable etol equal 1.0e-12
variable ftol equal 1.0e-8
variable maxiter equal 10000
variable maxeval equal 20000
variable style string cg

# boundary conditions
dimension	2
boundary	p s p
atom_style	atomic

# create geometry
units		lj
lattice         hex ${rho}
lattice         hex 0.9165
Lattice spacing in x,y,z = 1.12245 1.94415 1.12245
region		myregion block ${lxneg} ${lxpos} ${lyneg} ${lypos} ${lzneg} ${lzpos} units lattice
region		myregion block -1 ${lxpos} ${lyneg} ${lypos} ${lzneg} ${lzpos} units lattice
region		myregion block -1 1 ${lyneg} ${lypos} ${lzneg} ${lzpos} units lattice
region		myregion block -1 1 -20 ${lypos} ${lzneg} ${lzpos} units lattice
region		myregion block -1 1 -20 20 ${lzneg} ${lzpos} units lattice
region		myregion block -1 1 -20 20 -1 ${lzpos} units lattice
region		myregion block -1 1 -20 20 -1 0 units lattice
create_box	3 myregion
Created orthogonal box = (-1.12245 -38.8829 -1.12245) to (1.12245 38.8829 0)
  1 by 1 by 1 MPI processor grid
create_atoms	1 box
Created 162 atoms

# define masses
mass * $m
mass * 1

# my fake/morse potential
pair_style      table linear 3001
pair_coeff      * * vpotential_brittlenew dummy
neighbor	0.3 bin
neigh_modify	delay 5

# define groups
region	    upper block INF INF 0.01 ${lypos} INF INF units lattice
region	    upper block INF INF 0.01 20 INF INF units lattice
group		upper region upper
80 atoms in group upper

# Setup output
thermo 1
thermo_style custom step temp pe lx ly lz
thermo_modify norm no

# Compute initial state by relaxing box
min_style ${style}
min_style cg
minimize ${etol} ${ftol} ${maxiter} ${maxeval}
minimize 1e-12 ${ftol} ${maxiter} ${maxeval}
minimize 1e-12 1e-08 ${maxiter} ${maxeval}
minimize 1e-12 1e-08 10000 ${maxeval}
minimize 1e-12 1e-08 10000 20000
WARNING: Resetting reneighboring criteria during minimization (../min.cpp:168)
Memory usage per processor = 3.3526 Mbytes
Step Temp PotEng Lx Ly Lz 
       0            0   -481.99986    2.2449075    77.781429    1.1224537 
       1            0   -481.99986    2.2449075    77.781429    1.1224537 
       2            0   -481.99986    2.2449075    77.781429    1.1224537 
Loop time of 0.000649977 on 1 procs for 2 steps with 162 atoms

Minimization stats:
  Stopping criterion = linesearch alpha is zero
  Energy initial, next-to-last, final = 
        -481.999855989     -481.999858157     -481.999858157
  Force two-norm initial, final = 0.000778805 0.00455994
  Force max component initial, final = 0.000389403 0.00179508
  Final line search alpha, max atom move = 0.000488281 8.76506e-07
  Iterations, force evaluations = 2 16

Pair  time (%) = 0.000476163 (73.2584)
Neigh time (%) = 0 (0)
Comm  time (%) = 3.15226e-05 (4.8498)
Outpt time (%) = 4.49396e-05 (6.91402)
Other time (%) = 9.73523e-05 (14.9778)

Nlocal:    162 ave 162 max 162 min
Histogram: 1 0 0 0 0 0 0 0 0 0
Nghost:    365 ave 365 max 365 min
Histogram: 1 0 0 0 0 0 0 0 0 0
Neighs:    1438 ave 1438 max 1438 min
Histogram: 1 0 0 0 0 0 0 0 0 0

Total # of neighbors = 1438
Ave neighs/atom = 8.87654
Neighbor list builds = 0
Dangerous builds = 0

# don't allow atoms to relax in x-direction
fix 2 all setforce 0.0 NULL 0.0

# GSF energy curve will have 100*2 steps
variable nsteps equal 300
variable sstep1 equal 1.
variable xstep1 equal ${sstep1}/(${ax}*${nsteps})
variable xstep1 equal 1/(${ax}*${nsteps})
variable xstep1 equal 1/(1*${nsteps})
variable xstep1 equal 1/(1*300)

variable i loop ${nsteps}
variable i loop 300
label loop1
        displace_atoms upper move ${xstep1} 0.0 0.0 units lattice
        displace_atoms upper move 0.00333333333333333 0.0 0.0 units lattice
        min_style ${style}
        min_style cg
        minimize ${etol} ${ftol} ${maxiter} ${maxeval}
        minimize 1e-12 ${ftol} ${maxiter} ${maxeval}
        minimize 1e-12 1e-08 ${maxiter} ${maxeval}
        minimize 1e-12 1e-08 10000 ${maxeval}
        minimize 1e-12 1e-08 10000 20000
WARNING: Resetting reneighboring criteria during minimization (../min.cpp:168)
Memory usage per processor = 3.3526 Mbytes
Step Temp PotEng Lx Ly Lz 
       2            0   -481.99969    2.2449075    77.781526    1.1224537 
       3            0   -481.99969    2.2449075    77.781526    1.1224537 
Loop time of 0.000529952 on 1 procs for 1 steps with 162 atoms

Minimization stats:
  Stopping criterion = linesearch alpha is zero
  Energy initial, next-to-last, final = 
        -481.999685693     -481.999685693     -481.999685693
  Force two-norm initial, final = 0.00478129 0.00478129
  Force max component initial, final = 0.00179508 0.00179508
  Final line search alpha, max atom move = 0.000488281 8.76506e-07
  Iterations, force evaluations = 1 12

Pair  time (%) = 0.000411978 (77.7386)
Neigh time (%) = 0 (0)
Comm  time (%) = 3.28558e-05 (6.19976)
Outpt time (%) = 0 (0)
Other time (%) = 8.5119e-05 (16.0616)

Nlocal:    162 ave 162 max 162 min
Histogram: 1 0 0 0 0 0 0 0 0 0
Nghost:    365 ave 365 max 365 min
Histogram: 1 0 0 0 0 0 0 0 0 0
Neighs:    1438 ave 1438 max 1438 min
Histogram: 1 0 0 0 0 0 0 0 0 0

Total # of neighbors = 1438
Ave neighs/atom = 8.87654
Neighbor list builds = 0
Dangerous builds = 0
        # write_dump all atom ${dumpfile}
        next i
jump SELF loop1
        displace_atoms upper move ${xstep1} 0.0 0.0 units lattice
        displace_atoms upper move 0.00333333333333333 0.0 0.0 units lattice
        min_style ${style}
        min_style cg
        minimize ${etol} ${ftol} ${maxiter} ${maxeval}
        minimize 1e-12 ${ftol} ${maxiter} ${maxeval}
        minimize 1e-12 1e-08 ${maxiter} ${maxeval}
        minimize 1e-12 1e-08 10000 ${maxeval}
        minimize 1e-12 1e-08 10000 20000
WARNING: Resetting reneighboring criteria during minimization (../min.cpp:168)
Memory usage per processor = 3.3526 Mbytes
Step Temp PotEng Lx Ly Lz 
       3            0   -481.99917    2.2449075    77.781526    1.1224537 
       4            0   -481.99917    2.2449075    77.781526    1.1224537 
Loop time of 0.000634086 on 1 procs for 1 steps with 162 atoms

Minimization stats:
  Stopping criterion = linesearch alpha is zero
  Energy initial, next-to-last, final = 
        -481.999169806     -481.999169806     -481.999169806
  Force two-norm initial, final = 0.00732734 0.00732734
  Force max component initial, final = 0.00286779 0.00286779
  Final line search alpha, max atom move = 0.00012207 3.50072e-07
  Iterations, force evaluations = 1 14

Pair  time (%) = 0.000512109 (80.7634)
Neigh time (%) = 0 (0)
Comm  time (%) = 3.51748e-05 (5.54732)
Outpt time (%) = 0 (0)
Other time (%) = 8.68021e-05 (13.6893)

Nlocal:    162 ave 162 max 162 min
Histogram: 1 0 0 0 0 0 0 0 0 0
Nghost:    365 ave 365 max 365 min
Histogram: 1 0 0 0 0 0 0 0 0 0
Neighs:    1438 ave 1438 max 1438 min
Histogram: 1 0 0 0 0 0 0 0 0 0

Total # of neighbors = 1438
Ave neighs/atom = 8.87654
Neighbor list builds = 0
Dangerous builds = 0
        # write_dump all atom ${dumpfile}
        next i
jump SELF loop1
        displace_atoms upper move ${xstep1} 0.0 0.0 units lattice
        displace_atoms upper move 0.00333333333333333 0.0 0.0 units lattice
        min_style ${style}
        min_style cg
        minimize ${etol} ${ftol} ${maxiter} ${maxeval}
        minimize 1e-12 ${ftol} ${maxiter} ${maxeval}
        minimize 1e-12 1e-08 ${maxiter} ${maxeval}
        minimize 1e-12 1e-08 10000 ${maxeval}
        minimize 1e-12 1e-08 10000 20000
WARNING: Resetting reneighboring criteria during minimization (../min.cpp:168)
Memory usage per processor = 3.3526 Mbytes
Step Temp PotEng Lx Ly Lz 
       4            0   -481.99831    2.2449075    77.781526    1.1224537 
       5            0   -481.99831    2.2449075    77.781526    1.1224537 
Loop time of 0.000512975 on 1 procs for 1 steps with 162 atoms

Minimization stats:
  Stopping criterion = linesearch alpha is zero
  Energy initial, next-to-last, final = 
        -481.998311948     -481.998311948     -481.998311948
  Force two-norm initial, final = 0.01366 0.01366
  Force max component initial, final = 0.00643821 0.00643821
  Final line search alpha, max atom move = 6.10352e-05 3.92957e-07
  Iterations, force evaluations = 1 15

Pair  time (%) = 0.000392796 (76.5721)
Neigh time (%) = 0 (0)
Comm  time (%) = 2.88503e-05 (5.62411)
Outpt time (%) = 0 (0)
Other time (%) = 9.1329e-05 (17.8038)

Nlocal:    162 ave 162 max 162 min
Histogram: 1 0 0 0 0 0 0 0 0 0
Nghost:    365 ave 365 max 365 min
Histogram: 1 0 0 0 0 0 0 0 0 0
Neighs:    1438 ave 1438 max 1438 min
Histogram: 1 0 0 0 0 0 0 0 0 0

Total # of neighbors = 1438
Ave neighs/atom = 8.87654
Neighbor list builds = 0
Dangerous builds = 0
        # write_dump all atom ${dumpfile}
        next i
jump SELF loop1
        displace_atoms upper move ${xstep1} 0.0 0.0 units lattice
        displace_atoms upper move 0.00333333333333333 0.0 0.0 units lattice
        min_style ${style}
        min_style cg
        minimize ${etol} ${ftol} ${maxiter} ${maxeval}
        minimize 1e-12 ${ftol} ${maxiter} ${maxeval}
        minimize 1e-12 1e-08 ${maxiter} ${maxeval}
        minimize 1e-12 1e-08 10000 ${maxeval}
        minimize 1e-12 1e-08 10000 20000
WARNING: Resetting reneighboring criteria during minimization (../min.cpp:168)
Memory usage per processor = 3.3526 Mbytes
Step Temp PotEng Lx Ly Lz 
       5            0   -481.99711    2.2449075    77.781526    1.1224537 
       6            0   -481.99711    2.2449075    77.781526    1.1224537 
Loop time of 0.000773955 on 1 procs for 1 steps with 162 atoms

Minimization stats:
  Stopping criterion = linesearch alpha is zero
  Energy initial, next-to-last, final = 
        -481.997112502     -481.997112502     -481.997112502
  Force two-norm initial, final = 0.0233072 0.0233072
  Force max component initial, final = 0.0114284 0.0114284
  Final line search alpha, max atom move = 1.52588e-05 1.74383e-07
  Iterations, force evaluations = 1 17

Pair  time (%) = 0.000625992 (80.8822)
Neigh time (%) = 0 (0)
Comm  time (%) = 4.53218e-05 (5.85587)
Outpt time (%) = 0 (0)
Other time (%) = 0.000102641 (13.2619)

Nlocal:    162 ave 162 max 162 min
Histogram: 1 0 0 0 0 0 0 0 0 0
Nghost:    365 ave 365 max 365 min
Histogram: 1 0 0 0 0 0 0 0 0 0
Neighs:    1438 ave 1438 max 1438 min
Histogram: 1 0 0 0 0 0 0 0 0 0

Total # of neighbors = 1438
Ave neighs/atom = 8.87654
Neighbor list builds = 0
Dangerous builds = 0
        # write_dump all atom ${dumpfile}
        next i
jump SELF loop1
        displace_atoms upper move ${xstep1} 0.0 0.0 units lattice
        displace_atoms upper move 0.00333333333333333 0.0 0.0 units lattice
        min_style ${style}
        min_style cg
        minimize ${etol} ${ftol} ${maxiter} ${maxeval}
        minimize 1e-12 ${ftol} ${maxiter} ${maxeval}
        minimize 1e-12 1e-08 ${maxiter} ${maxeval}
        minimize 1e-12 1e-08 10000 ${maxeval}
        minimize 1e-12 1e-08 10000 20000
WARNING: Resetting reneighboring criteria during minimization (../min.cpp:168)
Memory usage per processor = 3.3526 Mbytes
Step Temp PotEng Lx Ly Lz 
       6            0   -481.99557    2.2449075    77.781526    1.1224537 
       7            0   -481.99557    2.2449075    77.781526    1.1224537 
       8            0   -481.99557    2.2449075    77.781526    1.1224537 
       9            0   -481.99557    2.2449075    77.781526    1.1224537 
Loop time of 0.00228706 on 1 procs for 3 steps with 162 atoms

Minimization stats:
  Stopping criterion = linesearch alpha is zero
  Energy initial, next-to-last, final = 
         -481.99557186     -481.995572727     -481.995572727
  Force two-norm initial, final = 0.0359625 0.0312651
  Force max component initial, final = 0.0178361 0.015482
  Final line search alpha, max atom move = 7.62939e-06 1.18118e-07
  Iterations, force evaluations = 3 42

Pair  time (%) = 0.00180887 (79.0913)
Neigh time (%) = 0 (0)
Comm  time (%) = 0.000210918 (9.22222)
Outpt time (%) = 3.19177e-05 (1.39558)
Other time (%) = 0.000235358 (10.2909)

Nlocal:    162 ave 162 max 162 min
Histogram: 1 0 0 0 0 0 0 0 0 0
Nghost:    365 ave 365 max 365 min
Histogram: 1 0 0 0 0 0 0 0 0 0
Neighs:    1438 ave 1438 max 1438 min
Histogram: 1 0 0 0 0 0 0 0 0 0

Total # of neighbors = 1438
Ave neighs/atom = 8.87654
Neighbor list builds = 0
Dangerous builds = 0
        # write_dump all atom ${dumpfile}
        next i
jump SELF loop1
        displace_atoms upper move ${xstep1} 0.0 0.0 units lattice
        displace_atoms upper move 0.00333333333333333 0.0 0.0 units lattice
        min_style ${style}
        min_style cg
        minimize ${etol} ${ftol} ${maxiter} ${maxeval}
        minimize 1e-12 ${ftol} ${maxiter} ${maxeval}
        minimize 1e-12 1e-08 ${maxiter} ${maxeval}
        minimize 1e-12 1e-08 10000 ${maxeval}
        minimize 1e-12 1e-08 10000 20000
WARNING: Resetting reneighboring criteria during minimization (../min.cpp:168)
Memory usage per processor = 3.3526 Mbytes
Step Temp PotEng Lx Ly Lz 
       9            0   -481.99369    2.2449075    77.781523    1.1224537 
      10            0    -481.9937    2.2449075    77.781523    1.1224537 
      11            0    -481.9937    2.2449075    77.781523    1.1224537 
Loop time of 0.00139012 on 1 procs for 2 steps with 162 atoms

Minimization stats:
  Stopping criterion = linesearch alpha is zero
  Energy initial, next-to-last, final = 
        -481.993688446     -481.993695537     -481.993695537
  Force two-norm initial, final = 0.046848 0.0156938
  Force max component initial, final = 0.0233238 0.00704691
  Final line search alpha, max atom move = 3.05176e-05 2.15055e-07
  Iterations, force evaluations = 2 24

Pair  time (%) = 0.00124617 (89.6451)
Neigh time (%) = 0 (0)
Comm  time (%) = 4.7316e-05 (3.40374)
Outpt time (%) = 1.20193e-05 (0.864625)
Other time (%) = 8.46105e-05 (6.08658)

Nlocal:    162 ave 162 max 162 min
Histogram: 1 0 0 0 0 0 0 0 0 0
Nghost:    365 ave 365 max 365 min
Histogram: 1 0 0 0 0 0 0 0 0 0
Neighs:    1438 ave 1438 max 1438 min
Histogram: 1 0 0 0 0 0 0 0 0 0

Total # of neighbors = 1438
Ave neighs/atom = 8.87654
Neighbor list builds = 0
Dangerous builds = 0
        # write_dump all atom ${dumpfile}
        next i
jump SELF loop1
        displace_atoms upper move ${xstep1} 0.0 0.0 units lattice
        displace_atoms upper move 0.00333333333333333 0.0 0.0 units lattice
        min_style ${style}
        min_style cg
        minimize ${etol} ${ftol} ${maxiter} ${maxeval}
        minimize 1e-12 ${ftol} ${maxiter} ${maxeval}
        minimize 1e-12 1e-08 ${maxiter} ${maxeval}
        minimize 1e-12 1e-08 10000 ${maxeval}
        minimize 1e-12 1e-08 10000 20000
WARNING: Resetting reneighboring criteria during minimization (../min.cpp:168)
Memory usage per processor = 3.3526 Mbytes
Step Temp PotEng Lx Ly Lz 
      11            0   -481.99148    2.2449075    77.781503    1.1224537 
      12            0   -481.99148    2.2449075    77.781503    1.1224537 
      13            0   -481.99148    2.2449075    77.781503    1.1224537 
Loop time of 0.00105905 on 1 procs for 2 steps with 162 atoms

Minimization stats:
  Stopping criterion = linesearch alpha is zero
  Energy initial, next-to-last, final = 
        -481.991479045     -481.991479237     -481.991479237
  Force two-norm initial, final = 0.0288861 0.0279066
  Force max component initial, final = 0.0125837 0.0120304
  Final line search alpha, max atom move = 1.52588e-05 1.83569e-07
  Iterations, force evaluations = 2 29

Pair  time (%) = 0.000899752 (84.9588)
Neigh time (%) = 0 (0)
Comm  time (%) = 6.02049e-05 (5.68483)
Outpt time (%) = 7.03102e-06 (0.663902)
Other time (%) = 9.2057e-05 (8.69245)

Nlocal:    162 ave 162 max 162 min
Histogram: 1 0 0 0 0 0 0 0 0 0
Nghost:    365 ave 365 max 365 min
Histogram: 1 0 0 0 0 0 0 0 0 0
Neighs:    1438 ave 1438 max 1438 min
Histogram: 1 0 0 0 0 0 0 0 0 0

Total # of neighbors = 1438
Ave neighs/atom = 8.87654
Neighbor list builds = 0
Dangerous builds = 0
        # write_dump all atom ${dumpfile}
        next i
jump SELF loop1
        displace_atoms upper move ${xstep1} 0.0 0.0 units lattice
        displace_atoms upper move 0.00333333333333333 0.0 0.0 units lattice
        min_style ${style}
        min_style cg
        minimize ${etol} ${ftol} ${maxiter} ${maxeval}
        minimize 1e-12 ${ftol} ${maxiter} ${maxeval}
        minimize 1e-12 1e-08 ${maxiter} ${maxeval}
        minimize 1e-12 1e-08 10000 ${maxeval}
        minimize 1e-12 1e-08 10000 20000
WARNING: Resetting reneighboring criteria during minimization (../min.cpp:168)
Memory usage per processor = 3.3526 Mbytes
Step Temp PotEng Lx Ly Lz 
      13            0   -481.98892    2.2449075    77.781503    1.1224537 
      14            0   -481.98893    2.2449075    77.781503    1.1224537 
      15            0   -481.98893    2.2449075    77.781503    1.1224537 
      16            0   -481.98893    2.2449075    77.781503    1.1224537 
      17            0   -481.98893    2.2449075    77.781503    1.1224537 
      18            0   -481.98893    2.2449075    77.781503    1.1224537 
Loop time of 0.00229907 on 1 procs for 5 steps with 162 atoms

Minimization stats:
  Stopping criterion = linesearch alpha is zero
  Energy initial, next-to-last, final = 
        -481.988922201     -481.988930874     -481.988930874
  Force two-norm initial, final = 0.0474891 0.0179964
  Force max component initial, final = 0.022668 0.00742926
  Final line search alpha, max atom move = 3.05176e-05 2.26723e-07
  Iterations, force evaluations = 5 56

Pair  time (%) = 0.00177488 (77.1998)
Neigh time (%) = 0 (0)
Comm  time (%) = 0.000127319 (5.53785)
Outpt time (%) = 0.000141951 (6.17427)
Other time (%) = 0.000254922 (11.0881)

Nlocal:    162 ave 162 max 162 min
Histogram: 1 0 0 0 0 0 0 0 0 0
Nghost:    365 ave 365 max 365 min
Histogram: 1 0 0 0 0 0 0 0 0 0
Neighs:    1438 ave 1438 max 1438 min
Histogram: 1 0 0 0 0 0 0 0 0 0

Total # of neighbors = 1438
Ave neighs/atom = 8.87654
Neighbor list builds = 0
Dangerous builds = 0
        # write_dump all atom ${dumpfile}
        next i
jump SELF loop1
        displace_atoms upper move ${xstep1} 0.0 0.0 units lattice
        displace_atoms upper move 0.00333333333333333 0.0 0.0 units lattice
        min_style ${style}
        min_style cg
        minimize ${etol} ${ftol} ${maxiter} ${maxeval}
        minimize 1e-12 ${ftol} ${maxiter} ${maxeval}
        minimize 1e-12 1e-08 ${maxiter} ${maxeval}
        minimize 1e-12 1e-08 10000 ${maxeval}
        minimize 1e-12 1e-08 10000 20000
WARNING: Resetting reneighboring criteria during minimization (../min.cpp:168)
Memory usage per processor = 3.3526 Mbytes
Step Temp PotEng Lx Ly Lz 
      18            0   -481.98604    2.2449075    77.781494    1.1224537 
      19            0   -481.98605    2.2449075    77.781494    1.1224537 
      20            0   -481.98605    2.2449075    77.781494    1.1224537 
Loop time of 0.000844984 on 1 procs for 2 steps with 162 atoms

Minimization stats:
  Stopping criterion = linesearch alpha is zero
  Energy initial, next-to-last, final = 
        -481.986044868     -481.986052919     -481.986052919
  Force two-norm initial, final = 0.0358409 0.026208
  Force max component initial, final = 0.0160058 0.00985142
  Final line search alpha, max atom move = 1.52588e-05 1.50321e-07
  Iterations, force evaluations = 2 24

Pair  time (%) = 0.00065497 (77.5127)
Neigh time (%) = 0 (0)
Comm  time (%) = 4.64753e-05 (5.50015)
Outpt time (%) = 4.20411e-05 (4.97537)
Other time (%) = 0.000101497 (12.0117)

Nlocal:    162 ave 162 max 162 min
Histogram: 1 0 0 0 0 0 0 0 0 0
Nghost:    365 ave 365 max 365 min
Histogram: 1 0 0 0 0 0 0 0 0 0
Neighs:    1438 ave 1438 max 1438 min
Histogram: 1 0 0 0 0 0 0 0 0 0

Total # of neighbors = 1438
Ave neighs/atom = 8.87654
Neighbor list builds = 0
Dangerous builds = 0
        # write_dump all atom ${dumpfile}
        next i
jump SELF loop1
        displace_atoms upper move ${xstep1} 0.0 0.0 units lattice
        displace_atoms upper move 0.00333333333333333 0.0 0.0 units lattice
        min_style ${style}
        min_style cg
        minimize ${etol} ${ftol} ${maxiter} ${maxeval}
        minimize 1e-12 ${ftol} ${maxiter} ${maxeval}
        minimize 1e-12 1e-08 ${maxiter} ${maxeval}
        minimize 1e-12 1e-08 10000 ${maxeval}
        minimize 1e-12 1e-08 10000 20000
WARNING: Resetting reneighboring criteria during minimization (../min.cpp:168)
Memory usage per processor = 3.3526 Mbytes
Step Temp PotEng Lx Ly Lz 
      20            0   -481.98284    2.2449075    77.781489    1.1224537 
      21            0   -481.98284    2.2449075    77.781489    1.1224537 
Loop time of 0.000686014 on 1 procs for 1 steps with 162 atoms

Minimization stats:
  Stopping criterion = linesearch alpha is zero
  Energy initial, next-to-last, final = 
        -481.982844066     -481.982844066     -481.982844066
  Force two-norm initial, final = 0.0246763 0.0246763
  Force max component initial, final = 0.00985142 0.00985142
  Final line search alpha, max atom move = 1.52588e-05 1.50321e-07
  Iterations, force evaluations = 1 17

Pair  time (%) = 0.000551837 (80.4411)
Neigh time (%) = 0 (0)
Comm  time (%) = 3.79608e-05 (5.53354)
Outpt time (%) = 0 (0)
Other time (%) = 9.62162e-05 (14.0254)

Nlocal:    162 ave 162 max 162 min
Histogram: 1 0 0 0 0 0 0 0 0 0
Nghost:    365 ave 365 max 365 min
Histogram: 1 0 0 0 0 0 0 0 0 0
Neighs:    1438 ave 1438 max 1438 min
Histogram: 1 0 0 0 0 0 0 0 0 0

Total # of neighbors = 1438
Ave neighs/atom = 8.87654
Neighbor list builds = 0
Dangerous builds = 0
        # write_dump all atom ${dumpfile}
        next i
jump SELF loop1
        displace_atoms upper move ${xstep1} 0.0 0.0 units lattice
        displace_atoms upper move 0.00333333333333333 0.0 0.0 units lattice
        min_style ${style}
        min_style cg
        minimize ${etol} ${ftol} ${maxiter} ${maxeval}
        minimize 1e-12 ${ftol} ${maxiter} ${maxeval}
        minimize 1e-12 1e-08 ${maxiter} ${maxeval}
        minimize 1e-12 1e-08 10000 ${maxeval}
        minimize 1e-12 1e-08 10000 20000
WARNING: Resetting reneighboring criteria during minimization (../min.cpp:168)
Memory usage per processor = 3.3526 Mbytes
Step Temp PotEng Lx Ly Lz 
      21            0    -481.9793    2.2449075    77.781489    1.1224537 
      22            0   -481.97932    2.2449075    77.781489    1.1224537 
      23            0   -481.97932    2.2449075    77.781489    1.1224537 
Loop time of 0.00104695 on 1 procs for 2 steps with 162 atoms

Minimization stats:
  Stopping criterion = linesearch alpha is zero
  Energy initial, next-to-last, final = 
         -481.97930305     -481.979320883     -481.979320883
  Force two-norm initial, final = 0.0466418 0.034314
  Force max component initial, final = 0.0206625 0.0127603
  Final line search alpha, max atom move = 7.62939e-06 9.73532e-08
  Iterations, force evaluations = 2 25

Pair  time (%) = 0.000834252 (79.6838)
Neigh time (%) = 0 (0)
Comm  time (%) = 8.71796e-05 (8.32699)
Outpt time (%) = 8.89425e-06 (0.849537)
Other time (%) = 0.000116627 (11.1397)

Nlocal:    162 ave 162 max 162 min
Histogram: 1 0 0 0 0 0 0 0 0 0
Nghost:    365 ave 365 max 365 min
Histogram: 1 0 0 0 0 0 0 0 0 0
Neighs:    1438 ave 1438 max 1438 min
Histogram: 1 0 0 0 0 0 0 0 0 0

Total # of neighbors = 1438
Ave neighs/atom = 8.87654
Neighbor list builds = 0
Dangerous builds = 0
        # write_dump all atom ${dumpfile}
        next i
jump SELF loop1
        displace_atoms upper move ${xstep1} 0.0 0.0 units lattice
        displace_atoms upper move 0.00333333333333333 0.0 0.0 units lattice
        min_style ${style}
        min_style cg
        minimize ${etol} ${ftol} ${maxiter} ${maxeval}
        minimize 1e-12 ${ftol} ${maxiter} ${maxeval}
        minimize 1e-12 1e-08 ${maxiter} ${maxeval}
        minimize 1e-12 1e-08 10000 ${maxeval}
        minimize 1e-12 1e-08 10000 20000
WARNING: Resetting reneighboring criteria during minimization (../min.cpp:168)
Memory usage per processor = 3.3526 Mbytes
Step Temp PotEng Lx Ly Lz 
      23            0   -481.97547    2.2449075    77.781489    1.1224537 
      24            0   -481.97547    2.2449075    77.781489    1.1224537 
Loop time of 0.00140001 on 1 procs for 1 steps with 162 atoms

Minimization stats:
  Stopping criterion = linesearch alpha is zero
  Energy initial, next-to-last, final = 
        -481.975467998     -481.975467998     -481.975467998
  Force two-norm initial, final = 0.031534 0.031534
  Force max component initial, final = 0.0127603 0.0127603
  Final line search alpha, max atom move = 7.62939e-06 9.73532e-08
  Iterations, force evaluations = 1 18

Pair  time (%) = 0.00128771 (91.9785)
Neigh time (%) = 0 (0)
Comm  time (%) = 4.37116e-05 (3.12223)
Outpt time (%) = 0 (0)
Other time (%) = 6.85897e-05 (4.89922)

Nlocal:    162 ave 162 max 162 min
Histogram: 1 0 0 0 0 0 0 0 0 0
Nghost:    365 ave 365 max 365 min
Histogram: 1 0 0 0 0 0 0 0 0 0
Neighs:    1438 ave 1438 max 1438 min
Histogram: 1 0 0 0 0 0 0 0 0 0

Total # of neighbors = 1438
Ave neighs/atom = 8.87654
Neighbor list builds = 0
Dangerous builds = 0
        # write_dump all atom ${dumpfile}
        next i
jump SELF loop1
        displace_atoms upper move ${xstep1} 0.0 0.0 units lattice
        displace_atoms upper move 0.00333333333333333 0.0 0.0 units lattice
        min_style ${style}
        min_style cg
        minimize ${etol} ${ftol} ${maxiter} ${maxeval}
        minimize 1e-12 ${ftol} ${maxiter} ${maxeval}
        minimize 1e-12 1e-08 ${maxiter} ${maxeval}
        minimize 1e-12 1e-08 10000 ${maxeval}
        minimize 1e-12 1e-08 10000 20000
WARNING: Resetting reneighboring criteria during minimization (../min.cpp:168)
Memory usage per processor = 3.3526 Mbytes
Step Temp PotEng Lx Ly Lz 
      24            0   -481.97128    2.2449075    77.781489    1.1224537 
      25            0    -481.9713    2.2449075    77.781489    1.1224537 
      26            0   -481.97132    2.2449075    77.781489    1.1224537 
      27            0   -481.97132    2.2449075    77.781489    1.1224537 
Loop time of 0.0012099 on 1 procs for 3 steps with 162 atoms

Minimization stats:
  Stopping criterion = linesearch alpha is zero
  Energy initial, next-to-last, final = 
        -481.971284039     -481.971318021     -481.971318021
  Force two-norm initial, final = 0.0558468 0.0248973
  Force max component initial, final = 0.0239662 0.0106393
  Final line search alpha, max atom move = 1.52588e-05 1.62343e-07
  Iterations, force evaluations = 3 31

Pair  time (%) = 0.000983728 (81.3068)
Neigh time (%) = 0 (0)
Comm  time (%) = 9.96694e-05 (8.23785)
Outpt time (%) = 1.30754e-05 (1.08071)
Other time (%) = 0.000113423 (9.37461)

Nlocal:    162 ave 162 max 162 min
Histogram: 1 0 0 0 0 0 0 0 0 0
Nghost:    365 ave 365 max 365 min
Histogram: 1 0 0 0 0 0 0 0 0 0
Neighs:    1438 ave 1438 max 1438 min
Histogram: 1 0 0 0 0 0 0 0 0 0

Total # of neighbors = 1438
Ave neighs/atom = 8.87654
Neighbor list builds = 0
Dangerous builds = 0
        # write_dump all atom ${dumpfile}
        next i
jump SELF loop1
        displace_atoms upper move ${xstep1} 0.0 0.0 units lattice
        displace_atoms upper move 0.00333333333333333 0.0 0.0 units lattice
        min_style ${style}
        min_style cg
        minimize ${etol} ${ftol} ${maxiter} ${maxeval}
        minimize 1e-12 ${ftol} ${maxiter} ${maxeval}
        minimize 1e-12 1e-08 ${maxiter} ${maxeval}
        minimize 1e-12 1e-08 10000 ${maxeval}
        minimize 1e-12 1e-08 10000 20000
WARNING: Resetting reneighboring criteria during minimization (../min.cpp:168)
Memory usage per processor = 3.3526 Mbytes
Step Temp PotEng Lx Ly Lz 
      27            0   -481.96684    2.2449075    77.781492    1.1224537 
      28            0   -481.96685    2.2449075    77.781492    1.1224537 
      29            0   -481.96685    2.2449075    77.781492    1.1224537 
Loop time of 0.000989102 on 1 procs for 2 steps with 162 atoms

Minimization stats:
  Stopping criterion = linesearch alpha is zero
  Energy initial, next-to-last, final = 
        -481.966837958     -481.966846035     -481.966846035
  Force two-norm initial, final = 0.0437816 0.0226178
  Force max component initial, final = 0.0180164 0.00716171
  Final line search alpha, max atom move = 1.52588e-05 1.09279e-07
  Iterations, force evaluations = 2 25

Pair  time (%) = 0.000835262 (84.4465)
Neigh time (%) = 0 (0)
Comm  time (%) = 5.53977e-05 (5.60081)
Outpt time (%) = 7.88679e-06 (0.797368)
Other time (%) = 9.05559e-05 (9.15536)

Nlocal:    162 ave 162 max 162 min
Histogram: 1 0 0 0 0 0 0 0 0 0
Nghost:    365 ave 365 max 365 min
Histogram: 1 0 0 0 0 0 0 0 0 0
Neighs:    1438 ave 1438 max 1438 min
Histogram: 1 0 0 0 0 0 0 0 0 0

Total # of neighbors = 1438
Ave neighs/atom = 8.87654
Neighbor list builds = 0
Dangerous builds = 0
        # write_dump all atom ${dumpfile}
        next i
jump SELF loop1
        displace_atoms upper move ${xstep1} 0.0 0.0 units lattice
        displace_atoms upper move 0.00333333333333333 0.0 0.0 units lattice
        min_style ${style}
        min_style cg
        minimize ${etol} ${ftol} ${maxiter} ${maxeval}
        minimize 1e-12 ${ftol} ${maxiter} ${maxeval}
        minimize 1e-12 1e-08 ${maxiter} ${maxeval}
        minimize 1e-12 1e-08 10000 ${maxeval}
        minimize 1e-12 1e-08 10000 20000
WARNING: Resetting reneighboring criteria during minimization (../min.cpp:168)
Memory usage per processor = 3.3526 Mbytes
Step Temp PotEng Lx Ly Lz 
      29            0   -481.96205    2.2449075    77.781493    1.1224537 
      30            0   -481.96206    2.2449075    77.781493    1.1224537 
      31            0   -481.96208    2.2449075    77.781493    1.1224537 
      32            0   -481.96208    2.2449075    77.781493    1.1224537 
Loop time of 0.00125303 on 1 procs for 3 steps with 162 atoms

Minimization stats:
  Stopping criterion = linesearch alpha is zero
  Energy initial, next-to-last, final = 
        -481.962051653     -481.962079654     -481.962079654
  Force two-norm initial, final = 0.0486507 0.0238469
  Force max component initial, final = 0.0216031 0.0101916
  Final line search alpha, max atom move = 1.52588e-05 1.55512e-07
  Iterations, force evaluations = 3 31

Pair  time (%) = 0.00102829 (82.0645)
Neigh time (%) = 0 (0)
Comm  time (%) = 9.7533e-05 (7.78379)
Outpt time (%) = 1.61036e-05 (1.28518)
Other time (%) = 0.000111101 (8.86658)

Nlocal:    162 ave 162 max 162 min
Histogram: 1 0 0 0 0 0 0 0 0 0
Nghost:    345 ave 345 max 345 min
Histogram: 1 0 0 0 0 0 0 0 0 0
Neighs:    1438 ave 1438 max 1438 min
Histogram: 1 0 0 0 0 0 0 0 0 0

Total # of neighbors = 1438
Ave neighs/atom = 8.87654
Neighbor list builds = 0
Dangerous builds = 0
        # write_dump all atom ${dumpfile}
        next i
jump SELF loop1
        displace_atoms upper move ${xstep1} 0.0 0.0 units lattice
        displace_atoms upper move 0.00333333333333333 0.0 0.0 units lattice
        min_style ${style}
        min_style cg
        minimize ${etol} ${ftol} ${maxiter} ${maxeval}
        minimize 1e-12 ${ftol} ${maxiter} ${maxeval}
        minimize 1e-12 1e-08 ${maxiter} ${maxeval}
        minimize 1e-12 1e-08 10000 ${maxeval}
        minimize 1e-12 1e-08 10000 20000
WARNING: Resetting reneighboring criteria during minimization (../min.cpp:168)
Memory usage per processor = 3.3526 Mbytes
Step Temp PotEng Lx Ly Lz 
      32            0   -481.95699    2.2449075    77.781497    1.1224537 
      33            0     -481.957    2.2449075    77.781497    1.1224537 
      34            0   -481.95701    2.2449075    77.781497    1.1224537 
      35            0   -481.95701    2.2449075    77.781497    1.1224537 
Loop time of 0.00113199 on 1 procs for 3 steps with 162 atoms

Minimization stats:
  Stopping criterion = linesearch alpha is zero
  Energy initial, next-to-last, final = 
        -481.956987917     -481.957011123     -481.957011123
  Force two-norm initial, final = 0.0492978 0.0219869
  Force max component initial, final = 0.0215775 0.00888964
  Final line search alpha, max atom move = 1.52588e-05 1.35645e-07
  Iterations, force evaluations = 3 31

Pair  time (%) = 0.000943713 (83.3672)
Neigh time (%) = 0 (0)
Comm  time (%) = 6.29256e-05 (5.55883)
Outpt time (%) = 1.50774e-05 (1.33193)
Other time (%) = 0.000110279 (9.742)

Nlocal:    162 ave 162 max 162 min
Histogram: 1 0 0 0 0 0 0 0 0 0
Nghost:    345 ave 345 max 345 min
Histogram: 1 0 0 0 0 0 0 0 0 0
Neighs:    1438 ave 1438 max 1438 min
Histogram: 1 0 0 0 0 0 0 0 0 0

Total # of neighbors = 1438
Ave neighs/atom = 8.87654
Neighbor list builds = 0
Dangerous builds = 0
        # write_dump all atom ${dumpfile}
        next i
jump SELF loop1
        displace_atoms upper move ${xstep1} 0.0 0.0 units lattice
        displace_atoms upper move 0.00333333333333333 0.0 0.0 units lattice
        min_style ${style}
        min_style cg
        minimize ${etol} ${ftol} ${maxiter} ${maxeval}
        minimize 1e-12 ${ftol} ${maxiter} ${maxeval}
        minimize 1e-12 1e-08 ${maxiter} ${maxeval}
        minimize 1e-12 1e-08 10000 ${maxeval}
        minimize 1e-12 1e-08 10000 20000
WARNING: Resetting reneighboring criteria during minimization (../min.cpp:168)
Memory usage per processor = 3.3526 Mbytes
Step Temp PotEng Lx Ly Lz 
      35            0   -481.95162    2.2449075    77.781502    1.1224537 
      36            0   -481.95163    2.2449075    77.781502    1.1224537 
      37            0   -481.95165    2.2449075    77.781502    1.1224537 
      38            0   -481.95165    2.2449075    77.781502    1.1224537 
      39            0   -481.95165    2.2449075    77.781502    1.1224537 
Loop time of 0.00116409 on 1 procs for 4 steps with 162 atoms

Minimization stats:
  Stopping criterion = linesearch alpha is zero
  Energy initial, next-to-last, final = 
        -481.951624607     -481.951652267     -481.951652267
  Force two-norm initial, final = 0.0520034 0.0175739
  Force max component initial, final = 0.0235958 0.00508407
  Final line search alpha, max atom move = 3.05176e-05 1.55153e-07
  Iterations, force evaluations = 4 38

Pair  time (%) = 0.000972856 (83.5724)
Neigh time (%) = 0 (0)
Comm  time (%) = 6.92699e-05 (5.95058)
Outpt time (%) = 1.30844e-05 (1.124)
Other time (%) = 0.000108877 (9.35303)

Nlocal:    162 ave 162 max 162 min
Histogram: 1 0 0 0 0 0 0 0 0 0
Nghost:    345 ave 345 max 345 min
Histogram: 1 0 0 0 0 0 0 0 0 0
Neighs:    1438 ave 1438 max 1438 min
Histogram: 1 0 0 0 0 0 0 0 0 0

Total # of neighbors = 1438
Ave neighs/atom = 8.87654
Neighbor list builds = 0
Dangerous builds = 0
        # write_dump all atom ${dumpfile}
        next i
jump SELF loop1
        displace_atoms upper move ${xstep1} 0.0 0.0 units lattice
        displace_atoms upper move 0.00333333333333333 0.0 0.0 units lattice
        min_style ${style}
        min_style cg
        minimize ${etol} ${ftol} ${maxiter} ${maxeval}
        minimize 1e-12 ${ftol} ${maxiter} ${maxeval}
        minimize 1e-12 1e-08 ${maxiter} ${maxeval}
        minimize 1e-12 1e-08 10000 ${maxeval}
        minimize 1e-12 1e-08 10000 20000
WARNING: Resetting reneighboring criteria during minimization (../min.cpp:168)
Memory usage per processor = 3.3526 Mbytes
Step Temp PotEng Lx Ly Lz 
      39            0   -481.94598    2.2449075    77.781508    1.1224537 
      40            0   -481.94599    2.2449075    77.781508    1.1224537 
      41            0   -481.94599    2.2449075    77.781508    1.1224537 
Loop time of 0.00102107 on 1 procs for 2 steps with 162 atoms

Minimization stats:
  Stopping criterion = linesearch alpha is zero
  Energy initial, next-to-last, final = 
        -481.945981008     -481.945989122     -481.945989122
  Force two-norm initial, final = 0.0486606 0.0319713
  Force max component initial, final = 0.0227032 0.0129171
  Final line search alpha, max atom move = 7.62939e-06 9.85499e-08
  Iterations, force evaluations = 2 27

Pair  time (%) = 0.000844766 (82.7332)
Neigh time (%) = 0 (0)
Comm  time (%) = 6.63802e-05 (6.50103)
Outpt time (%) = 5.91623e-06 (0.579413)
Other time (%) = 0.00010401 (10.1864)

Nlocal:    162 ave 162 max 162 min
Histogram: 1 0 0 0 0 0 0 0 0 0
Nghost:    345 ave 345 max 345 min
Histogram: 1 0 0 0 0 0 0 0 0 0
Neighs:    1438 ave 1438 max 1438 min
Histogram: 1 0 0 0 0 0 0 0 0 0

Total # of neighbors = 1438
Ave neighs/atom = 8.87654
Neighbor list builds = 0
Dangerous builds = 0
        # write_dump all atom ${dumpfile}
        next i
jump SELF loop1
        displace_atoms upper move ${xstep1} 0.0 0.0 units lattice
        displace_atoms upper move 0.00333333333333333 0.0 0.0 units lattice
        min_style ${style}
        min_style cg
        minimize ${etol} ${ftol} ${maxiter} ${maxeval}
        minimize 1e-12 ${ftol} ${maxiter} ${maxeval}
        minimize 1e-12 1e-08 ${maxiter} ${maxeval}
        minimize 1e-12 1e-08 10000 ${maxeval}
        minimize 1e-12 1e-08 10000 20000
WARNING: Resetting reneighboring criteria during minimization (../min.cpp:168)
Memory usage per processor = 3.3526 Mbytes
Step Temp PotEng Lx Ly Lz 
      41            0   -481.94001    2.2449075    77.781508    1.1224537 
      42            0   -481.94003    2.2449075    77.781508    1.1224537 
      43            0   -481.94005    2.2449075    77.781508    1.1224537 
      44            0   -481.94008    2.2449075    77.781508    1.1224537 
      45            0   -481.94009    2.2449075    77.781508    1.1224537 
      46            0   -481.94009    2.2449075    77.781508    1.1224537 
Loop time of 0.00169791 on 1 procs for 5 steps with 162 atoms

Minimization stats:
  Stopping criterion = linesearch alpha is zero
  Energy initial, next-to-last, final = 
        -481.940011236     -481.940085661     -481.940085661
  Force two-norm initial, final = 0.0777487 0.0192573
  Force max component initial, final = 0.0377164 0.00654887
  Final line search alpha, max atom move = 3.05176e-05 1.99856e-07
  Iterations, force evaluations = 5 45

Pair  time (%) = 0.00138834 (81.7675)
Neigh time (%) = 0 (0)
Comm  time (%) = 9.49895e-05 (5.59448)
Outpt time (%) = 3.10687e-05 (1.82982)
Other time (%) = 0.000183514 (10.8082)

Nlocal:    162 ave 162 max 162 min
Histogram: 1 0 0 0 0 0 0 0 0 0
Nghost:    345 ave 345 max 345 min
Histogram: 1 0 0 0 0 0 0 0 0 0
Neighs:    1438 ave 1438 max 1438 min
Histogram: 1 0 0 0 0 0 0 0 0 0

Total # of neighbors = 1438
Ave neighs/atom = 8.87654
Neighbor list builds = 0
Dangerous builds = 0
        # write_dump all atom ${dumpfile}
        next i
jump SELF loop1
        displace_atoms upper move ${xstep1} 0.0 0.0 units lattice
        displace_atoms upper move 0.00333333333333333 0.0 0.0 units lattice
        min_style ${style}
        min_style cg
        minimize ${etol} ${ftol} ${maxiter} ${maxeval}
        minimize 1e-12 ${ftol} ${maxiter} ${maxeval}
        minimize 1e-12 1e-08 ${maxiter} ${maxeval}
        minimize 1e-12 1e-08 10000 ${maxeval}
        minimize 1e-12 1e-08 10000 20000
WARNING: Resetting reneighboring criteria during minimization (../min.cpp:168)
Memory usage per processor = 3.3526 Mbytes
Step Temp PotEng Lx Ly Lz 
      46            0   -481.93386    2.2449075    77.781517    1.1224537 
      47            0   -481.93386    2.2449075    77.781517    1.1224537 
      48            0   -481.93386    2.2449075    77.781517    1.1224537 
Loop time of 0.00117801 on 1 procs for 2 steps with 162 atoms

Minimization stats:
  Stopping criterion = linesearch alpha is zero
  Energy initial, next-to-last, final = 
        -481.933857221     -481.933858048     -481.933858048
  Force two-norm initial, final = 0.0514567 0.0490066
  Force max component initial, final = 0.0239333 0.0226351
  Final line search alpha, max atom move = 3.8147e-06 8.63461e-08
  Iterations, force evaluations = 2 31

Pair  time (%) = 0.00100223 (85.0782)
Neigh time (%) = 0 (0)
Comm  time (%) = 6.0739e-05 (5.15605)
Outpt time (%) = 9.05897e-06 (0.769004)
Other time (%) = 0.000105982 (8.9967)

Nlocal:    162 ave 162 max 162 min
Histogram: 1 0 0 0 0 0 0 0 0 0
Nghost:    345 ave 345 max 345 min
Histogram: 1 0 0 0 0 0 0 0 0 0
Neighs:    1438 ave 1438 max 1438 min
Histogram: 1 0 0 0 0 0 0 0 0 0

Total # of neighbors = 1438
Ave neighs/atom = 8.87654
Neighbor list builds = 0
Dangerous builds = 0
        # write_dump all atom ${dumpfile}
        next i
jump SELF loop1
        displace_atoms upper move ${xstep1} 0.0 0.0 units lattice
        displace_atoms upper move 0.00333333333333333 0.0 0.0 units lattice
        min_style ${style}
        min_style cg
        minimize ${etol} ${ftol} ${maxiter} ${maxeval}
        minimize 1e-12 ${ftol} ${maxiter} ${maxeval}
        minimize 1e-12 1e-08 ${maxiter} ${maxeval}
        minimize 1e-12 1e-08 10000 ${maxeval}
        minimize 1e-12 1e-08 10000 20000
WARNING: Resetting reneighboring criteria during minimization (../min.cpp:168)
Memory usage per processor = 3.3526 Mbytes
Step Temp PotEng Lx Ly Lz 
      48            0   -481.92732    2.2449075    77.781517    1.1224537 
      49            0   -481.92736    2.2449075    77.781517    1.1224537 
      50            0   -481.92737    2.2449075    77.781517    1.1224537 
      51            0   -481.92739    2.2449075    77.781517    1.1224537 
      52            0   -481.92741    2.2449075    77.781517    1.1224537 
      53            0   -481.92742    2.2449075    77.781517    1.1224537 
      54            0   -481.92743    2.2449075    77.781517    1.1224537 
      55            0   -481.92743    2.2449075    77.781517    1.1224537 
Loop time of 0.00192301 on 1 procs for 7 steps with 162 atoms

Minimization stats:
  Stopping criterion = linesearch alpha is zero
  Energy initial, next-to-last, final = 
        -481.927323131     -481.927430884     -481.927430884
  Force two-norm initial, final = 0.101208 0.0248897
  Force max component initial, final = 0.0497261 0.00605257
  Final line search alpha, max atom move = 1.52588e-05 9.23549e-08
  Iterations, force evaluations = 7 59

Pair  time (%) = 0.00159111 (82.7405)
Neigh time (%) = 0 (0)
Comm  time (%) = 0.000104226 (5.41996)
Outpt time (%) = 2.87305e-05 (1.49404)
Other time (%) = 0.000198946 (10.3455)

Nlocal:    162 ave 162 max 162 min
Histogram: 1 0 0 0 0 0 0 0 0 0
Nghost:    345 ave 345 max 345 min
Histogram: 1 0 0 0 0 0 0 0 0 0
Neighs:    1438 ave 1438 max 1438 min
Histogram: 1 0 0 0 0 0 0 0 0 0

Total # of neighbors = 1438
Ave neighs/atom = 8.87654
Neighbor list builds = 0
Dangerous builds = 0
        # write_dump all atom ${dumpfile}
        next i
jump SELF loop1
        displace_atoms upper move ${xstep1} 0.0 0.0 units lattice
        displace_atoms upper move 0.00333333333333333 0.0 0.0 units lattice
        min_style ${style}
        min_style cg
        minimize ${etol} ${ftol} ${maxiter} ${maxeval}
        minimize 1e-12 ${ftol} ${maxiter} ${maxeval}
        minimize 1e-12 1e-08 ${maxiter} ${maxeval}
        minimize 1e-12 1e-08 10000 ${maxeval}
        minimize 1e-12 1e-08 10000 20000
WARNING: Resetting reneighboring criteria during minimization (../min.cpp:168)
Memory usage per processor = 3.3526 Mbytes
Step Temp PotEng Lx Ly Lz 
      55            0   -481.92069    2.2449075    77.781544    1.1224537 
      56            0   -481.92071    2.2449075    77.781544    1.1224537 
      57            0   -481.92071    2.2449075    77.781544    1.1224537 
Loop time of 0.000893011 on 1 procs for 2 steps with 162 atoms

Minimization stats:
  Stopping criterion = linesearch alpha is zero
  Energy initial, next-to-last, final = 
        -481.920693137     -481.920707249     -481.920707249
  Force two-norm initial, final = 0.0533992 0.0190205
  Force max component initial, final = 0.0239509 0.00436026
  Final line search alpha, max atom move = 3.05176e-05 1.33064e-07
  Iterations, force evaluations = 2 24

Pair  time (%) = 0.0007575 (84.8255)
Neigh time (%) = 0 (0)
Comm  time (%) = 4.97778e-05 (5.57415)
Outpt time (%) = 5.90156e-06 (0.660861)
Other time (%) = 7.98309e-05 (8.93952)

Nlocal:    162 ave 162 max 162 min
Histogram: 1 0 0 0 0 0 0 0 0 0
Nghost:    345 ave 345 max 345 min
Histogram: 1 0 0 0 0 0 0 0 0 0
Neighs:    1438 ave 1438 max 1438 min
Histogram: 1 0 0 0 0 0 0 0 0 0

Total # of neighbors = 1438
Ave neighs/atom = 8.87654
Neighbor list builds = 0
Dangerous builds = 0
        # write_dump all atom ${dumpfile}
        next i
jump SELF loop1
        displace_atoms upper move ${xstep1} 0.0 0.0 units lattice
        displace_atoms upper move 0.00333333333333333 0.0 0.0 units lattice
        min_style ${style}
        min_style cg
        minimize ${etol} ${ftol} ${maxiter} ${maxeval}
        minimize 1e-12 ${ftol} ${maxiter} ${maxeval}
        minimize 1e-12 1e-08 ${maxiter} ${maxeval}
        minimize 1e-12 1e-08 10000 ${maxeval}
        minimize 1e-12 1e-08 10000 20000
WARNING: Resetting reneighboring criteria during minimization (../min.cpp:168)
Memory usage per processor = 3.3526 Mbytes
Step Temp PotEng Lx Ly Lz 
      57            0   -481.91369    2.2449075    77.781544    1.1224537 
      58            0   -481.91371    2.2449075    77.781544    1.1224537 
      59            0   -481.91372    2.2449075    77.781544    1.1224537 
      60            0   -481.91373    2.2449075    77.781544    1.1224537 
      61            0   -481.91373    2.2449075    77.781544    1.1224537 
      62            0   -481.91373    2.2449075    77.781544    1.1224537 
      63            0   -481.91373    2.2449075    77.781544    1.1224537 
Loop time of 0.00307289 on 1 procs for 6 steps with 162 atoms

Minimization stats:
  Stopping criterion = linesearch alpha is zero
  Energy initial, next-to-last, final = 
        -481.913694762     -481.913730778     -481.913730778
  Force two-norm initial, final = 0.0640384 0.0136852
  Force max component initial, final = 0.0306151 0.00271836
  Final line search alpha, max atom move = 6.10352e-05 1.65916e-07
  Iterations, force evaluations = 6 53

Pair  time (%) = 0.00216022 (70.2994)
Neigh time (%) = 0 (0)
Comm  time (%) = 0.00014781 (4.81014)
Outpt time (%) = 8.20368e-05 (2.6697)
Other time (%) = 0.000682818 (22.2207)

Nlocal:    162 ave 162 max 162 min
Histogram: 1 0 0 0 0 0 0 0 0 0
Nghost:    345 ave 345 max 345 min
Histogram: 1 0 0 0 0 0 0 0 0 0
Neighs:    1438 ave 1438 max 1438 min
Histogram: 1 0 0 0 0 0 0 0 0 0

Total # of neighbors = 1438
Ave neighs/atom = 8.87654
Neighbor list builds = 0
Dangerous builds = 0
        # write_dump all atom ${dumpfile}
        next i
jump SELF loop1
        displace_atoms upper move ${xstep1} 0.0 0.0 units lattice
        displace_atoms upper move 0.00333333333333333 0.0 0.0 units lattice
        min_style ${style}
        min_style cg
        minimize ${etol} ${ftol} ${maxiter} ${maxeval}
        minimize 1e-12 ${ftol} ${maxiter} ${maxeval}
        minimize 1e-12 1e-08 ${maxiter} ${maxeval}
        minimize 1e-12 1e-08 10000 ${maxeval}
        minimize 1e-12 1e-08 10000 20000
WARNING: Resetting reneighboring criteria during minimization (../min.cpp:168)
Memory usage per processor = 3.3526 Mbytes
Step Temp PotEng Lx Ly Lz 
      63            0   -481.90647    2.2449075    77.781549    1.1224537 
      64            0   -481.90648    2.2449075    77.781549    1.1224537 
      65            0   -481.90648    2.2449075    77.781549    1.1224537 
      66            0   -481.90648    2.2449075    77.781549    1.1224537 
Loop time of 0.00139995 on 1 procs for 3 steps with 162 atoms

Minimization stats:
  Stopping criterion = linesearch alpha is zero
  Energy initial, next-to-last, final = 
        -481.906465796     -481.906477326     -481.906477326
  Force two-norm initial, final = 0.0638233 0.0332951
  Force max component initial, final = 0.0311896 0.0141438
  Final line search alpha, max atom move = 7.62939e-06 1.07909e-07
  Iterations, force evaluations = 3 37

Pair  time (%) = 0.0011856 (84.6886)
Neigh time (%) = 0 (0)
Comm  time (%) = 7.75246e-05 (5.53766)
Outpt time (%) = 1.48265e-05 (1.05908)
Other time (%) = 0.000122 (8.71461)

Nlocal:    162 ave 162 max 162 min
Histogram: 1 0 0 0 0 0 0 0 0 0
Nghost:    345 ave 345 max 345 min
Histogram: 1 0 0 0 0 0 0 0 0 0
Neighs:    1438 ave 1438 max 1438 min
Histogram: 1 0 0 0 0 0 0 0 0 0

Total # of neighbors = 1438
Ave neighs/atom = 8.87654
Neighbor list builds = 0
Dangerous builds = 0
        # write_dump all atom ${dumpfile}
        next i
jump SELF loop1
        displace_atoms upper move ${xstep1} 0.0 0.0 units lattice
        displace_atoms upper move 0.00333333333333333 0.0 0.0 units lattice
        min_style ${style}
        min_style cg
        minimize ${etol} ${ftol} ${maxiter} ${maxeval}
        minimize 1e-12 ${ftol} ${maxiter} ${maxeval}
        minimize 1e-12 1e-08 ${maxiter} ${maxeval}
        minimize 1e-12 1e-08 10000 ${maxeval}
        minimize 1e-12 1e-08 10000 20000
WARNING: Resetting reneighboring criteria during minimization (../min.cpp:168)
Memory usage per processor = 3.3526 Mbytes
Step Temp PotEng Lx Ly Lz 
      66            0   -481.89894    2.2449075     77.78155    1.1224537 
      67            0   -481.89897    2.2449075     77.78155    1.1224537 
      68            0   -481.89898    2.2449075     77.78155    1.1224537 
      69            0   -481.89899    2.2449075     77.78155    1.1224537 
      70            0   -481.89901    2.2449075     77.78155    1.1224537 
      71            0   -481.89902    2.2449075     77.78155    1.1224537 
      72            0   -481.89904    2.2449075     77.78155    1.1224537 
      73            0   -481.89905    2.2449075     77.78155    1.1224537 
      74            0   -481.89905    2.2449075     77.78155    1.1224537 
      75            0   -481.89905    2.2449075     77.78155    1.1224537 
Loop time of 0.00279608 on 1 procs for 9 steps with 162 atoms

Minimization stats:
  Stopping criterion = linesearch alpha is zero
  Energy initial, next-to-last, final = 
        -481.898938739     -481.899051351     -481.899051351
  Force two-norm initial, final = 0.0896137 0.0134896
  Force max component initial, final = 0.0439381 0.00363917
  Final line search alpha, max atom move = 6.10352e-05 2.22118e-07
  Iterations, force evaluations = 9 73

Pair  time (%) = 0.00231596 (82.8287)
Neigh time (%) = 0 (0)
Comm  time (%) = 0.000148748 (5.31987)
Outpt time (%) = 5.2216e-05 (1.86747)
Other time (%) = 0.000279159 (9.98392)

Nlocal:    162 ave 162 max 162 min
Histogram: 1 0 0 0 0 0 0 0 0 0
Nghost:    345 ave 345 max 345 min
Histogram: 1 0 0 0 0 0 0 0 0 0
Neighs:    1434 ave 1434 max 1434 min
Histogram: 1 0 0 0 0 0 0 0 0 0

Total # of neighbors = 1434
Ave neighs/atom = 8.85185
Neighbor list builds = 0
Dangerous builds = 0
        # write_dump all atom ${dumpfile}
        next i
jump SELF loop1
        displace_atoms upper move ${xstep1} 0.0 0.0 units lattice
        displace_atoms upper move 0.00333333333333333 0.0 0.0 units lattice
        min_style ${style}
        min_style cg
        minimize ${etol} ${ftol} ${maxiter} ${maxeval}
        minimize 1e-12 ${ftol} ${maxiter} ${maxeval}
        minimize 1e-12 1e-08 ${maxiter} ${maxeval}
        minimize 1e-12 1e-08 10000 ${maxeval}
        minimize 1e-12 1e-08 10000 20000
WARNING: Resetting reneighboring criteria during minimization (../min.cpp:168)
Memory usage per processor = 3.3526 Mbytes
Step Temp PotEng Lx Ly Lz 
      75            0   -481.89129    2.2449075    77.781566    1.1224537 
      76            0    -481.8913    2.2449075    77.781566    1.1224537 
      77            0    -481.8913    2.2449075    77.781566    1.1224537 
Loop time of 0.00158806 on 1 procs for 2 steps with 162 atoms

Minimization stats:
  Stopping criterion = linesearch alpha is zero
  Energy initial, next-to-last, final = 
        -481.891294162     -481.891302202     -481.891302202
  Force two-norm initial, final = 0.0587191 0.0351595
  Force max component initial, final = 0.0285798 0.0157973
  Final line search alpha, max atom move = 7.62939e-06 1.20524e-07
  Iterations, force evaluations = 2 27

Pair  time (%) = 0.00127053 (80.0054)
Neigh time (%) = 0 (0)
Comm  time (%) = 0.000106599 (6.71254)
Outpt time (%) = 3.90819e-05 (2.46099)
Other time (%) = 0.000171844 (10.821)

Nlocal:    162 ave 162 max 162 min
Histogram: 1 0 0 0 0 0 0 0 0 0
Nghost:    345 ave 345 max 345 min
Histogram: 1 0 0 0 0 0 0 0 0 0
Neighs:    1434 ave 1434 max 1434 min
Histogram: 1 0 0 0 0 0 0 0 0 0

Total # of neighbors = 1434
Ave neighs/atom = 8.85185
Neighbor list builds = 0
Dangerous builds = 0
        # write_dump all atom ${dumpfile}
        next i
jump SELF loop1
        displace_atoms upper move ${xstep1} 0.0 0.0 units lattice
        displace_atoms upper move 0.00333333333333333 0.0 0.0 units lattice
        min_style ${style}
        min_style cg
        minimize ${etol} ${ftol} ${maxiter} ${maxeval}
        minimize 1e-12 ${ftol} ${maxiter} ${maxeval}
        minimize 1e-12 1e-08 ${maxiter} ${maxeval}
        minimize 1e-12 1e-08 10000 ${maxeval}
        minimize 1e-12 1e-08 10000 20000
WARNING: Resetting reneighboring criteria during minimization (../min.cpp:168)
Memory usage per processor = 3.3526 Mbytes
Step Temp PotEng Lx Ly Lz 
      77            0   -481.88326    2.2449075    77.781566    1.1224537 
      78            0   -481.88329    2.2449075    77.781566    1.1224537 
      79            0   -481.88329    2.2449075    77.781566    1.1224537 
Loop time of 0.00101091 on 1 procs for 2 steps with 162 atoms

Minimization stats:
  Stopping criterion = linesearch alpha is zero
  Energy initial, next-to-last, final = 
        -481.883258947     -481.883292539     -481.883292539
  Force two-norm initial, final = 0.0926799 0.0349266
  Force max component initial, final = 0.0456935 0.01502
  Final line search alpha, max atom move = 7.62939e-06 1.14593e-07
  Iterations, force evaluations = 2 26

Pair  time (%) = 0.000859115 (84.9843)
Neigh time (%) = 0 (0)
Comm  time (%) = 5.76866e-05 (5.7064)
Outpt time (%) = 8.94617e-06 (0.884961)
Other time (%) = 8.51627e-05 (8.42435)

Nlocal:    162 ave 162 max 162 min
Histogram: 1 0 0 0 0 0 0 0 0 0
Nghost:    345 ave 345 max 345 min
Histogram: 1 0 0 0 0 0 0 0 0 0
Neighs:    1434 ave 1434 max 1434 min
Histogram: 1 0 0 0 0 0 0 0 0 0

Total # of neighbors = 1434
Ave neighs/atom = 8.85185
Neighbor list builds = 0
Dangerous builds = 0
        # write_dump all atom ${dumpfile}
        next i
jump SELF loop1
        displace_atoms upper move ${xstep1} 0.0 0.0 units lattice
        displace_atoms upper move 0.00333333333333333 0.0 0.0 units lattice
        min_style ${style}
        min_style cg
        minimize ${etol} ${ftol} ${maxiter} ${maxeval}
        minimize 1e-12 ${ftol} ${maxiter} ${maxeval}
        minimize 1e-12 1e-08 ${maxiter} ${maxeval}
        minimize 1e-12 1e-08 10000 ${maxeval}
        minimize 1e-12 1e-08 10000 20000
WARNING: Resetting reneighboring criteria during minimization (../min.cpp:168)
Memory usage per processor = 3.3526 Mbytes
Step Temp PotEng Lx Ly Lz 
      79            0     -481.875    2.2449075    77.781567    1.1224537 
      80            0   -481.87504    2.2449075    77.781567    1.1224537 
      81            0   -481.87504    2.2449075    77.781567    1.1224537 
      82            0   -481.87505    2.2449075    77.781567    1.1224537 
      83            0   -481.87505    2.2449075    77.781567    1.1224537 
Loop time of 0.00166495 on 1 procs for 4 steps with 162 atoms

Minimization stats:
  Stopping criterion = linesearch alpha is zero
  Energy initial, next-to-last, final = 
        -481.875003683       -481.8750453       -481.8750453
  Force two-norm initial, final = 0.0797359 0.0312286
  Force max component initial, final = 0.0363277 0.0105383
  Final line search alpha, max atom move = 7.62939e-06 8.04009e-08
  Iterations, force evaluations = 4 44

Pair  time (%) = 0.00140474 (84.3714)
Neigh time (%) = 0 (0)
Comm  time (%) = 9.16534e-05 (5.50489)
Outpt time (%) = 2.18262e-05 (1.31093)
Other time (%) = 0.000146727 (8.81274)

Nlocal:    162 ave 162 max 162 min
Histogram: 1 0 0 0 0 0 0 0 0 0
Nghost:    345 ave 345 max 345 min
Histogram: 1 0 0 0 0 0 0 0 0 0
Neighs:    1434 ave 1434 max 1434 min
Histogram: 1 0 0 0 0 0 0 0 0 0

Total # of neighbors = 1434
Ave neighs/atom = 8.85185
Neighbor list builds = 0
Dangerous builds = 0
        # write_dump all atom ${dumpfile}
        next i
jump SELF loop1
        displace_atoms upper move ${xstep1} 0.0 0.0 units lattice
        displace_atoms upper move 0.00333333333333333 0.0 0.0 units lattice
        min_style ${style}
        min_style cg
        minimize ${etol} ${ftol} ${maxiter} ${maxeval}
        minimize 1e-12 ${ftol} ${maxiter} ${maxeval}
        minimize 1e-12 1e-08 ${maxiter} ${maxeval}
        minimize 1e-12 1e-08 10000 ${maxeval}
        minimize 1e-12 1e-08 10000 20000
WARNING: Resetting reneighboring criteria during minimization (../min.cpp:168)
Memory usage per processor = 3.3526 Mbytes
Step Temp PotEng Lx Ly Lz 
      83            0    -481.8665    2.2449075    77.781568    1.1224537 
      84            0   -481.86654    2.2449075    77.781568    1.1224537 
      85            0   -481.86656    2.2449075    77.781568    1.1224537 
      86            0   -481.86657    2.2449075    77.781568    1.1224537 
      87            0   -481.86658    2.2449075    77.781568    1.1224537 
      88            0   -481.86661    2.2449075    77.781568    1.1224537 
      89            0   -481.86664    2.2449075    77.781568    1.1224537 
      90            0   -481.86667    2.2449075    77.781568    1.1224537 
      91            0   -481.86668    2.2449075    77.781568    1.1224537 
      92            0   -481.86669    2.2449075    77.781568    1.1224537 
      93            0   -481.86669    2.2449075    77.781568    1.1224537 
Loop time of 0.00299205 on 1 procs for 10 steps with 162 atoms

Minimization stats:
  Stopping criterion = linesearch alpha is zero
  Energy initial, next-to-last, final = 
        -481.866501934     -481.866694758     -481.866694758
  Force two-norm initial, final = 0.0782576 0.0162439
  Force max component initial, final = 0.0362717 0.00447882
  Final line search alpha, max atom move = 3.05176e-05 1.36683e-07
  Iterations, force evaluations = 10 76

Pair  time (%) = 0.00247902 (82.8535)
Neigh time (%) = 0 (0)
Comm  time (%) = 0.000164702 (5.50464)
Outpt time (%) = 6.20692e-05 (2.07447)
Other time (%) = 0.000286261 (9.56736)

Nlocal:    162 ave 162 max 162 min
Histogram: 1 0 0 0 0 0 0 0 0 0
Nghost:    345 ave 345 max 345 min
Histogram: 1 0 0 0 0 0 0 0 0 0
Neighs:    1434 ave 1434 max 1434 min
Histogram: 1 0 0 0 0 0 0 0 0 0

Total # of neighbors = 1434
Ave neighs/atom = 8.85185
Neighbor list builds = 0
Dangerous builds = 0
        # write_dump all atom ${dumpfile}
        next i
jump SELF loop1
        displace_atoms upper move ${xstep1} 0.0 0.0 units lattice
        displace_atoms upper move 0.00333333333333333 0.0 0.0 units lattice
        min_style ${style}
        min_style cg
        minimize ${etol} ${ftol} ${maxiter} ${maxeval}
        minimize 1e-12 ${ftol} ${maxiter} ${maxeval}
        minimize 1e-12 1e-08 ${maxiter} ${maxeval}
        minimize 1e-12 1e-08 10000 ${maxeval}
        minimize 1e-12 1e-08 10000 20000
WARNING: Resetting reneighboring criteria during minimization (../min.cpp:168)
Memory usage per processor = 3.3526 Mbytes
Step Temp PotEng Lx Ly Lz 
      93            0   -481.85796    2.2449075    77.781597    1.1224537 
      94            0   -481.85796    2.2449075    77.781597    1.1224537 
Loop time of 0.00128403 on 1 procs for 1 steps with 162 atoms

Minimization stats:
  Stopping criterion = linesearch alpha is zero
  Energy initial, next-to-last, final = 
        -481.857958221     -481.857958221     -481.857958221
  Force two-norm initial, final = 0.0590038 0.0590038
  Force max component initial, final = 0.0284831 0.0284831
  Final line search alpha, max atom move = 1.90735e-06 5.43273e-08
  Iterations, force evaluations = 1 20

Pair  time (%) = 0.00118973 (92.6555)
Neigh time (%) = 0 (0)
Comm  time (%) = 3.2154e-05 (2.50415)
Outpt time (%) = 0 (0)
Other time (%) = 6.21517e-05 (4.84036)

Nlocal:    162 ave 162 max 162 min
Histogram: 1 0 0 0 0 0 0 0 0 0
Nghost:    345 ave 345 max 345 min
Histogram: 1 0 0 0 0 0 0 0 0 0
Neighs:    1434 ave 1434 max 1434 min
Histogram: 1 0 0 0 0 0 0 0 0 0

Total # of neighbors = 1434
Ave neighs/atom = 8.85185
Neighbor list builds = 0
Dangerous builds = 0
        # write_dump all atom ${dumpfile}
        next i
jump SELF loop1
        displace_atoms upper move ${xstep1} 0.0 0.0 units lattice
        displace_atoms upper move 0.00333333333333333 0.0 0.0 units lattice
        min_style ${style}
        min_style cg
        minimize ${etol} ${ftol} ${maxiter} ${maxeval}
        minimize 1e-12 ${ftol} ${maxiter} ${maxeval}
        minimize 1e-12 1e-08 ${maxiter} ${maxeval}
        minimize 1e-12 1e-08 10000 ${maxeval}
        minimize 1e-12 1e-08 10000 20000
WARNING: Resetting reneighboring criteria during minimization (../min.cpp:168)
Memory usage per processor = 3.3526 Mbytes
Step Temp PotEng Lx Ly Lz 
      94            0   -481.84893    2.2449075    77.781597    1.1224537 
      95            0   -481.84899    2.2449075    77.781597    1.1224537 
      96            0   -481.84899    2.2449075    77.781597    1.1224537 
Loop time of 0.000984095 on 1 procs for 2 steps with 162 atoms

Minimization stats:
  Stopping criterion = linesearch alpha is zero
  Energy initial, next-to-last, final = 
        -481.848929931     -481.848987962     -481.848987962
  Force two-norm initial, final = 0.12179 0.0389878
  Force max component initial, final = 0.060408 0.0175741
  Final line search alpha, max atom move = 7.62939e-06 1.3408e-07
  Iterations, force evaluations = 2 26

Pair  time (%) = 0.000829031 (84.2429)
Neigh time (%) = 0 (0)
Comm  time (%) = 5.50022e-05 (5.58911)
Outpt time (%) = 4.92635e-06 (0.500597)
Other time (%) = 9.51362e-05 (9.66738)

Nlocal:    162 ave 162 max 162 min
Histogram: 1 0 0 0 0 0 0 0 0 0
Nghost:    345 ave 345 max 345 min
Histogram: 1 0 0 0 0 0 0 0 0 0
Neighs:    1434 ave 1434 max 1434 min
Histogram: 1 0 0 0 0 0 0 0 0 0

Total # of neighbors = 1434
Ave neighs/atom = 8.85185
Neighbor list builds = 0
Dangerous builds = 0
        # write_dump all atom ${dumpfile}
        next i
jump SELF loop1
        displace_atoms upper move ${xstep1} 0.0 0.0 units lattice
        displace_atoms upper move 0.00333333333333333 0.0 0.0 units lattice
        min_style ${style}
        min_style cg
        minimize ${etol} ${ftol} ${maxiter} ${maxeval}
        minimize 1e-12 ${ftol} ${maxiter} ${maxeval}
        minimize 1e-12 1e-08 ${maxiter} ${maxeval}
        minimize 1e-12 1e-08 10000 ${maxeval}
        minimize 1e-12 1e-08 10000 20000
WARNING: Resetting reneighboring criteria during minimization (../min.cpp:168)
Memory usage per processor = 3.3526 Mbytes
Step Temp PotEng Lx Ly Lz 
      96            0   -481.83973    2.2449075    77.781597    1.1224537 
      97            0   -481.83977    2.2449075    77.781597    1.1224537 
      98            0   -481.83977    2.2449075    77.781597    1.1224537 
      99            0   -481.83977    2.2449075    77.781597    1.1224537 
Loop time of 0.0021121 on 1 procs for 3 steps with 162 atoms

Minimization stats:
  Stopping criterion = linesearch alpha is zero
  Energy initial, next-to-last, final = 
        -481.839733296     -481.839772184     -481.839772184
  Force two-norm initial, final = 0.0843944 0.040601
  Force max component initial, final = 0.0378269 0.0167069
  Final line search alpha, max atom move = 3.8147e-06 6.37318e-08
  Iterations, force evaluations = 3 37

Pair  time (%) = 0.00117142 (55.4621)
Neigh time (%) = 0 (0)
Comm  time (%) = 9.92436e-05 (4.69881)
Outpt time (%) = 1.20099e-05 (0.568622)
Other time (%) = 0.000829432 (39.2705)

Nlocal:    162 ave 162 max 162 min
Histogram: 1 0 0 0 0 0 0 0 0 0
Nghost:    345 ave 345 max 345 min
Histogram: 1 0 0 0 0 0 0 0 0 0
Neighs:    1434 ave 1434 max 1434 min
Histogram: 1 0 0 0 0 0 0 0 0 0

Total # of neighbors = 1434
Ave neighs/atom = 8.85185
Neighbor list builds = 0
Dangerous builds = 0
        # write_dump all atom ${dumpfile}
        next i
jump SELF loop1
        displace_atoms upper move ${xstep1} 0.0 0.0 units lattice
        displace_atoms upper move 0.00333333333333333 0.0 0.0 units lattice
        min_style ${style}
        min_style cg
        minimize ${etol} ${ftol} ${maxiter} ${maxeval}
        minimize 1e-12 ${ftol} ${maxiter} ${maxeval}
        minimize 1e-12 1e-08 ${maxiter} ${maxeval}
        minimize 1e-12 1e-08 10000 ${maxeval}
        minimize 1e-12 1e-08 10000 20000
WARNING: Resetting reneighboring criteria during minimization (../min.cpp:168)
Memory usage per processor = 3.3526 Mbytes
Step Temp PotEng Lx Ly Lz 
      99            0   -481.83028    2.2449075    77.781598    1.1224537 
     100            0   -481.83032    2.2449075    77.781598    1.1224537 
     101            0   -481.83035    2.2449075    77.781598    1.1224537 
     102            0   -481.83035    2.2449075    77.781598    1.1224537 
Loop time of 0.00123101 on 1 procs for 3 steps with 162 atoms

Minimization stats:
  Stopping criterion = linesearch alpha is zero
  Energy initial, next-to-last, final = 
        -481.830280834     -481.830348564     -481.830348564
  Force two-norm initial, final = 0.0895168 0.0419923
  Force max component initial, final = 0.0406553 0.0166381
  Final line search alpha, max atom move = 3.8147e-06 6.34693e-08
  Iterations, force evaluations = 3 33

Pair  time (%) = 0.00103456 (84.041)
Neigh time (%) = 0 (0)
Comm  time (%) = 6.85877e-05 (5.57165)
Outpt time (%) = 1.29776e-05 (1.05422)
Other time (%) = 0.000114892 (9.3331)

Nlocal:    162 ave 162 max 162 min
Histogram: 1 0 0 0 0 0 0 0 0 0
Nghost:    345 ave 345 max 345 min
Histogram: 1 0 0 0 0 0 0 0 0 0
Neighs:    1434 ave 1434 max 1434 min
Histogram: 1 0 0 0 0 0 0 0 0 0

Total # of neighbors = 1434
Ave neighs/atom = 8.85185
Neighbor list builds = 0
Dangerous builds = 0
        # write_dump all atom ${dumpfile}
        next i
jump SELF loop1
        displace_atoms upper move ${xstep1} 0.0 0.0 units lattice
        displace_atoms upper move 0.00333333333333333 0.0 0.0 units lattice
        min_style ${style}
        min_style cg
        minimize ${etol} ${ftol} ${maxiter} ${maxeval}
        minimize 1e-12 ${ftol} ${maxiter} ${maxeval}
        minimize 1e-12 1e-08 ${maxiter} ${maxeval}
        minimize 1e-12 1e-08 10000 ${maxeval}
        minimize 1e-12 1e-08 10000 20000
WARNING: Resetting reneighboring criteria during minimization (../min.cpp:168)
Memory usage per processor = 3.3526 Mbytes
Step Temp PotEng Lx Ly Lz 
     102            0   -481.82065    2.2449075      77.7816    1.1224537 
     103            0   -481.82068    2.2449075      77.7816    1.1224537 
     104            0    -481.8207    2.2449075      77.7816    1.1224537 
     105            0   -481.82071    2.2449075      77.7816    1.1224537 
     106            0   -481.82074    2.2449075      77.7816    1.1224537 
     107            0   -481.82076    2.2449075      77.7816    1.1224537 
     108            0   -481.82077    2.2449075      77.7816    1.1224537 
     109            0    -481.8208    2.2449075      77.7816    1.1224537 
     110            0   -481.82081    2.2449075      77.7816    1.1224537 
     111            0   -481.82082    2.2449075      77.7816    1.1224537 
     112            0   -481.82082    2.2449075      77.7816    1.1224537 
     113            0   -481.82083    2.2449075      77.7816    1.1224537 
     114            0   -481.82083    2.2449075      77.7816    1.1224537 
     115            0   -481.82083    2.2449075      77.7816    1.1224537 
     116            0   -481.82084    2.2449075      77.7816    1.1224537 
     117            0   -481.82085    2.2449075      77.7816    1.1224537 
     118            0   -481.82087    2.2449075      77.7816    1.1224537 
     119            0   -481.82088    2.2449075      77.7816    1.1224537 
     120            0   -481.82088    2.2449075      77.7816    1.1224537 
Loop time of 0.00550906 on 1 procs for 18 steps with 162 atoms

Minimization stats:
  Stopping criterion = linesearch alpha is zero
  Energy initial, next-to-last, final = 
        -481.820650039      -481.82087836      -481.82087836
  Force two-norm initial, final = 0.0815362 0.0109726
  Force max component initial, final = 0.0349972 0.00190243
  Final line search alpha, max atom move = 3.05176e-05 5.80574e-08
  Iterations, force evaluations = 18 131

Pair  time (%) = 0.00403784 (73.2944)
Neigh time (%) = 0 (0)
Comm  time (%) = 0.000264372 (4.79886)
Outpt time (%) = 0.000103956 (1.88699)
Other time (%) = 0.0011029 (20.0197)

Nlocal:    162 ave 162 max 162 min
Histogram: 1 0 0 0 0 0 0 0 0 0
Nghost:    345 ave 345 max 345 min
Histogram: 1 0 0 0 0 0 0 0 0 0
Neighs:    1434 ave 1434 max 1434 min
Histogram: 1 0 0 0 0 0 0 0 0 0

Total # of neighbors = 1434
Ave neighs/atom = 8.85185
Neighbor list builds = 0
Dangerous builds = 0
        # write_dump all atom ${dumpfile}
        next i
jump SELF loop1
        displace_atoms upper move ${xstep1} 0.0 0.0 units lattice
        displace_atoms upper move 0.00333333333333333 0.0 0.0 units lattice
        min_style ${style}
        min_style cg
        minimize ${etol} ${ftol} ${maxiter} ${maxeval}
        minimize 1e-12 ${ftol} ${maxiter} ${maxeval}
        minimize 1e-12 1e-08 ${maxiter} ${maxeval}
        minimize 1e-12 1e-08 10000 ${maxeval}
        minimize 1e-12 1e-08 10000 20000
WARNING: Resetting reneighboring criteria during minimization (../min.cpp:168)
Memory usage per processor = 3.3526 Mbytes
Step Temp PotEng Lx Ly Lz 
     120            0   -481.81099    2.2449075    77.781659    1.1224537 
     121            0     -481.811    2.2449075    77.781659    1.1224537 
     122            0     -481.811    2.2449075    77.781659    1.1224537 
Loop time of 0.00105411 on 1 procs for 2 steps with 162 atoms

Minimization stats:
  Stopping criterion = linesearch alpha is zero
  Energy initial, next-to-last, final = 
        -481.810986257     -481.811000271     -481.811000271
  Force two-norm initial, final = 0.0697541 0.0389701
  Force max component initial, final = 0.0344618 0.0184246
  Final line search alpha, max atom move = 7.62939e-06 1.40569e-07
  Iterations, force evaluations = 2 27

Pair  time (%) = 0.000900865 (85.4619)
Neigh time (%) = 0 (0)
Comm  time (%) = 5.76014e-05 (5.46444)
Outpt time (%) = 6.00226e-06 (0.569413)
Other time (%) = 8.96441e-05 (8.50423)

Nlocal:    162 ave 162 max 162 min
Histogram: 1 0 0 0 0 0 0 0 0 0
Nghost:    345 ave 345 max 345 min
Histogram: 1 0 0 0 0 0 0 0 0 0
Neighs:    1434 ave 1434 max 1434 min
Histogram: 1 0 0 0 0 0 0 0 0 0

Total # of neighbors = 1434
Ave neighs/atom = 8.85185
Neighbor list builds = 0
Dangerous builds = 0
        # write_dump all atom ${dumpfile}
        next i
jump SELF loop1
        displace_atoms upper move ${xstep1} 0.0 0.0 units lattice
        displace_atoms upper move 0.00333333333333333 0.0 0.0 units lattice
        min_style ${style}
        min_style cg
        minimize ${etol} ${ftol} ${maxiter} ${maxeval}
        minimize 1e-12 ${ftol} ${maxiter} ${maxeval}
        minimize 1e-12 1e-08 ${maxiter} ${maxeval}
        minimize 1e-12 1e-08 10000 ${maxeval}
        minimize 1e-12 1e-08 10000 20000
WARNING: Resetting reneighboring criteria during minimization (../min.cpp:168)
Memory usage per processor = 3.3526 Mbytes
Step Temp PotEng Lx Ly Lz 
     122            0   -481.80085    2.2449075    77.781659    1.1224537 
     123            0    -481.8009    2.2449075    77.781659    1.1224537 
     124            0    -481.8009    2.2449075    77.781659    1.1224537 
Loop time of 0.000949994 on 1 procs for 2 steps with 162 atoms

Minimization stats:
  Stopping criterion = linesearch alpha is zero
  Energy initial, next-to-last, final = 
        -481.800851043     -481.800898464     -481.800898464
  Force two-norm initial, final = 0.105523 0.0366027
  Force max component initial, final = 0.0523793 0.0168312
  Final line search alpha, max atom move = 7.62939e-06 1.28412e-07
  Iterations, force evaluations = 2 26

Pair  time (%) = 0.000801156 (84.3327)
Neigh time (%) = 0 (0)
Comm  time (%) = 5.33725e-05 (5.61819)
Outpt time (%) = 6.88492e-06 (0.724733)
Other time (%) = 8.85808e-05 (9.32435)

Nlocal:    162 ave 162 max 162 min
Histogram: 1 0 0 0 0 0 0 0 0 0
Nghost:    345 ave 345 max 345 min
Histogram: 1 0 0 0 0 0 0 0 0 0
Neighs:    1434 ave 1434 max 1434 min
Histogram: 1 0 0 0 0 0 0 0 0 0

Total # of neighbors = 1434
Ave neighs/atom = 8.85185
Neighbor list builds = 0
Dangerous builds = 0
        # write_dump all atom ${dumpfile}
        next i
jump SELF loop1
        displace_atoms upper move ${xstep1} 0.0 0.0 units lattice
        displace_atoms upper move 0.00333333333333333 0.0 0.0 units lattice
        min_style ${style}
        min_style cg
        minimize ${etol} ${ftol} ${maxiter} ${maxeval}
        minimize 1e-12 ${ftol} ${maxiter} ${maxeval}
        minimize 1e-12 1e-08 ${maxiter} ${maxeval}
        minimize 1e-12 1e-08 10000 ${maxeval}
        minimize 1e-12 1e-08 10000 20000
WARNING: Resetting reneighboring criteria during minimization (../min.cpp:168)
Memory usage per processor = 3.3526 Mbytes
Step Temp PotEng Lx Ly Lz 
     124            0   -481.79053    2.2449075     77.78166    1.1224537 
     125            0   -481.79057    2.2449075     77.78166    1.1224537 
     126            0   -481.79058    2.2449075     77.78166    1.1224537 
     127            0   -481.79059    2.2449075     77.78166    1.1224537 
     128            0   -481.79059    2.2449075     77.78166    1.1224537 
     129            0    -481.7906    2.2449075     77.78166    1.1224537 
     130            0   -481.79061    2.2449075     77.78166    1.1224537 
     131            0   -481.79062    2.2449075     77.78166    1.1224537 
     132            0   -481.79063    2.2449075     77.78166    1.1224537 
     133            0   -481.79063    2.2449075     77.78166    1.1224537 
Loop time of 0.00418793 on 1 procs for 9 steps with 162 atoms

Minimization stats:
  Stopping criterion = linesearch alpha is zero
  Energy initial, next-to-last, final = 
        -481.790531579     -481.790629652     -481.790629652
  Force two-norm initial, final = 0.0865373 0.0250541
  Force max component initial, final = 0.0395514 0.00797921
  Final line search alpha, max atom move = 1.52588e-05 1.21753e-07
  Iterations, force evaluations = 9 75

Pair  time (%) = 0.00347824 (83.054)
Neigh time (%) = 0 (0)
Comm  time (%) = 0.000245059 (5.85156)
Outpt time (%) = 0.000110789 (2.64544)
Other time (%) = 0.000353839 (8.44901)

Nlocal:    162 ave 162 max 162 min
Histogram: 1 0 0 0 0 0 0 0 0 0
Nghost:    345 ave 345 max 345 min
Histogram: 1 0 0 0 0 0 0 0 0 0
Neighs:    1434 ave 1434 max 1434 min
Histogram: 1 0 0 0 0 0 0 0 0 0

Total # of neighbors = 1434
Ave neighs/atom = 8.85185
Neighbor list builds = 0
Dangerous builds = 0
        # write_dump all atom ${dumpfile}
        next i
jump SELF loop1
        displace_atoms upper move ${xstep1} 0.0 0.0 units lattice
        displace_atoms upper move 0.00333333333333333 0.0 0.0 units lattice
        min_style ${style}
        min_style cg
        minimize ${etol} ${ftol} ${maxiter} ${maxeval}
        minimize 1e-12 ${ftol} ${maxiter} ${maxeval}
        minimize 1e-12 1e-08 ${maxiter} ${maxeval}
        minimize 1e-12 1e-08 10000 ${maxeval}
        minimize 1e-12 1e-08 10000 20000
WARNING: Resetting reneighboring criteria during minimization (../min.cpp:168)
Memory usage per processor = 3.3526 Mbytes
Step Temp PotEng Lx Ly Lz 
     133            0   -481.78008    2.2449075    77.781684    1.1224537 
     134            0    -481.7801    2.2449075    77.781684    1.1224537 
     135            0   -481.78011    2.2449075    77.781684    1.1224537 
     136            0   -481.78012    2.2449075    77.781684    1.1224537 
     137            0   -481.78013    2.2449075    77.781684    1.1224537 
     138            0   -481.78013    2.2449075    77.781684    1.1224537 
Loop time of 0.00174393 on 1 procs for 5 steps with 162 atoms

Minimization stats:
  Stopping criterion = linesearch alpha is zero
  Energy initial, next-to-last, final = 
         -481.78007912     -481.780125106     -481.780125106
  Force two-norm initial, final = 0.087218 0.0307524
  Force max component initial, final = 0.0425264 0.0113847
  Final line search alpha, max atom move = 7.62939e-06 8.68586e-08
  Iterations, force evaluations = 5 47

Pair  time (%) = 0.00145782 (83.5937)
Neigh time (%) = 0 (0)
Comm  time (%) = 9.59418e-05 (5.50147)
Outpt time (%) = 3.01739e-05 (1.73023)
Other time (%) = 0.000159998 (9.17458)

Nlocal:    162 ave 162 max 162 min
Histogram: 1 0 0 0 0 0 0 0 0 0
Nghost:    345 ave 345 max 345 min
Histogram: 1 0 0 0 0 0 0 0 0 0
Neighs:    1434 ave 1434 max 1434 min
Histogram: 1 0 0 0 0 0 0 0 0 0

Total # of neighbors = 1434
Ave neighs/atom = 8.85185
Neighbor list builds = 0
Dangerous builds = 0
        # write_dump all atom ${dumpfile}
        next i
jump SELF loop1
        displace_atoms upper move ${xstep1} 0.0 0.0 units lattice
        displace_atoms upper move 0.00333333333333333 0.0 0.0 units lattice
        min_style ${style}
        min_style cg
        minimize ${etol} ${ftol} ${maxiter} ${maxeval}
        minimize 1e-12 ${ftol} ${maxiter} ${maxeval}
        minimize 1e-12 1e-08 ${maxiter} ${maxeval}
        minimize 1e-12 1e-08 10000 ${maxeval}
        minimize 1e-12 1e-08 10000 20000
WARNING: Resetting reneighboring criteria during minimization (../min.cpp:168)
Memory usage per processor = 3.3526 Mbytes
Step Temp PotEng Lx Ly Lz 
     138            0   -481.76938    2.2449075      77.7817    1.1224537 
     139            0   -481.76938    2.2449075      77.7817    1.1224537 
     140            0    -481.7694    2.2449075      77.7817    1.1224537 
     141            0    -481.7694    2.2449075      77.7817    1.1224537 
     142            0    -481.7694    2.2449075      77.7817    1.1224537 
Loop time of 0.00134511 on 1 procs for 4 steps with 162 atoms

Minimization stats:
  Stopping criterion = linesearch alpha is zero
  Energy initial, next-to-last, final = 
        -481.769379607      -481.76940032      -481.76940032
  Force two-norm initial, final = 0.077488 0.0250712
  Force max component initial, final = 0.0355701 0.0100763
  Final line search alpha, max atom move = 1.52588e-05 1.53752e-07
[...]
        minimize 1e-12 1e-08 ${maxiter} ${maxeval}
        minimize 1e-12 1e-08 10000 ${maxeval}
        minimize 1e-12 1e-08 10000 20000
WARNING: Resetting reneighboring criteria during minimization (../min.cpp:168)
Memory usage per processor = 3.3526 Mbytes
Step Temp PotEng Lx Ly Lz 
    1248            0   -481.98278    2.2449075    77.792257    1.1224537 
    1249            0   -481.98278    2.2449075    77.792257    1.1224537 
    1250            0    -481.9828    2.2449075    77.792257    1.1224537 
    1251            0    -481.9828    2.2449075    77.792257    1.1224537 
Loop time of 0.000952097 on 1 procs for 3 steps with 162 atoms

Minimization stats:
  Stopping criterion = linesearch alpha is zero
  Energy initial, next-to-last, final = 
        -481.982778129     -481.982797953     -481.982797953
  Force two-norm initial, final = 0.0371684 0.0268134
  Force max component initial, final = 0.0153855 0.00933712
  Final line search alpha, max atom move = 7.62939e-06 7.12366e-08
  Iterations, force evaluations = 3 31

Pair  time (%) = 0.00079743 (83.7551)
Neigh time (%) = 0 (0)
Comm  time (%) = 5.90128e-05 (6.19819)
Outpt time (%) = 1.4982e-05 (1.57357)
Other time (%) = 8.06726e-05 (8.47314)

Nlocal:    162 ave 162 max 162 min
Histogram: 1 0 0 0 0 0 0 0 0 0
Nghost:    365 ave 365 max 365 min
Histogram: 1 0 0 0 0 0 0 0 0 0
Neighs:    1438 ave 1438 max 1438 min
Histogram: 1 0 0 0 0 0 0 0 0 0

Total # of neighbors = 1438
Ave neighs/atom = 8.87654
Neighbor list builds = 0
Dangerous builds = 0
        # write_dump all atom ${dumpfile}
        next i
jump SELF loop1
        displace_atoms upper move ${xstep1} 0.0 0.0 units lattice
        displace_atoms upper move 0.00333333333333333 0.0 0.0 units lattice
        min_style ${style}
        min_style cg
        minimize ${etol} ${ftol} ${maxiter} ${maxeval}
        minimize 1e-12 ${ftol} ${maxiter} ${maxeval}
        minimize 1e-12 1e-08 ${maxiter} ${maxeval}
        minimize 1e-12 1e-08 10000 ${maxeval}
        minimize 1e-12 1e-08 10000 20000
WARNING: Resetting reneighboring criteria during minimization (../min.cpp:168)
Memory usage per processor = 3.3526 Mbytes
Step Temp PotEng Lx Ly Lz 
    1251            0   -481.98598    2.2449075    77.792246    1.1224537 
    1252            0   -481.98598    2.2449075    77.792246    1.1224537 
Loop time of 0.000660944 on 1 procs for 1 steps with 162 atoms

Minimization stats:
  Stopping criterion = linesearch alpha is zero
  Energy initial, next-to-last, final = 
        -481.985975028     -481.985975028     -481.985975028
  Force two-norm initial, final = 0.0378046 0.0378046
  Force max component initial, final = 0.0133454 0.0133454
  Final line search alpha, max atom move = 7.62939e-06 1.01817e-07
  Iterations, force evaluations = 1 18

Pair  time (%) = 0.000551376 (83.4225)
Neigh time (%) = 0 (0)
Comm  time (%) = 4.20919e-05 (6.36845)
Outpt time (%) = 0 (0)
Other time (%) = 6.74764e-05 (10.2091)

Nlocal:    162 ave 162 max 162 min
Histogram: 1 0 0 0 0 0 0 0 0 0
Nghost:    365 ave 365 max 365 min
Histogram: 1 0 0 0 0 0 0 0 0 0
Neighs:    1438 ave 1438 max 1438 min
Histogram: 1 0 0 0 0 0 0 0 0 0

Total # of neighbors = 1438
Ave neighs/atom = 8.87654
Neighbor list builds = 0
Dangerous builds = 0
        # write_dump all atom ${dumpfile}
        next i
jump SELF loop1
        displace_atoms upper move ${xstep1} 0.0 0.0 units lattice
        displace_atoms upper move 0.00333333333333333 0.0 0.0 units lattice
        min_style ${style}
        min_style cg
        minimize ${etol} ${ftol} ${maxiter} ${maxeval}
        minimize 1e-12 ${ftol} ${maxiter} ${maxeval}
        minimize 1e-12 1e-08 ${maxiter} ${maxeval}
        minimize 1e-12 1e-08 10000 ${maxeval}
        minimize 1e-12 1e-08 10000 20000
WARNING: Resetting reneighboring criteria during minimization (../min.cpp:168)
Memory usage per processor = 3.3526 Mbytes
Step Temp PotEng Lx Ly Lz 
    1252            0   -481.98882    2.2449075    77.792246    1.1224537 
    1253            0   -481.98883    2.2449075    77.792246    1.1224537 
    1254            0   -481.98884    2.2449075    77.792246    1.1224537 
    1255            0   -481.98884    2.2449075    77.792246    1.1224537 
Loop time of 0.00109694 on 1 procs for 3 steps with 162 atoms

Minimization stats:
  Stopping criterion = linesearch alpha is zero
  Energy initial, next-to-last, final = 
        -481.988820533     -481.988843913     -481.988843913
  Force two-norm initial, final = 0.0570047 0.0212255
  Force max component initial, final = 0.0251725 0.00833825
  Final line search alpha, max atom move = 1.52588e-05 1.27232e-07
  Iterations, force evaluations = 3 31

Pair  time (%) = 0.000912165 (83.1552)
Neigh time (%) = 0 (0)
Comm  time (%) = 6.90563e-05 (6.29534)
Outpt time (%) = 1.29105e-05 (1.17695)
Other time (%) = 0.000102811 (9.37249)

Nlocal:    162 ave 162 max 162 min
Histogram: 1 0 0 0 0 0 0 0 0 0
Nghost:    365 ave 365 max 365 min
Histogram: 1 0 0 0 0 0 0 0 0 0
Neighs:    1438 ave 1438 max 1438 min
Histogram: 1 0 0 0 0 0 0 0 0 0

Total # of neighbors = 1438
Ave neighs/atom = 8.87654
Neighbor list builds = 0
Dangerous builds = 0
        # write_dump all atom ${dumpfile}
        next i
jump SELF loop1
        displace_atoms upper move ${xstep1} 0.0 0.0 units lattice
        displace_atoms upper move 0.00333333333333333 0.0 0.0 units lattice
        min_style ${style}
        min_style cg
        minimize ${etol} ${ftol} ${maxiter} ${maxeval}
        minimize 1e-12 ${ftol} ${maxiter} ${maxeval}
        minimize 1e-12 1e-08 ${maxiter} ${maxeval}
        minimize 1e-12 1e-08 10000 ${maxeval}
        minimize 1e-12 1e-08 10000 20000
WARNING: Resetting reneighboring criteria during minimization (../min.cpp:168)
Memory usage per processor = 3.3526 Mbytes
Step Temp PotEng Lx Ly Lz 
    1255            0   -481.99137    2.2449075    77.792239    1.1224537 
    1256            0   -481.99137    2.2449075    77.792239    1.1224537 
    1257            0   -481.99138    2.2449075    77.792239    1.1224537 
    1258            0   -481.99138    2.2449075    77.792239    1.1224537 
Loop time of 0.00113904 on 1 procs for 3 steps with 162 atoms

Minimization stats:
  Stopping criterion = linesearch alpha is zero
  Energy initial, next-to-last, final = 
        -481.991370638     -481.991375897     -481.991375897
  Force two-norm initial, final = 0.0262314 0.0166359
  Force max component initial, final = 0.00833825 0.00376979
  Final line search alpha, max atom move = 3.05176e-05 1.15045e-07
  Iterations, force evaluations = 3 32

Pair  time (%) = 0.000944739 (82.9415)
Neigh time (%) = 0 (0)
Comm  time (%) = 6.87867e-05 (6.03899)
Outpt time (%) = 1.50775e-05 (1.3237)
Other time (%) = 0.000110439 (9.69577)

Nlocal:    162 ave 162 max 162 min
Histogram: 1 0 0 0 0 0 0 0 0 0
Nghost:    365 ave 365 max 365 min
Histogram: 1 0 0 0 0 0 0 0 0 0
Neighs:    1438 ave 1438 max 1438 min
Histogram: 1 0 0 0 0 0 0 0 0 0

Total # of neighbors = 1438
Ave neighs/atom = 8.87654
Neighbor list builds = 0
Dangerous builds = 0
        # write_dump all atom ${dumpfile}
        next i
jump SELF loop1
        displace_atoms upper move ${xstep1} 0.0 0.0 units lattice
        displace_atoms upper move 0.00333333333333333 0.0 0.0 units lattice
        min_style ${style}
        min_style cg
        minimize ${etol} ${ftol} ${maxiter} ${maxeval}
        minimize 1e-12 ${ftol} ${maxiter} ${maxeval}
        minimize 1e-12 1e-08 ${maxiter} ${maxeval}
        minimize 1e-12 1e-08 10000 ${maxeval}
        minimize 1e-12 1e-08 10000 20000
WARNING: Resetting reneighboring criteria during minimization (../min.cpp:168)
Memory usage per processor = 3.3526 Mbytes
Step Temp PotEng Lx Ly Lz 
    1258            0   -481.99357    2.2449075    77.792236    1.1224537 
    1259            0   -481.99357    2.2449075    77.792236    1.1224537 
    1260            0   -481.99358    2.2449075    77.792236    1.1224537 
    1261            0   -481.99358    2.2449075    77.792236    1.1224537 
    1262            0   -481.99358    2.2449075    77.792236    1.1224537 
Loop time of 0.00197708 on 1 procs for 4 steps with 162 atoms

Minimization stats:
  Stopping criterion = linesearch alpha is zero
  Energy initial, next-to-last, final = 
        -481.993568092     -481.993583084     -481.993583084
  Force two-norm initial, final = 0.0260803 0.0179862
  Force max component initial, final = 0.0101098 0.00497722
  Final line search alpha, max atom move = 3.05176e-05 1.51893e-07
  Iterations, force evaluations = 4 38

Pair  time (%) = 0.00146763 (74.2321)
Neigh time (%) = 0 (0)
Comm  time (%) = 0.000221167 (11.1866)
Outpt time (%) = 3.80005e-05 (1.92205)
Other time (%) = 0.000250283 (12.6592)

Nlocal:    162 ave 162 max 162 min
Histogram: 1 0 0 0 0 0 0 0 0 0
Nghost:    365 ave 365 max 365 min
Histogram: 1 0 0 0 0 0 0 0 0 0
Neighs:    1438 ave 1438 max 1438 min
Histogram: 1 0 0 0 0 0 0 0 0 0

Total # of neighbors = 1438
Ave neighs/atom = 8.87654
Neighbor list builds = 0
Dangerous builds = 0
        # write_dump all atom ${dumpfile}
        next i
jump SELF loop1
        displace_atoms upper move ${xstep1} 0.0 0.0 units lattice
        displace_atoms upper move 0.00333333333333333 0.0 0.0 units lattice
        min_style ${style}
        min_style cg
        minimize ${etol} ${ftol} ${maxiter} ${maxeval}
        minimize 1e-12 ${ftol} ${maxiter} ${maxeval}
        minimize 1e-12 1e-08 ${maxiter} ${maxeval}
        minimize 1e-12 1e-08 10000 ${maxeval}
        minimize 1e-12 1e-08 10000 20000
WARNING: Resetting reneighboring criteria during minimization (../min.cpp:168)
Memory usage per processor = 3.3526 Mbytes
Step Temp PotEng Lx Ly Lz 
    1262            0   -481.99545    2.2449075    77.792224    1.1224537 
    1263            0   -481.99545    2.2449075    77.792224    1.1224537 
    1264            0   -481.99545    2.2449075    77.792224    1.1224537 
    1265            0   -481.99545    2.2449075    77.792224    1.1224537 
    1266            0   -481.99545    2.2449075    77.792224    1.1224537 
Loop time of 0.00183402 on 1 procs for 4 steps with 162 atoms

Minimization stats:
  Stopping criterion = linesearch alpha is zero
  Energy initial, next-to-last, final = 
        -481.995445744     -481.995450848     -481.995450848
  Force two-norm initial, final = 0.0207626 0.0216903
  Force max component initial, final = 0.00562843 0.00639036
  Final line search alpha, max atom move = 1.52588e-05 9.75092e-08
  Iterations, force evaluations = 4 48

Pair  time (%) = 0.00153732 (83.8225)
Neigh time (%) = 0 (0)
Comm  time (%) = 0.000114764 (6.25748)
Outpt time (%) = 1.99642e-05 (1.08855)
Other time (%) = 0.000161971 (8.83146)

Nlocal:    162 ave 162 max 162 min
Histogram: 1 0 0 0 0 0 0 0 0 0
Nghost:    365 ave 365 max 365 min
Histogram: 1 0 0 0 0 0 0 0 0 0
Neighs:    1438 ave 1438 max 1438 min
Histogram: 1 0 0 0 0 0 0 0 0 0

Total # of neighbors = 1438
Ave neighs/atom = 8.87654
Neighbor list builds = 0
Dangerous builds = 0
        # write_dump all atom ${dumpfile}
        next i
jump SELF loop1
        displace_atoms upper move ${xstep1} 0.0 0.0 units lattice
        displace_atoms upper move 0.00333333333333333 0.0 0.0 units lattice
        min_style ${style}
        min_style cg
        minimize ${etol} ${ftol} ${maxiter} ${maxeval}
        minimize 1e-12 ${ftol} ${maxiter} ${maxeval}
        minimize 1e-12 1e-08 ${maxiter} ${maxeval}
        minimize 1e-12 1e-08 10000 ${maxeval}
        minimize 1e-12 1e-08 10000 20000
WARNING: Resetting reneighboring criteria during minimization (../min.cpp:168)
Memory usage per processor = 3.3526 Mbytes
Step Temp PotEng Lx Ly Lz 
    1266            0   -481.99698    2.2449075    77.792221    1.1224537 
    1267            0   -481.99698    2.2449075    77.792221    1.1224537 
Loop time of 0.00081699 on 1 procs for 1 steps with 162 atoms

Minimization stats:
  Stopping criterion = linesearch alpha is zero
  Energy initial, next-to-last, final = 
        -481.996979108     -481.996979108     -481.996979108
  Force two-norm initial, final = 0.0186852 0.0186852
  Force max component initial, final = 0.00639036 0.00639036
  Final line search alpha, max atom move = 3.05176e-05 1.95018e-07
  Iterations, force evaluations = 1 16

Pair  time (%) = 0.000715688 (87.6006)
Neigh time (%) = 0 (0)
Comm  time (%) = 3.48297e-05 (4.26317)
Outpt time (%) = 0 (0)
Other time (%) = 6.64726e-05 (8.13627)

Nlocal:    162 ave 162 max 162 min
Histogram: 1 0 0 0 0 0 0 0 0 0
Nghost:    365 ave 365 max 365 min
Histogram: 1 0 0 0 0 0 0 0 0 0
Neighs:    1438 ave 1438 max 1438 min
Histogram: 1 0 0 0 0 0 0 0 0 0

Total # of neighbors = 1438
Ave neighs/atom = 8.87654
Neighbor list builds = 0
Dangerous builds = 0
        # write_dump all atom ${dumpfile}
        next i
jump SELF loop1
        displace_atoms upper move ${xstep1} 0.0 0.0 units lattice
        displace_atoms upper move 0.00333333333333333 0.0 0.0 units lattice
        min_style ${style}
        min_style cg
        minimize ${etol} ${ftol} ${maxiter} ${maxeval}
        minimize 1e-12 ${ftol} ${maxiter} ${maxeval}
        minimize 1e-12 1e-08 ${maxiter} ${maxeval}
        minimize 1e-12 1e-08 10000 ${maxeval}
        minimize 1e-12 1e-08 10000 20000
WARNING: Resetting reneighboring criteria during minimization (../min.cpp:168)
Memory usage per processor = 3.3526 Mbytes
Step Temp PotEng Lx Ly Lz 
    1267            0   -481.99817    2.2449075    77.792221    1.1224537 
    1268            0   -481.99817    2.2449075    77.792221    1.1224537 
    1269            0   -481.99817    2.2449075    77.792221    1.1224537 
Loop time of 0.00046208 on 1 procs for 2 steps with 162 atoms

Minimization stats:
  Stopping criterion = linesearch alpha is zero
  Energy initial, next-to-last, final = 
        -481.998168904     -481.998173185     -481.998173185
  Force two-norm initial, final = 0.0218753 0.0171016
  Force max component initial, final = 0.00639036 0.00591281
  Final line search alpha, max atom move = 3.05176e-05 1.80445e-07
  Iterations, force evaluations = 2 23

Pair  time (%) = 0.000388044 (83.9776)
Neigh time (%) = 0 (0)
Comm  time (%) = 3.21156e-05 (6.95022)
Outpt time (%) = 8.02102e-08 (0.0173585)
Other time (%) = 4.18404e-05 (9.05478)

Nlocal:    162 ave 162 max 162 min
Histogram: 1 0 0 0 0 0 0 0 0 0
Nghost:    365 ave 365 max 365 min
Histogram: 1 0 0 0 0 0 0 0 0 0
Neighs:    1438 ave 1438 max 1438 min
Histogram: 1 0 0 0 0 0 0 0 0 0

Total # of neighbors = 1438
Ave neighs/atom = 8.87654
Neighbor list builds = 0
Dangerous builds = 0
        # write_dump all atom ${dumpfile}
        next i
jump SELF loop1
        displace_atoms upper move ${xstep1} 0.0 0.0 units lattice
        displace_atoms upper move 0.00333333333333333 0.0 0.0 units lattice
        min_style ${style}
        min_style cg
        minimize ${etol} ${ftol} ${maxiter} ${maxeval}
        minimize 1e-12 ${ftol} ${maxiter} ${maxeval}
        minimize 1e-12 1e-08 ${maxiter} ${maxeval}
        minimize 1e-12 1e-08 10000 ${maxeval}
        minimize 1e-12 1e-08 10000 20000
WARNING: Resetting reneighboring criteria during minimization (../min.cpp:168)
Memory usage per processor = 3.3526 Mbytes
Step Temp PotEng Lx Ly Lz 
    1269            0   -481.99902    2.2449075    77.792219    1.1224537 
    1270            0   -481.99902    2.2449075    77.792219    1.1224537 
Loop time of 0.000590049 on 1 procs for 1 steps with 162 atoms

Minimization stats:
  Stopping criterion = linesearch alpha is zero
  Energy initial, next-to-last, final = 
        -481.999024278     -481.999024278     -481.999024278
  Force two-norm initial, final = 0.0181565 0.0181565
  Force max component initial, final = 0.00591281 0.00591281
  Final line search alpha, max atom move = 3.05176e-05 1.80445e-07
  Iterations, force evaluations = 1 16

Pair  time (%) = 0.0004909 (83.1966)
Neigh time (%) = 0 (0)
Comm  time (%) = 4.05996e-05 (6.88072)
Outpt time (%) = 0 (0)
Other time (%) = 5.85489e-05 (9.92272)

Nlocal:    162 ave 162 max 162 min
Histogram: 1 0 0 0 0 0 0 0 0 0
Nghost:    365 ave 365 max 365 min
Histogram: 1 0 0 0 0 0 0 0 0 0
Neighs:    1438 ave 1438 max 1438 min
Histogram: 1 0 0 0 0 0 0 0 0 0

Total # of neighbors = 1438
Ave neighs/atom = 8.87654
Neighbor list builds = 0
Dangerous builds = 0
        # write_dump all atom ${dumpfile}
        next i
jump SELF loop1
        displace_atoms upper move ${xstep1} 0.0 0.0 units lattice
        displace_atoms upper move 0.00333333333333333 0.0 0.0 units lattice
        min_style ${style}
        min_style cg
        minimize ${etol} ${ftol} ${maxiter} ${maxeval}
        minimize 1e-12 ${ftol} ${maxiter} ${maxeval}
        minimize 1e-12 1e-08 ${maxiter} ${maxeval}
        minimize 1e-12 1e-08 10000 ${maxeval}
        minimize 1e-12 1e-08 10000 20000
WARNING: Resetting reneighboring criteria during minimization (../min.cpp:168)
Memory usage per processor = 3.3526 Mbytes
Step Temp PotEng Lx Ly Lz 
    1270            0   -481.99953    2.2449075    77.792219    1.1224537 
    1271            0   -481.99954    2.2449075    77.792219    1.1224537 
    1272            0   -481.99954    2.2449075    77.792219    1.1224537 
    1273            0   -481.99954    2.2449075    77.792219    1.1224537 
Loop time of 0.00103602 on 1 procs for 3 steps with 162 atoms

Minimization stats:
  Stopping criterion = linesearch alpha is zero
  Energy initial, next-to-last, final = 
        -481.999534652      -481.99954043      -481.99954043
  Force two-norm initial, final = 0.0200009 0.0148855
  Force max component initial, final = 0.00591281 0.00377198
  Final line search alpha, max atom move = 3.05176e-05 1.15112e-07
  Iterations, force evaluations = 3 30

Pair  time (%) = 0.000836226 (80.7156)
Neigh time (%) = 0 (0)
Comm  time (%) = 8.61413e-05 (8.31466)
Outpt time (%) = 1.60394e-05 (1.54818)
Other time (%) = 9.76094e-05 (9.4216)

Nlocal:    162 ave 162 max 162 min
Histogram: 1 0 0 0 0 0 0 0 0 0
Nghost:    365 ave 365 max 365 min
Histogram: 1 0 0 0 0 0 0 0 0 0
Neighs:    1438 ave 1438 max 1438 min
Histogram: 1 0 0 0 0 0 0 0 0 0

Total # of neighbors = 1438
Ave neighs/atom = 8.87654
Neighbor list builds = 0
Dangerous builds = 0
        # write_dump all atom ${dumpfile}
        next i
jump SELF loop1
        displace_atoms upper move ${xstep1} 0.0 0.0 units lattice
        displace_atoms upper move 0.00333333333333333 0.0 0.0 units lattice
        min_style ${style}
        min_style cg
        minimize ${etol} ${ftol} ${maxiter} ${maxeval}
        minimize 1e-12 ${ftol} ${maxiter} ${maxeval}
        minimize 1e-12 1e-08 ${maxiter} ${maxeval}
        minimize 1e-12 1e-08 10000 ${maxeval}
        minimize 1e-12 1e-08 10000 20000
WARNING: Resetting reneighboring criteria during minimization (../min.cpp:168)
Memory usage per processor = 3.3526 Mbytes
Step Temp PotEng Lx Ly Lz 
    1273            0   -481.99971    2.2449075    77.792212    1.1224537 
    1274            0   -481.99971    2.2449075    77.792212    1.1224537 
Loop time of 0.00201691 on 1 procs for 1 steps with 162 atoms

Minimization stats:
  Stopping criterion = linesearch alpha is zero
  Energy initial, next-to-last, final = 
         -481.99971268      -481.99971268      -481.99971268
  Force two-norm initial, final = 0.0152151 0.0152151
  Force max component initial, final = 0.00377198 0.00377198
  Final line search alpha, max atom move = 3.05176e-05 1.15112e-07
  Iterations, force evaluations = 1 16

Pair  time (%) = 0.00127406 (63.1689)
Neigh time (%) = 0 (0)
Comm  time (%) = 6.4982e-05 (3.22187)
Outpt time (%) = 0 (0)
Other time (%) = 0.000677866 (33.6092)

Nlocal:    162 ave 162 max 162 min
Histogram: 1 0 0 0 0 0 0 0 0 0
Nghost:    365 ave 365 max 365 min
Histogram: 1 0 0 0 0 0 0 0 0 0
Neighs:    1438 ave 1438 max 1438 min
Histogram: 1 0 0 0 0 0 0 0 0 0

Total # of neighbors = 1438
Ave neighs/atom = 8.87654
Neighbor list builds = 0
Dangerous builds = 0
        # write_dump all atom ${dumpfile}
        next i
jump SELF loop1


