LAMMPS (28 Jun 2014)
# attempt at getting generalized stacking fault (GSF) energy curve

#file prefix
variable prefix string gsf_V_inter5new
variable dumpfile string ${prefix}.*.dump
variable dumpfile string gsf_V_inter5new.*.dump
variable restartfile string ${prefix}.*.equil
variable restartfile string gsf_V_inter5new.*.equil

#Mass (g/mol)
variable m equal 1

# lattice constant (in Angstroms) and orientation of axes (given by lattice vectors)
variable rho equal 0.9165
variable x1 equal 1
variable x2 equal 0
variable x3 equal 0
variable y1 equal 0
variable y2 equal 1
variable y3 equal 0
# length of lattice in different directions (using orientation of lattice vectors)
variable ax equal sqrt(${x1}*${x1}+${x2}*${x2}+${x3}*${x3})
variable ax equal sqrt(1*${x1}+${x2}*${x2}+${x3}*${x3})
variable ax equal sqrt(1*1+${x2}*${x2}+${x3}*${x3})
variable ax equal sqrt(1*1+0*${x2}+${x3}*${x3})
variable ax equal sqrt(1*1+0*0+${x3}*${x3})
variable ax equal sqrt(1*1+0*0+0*${x3})
variable ax equal sqrt(1*1+0*0+0*0)
variable ay equal sqrt(${y1}*${y1}+${y2}*${y2}+${y3}*${y3})
variable ay equal sqrt(0*${y1}+${y2}*${y2}+${y3}*${y3})
variable ay equal sqrt(0*0+${y2}*${y2}+${y3}*${y3})
variable ay equal sqrt(0*0+1*${y2}+${y3}*${y3})
variable ay equal sqrt(0*0+1*1+${y3}*${y3})
variable ay equal sqrt(0*0+1*1+0*${y3})
variable ay equal sqrt(0*0+1*1+0*0)
variable az equal 1

# size of box in lattice units
variable lxpos equal 1
variable lxneg equal -1*${lxpos}
variable lxneg equal -1*1
variable lypos equal 10
variable lyneg equal -1*${lypos}
variable lyneg equal -1*10
variable lzpos equal 0
variable lzneg equal -1

# Define minimization parameters and damping
variable etol equal 1.0e-12
variable ftol equal 1.0e-8
variable maxiter equal 10000
variable maxeval equal 20000
variable style string cg

# boundary conditions
dimension	2
boundary	p s p
atom_style	atomic

# create geometry
units		lj
lattice         hex ${rho}
lattice         hex 0.9165
Lattice spacing in x,y,z = 1.12245 1.94415 1.12245
region		myregion block ${lxneg} ${lxpos} ${lyneg} ${lypos} ${lzneg} ${lzpos} units lattice
region		myregion block -1 ${lxpos} ${lyneg} ${lypos} ${lzneg} ${lzpos} units lattice
region		myregion block -1 1 ${lyneg} ${lypos} ${lzneg} ${lzpos} units lattice
region		myregion block -1 1 -10 ${lypos} ${lzneg} ${lzpos} units lattice
region		myregion block -1 1 -10 10 ${lzneg} ${lzpos} units lattice
region		myregion block -1 1 -10 10 -1 ${lzpos} units lattice
region		myregion block -1 1 -10 10 -1 0 units lattice
create_box	3 myregion
Created orthogonal box = (-1.12245 -19.4415 -1.12245) to (1.12245 19.4415 0)
  1 by 1 by 1 MPI processor grid
create_atoms	1 box
Created 82 atoms

# define masses
mass * $m
mass * 1

# my fake/morse potential
pair_style      table linear 3001
pair_coeff      * * vpotential_inter5new dummy
neighbor	0.3 bin
neigh_modify	delay 5

# define groups
region	    upper block INF INF 0.01 ${lypos} INF INF units lattice
region	    upper block INF INF 0.01 10 INF INF units lattice
group		upper region upper
40 atoms in group upper

# Setup output
thermo 1
thermo_style custom step temp pe lx ly lz
thermo_modify norm no

# Compute initial state by relaxing box
min_style ${style}
min_style cg
minimize ${etol} ${ftol} ${maxiter} ${maxeval}
minimize 1e-12 ${ftol} ${maxiter} ${maxeval}
minimize 1e-12 1e-08 ${maxiter} ${maxeval}
minimize 1e-12 1e-08 10000 ${maxeval}
minimize 1e-12 1e-08 10000 20000
WARNING: Resetting reneighboring criteria during minimization (../min.cpp:168)
Memory usage per processor = 3.35169 Mbytes
Step Temp PotEng Lx Ly Lz 
       0            0   -241.99993    2.2449075    38.890715    1.1224537 
       1            0   -241.99993    2.2449075    38.890715    1.1224537 
       2            0   -241.99993    2.2449075    38.890715    1.1224537 
Loop time of 0.000329936 on 1 procs for 2 steps with 82 atoms

Minimization stats:
  Stopping criterion = linesearch alpha is zero
  Energy initial, next-to-last, final = 
        -241.999927696     -241.999929863     -241.999929863
  Force two-norm initial, final = 0.000778805 0.00455994
  Force max component initial, final = 0.000389403 0.00179508
  Final line search alpha, max atom move = 0.000488281 8.76506e-07
  Iterations, force evaluations = 2 16

Pair  time (%) = 0.00026409 (80.0428)
Neigh time (%) = 0 (0)
Comm  time (%) = 2.38932e-05 (7.24177)
Outpt time (%) = 9.06573e-06 (2.74772)
Other time (%) = 3.28872e-05 (9.96776)

Nlocal:    82 ave 82 max 82 min
Histogram: 1 0 0 0 0 0 0 0 0 0
Nghost:    185 ave 185 max 185 min
Histogram: 1 0 0 0 0 0 0 0 0 0
Neighs:    718 ave 718 max 718 min
Histogram: 1 0 0 0 0 0 0 0 0 0

Total # of neighbors = 718
Ave neighs/atom = 8.7561
Neighbor list builds = 0
Dangerous builds = 0

# don't allow atoms to relax in x-direction
fix 2 all setforce 0.0 NULL 0.0

# GSF energy curve will have 100*2 steps
variable nsteps equal 300
variable sstep1 equal 1.
variable xstep1 equal ${sstep1}/(${ax}*${nsteps})
variable xstep1 equal 1/(${ax}*${nsteps})
variable xstep1 equal 1/(1*${nsteps})
variable xstep1 equal 1/(1*300)

variable i loop ${nsteps}
variable i loop 300
label loop1
        displace_atoms upper move ${xstep1} 0.0 0.0 units lattice
        displace_atoms upper move 0.00333333333333333 0.0 0.0 units lattice
        min_style ${style}
        min_style cg
        minimize ${etol} ${ftol} ${maxiter} ${maxeval}
        minimize 1e-12 ${ftol} ${maxiter} ${maxeval}
        minimize 1e-12 1e-08 ${maxiter} ${maxeval}
        minimize 1e-12 1e-08 10000 ${maxeval}
        minimize 1e-12 1e-08 10000 20000
WARNING: Resetting reneighboring criteria during minimization (../min.cpp:168)
Memory usage per processor = 3.35169 Mbytes
Step Temp PotEng Lx Ly Lz 
       2            0   -241.99976    2.2449075    38.890812    1.1224537 
       3            0   -241.99976    2.2449075    38.890812    1.1224537 
Loop time of 0.00027005 on 1 procs for 1 steps with 82 atoms

Minimization stats:
  Stopping criterion = linesearch alpha is zero
  Energy initial, next-to-last, final = 
        -241.999757399     -241.999757399     -241.999757399
  Force two-norm initial, final = 0.00478129 0.00478129
  Force max component initial, final = 0.00179508 0.00179508
  Final line search alpha, max atom move = 0.000488281 8.76506e-07
  Iterations, force evaluations = 1 12

Pair  time (%) = 0.000220037 (81.4804)
Neigh time (%) = 0 (0)
Comm  time (%) = 1.40808e-05 (5.21415)
Outpt time (%) = 0 (0)
Other time (%) = 3.59314e-05 (13.3055)

Nlocal:    82 ave 82 max 82 min
Histogram: 1 0 0 0 0 0 0 0 0 0
Nghost:    185 ave 185 max 185 min
Histogram: 1 0 0 0 0 0 0 0 0 0
Neighs:    718 ave 718 max 718 min
Histogram: 1 0 0 0 0 0 0 0 0 0

Total # of neighbors = 718
Ave neighs/atom = 8.7561
Neighbor list builds = 0
Dangerous builds = 0
        # write_dump all atom ${dumpfile}
        next i
jump SELF loop1
        displace_atoms upper move ${xstep1} 0.0 0.0 units lattice
        displace_atoms upper move 0.00333333333333333 0.0 0.0 units lattice
        min_style ${style}
        min_style cg
        minimize ${etol} ${ftol} ${maxiter} ${maxeval}
        minimize 1e-12 ${ftol} ${maxiter} ${maxeval}
        minimize 1e-12 1e-08 ${maxiter} ${maxeval}
        minimize 1e-12 1e-08 10000 ${maxeval}
        minimize 1e-12 1e-08 10000 20000
WARNING: Resetting reneighboring criteria during minimization (../min.cpp:168)
Memory usage per processor = 3.35169 Mbytes
Step Temp PotEng Lx Ly Lz 
       3            0   -241.99924    2.2449075    38.890812    1.1224537 
       4            0   -241.99924    2.2449075    38.890812    1.1224537 
Loop time of 0.000285101 on 1 procs for 1 steps with 82 atoms

Minimization stats:
  Stopping criterion = linesearch alpha is zero
  Energy initial, next-to-last, final = 
        -241.999241512     -241.999241512     -241.999241512
  Force two-norm initial, final = 0.00732734 0.00732734
  Force max component initial, final = 0.00286779 0.00286779
  Final line search alpha, max atom move = 0.00012207 3.50072e-07
  Iterations, force evaluations = 1 14

Pair  time (%) = 0.000236228 (82.8575)
Neigh time (%) = 0 (0)
Comm  time (%) = 2.02034e-05 (7.0864)
Outpt time (%) = 0 (0)
Other time (%) = 2.86701e-05 (10.0561)

Nlocal:    82 ave 82 max 82 min
Histogram: 1 0 0 0 0 0 0 0 0 0
Nghost:    185 ave 185 max 185 min
Histogram: 1 0 0 0 0 0 0 0 0 0
Neighs:    718 ave 718 max 718 min
Histogram: 1 0 0 0 0 0 0 0 0 0

Total # of neighbors = 718
Ave neighs/atom = 8.7561
Neighbor list builds = 0
Dangerous builds = 0
        # write_dump all atom ${dumpfile}
        next i
jump SELF loop1
        displace_atoms upper move ${xstep1} 0.0 0.0 units lattice
        displace_atoms upper move 0.00333333333333333 0.0 0.0 units lattice
        min_style ${style}
        min_style cg
        minimize ${etol} ${ftol} ${maxiter} ${maxeval}
        minimize 1e-12 ${ftol} ${maxiter} ${maxeval}
        minimize 1e-12 1e-08 ${maxiter} ${maxeval}
        minimize 1e-12 1e-08 10000 ${maxeval}
        minimize 1e-12 1e-08 10000 20000
WARNING: Resetting reneighboring criteria during minimization (../min.cpp:168)
Memory usage per processor = 3.35169 Mbytes
Step Temp PotEng Lx Ly Lz 
       4            0   -241.99838    2.2449075    38.890812    1.1224537 
       5            0   -241.99838    2.2449075    38.890812    1.1224537 
Loop time of 0.000303927 on 1 procs for 1 steps with 82 atoms

Minimization stats:
  Stopping criterion = linesearch alpha is zero
  Energy initial, next-to-last, final = 
        -241.998383655     -241.998383655     -241.998383655
  Force two-norm initial, final = 0.01366 0.01366
  Force max component initial, final = 0.00643821 0.00643821
  Final line search alpha, max atom move = 6.10352e-05 3.92957e-07
  Iterations, force evaluations = 1 15

Pair  time (%) = 0.000247916 (81.5708)
Neigh time (%) = 0 (0)
Comm  time (%) = 2.18038e-05 (7.17401)
Outpt time (%) = 0 (0)
Other time (%) = 3.42076e-05 (11.2552)

Nlocal:    82 ave 82 max 82 min
Histogram: 1 0 0 0 0 0 0 0 0 0
Nghost:    185 ave 185 max 185 min
Histogram: 1 0 0 0 0 0 0 0 0 0
Neighs:    718 ave 718 max 718 min
Histogram: 1 0 0 0 0 0 0 0 0 0

Total # of neighbors = 718
Ave neighs/atom = 8.7561
Neighbor list builds = 0
Dangerous builds = 0
        # write_dump all atom ${dumpfile}
        next i
jump SELF loop1
        displace_atoms upper move ${xstep1} 0.0 0.0 units lattice
        displace_atoms upper move 0.00333333333333333 0.0 0.0 units lattice
        min_style ${style}
        min_style cg
        minimize ${etol} ${ftol} ${maxiter} ${maxeval}
        minimize 1e-12 ${ftol} ${maxiter} ${maxeval}
        minimize 1e-12 1e-08 ${maxiter} ${maxeval}
        minimize 1e-12 1e-08 10000 ${maxeval}
        minimize 1e-12 1e-08 10000 20000
WARNING: Resetting reneighboring criteria during minimization (../min.cpp:168)
Memory usage per processor = 3.35169 Mbytes
Step Temp PotEng Lx Ly Lz 
       5            0   -241.99718    2.2449075    38.890812    1.1224537 
       6            0   -241.99718    2.2449075    38.890812    1.1224537 
Loop time of 0.000360905 on 1 procs for 1 steps with 82 atoms

Minimization stats:
  Stopping criterion = linesearch alpha is zero
  Energy initial, next-to-last, final = 
        -241.997184208     -241.997184208     -241.997184208
  Force two-norm initial, final = 0.0233072 0.0233072
  Force max component initial, final = 0.0114284 0.0114284
  Final line search alpha, max atom move = 1.52588e-05 1.74383e-07
  Iterations, force evaluations = 1 17

Pair  time (%) = 0.000295755 (81.948)
Neigh time (%) = 0 (0)
Comm  time (%) = 2.49444e-05 (6.91162)
Outpt time (%) = 0 (0)
Other time (%) = 4.02061e-05 (11.1403)

Nlocal:    82 ave 82 max 82 min
Histogram: 1 0 0 0 0 0 0 0 0 0
Nghost:    185 ave 185 max 185 min
Histogram: 1 0 0 0 0 0 0 0 0 0
Neighs:    718 ave 718 max 718 min
Histogram: 1 0 0 0 0 0 0 0 0 0

Total # of neighbors = 718
Ave neighs/atom = 8.7561
Neighbor list builds = 0
Dangerous builds = 0
        # write_dump all atom ${dumpfile}
        next i
jump SELF loop1
        displace_atoms upper move ${xstep1} 0.0 0.0 units lattice
        displace_atoms upper move 0.00333333333333333 0.0 0.0 units lattice
        min_style ${style}
        min_style cg
        minimize ${etol} ${ftol} ${maxiter} ${maxeval}
        minimize 1e-12 ${ftol} ${maxiter} ${maxeval}
        minimize 1e-12 1e-08 ${maxiter} ${maxeval}
        minimize 1e-12 1e-08 10000 ${maxeval}
        minimize 1e-12 1e-08 10000 20000
WARNING: Resetting reneighboring criteria during minimization (../min.cpp:168)
Memory usage per processor = 3.35169 Mbytes
Step Temp PotEng Lx Ly Lz 
       6            0   -241.99564    2.2449075    38.890812    1.1224537 
       7            0   -241.99564    2.2449075    38.890812    1.1224537 
       8            0   -241.99564    2.2449075    38.890812    1.1224537 
       9            0   -241.99564    2.2449075    38.890812    1.1224537 
Loop time of 0.00129293 on 1 procs for 3 steps with 82 atoms

Minimization stats:
  Stopping criterion = linesearch alpha is zero
  Energy initial, next-to-last, final = 
        -241.995643567     -241.995644433     -241.995644433
  Force two-norm initial, final = 0.0359625 0.0312651
  Force max component initial, final = 0.0178361 0.015482
  Final line search alpha, max atom move = 7.62939e-06 1.18118e-07
  Iterations, force evaluations = 3 42

Pair  time (%) = 0.00105488 (81.5883)
Neigh time (%) = 0 (0)
Comm  time (%) = 5.15267e-05 (3.98527)
Outpt time (%) = 7.67647e-05 (5.93727)
Other time (%) = 0.000109759 (8.48918)

Nlocal:    82 ave 82 max 82 min
Histogram: 1 0 0 0 0 0 0 0 0 0
Nghost:    185 ave 185 max 185 min
Histogram: 1 0 0 0 0 0 0 0 0 0
Neighs:    718 ave 718 max 718 min
Histogram: 1 0 0 0 0 0 0 0 0 0

Total # of neighbors = 718
Ave neighs/atom = 8.7561
Neighbor list builds = 0
Dangerous builds = 0
        # write_dump all atom ${dumpfile}
        next i
jump SELF loop1
        displace_atoms upper move ${xstep1} 0.0 0.0 units lattice
        displace_atoms upper move 0.00333333333333333 0.0 0.0 units lattice
        min_style ${style}
        min_style cg
        minimize ${etol} ${ftol} ${maxiter} ${maxeval}
        minimize 1e-12 ${ftol} ${maxiter} ${maxeval}
        minimize 1e-12 1e-08 ${maxiter} ${maxeval}
        minimize 1e-12 1e-08 10000 ${maxeval}
        minimize 1e-12 1e-08 10000 20000
WARNING: Resetting reneighboring criteria during minimization (../min.cpp:168)
Memory usage per processor = 3.35169 Mbytes
Step Temp PotEng Lx Ly Lz 
       9            0   -241.99376    2.2449075    38.890809    1.1224537 
      10            0   -241.99377    2.2449075    38.890809    1.1224537 
      11            0   -241.99377    2.2449075    38.890809    1.1224537 
Loop time of 0.000462093 on 1 procs for 2 steps with 82 atoms

Minimization stats:
  Stopping criterion = linesearch alpha is zero
  Energy initial, next-to-last, final = 
        -241.993760152     -241.993767243     -241.993767243
  Force two-norm initial, final = 0.046848 0.0156938
  Force max component initial, final = 0.0233238 0.00704691
  Final line search alpha, max atom move = 3.05176e-05 2.15055e-07
  Iterations, force evaluations = 2 24

Pair  time (%) = 0.000373972 (80.9301)
Neigh time (%) = 0 (0)
Comm  time (%) = 2.92307e-05 (6.32573)
Outpt time (%) = 9.05525e-06 (1.95962)
Other time (%) = 4.98345e-05 (10.7845)

Nlocal:    82 ave 82 max 82 min
Histogram: 1 0 0 0 0 0 0 0 0 0
Nghost:    185 ave 185 max 185 min
Histogram: 1 0 0 0 0 0 0 0 0 0
Neighs:    718 ave 718 max 718 min
Histogram: 1 0 0 0 0 0 0 0 0 0

Total # of neighbors = 718
Ave neighs/atom = 8.7561
Neighbor list builds = 0
Dangerous builds = 0
        # write_dump all atom ${dumpfile}
        next i
jump SELF loop1
        displace_atoms upper move ${xstep1} 0.0 0.0 units lattice
        displace_atoms upper move 0.00333333333333333 0.0 0.0 units lattice
        min_style ${style}
        min_style cg
        minimize ${etol} ${ftol} ${maxiter} ${maxeval}
        minimize 1e-12 ${ftol} ${maxiter} ${maxeval}
        minimize 1e-12 1e-08 ${maxiter} ${maxeval}
        minimize 1e-12 1e-08 10000 ${maxeval}
        minimize 1e-12 1e-08 10000 20000
WARNING: Resetting reneighboring criteria during minimization (../min.cpp:168)
Memory usage per processor = 3.35169 Mbytes
Step Temp PotEng Lx Ly Lz 
      11            0   -241.99155    2.2449075    38.890789    1.1224537 
      12            0   -241.99155    2.2449075    38.890789    1.1224537 
      13            0   -241.99155    2.2449075    38.890789    1.1224537 
Loop time of 0.000559079 on 1 procs for 2 steps with 82 atoms

Minimization stats:
  Stopping criterion = linesearch alpha is zero
  Energy initial, next-to-last, final = 
        -241.991550751     -241.991550944     -241.991550944
  Force two-norm initial, final = 0.0288861 0.0279066
  Force max component initial, final = 0.0125837 0.0120304
  Final line search alpha, max atom move = 1.52588e-05 1.83569e-07
  Iterations, force evaluations = 2 29

Pair  time (%) = 0.000454122 (81.2268)
Neigh time (%) = 0 (0)
Comm  time (%) = 3.5143e-05 (6.28588)
Outpt time (%) = 8.8861e-06 (1.58942)
Other time (%) = 6.09278e-05 (10.8979)

Nlocal:    82 ave 82 max 82 min
Histogram: 1 0 0 0 0 0 0 0 0 0
Nghost:    185 ave 185 max 185 min
Histogram: 1 0 0 0 0 0 0 0 0 0
Neighs:    718 ave 718 max 718 min
Histogram: 1 0 0 0 0 0 0 0 0 0

Total # of neighbors = 718
Ave neighs/atom = 8.7561
Neighbor list builds = 0
Dangerous builds = 0
        # write_dump all atom ${dumpfile}
        next i
jump SELF loop1
        displace_atoms upper move ${xstep1} 0.0 0.0 units lattice
        displace_atoms upper move 0.00333333333333333 0.0 0.0 units lattice
        min_style ${style}
        min_style cg
        minimize ${etol} ${ftol} ${maxiter} ${maxeval}
        minimize 1e-12 ${ftol} ${maxiter} ${maxeval}
        minimize 1e-12 1e-08 ${maxiter} ${maxeval}
        minimize 1e-12 1e-08 10000 ${maxeval}
        minimize 1e-12 1e-08 10000 20000
WARNING: Resetting reneighboring criteria during minimization (../min.cpp:168)
Memory usage per processor = 3.35169 Mbytes
Step Temp PotEng Lx Ly Lz 
      13            0   -241.98899    2.2449075    38.890788    1.1224537 
      14            0     -241.989    2.2449075    38.890788    1.1224537 
      15            0     -241.989    2.2449075    38.890788    1.1224537 
      16            0     -241.989    2.2449075    38.890788    1.1224537 
      17            0     -241.989    2.2449075    38.890788    1.1224537 
      18            0     -241.989    2.2449075    38.890788    1.1224537 
Loop time of 0.00117994 on 1 procs for 5 steps with 82 atoms

Minimization stats:
  Stopping criterion = linesearch alpha is zero
  Energy initial, next-to-last, final = 
        -241.988993908     -241.989002581     -241.989002581
  Force two-norm initial, final = 0.0474891 0.0179964
  Force max component initial, final = 0.022668 0.00742926
  Final line search alpha, max atom move = 3.05176e-05 2.26723e-07
  Iterations, force evaluations = 5 56

Pair  time (%) = 0.000914861 (77.5348)
Neigh time (%) = 0 (0)
Comm  time (%) = 8.48122e-05 (7.18786)
Outpt time (%) = 2.62891e-05 (2.22802)
Other time (%) = 0.000153974 (13.0493)

Nlocal:    82 ave 82 max 82 min
Histogram: 1 0 0 0 0 0 0 0 0 0
Nghost:    185 ave 185 max 185 min
Histogram: 1 0 0 0 0 0 0 0 0 0
Neighs:    718 ave 718 max 718 min
Histogram: 1 0 0 0 0 0 0 0 0 0

Total # of neighbors = 718
Ave neighs/atom = 8.7561
Neighbor list builds = 0
Dangerous builds = 0
        # write_dump all atom ${dumpfile}
        next i
jump SELF loop1
        displace_atoms upper move ${xstep1} 0.0 0.0 units lattice
        displace_atoms upper move 0.00333333333333333 0.0 0.0 units lattice
        min_style ${style}
        min_style cg
        minimize ${etol} ${ftol} ${maxiter} ${maxeval}
        minimize 1e-12 ${ftol} ${maxiter} ${maxeval}
        minimize 1e-12 1e-08 ${maxiter} ${maxeval}
        minimize 1e-12 1e-08 10000 ${maxeval}
        minimize 1e-12 1e-08 10000 20000
WARNING: Resetting reneighboring criteria during minimization (../min.cpp:168)
Memory usage per processor = 3.35169 Mbytes
Step Temp PotEng Lx Ly Lz 
      18            0   -241.98612    2.2449075    38.890779    1.1224537 
      19            0   -241.98612    2.2449075    38.890779    1.1224537 
      20            0   -241.98612    2.2449075    38.890779    1.1224537 
Loop time of 0.000644096 on 1 procs for 2 steps with 82 atoms

Minimization stats:
  Stopping criterion = linesearch alpha is zero
  Energy initial, next-to-last, final = 
        -241.986116575     -241.986124626     -241.986124626
  Force two-norm initial, final = 0.0358409 0.026208
  Force max component initial, final = 0.0160058 0.00985142
  Final line search alpha, max atom move = 1.52588e-05 1.50321e-07
  Iterations, force evaluations = 2 24

Pair  time (%) = 0.000519941 (80.7242)
Neigh time (%) = 0 (0)
Comm  time (%) = 3.85089e-05 (5.97875)
Outpt time (%) = 6.10494e-06 (0.94783)
Other time (%) = 7.9541e-05 (12.3492)

Nlocal:    82 ave 82 max 82 min
Histogram: 1 0 0 0 0 0 0 0 0 0
Nghost:    185 ave 185 max 185 min
Histogram: 1 0 0 0 0 0 0 0 0 0
Neighs:    718 ave 718 max 718 min
Histogram: 1 0 0 0 0 0 0 0 0 0

Total # of neighbors = 718
Ave neighs/atom = 8.7561
Neighbor list builds = 0
Dangerous builds = 0
        # write_dump all atom ${dumpfile}
        next i
jump SELF loop1
        displace_atoms upper move ${xstep1} 0.0 0.0 units lattice
        displace_atoms upper move 0.00333333333333333 0.0 0.0 units lattice
        min_style ${style}
        min_style cg
        minimize ${etol} ${ftol} ${maxiter} ${maxeval}
        minimize 1e-12 ${ftol} ${maxiter} ${maxeval}
        minimize 1e-12 1e-08 ${maxiter} ${maxeval}
        minimize 1e-12 1e-08 10000 ${maxeval}
        minimize 1e-12 1e-08 10000 20000
WARNING: Resetting reneighboring criteria during minimization (../min.cpp:168)
Memory usage per processor = 3.35169 Mbytes
Step Temp PotEng Lx Ly Lz 
      20            0   -241.98292    2.2449075    38.890775    1.1224537 
      21            0   -241.98292    2.2449075    38.890775    1.1224537 
Loop time of 0.000354001 on 1 procs for 1 steps with 82 atoms

Minimization stats:
  Stopping criterion = linesearch alpha is zero
  Energy initial, next-to-last, final = 
        -241.982915772     -241.982915772     -241.982915772
  Force two-norm initial, final = 0.0246763 0.0246763
  Force max component initial, final = 0.00985142 0.00985142
  Final line search alpha, max atom move = 1.52588e-05 1.50321e-07
  Iterations, force evaluations = 1 17

Pair  time (%) = 0.000285975 (80.7836)
Neigh time (%) = 0 (0)
Comm  time (%) = 3.03978e-05 (8.58691)
Outpt time (%) = 0 (0)
Other time (%) = 3.76286e-05 (10.6295)

Nlocal:    82 ave 82 max 82 min
Histogram: 1 0 0 0 0 0 0 0 0 0
Nghost:    185 ave 185 max 185 min
Histogram: 1 0 0 0 0 0 0 0 0 0
Neighs:    718 ave 718 max 718 min
Histogram: 1 0 0 0 0 0 0 0 0 0

Total # of neighbors = 718
Ave neighs/atom = 8.7561
Neighbor list builds = 0
Dangerous builds = 0
        # write_dump all atom ${dumpfile}
        next i
jump SELF loop1
        displace_atoms upper move ${xstep1} 0.0 0.0 units lattice
        displace_atoms upper move 0.00333333333333333 0.0 0.0 units lattice
        min_style ${style}
        min_style cg
        minimize ${etol} ${ftol} ${maxiter} ${maxeval}
        minimize 1e-12 ${ftol} ${maxiter} ${maxeval}
        minimize 1e-12 1e-08 ${maxiter} ${maxeval}
        minimize 1e-12 1e-08 10000 ${maxeval}
        minimize 1e-12 1e-08 10000 20000
WARNING: Resetting reneighboring criteria during minimization (../min.cpp:168)
Memory usage per processor = 3.35169 Mbytes
Step Temp PotEng Lx Ly Lz 
      21            0   -241.97937    2.2449075    38.890775    1.1224537 
      22            0   -241.97939    2.2449075    38.890775    1.1224537 
      23            0   -241.97939    2.2449075    38.890775    1.1224537 
Loop time of 0.00091899 on 1 procs for 2 steps with 82 atoms

Minimization stats:
  Stopping criterion = linesearch alpha is zero
  Energy initial, next-to-last, final = 
        -241.979374756      -241.97939259      -241.97939259
  Force two-norm initial, final = 0.0466418 0.034314
  Force max component initial, final = 0.0206625 0.0127603
  Final line search alpha, max atom move = 7.62939e-06 9.73532e-08
  Iterations, force evaluations = 2 25

Pair  time (%) = 0.000811747 (88.3303)
Neigh time (%) = 0 (0)
Comm  time (%) = 3.85804e-05 (4.19813)
Outpt time (%) = 6.94592e-06 (0.755821)
Other time (%) = 6.17171e-05 (6.71575)

Nlocal:    82 ave 82 max 82 min
Histogram: 1 0 0 0 0 0 0 0 0 0
Nghost:    185 ave 185 max 185 min
Histogram: 1 0 0 0 0 0 0 0 0 0
Neighs:    718 ave 718 max 718 min
Histogram: 1 0 0 0 0 0 0 0 0 0

Total # of neighbors = 718
Ave neighs/atom = 8.7561
Neighbor list builds = 0
Dangerous builds = 0
        # write_dump all atom ${dumpfile}
        next i
jump SELF loop1
        displace_atoms upper move ${xstep1} 0.0 0.0 units lattice
        displace_atoms upper move 0.00333333333333333 0.0 0.0 units lattice
        min_style ${style}
        min_style cg
        minimize ${etol} ${ftol} ${maxiter} ${maxeval}
        minimize 1e-12 ${ftol} ${maxiter} ${maxeval}
        minimize 1e-12 1e-08 ${maxiter} ${maxeval}
        minimize 1e-12 1e-08 10000 ${maxeval}
        minimize 1e-12 1e-08 10000 20000
WARNING: Resetting reneighboring criteria during minimization (../min.cpp:168)
Memory usage per processor = 3.35169 Mbytes
Step Temp PotEng Lx Ly Lz 
      23            0   -241.97554    2.2449075    38.890775    1.1224537 
      24            0   -241.97554    2.2449075    38.890775    1.1224537 
Loop time of 0.000358974 on 1 procs for 1 steps with 82 atoms

Minimization stats:
  Stopping criterion = linesearch alpha is zero
  Energy initial, next-to-last, final = 
        -241.975539731     -241.975539731     -241.975539731
  Force two-norm initial, final = 0.0315196 0.0315196
  Force max component initial, final = 0.0127603 0.0127603
  Final line search alpha, max atom move = 7.62939e-06 9.73532e-08
  Iterations, force evaluations = 1 18

Pair  time (%) = 0.000298068 (83.0333)
Neigh time (%) = 0 (0)
Comm  time (%) = 2.29476e-05 (6.39254)
Outpt time (%) = 0 (0)
Other time (%) = 3.79586e-05 (10.5742)

Nlocal:    82 ave 82 max 82 min
Histogram: 1 0 0 0 0 0 0 0 0 0
Nghost:    185 ave 185 max 185 min
Histogram: 1 0 0 0 0 0 0 0 0 0
Neighs:    718 ave 718 max 718 min
Histogram: 1 0 0 0 0 0 0 0 0 0

Total # of neighbors = 718
Ave neighs/atom = 8.7561
Neighbor list builds = 0
Dangerous builds = 0
        # write_dump all atom ${dumpfile}
        next i
jump SELF loop1
        displace_atoms upper move ${xstep1} 0.0 0.0 units lattice
        displace_atoms upper move 0.00333333333333333 0.0 0.0 units lattice
        min_style ${style}
        min_style cg
        minimize ${etol} ${ftol} ${maxiter} ${maxeval}
        minimize 1e-12 ${ftol} ${maxiter} ${maxeval}
        minimize 1e-12 1e-08 ${maxiter} ${maxeval}
        minimize 1e-12 1e-08 10000 ${maxeval}
        minimize 1e-12 1e-08 10000 20000
WARNING: Resetting reneighboring criteria during minimization (../min.cpp:168)
Memory usage per processor = 3.35169 Mbytes
Step Temp PotEng Lx Ly Lz 
      24            0   -241.97136    2.2449075    38.890775    1.1224537 
      25            0   -241.97137    2.2449075    38.890775    1.1224537 
      26            0   -241.97139    2.2449075    38.890775    1.1224537 
      27            0   -241.97139    2.2449075    38.890775    1.1224537 
Loop time of 0.021467 on 1 procs for 3 steps with 82 atoms

Minimization stats:
  Stopping criterion = linesearch alpha is zero
  Energy initial, next-to-last, final = 
         -241.97135677     -241.971390428     -241.971390428
  Force two-norm initial, final = 0.0555587 0.0247818
  Force max component initial, final = 0.0237981 0.0105833
  Final line search alpha, max atom move = 1.52588e-05 1.61488e-07
  Iterations, force evaluations = 3 31

Pair  time (%) = 0.000499281 (2.32581)
Neigh time (%) = 0 (0)
Comm  time (%) = 3.55933e-05 (0.165805)
Outpt time (%) = 1.09905e-05 (0.0511974)
Other time (%) = 0.0209211 (97.4572)

Nlocal:    82 ave 82 max 82 min
Histogram: 1 0 0 0 0 0 0 0 0 0
Nghost:    185 ave 185 max 185 min
Histogram: 1 0 0 0 0 0 0 0 0 0
Neighs:    718 ave 718 max 718 min
Histogram: 1 0 0 0 0 0 0 0 0 0

Total # of neighbors = 718
Ave neighs/atom = 8.7561
Neighbor list builds = 0
Dangerous builds = 0
        # write_dump all atom ${dumpfile}
        next i
jump SELF loop1
        displace_atoms upper move ${xstep1} 0.0 0.0 units lattice
        displace_atoms upper move 0.00333333333333333 0.0 0.0 units lattice
        min_style ${style}
        min_style cg
        minimize ${etol} ${ftol} ${maxiter} ${maxeval}
        minimize 1e-12 ${ftol} ${maxiter} ${maxeval}
        minimize 1e-12 1e-08 ${maxiter} ${maxeval}
        minimize 1e-12 1e-08 10000 ${maxeval}
        minimize 1e-12 1e-08 10000 20000
WARNING: Resetting reneighboring criteria during minimization (../min.cpp:168)
Memory usage per processor = 3.35169 Mbytes
Step Temp PotEng Lx Ly Lz 
      27            0   -241.96691    2.2449075    38.890777    1.1224537 
      28            0   -241.96692    2.2449075    38.890777    1.1224537 
      29            0   -241.96692    2.2449075    38.890777    1.1224537 
Loop time of 0.000502047 on 1 procs for 2 steps with 82 atoms

Minimization stats:
  Stopping criterion = linesearch alpha is zero
  Energy initial, next-to-last, final = 
        -241.966913634     -241.966921469     -241.966921469
  Force two-norm initial, final = 0.0432135 0.022487
  Force max component initial, final = 0.0177113 0.00708053
  Final line search alpha, max atom move = 1.52588e-05 1.0804e-07
  Iterations, force evaluations = 2 25

Pair  time (%) = 0.00040481 (80.632)
Neigh time (%) = 0 (0)
Comm  time (%) = 2.82964e-05 (5.63621)
Outpt time (%) = 6.92869e-06 (1.38009)
Other time (%) = 6.20113e-05 (12.3517)

Nlocal:    82 ave 82 max 82 min
Histogram: 1 0 0 0 0 0 0 0 0 0
Nghost:    185 ave 185 max 185 min
Histogram: 1 0 0 0 0 0 0 0 0 0
Neighs:    718 ave 718 max 718 min
Histogram: 1 0 0 0 0 0 0 0 0 0

Total # of neighbors = 718
Ave neighs/atom = 8.7561
Neighbor list builds = 0
Dangerous builds = 0
        # write_dump all atom ${dumpfile}
        next i
jump SELF loop1
        displace_atoms upper move ${xstep1} 0.0 0.0 units lattice
        displace_atoms upper move 0.00333333333333333 0.0 0.0 units lattice
        min_style ${style}
        min_style cg
        minimize ${etol} ${ftol} ${maxiter} ${maxeval}
        minimize 1e-12 ${ftol} ${maxiter} ${maxeval}
        minimize 1e-12 1e-08 ${maxiter} ${maxeval}
        minimize 1e-12 1e-08 10000 ${maxeval}
        minimize 1e-12 1e-08 10000 20000
WARNING: Resetting reneighboring criteria during minimization (../min.cpp:168)
Memory usage per processor = 3.35169 Mbytes
Step Temp PotEng Lx Ly Lz 
      29            0   -241.96213    2.2449075    38.890778    1.1224537 
      30            0   -241.96214    2.2449075    38.890778    1.1224537 
      31            0   -241.96216    2.2449075    38.890778    1.1224537 
      32            0   -241.96216    2.2449075    38.890778    1.1224537 
Loop time of 0.000343011 on 1 procs for 3 steps with 82 atoms

Minimization stats:
  Stopping criterion = linesearch alpha is zero
  Energy initial, next-to-last, final = 
        -241.962134348      -241.96216146      -241.96216146
  Force two-norm initial, final = 0.0478059 0.0235151
  Force max component initial, final = 0.0211604 0.0100313
  Final line search alpha, max atom move = 1.52588e-05 1.53066e-07
  Iterations, force evaluations = 3 31

Pair  time (%) = 0.000274171 (79.9308)
Neigh time (%) = 0 (0)
Comm  time (%) = 2.33732e-05 (6.81412)
Outpt time (%) = 5.91704e-06 (1.72503)
Other time (%) = 3.95494e-05 (11.5301)

Nlocal:    82 ave 82 max 82 min
Histogram: 1 0 0 0 0 0 0 0 0 0
Nghost:    175 ave 175 max 175 min
Histogram: 1 0 0 0 0 0 0 0 0 0
Neighs:    718 ave 718 max 718 min
Histogram: 1 0 0 0 0 0 0 0 0 0

Total # of neighbors = 718
Ave neighs/atom = 8.7561
Neighbor list builds = 0
Dangerous builds = 0
        # write_dump all atom ${dumpfile}
        next i
jump SELF loop1
        displace_atoms upper move ${xstep1} 0.0 0.0 units lattice
        displace_atoms upper move 0.00333333333333333 0.0 0.0 units lattice
        min_style ${style}
        min_style cg
        minimize ${etol} ${ftol} ${maxiter} ${maxeval}
        minimize 1e-12 ${ftol} ${maxiter} ${maxeval}
        minimize 1e-12 1e-08 ${maxiter} ${maxeval}
        minimize 1e-12 1e-08 10000 ${maxeval}
        minimize 1e-12 1e-08 10000 20000
WARNING: Resetting reneighboring criteria during minimization (../min.cpp:168)
Memory usage per processor = 3.35169 Mbytes
Step Temp PotEng Lx Ly Lz 
      32            0   -241.95708    2.2449075    38.890782    1.1224537 
      33            0   -241.95709    2.2449075    38.890782    1.1224537 
      34            0    -241.9571    2.2449075    38.890782    1.1224537 
      35            0    -241.9571    2.2449075    38.890782    1.1224537 
Loop time of 0.000579014 on 1 procs for 3 steps with 82 atoms

Minimization stats:
  Stopping criterion = linesearch alpha is zero
  Energy initial, next-to-last, final = 
        -241.957082308     -241.957104844     -241.957104844
  Force two-norm initial, final = 0.0480738 0.0216612
  Force max component initial, final = 0.0209688 0.00872372
  Final line search alpha, max atom move = 1.52588e-05 1.33113e-07
  Iterations, force evaluations = 3 31

Pair  time (%) = 0.00046374 (80.0913)
Neigh time (%) = 0 (0)
Comm  time (%) = 3.61265e-05 (6.23931)
Outpt time (%) = 1.18811e-05 (2.05196)
Other time (%) = 6.72668e-05 (11.6175)

Nlocal:    82 ave 82 max 82 min
Histogram: 1 0 0 0 0 0 0 0 0 0
Nghost:    175 ave 175 max 175 min
Histogram: 1 0 0 0 0 0 0 0 0 0
Neighs:    718 ave 718 max 718 min
Histogram: 1 0 0 0 0 0 0 0 0 0

Total # of neighbors = 718
Ave neighs/atom = 8.7561
Neighbor list builds = 0
Dangerous builds = 0
        # write_dump all atom ${dumpfile}
        next i
jump SELF loop1
        displace_atoms upper move ${xstep1} 0.0 0.0 units lattice
        displace_atoms upper move 0.00333333333333333 0.0 0.0 units lattice
        min_style ${style}
        min_style cg
        minimize ${etol} ${ftol} ${maxiter} ${maxeval}
        minimize 1e-12 ${ftol} ${maxiter} ${maxeval}
        minimize 1e-12 1e-08 ${maxiter} ${maxeval}
        minimize 1e-12 1e-08 10000 ${maxeval}
        minimize 1e-12 1e-08 10000 20000
WARNING: Resetting reneighboring criteria during minimization (../min.cpp:168)
Memory usage per processor = 3.35169 Mbytes
Step Temp PotEng Lx Ly Lz 
      35            0   -241.95174    2.2449075    38.890787    1.1224537 
      36            0   -241.95175    2.2449075    38.890787    1.1224537 
      37            0   -241.95176    2.2449075    38.890787    1.1224537 
      38            0   -241.95176    2.2449075    38.890787    1.1224537 
      39            0   -241.95176    2.2449075    38.890787    1.1224537 
Loop time of 0.000743897 on 1 procs for 4 steps with 82 atoms

Minimization stats:
  Stopping criterion = linesearch alpha is zero
  Energy initial, next-to-last, final = 
        -241.951737061     -241.951763094     -241.951763094
  Force two-norm initial, final = 0.0506556 0.0196901
  Force max component initial, final = 0.0229311 0.0073936
  Final line search alpha, max atom move = 3.05176e-05 2.25635e-07
  Iterations, force evaluations = 4 39

Pair  time (%) = 0.000601932 (80.9161)
Neigh time (%) = 0 (0)
Comm  time (%) = 4.46201e-05 (5.99816)
Outpt time (%) = 1.19989e-05 (1.61298)
Other time (%) = 8.53456e-05 (11.4728)

Nlocal:    82 ave 82 max 82 min
Histogram: 1 0 0 0 0 0 0 0 0 0
Nghost:    175 ave 175 max 175 min
Histogram: 1 0 0 0 0 0 0 0 0 0
Neighs:    718 ave 718 max 718 min
Histogram: 1 0 0 0 0 0 0 0 0 0

Total # of neighbors = 718
Ave neighs/atom = 8.7561
Neighbor list builds = 0
Dangerous builds = 0
        # write_dump all atom ${dumpfile}
        next i
jump SELF loop1
        displace_atoms upper move ${xstep1} 0.0 0.0 units lattice
        displace_atoms upper move 0.00333333333333333 0.0 0.0 units lattice
        min_style ${style}
        min_style cg
        minimize ${etol} ${ftol} ${maxiter} ${maxeval}
        minimize 1e-12 ${ftol} ${maxiter} ${maxeval}
        minimize 1e-12 1e-08 ${maxiter} ${maxeval}
        minimize 1e-12 1e-08 10000 ${maxeval}
        minimize 1e-12 1e-08 10000 20000
WARNING: Resetting reneighboring criteria during minimization (../min.cpp:168)
Memory usage per processor = 3.35169 Mbytes
Step Temp PotEng Lx Ly Lz 
      39            0   -241.94612    2.2449075    38.890792    1.1224537 
      40            0   -241.94613    2.2449075    38.890792    1.1224537 
      41            0   -241.94613    2.2449075    38.890792    1.1224537 
      42            0   -241.94613    2.2449075    38.890792    1.1224537 
Loop time of 0.000666893 on 1 procs for 3 steps with 82 atoms

Minimization stats:
  Stopping criterion = linesearch alpha is zero
  Energy initial, next-to-last, final = 
        -241.946117914     -241.946127142     -241.946127142
  Force two-norm initial, final = 0.0496014 0.0254741
  Force max component initial, final = 0.0227631 0.00777791
  Final line search alpha, max atom move = 1.52588e-05 1.18681e-07
  Iterations, force evaluations = 3 35

Pair  time (%) = 0.000540017 (80.9751)
Neigh time (%) = 0 (0)
Comm  time (%) = 3.83947e-05 (5.75725)
Outpt time (%) = 1.50284e-05 (2.25349)
Other time (%) = 7.34528e-05 (11.0142)

Nlocal:    82 ave 82 max 82 min
Histogram: 1 0 0 0 0 0 0 0 0 0
Nghost:    175 ave 175 max 175 min
Histogram: 1 0 0 0 0 0 0 0 0 0
Neighs:    718 ave 718 max 718 min
Histogram: 1 0 0 0 0 0 0 0 0 0

Total # of neighbors = 718
Ave neighs/atom = 8.7561
Neighbor list builds = 0
Dangerous builds = 0
        # write_dump all atom ${dumpfile}
        next i
jump SELF loop1
        displace_atoms upper move ${xstep1} 0.0 0.0 units lattice
        displace_atoms upper move 0.00333333333333333 0.0 0.0 units lattice
        min_style ${style}
        min_style cg
        minimize ${etol} ${ftol} ${maxiter} ${maxeval}
        minimize 1e-12 ${ftol} ${maxiter} ${maxeval}
        minimize 1e-12 1e-08 ${maxiter} ${maxeval}
        minimize 1e-12 1e-08 10000 ${maxeval}
        minimize 1e-12 1e-08 10000 20000
WARNING: Resetting reneighboring criteria during minimization (../min.cpp:168)
Memory usage per processor = 3.35169 Mbytes
Step Temp PotEng Lx Ly Lz 
      42            0   -241.94019    2.2449075    38.890793    1.1224537 
      43            0   -241.94021    2.2449075    38.890793    1.1224537 
      44            0   -241.94023    2.2449075    38.890793    1.1224537 
      45            0   -241.94025    2.2449075    38.890793    1.1224537 
      46            0   -241.94025    2.2449075    38.890793    1.1224537 
      47            0   -241.94025    2.2449075    38.890793    1.1224537 
      48            0   -241.94025    2.2449075    38.890793    1.1224537 
      49            0   -241.94025    2.2449075    38.890793    1.1224537 
      50            0   -241.94025    2.2449075    38.890793    1.1224537 
Loop time of 0.00307301 on 1 procs for 8 steps with 82 atoms

Minimization stats:
  Stopping criterion = linesearch alpha is zero
  Energy initial, next-to-last, final = 
        -241.940191679     -241.940254415     -241.940254415
  Force two-norm initial, final = 0.0662606 0.0177985
  Force max component initial, final = 0.0315576 0.00562012
  Final line search alpha, max atom move = 3.05176e-05 1.71512e-07
  Iterations, force evaluations = 8 83

Pair  time (%) = 0.00256114 (83.3431)
Neigh time (%) = 0 (0)
Comm  time (%) = 0.000258221 (8.40286)
Outpt time (%) = 5.87079e-05 (1.91044)
Other time (%) = 0.000194939 (6.34359)

Nlocal:    82 ave 82 max 82 min
Histogram: 1 0 0 0 0 0 0 0 0 0
Nghost:    175 ave 175 max 175 min
Histogram: 1 0 0 0 0 0 0 0 0 0
Neighs:    718 ave 718 max 718 min
Histogram: 1 0 0 0 0 0 0 0 0 0

Total # of neighbors = 718
Ave neighs/atom = 8.7561
Neighbor list builds = 0
Dangerous builds = 0
        # write_dump all atom ${dumpfile}
        next i
jump SELF loop1
        displace_atoms upper move ${xstep1} 0.0 0.0 units lattice
        displace_atoms upper move 0.00333333333333333 0.0 0.0 units lattice
        min_style ${style}
        min_style cg
        minimize ${etol} ${ftol} ${maxiter} ${maxeval}
        minimize 1e-12 ${ftol} ${maxiter} ${maxeval}
        minimize 1e-12 1e-08 ${maxiter} ${maxeval}
        minimize 1e-12 1e-08 10000 ${maxeval}
        minimize 1e-12 1e-08 10000 20000
WARNING: Resetting reneighboring criteria during minimization (../min.cpp:168)
Memory usage per processor = 3.35169 Mbytes
Step Temp PotEng Lx Ly Lz 
      50            0   -241.93407    2.2449075    38.890802    1.1224537 
      51            0   -241.93407    2.2449075    38.890802    1.1224537 
      52            0   -241.93407    2.2449075    38.890802    1.1224537 
Loop time of 0.000677038 on 1 procs for 2 steps with 82 atoms

Minimization stats:
  Stopping criterion = linesearch alpha is zero
  Energy initial, next-to-last, final = 
        -241.934072662     -241.934074773     -241.934074773
  Force two-norm initial, final = 0.0511985 0.0464616
  Force max component initial, final = 0.0240123 0.0214421
  Final line search alpha, max atom move = 3.8147e-06 8.17952e-08
  Iterations, force evaluations = 2 30

Pair  time (%) = 0.000567708 (83.8517)
Neigh time (%) = 0 (0)
Comm  time (%) = 3.27828e-05 (4.84209)
Outpt time (%) = 5.89213e-06 (0.87028)
Other time (%) = 7.0655e-05 (10.4359)

Nlocal:    82 ave 82 max 82 min
Histogram: 1 0 0 0 0 0 0 0 0 0
Nghost:    175 ave 175 max 175 min
Histogram: 1 0 0 0 0 0 0 0 0 0
Neighs:    718 ave 718 max 718 min
Histogram: 1 0 0 0 0 0 0 0 0 0

Total # of neighbors = 718
Ave neighs/atom = 8.7561
Neighbor list builds = 0
Dangerous builds = 0
        # write_dump all atom ${dumpfile}
        next i
jump SELF loop1
        displace_atoms upper move ${xstep1} 0.0 0.0 units lattice
        displace_atoms upper move 0.00333333333333333 0.0 0.0 units lattice
        min_style ${style}
        min_style cg
        minimize ${etol} ${ftol} ${maxiter} ${maxeval}
        minimize 1e-12 ${ftol} ${maxiter} ${maxeval}
        minimize 1e-12 1e-08 ${maxiter} ${maxeval}
        minimize 1e-12 1e-08 10000 ${maxeval}
        minimize 1e-12 1e-08 10000 20000
WARNING: Resetting reneighboring criteria during minimization (../min.cpp:168)
Memory usage per processor = 3.35169 Mbytes
Step Temp PotEng Lx Ly Lz 
      52            0    -241.9276    2.2449075    38.890802    1.1224537 
      53            0   -241.92763    2.2449075    38.890802    1.1224537 
      54            0   -241.92764    2.2449075    38.890802    1.1224537 
      55            0   -241.92766    2.2449075    38.890802    1.1224537 
      56            0   -241.92769    2.2449075    38.890802    1.1224537 
      57            0    -241.9277    2.2449075    38.890802    1.1224537 
      58            0    -241.9277    2.2449075    38.890802    1.1224537 
      59            0    -241.9277    2.2449075    38.890802    1.1224537 
Loop time of 0.0217701 on 1 procs for 7 steps with 82 atoms

Minimization stats:
  Stopping criterion = linesearch alpha is zero
  Energy initial, next-to-last, final = 
        -241.927598014     -241.927696715     -241.927696715
  Force two-norm initial, final = 0.0962162 0.0159177
  Force max component initial, final = 0.0472703 0.00462707
  Final line search alpha, max atom move = 3.05176e-05 1.41207e-07
  Iterations, force evaluations = 7 60

Pair  time (%) = 0.000957322 (4.39742)
Neigh time (%) = 0 (0)
Comm  time (%) = 0.000103556 (0.47568)
Outpt time (%) = 0.020531 (94.3081)
Other time (%) = 0.000178246 (0.818764)

Nlocal:    82 ave 82 max 82 min
Histogram: 1 0 0 0 0 0 0 0 0 0
Nghost:    175 ave 175 max 175 min
Histogram: 1 0 0 0 0 0 0 0 0 0
Neighs:    718 ave 718 max 718 min
Histogram: 1 0 0 0 0 0 0 0 0 0

Total # of neighbors = 718
Ave neighs/atom = 8.7561
Neighbor list builds = 0
Dangerous builds = 0
        # write_dump all atom ${dumpfile}
        next i
jump SELF loop1
        displace_atoms upper move ${xstep1} 0.0 0.0 units lattice
        displace_atoms upper move 0.00333333333333333 0.0 0.0 units lattice
        min_style ${style}
        min_style cg
        minimize ${etol} ${ftol} ${maxiter} ${maxeval}
        minimize 1e-12 ${ftol} ${maxiter} ${maxeval}
        minimize 1e-12 1e-08 ${maxiter} ${maxeval}
        minimize 1e-12 1e-08 10000 ${maxeval}
        minimize 1e-12 1e-08 10000 20000
WARNING: Resetting reneighboring criteria during minimization (../min.cpp:168)
Memory usage per processor = 3.35169 Mbytes
Step Temp PotEng Lx Ly Lz 
      59            0   -241.92101    2.2449075    38.890815    1.1224537 
      60            0   -241.92101    2.2449075    38.890815    1.1224537 
      61            0   -241.92102    2.2449075    38.890815    1.1224537 
      62            0   -241.92102    2.2449075    38.890815    1.1224537 
      63            0   -241.92103    2.2449075    38.890815    1.1224537 
      64            0   -241.92104    2.2449075    38.890815    1.1224537 
      65            0   -241.92104    2.2449075    38.890815    1.1224537 
      66            0   -241.92104    2.2449075    38.890815    1.1224537 
Loop time of 0.000928071 on 1 procs for 7 steps with 82 atoms

Minimization stats:
  Stopping criterion = linesearch alpha is zero
  Energy initial, next-to-last, final = 
        -241.921007176     -241.921044599     -241.921044599
  Force two-norm initial, final = 0.0536834 0.0174456
  Force max component initial, final = 0.0256528 0.00508886
  Final line search alpha, max atom move = 3.05176e-05 1.553e-07
  Iterations, force evaluations = 7 59

Pair  time (%) = 0.000731683 (78.8391)
Neigh time (%) = 0 (0)
Comm  time (%) = 5.79194e-05 (6.24084)
Outpt time (%) = 2.23503e-05 (2.40826)
Other time (%) = 0.000116118 (12.5118)

Nlocal:    82 ave 82 max 82 min
Histogram: 1 0 0 0 0 0 0 0 0 0
Nghost:    175 ave 175 max 175 min
Histogram: 1 0 0 0 0 0 0 0 0 0
Neighs:    718 ave 718 max 718 min
Histogram: 1 0 0 0 0 0 0 0 0 0

Total # of neighbors = 718
Ave neighs/atom = 8.7561
Neighbor list builds = 0
Dangerous builds = 0
        # write_dump all atom ${dumpfile}
        next i
jump SELF loop1
        displace_atoms upper move ${xstep1} 0.0 0.0 units lattice
        displace_atoms upper move 0.00333333333333333 0.0 0.0 units lattice
        min_style ${style}
        min_style cg
        minimize ${etol} ${ftol} ${maxiter} ${maxeval}
        minimize 1e-12 ${ftol} ${maxiter} ${maxeval}
        minimize 1e-12 1e-08 ${maxiter} ${maxeval}
        minimize 1e-12 1e-08 10000 ${maxeval}
        minimize 1e-12 1e-08 10000 20000
WARNING: Resetting reneighboring criteria during minimization (../min.cpp:168)
Memory usage per processor = 3.35169 Mbytes
Step Temp PotEng Lx Ly Lz 
      66            0   -241.91412    2.2449075    38.890835    1.1224537 
      67            0   -241.91413    2.2449075    38.890835    1.1224537 
      68            0   -241.91413    2.2449075    38.890835    1.1224537 
Loop time of 0.000522988 on 1 procs for 2 steps with 82 atoms

Minimization stats:
  Stopping criterion = linesearch alpha is zero
  Energy initial, next-to-last, final = 
        -241.914120802     -241.914130392     -241.914130392
  Force two-norm initial, final = 0.0593545 0.0345142
  Force max component initial, final = 0.0283807 0.0156631
  Final line search alpha, max atom move = 7.62939e-06 1.195e-07
  Iterations, force evaluations = 2 27

Pair  time (%) = 0.000425845 (81.4254)
Neigh time (%) = 0 (0)
Comm  time (%) = 3.65303e-05 (6.98493)
Outpt time (%) = 9.10822e-06 (1.74157)
Other time (%) = 5.15045e-05 (9.84812)

Nlocal:    82 ave 82 max 82 min
Histogram: 1 0 0 0 0 0 0 0 0 0
Nghost:    175 ave 175 max 175 min
Histogram: 1 0 0 0 0 0 0 0 0 0
Neighs:    718 ave 718 max 718 min
Histogram: 1 0 0 0 0 0 0 0 0 0

Total # of neighbors = 718
Ave neighs/atom = 8.7561
Neighbor list builds = 0
Dangerous builds = 0
        # write_dump all atom ${dumpfile}
        next i
jump SELF loop1
        displace_atoms upper move ${xstep1} 0.0 0.0 units lattice
        displace_atoms upper move 0.00333333333333333 0.0 0.0 units lattice
        min_style ${style}
        min_style cg
        minimize ${etol} ${ftol} ${maxiter} ${maxeval}
        minimize 1e-12 ${ftol} ${maxiter} ${maxeval}
        minimize 1e-12 1e-08 ${maxiter} ${maxeval}
        minimize 1e-12 1e-08 10000 ${maxeval}
        minimize 1e-12 1e-08 10000 20000
WARNING: Resetting reneighboring criteria during minimization (../min.cpp:168)
Memory usage per processor = 3.35169 Mbytes
Step Temp PotEng Lx Ly Lz 
      68            0   -241.90694    2.2449075    38.890836    1.1224537 
      69            0   -241.90697    2.2449075    38.890836    1.1224537 
      70            0   -241.90698    2.2449075    38.890836    1.1224537 
      71            0   -241.90699    2.2449075    38.890836    1.1224537 
      72            0   -241.90702    2.2449075    38.890836    1.1224537 
      73            0   -241.90702    2.2449075    38.890836    1.1224537 
      74            0   -241.90703    2.2449075    38.890836    1.1224537 
      75            0   -241.90703    2.2449075    38.890836    1.1224537 
      76            0   -241.90703    2.2449075    38.890836    1.1224537 
      77            0   -241.90703    2.2449075    38.890836    1.1224537 
Loop time of 0.00141904 on 1 procs for 9 steps with 82 atoms

Minimization stats:
  Stopping criterion = linesearch alpha is zero
  Energy initial, next-to-last, final = 
        -241.906941744     -241.907029283     -241.907029283
  Force two-norm initial, final = 0.0895214 0.0131876
  Force max component initial, final = 0.0441709 0.00259568
  Final line search alpha, max atom move = 6.10352e-05 1.58428e-07
  Iterations, force evaluations = 9 73

Pair  time (%) = 0.00112845 (79.5216)
Neigh time (%) = 0 (0)
Comm  time (%) = 8.8462e-05 (6.23391)
Outpt time (%) = 5.08621e-05 (3.58425)
Other time (%) = 0.000151273 (10.6602)

Nlocal:    82 ave 82 max 82 min
Histogram: 1 0 0 0 0 0 0 0 0 0
Nghost:    175 ave 175 max 175 min
Histogram: 1 0 0 0 0 0 0 0 0 0
Neighs:    718 ave 718 max 718 min
Histogram: 1 0 0 0 0 0 0 0 0 0

Total # of neighbors = 718
Ave neighs/atom = 8.7561
Neighbor list builds = 0
Dangerous builds = 0
        # write_dump all atom ${dumpfile}
        next i
jump SELF loop1
        displace_atoms upper move ${xstep1} 0.0 0.0 units lattice
        displace_atoms upper move 0.00333333333333333 0.0 0.0 units lattice
        min_style ${style}
        min_style cg
        minimize ${etol} ${ftol} ${maxiter} ${maxeval}
        minimize 1e-12 ${ftol} ${maxiter} ${maxeval}
        minimize 1e-12 1e-08 ${maxiter} ${maxeval}
        minimize 1e-12 1e-08 10000 ${maxeval}
        minimize 1e-12 1e-08 10000 20000
WARNING: Resetting reneighboring criteria during minimization (../min.cpp:168)
Memory usage per processor = 3.35169 Mbytes
Step Temp PotEng Lx Ly Lz 
      77            0   -241.89964    2.2449075     38.89088    1.1224537 
      78            0   -241.89965    2.2449075     38.89088    1.1224537 
      79            0   -241.89966    2.2449075     38.89088    1.1224537 
      80            0   -241.89966    2.2449075     38.89088    1.1224537 
      81            0   -241.89966    2.2449075     38.89088    1.1224537 
      82            0   -241.89967    2.2449075     38.89088    1.1224537 
      83            0   -241.89968    2.2449075     38.89088    1.1224537 
      84            0   -241.89969    2.2449075     38.89088    1.1224537 
      85            0    -241.8997    2.2449075     38.89088    1.1224537 
      86            0    -241.8997    2.2449075     38.89088    1.1224537 
      87            0    -241.8997    2.2449075     38.89088    1.1224537 
Loop time of 0.00214206 on 1 procs for 10 steps with 82 atoms

Minimization stats:
  Stopping criterion = linesearch alpha is zero
  Energy initial, next-to-last, final = 
        -241.899644433     -241.899698205     -241.899698205
  Force two-norm initial, final = 0.0647578 0.0132506
  Force max component initial, final = 0.0317191 0.00292995
  Final line search alpha, max atom move = 6.10352e-05 1.7883e-07
  Iterations, force evaluations = 10 87

Pair  time (%) = 0.00177689 (82.9524)
Neigh time (%) = 0 (0)
Comm  time (%) = 0.000125509 (5.85925)
Outpt time (%) = 6.0919e-05 (2.84394)
Other time (%) = 0.000178742 (8.34437)

Nlocal:    82 ave 82 max 82 min
Histogram: 1 0 0 0 0 0 0 0 0 0
Nghost:    175 ave 175 max 175 min
Histogram: 1 0 0 0 0 0 0 0 0 0
Neighs:    714 ave 714 max 714 min
Histogram: 1 0 0 0 0 0 0 0 0 0

Total # of neighbors = 714
Ave neighs/atom = 8.70732
Neighbor list builds = 0
Dangerous builds = 0
        # write_dump all atom ${dumpfile}
        next i
jump SELF loop1
        displace_atoms upper move ${xstep1} 0.0 0.0 units lattice
        displace_atoms upper move 0.00333333333333333 0.0 0.0 units lattice
        min_style ${style}
        min_style cg
        minimize ${etol} ${ftol} ${maxiter} ${maxeval}
        minimize 1e-12 ${ftol} ${maxiter} ${maxeval}
        minimize 1e-12 1e-08 ${maxiter} ${maxeval}
        minimize 1e-12 1e-08 10000 ${maxeval}
        minimize 1e-12 1e-08 10000 20000
WARNING: Resetting reneighboring criteria during minimization (../min.cpp:168)
Memory usage per processor = 3.35169 Mbytes
Step Temp PotEng Lx Ly Lz 
      87            0   -241.89211    2.2449075    38.890979    1.1224537 
      88            0   -241.89213    2.2449075    38.890979    1.1224537 
      89            0   -241.89213    2.2449075    38.890979    1.1224537 
      90            0   -241.89214    2.2449075    38.890979    1.1224537 
      91            0   -241.89215    2.2449075    38.890979    1.1224537 
      92            0   -241.89216    2.2449075    38.890979    1.1224537 
      93            0   -241.89217    2.2449075    38.890979    1.1224537 
      94            0   -241.89218    2.2449075    38.890979    1.1224537 
      95            0   -241.89218    2.2449075    38.890979    1.1224537 
Loop time of 0.00112911 on 1 procs for 8 steps with 82 atoms

Minimization stats:
  Stopping criterion = linesearch alpha is zero
  Energy initial, next-to-last, final = 
        -241.892113813     -241.892175751     -241.892175751
  Force two-norm initial, final = 0.0630251 0.0171442
  Force max component initial, final = 0.0308215 0.00483898
  Final line search alpha, max atom move = 3.05176e-05 1.47674e-07
  Iterations, force evaluations = 8 64

Pair  time (%) = 0.000893735 (79.1542)
Neigh time (%) = 0 (0)
Comm  time (%) = 6.51359e-05 (5.76881)
Outpt time (%) = 4.18744e-05 (3.70863)
Other time (%) = 0.00012836 (11.3683)

Nlocal:    82 ave 82 max 82 min
Histogram: 1 0 0 0 0 0 0 0 0 0
Nghost:    175 ave 175 max 175 min
Histogram: 1 0 0 0 0 0 0 0 0 0
Neighs:    714 ave 714 max 714 min
Histogram: 1 0 0 0 0 0 0 0 0 0

Total # of neighbors = 714
Ave neighs/atom = 8.70732
Neighbor list builds = 0
Dangerous builds = 0
        # write_dump all atom ${dumpfile}
        next i
jump SELF loop1
        displace_atoms upper move ${xstep1} 0.0 0.0 units lattice
        displace_atoms upper move 0.00333333333333333 0.0 0.0 units lattice
        min_style ${style}
        min_style cg
        minimize ${etol} ${ftol} ${maxiter} ${maxeval}
        minimize 1e-12 ${ftol} ${maxiter} ${maxeval}
        minimize 1e-12 1e-08 ${maxiter} ${maxeval}
        minimize 1e-12 1e-08 10000 ${maxeval}
        minimize 1e-12 1e-08 10000 20000
WARNING: Resetting reneighboring criteria during minimization (../min.cpp:168)
Memory usage per processor = 3.35169 Mbytes
Step Temp PotEng Lx Ly Lz 
      95            0   -241.88442    2.2449075    38.891346    1.1224537 
      96            0   -241.88444    2.2449075    38.891346    1.1224537 
      97            0   -241.88444    2.2449075    38.891346    1.1224537 
      98            0   -241.88445    2.2449075    38.891346    1.1224537 
      99            0   -241.88445    2.2449075    38.891346    1.1224537 
Loop time of 0.000731891 on 1 procs for 4 steps with 82 atoms

Minimization stats:
  Stopping criterion = linesearch alpha is zero
  Energy initial, next-to-last, final = 
        -241.884415375     -241.884447768     -241.884447768
  Force two-norm initial, final = 0.066129 0.0205636
  Force max component initial, final = 0.0319351 0.00609308
  Final line search alpha, max atom move = 1.52588e-05 9.2973e-08
  Iterations, force evaluations = 4 38

Pair  time (%) = 0.000588324 (80.3841)
Neigh time (%) = 0 (0)
Comm  time (%) = 4.51859e-05 (6.17386)
Outpt time (%) = 1.62263e-05 (2.21704)
Other time (%) = 8.21545e-05 (11.225)

Nlocal:    82 ave 82 max 82 min
Histogram: 1 0 0 0 0 0 0 0 0 0
Nghost:    175 ave 175 max 175 min
Histogram: 1 0 0 0 0 0 0 0 0 0
Neighs:    714 ave 714 max 714 min
Histogram: 1 0 0 0 0 0 0 0 0 0

Total # of neighbors = 714
Ave neighs/atom = 8.70732
Neighbor list builds = 0
Dangerous builds = 0
        # write_dump all atom ${dumpfile}
        next i
jump SELF loop1
        displace_atoms upper move ${xstep1} 0.0 0.0 units lattice
        displace_atoms upper move 0.00333333333333333 0.0 0.0 units lattice
        min_style ${style}
        min_style cg
        minimize ${etol} ${ftol} ${maxiter} ${maxeval}
        minimize 1e-12 ${ftol} ${maxiter} ${maxeval}
        minimize 1e-12 1e-08 ${maxiter} ${maxeval}
        minimize 1e-12 1e-08 10000 ${maxeval}
        minimize 1e-12 1e-08 10000 20000
WARNING: Resetting reneighboring criteria during minimization (../min.cpp:168)
Memory usage per processor = 3.35169 Mbytes
Step Temp PotEng Lx Ly Lz 
      99            0   -241.87649    2.2449075    38.891443    1.1224537 
     100            0    -241.8765    2.2449075    38.891443    1.1224537 
     101            0    -241.8765    2.2449075    38.891443    1.1224537 
     102            0   -241.87651    2.2449075    38.891443    1.1224537 
     103            0   -241.87651    2.2449075    38.891443    1.1224537 
     104            0   -241.87652    2.2449075    38.891443    1.1224537 
     105            0   -241.87653    2.2449075    38.891443    1.1224537 
     106            0   -241.87654    2.2449075    38.891443    1.1224537 
     107            0   -241.87655    2.2449075    38.891443    1.1224537 
     108            0   -241.87655    2.2449075    38.891443    1.1224537 
Loop time of 0.020166 on 1 procs for 9 steps with 82 atoms

Minimization stats:
  Stopping criterion = linesearch alpha is zero
  Energy initial, next-to-last, final = 
         -241.87649315      -241.87655234      -241.87655234
  Force two-norm initial, final = 0.0562852 0.0206954
  Force max component initial, final = 0.0267475 0.00636775
  Final line search alpha, max atom move = 1.52588e-05 9.71642e-08
  Iterations, force evaluations = 9 75

Pair  time (%) = 0.0011265 (5.58615)
Neigh time (%) = 0 (0)
Comm  time (%) = 8.35259e-05 (0.414192)
Outpt time (%) = 4.70693e-05 (0.233409)
Other time (%) = 0.0189089 (93.7663)

Nlocal:    82 ave 82 max 82 min
Histogram: 1 0 0 0 0 0 0 0 0 0
Nghost:    175 ave 175 max 175 min
Histogram: 1 0 0 0 0 0 0 0 0 0
Neighs:    714 ave 714 max 714 min
Histogram: 1 0 0 0 0 0 0 0 0 0

Total # of neighbors = 714
Ave neighs/atom = 8.70732
Neighbor list builds = 0
Dangerous builds = 0
        # write_dump all atom ${dumpfile}
        next i
jump SELF loop1
        displace_atoms upper move ${xstep1} 0.0 0.0 units lattice
        displace_atoms upper move 0.00333333333333333 0.0 0.0 units lattice
        min_style ${style}
        min_style cg
        minimize ${etol} ${ftol} ${maxiter} ${maxeval}
        minimize 1e-12 ${ftol} ${maxiter} ${maxeval}
        minimize 1e-12 1e-08 ${maxiter} ${maxeval}
        minimize 1e-12 1e-08 10000 ${maxeval}
        minimize 1e-12 1e-08 10000 20000
WARNING: Resetting reneighboring criteria during minimization (../min.cpp:168)
Memory usage per processor = 3.35169 Mbytes
Step Temp PotEng Lx Ly Lz 
     108            0   -241.86842    2.2449075    38.892302    1.1224537 
     109            0   -241.86844    2.2449075    38.892302    1.1224537 
     110            0   -241.86845    2.2449075    38.892302    1.1224537 
     111            0   -241.86845    2.2449075    38.892302    1.1224537 
     112            0   -241.86846    2.2449075    38.892302    1.1224537 
     113            0   -241.86846    2.2449075    38.892302    1.1224537 
Loop time of 0.000958949 on 1 procs for 5 steps with 82 atoms

Minimization stats:
  Stopping criterion = linesearch alpha is zero
  Energy initial, next-to-last, final = 
        -241.868424965     -241.868455387     -241.868455387
  Force two-norm initial, final = 0.0575414 0.0166124
  Force max component initial, final = 0.0273086 0.00442985
  Final line search alpha, max atom move = 3.05176e-05 1.35188e-07
  Iterations, force evaluations = 5 45

Pair  time (%) = 0.000732612 (76.3974)
Neigh time (%) = 0 (0)
Comm  time (%) = 5.54854e-05 (5.78607)
Outpt time (%) = 2.70825e-05 (2.82419)
Other time (%) = 0.000143769 (14.9924)

Nlocal:    82 ave 82 max 82 min
Histogram: 1 0 0 0 0 0 0 0 0 0
Nghost:    175 ave 175 max 175 min
Histogram: 1 0 0 0 0 0 0 0 0 0
Neighs:    714 ave 714 max 714 min
Histogram: 1 0 0 0 0 0 0 0 0 0

Total # of neighbors = 714
Ave neighs/atom = 8.70732
Neighbor list builds = 0
Dangerous builds = 0
        # write_dump all atom ${dumpfile}
        next i
jump SELF loop1
        displace_atoms upper move ${xstep1} 0.0 0.0 units lattice
        displace_atoms upper move 0.00333333333333333 0.0 0.0 units lattice
        min_style ${style}
        min_style cg
        minimize ${etol} ${ftol} ${maxiter} ${maxeval}
        minimize 1e-12 ${ftol} ${maxiter} ${maxeval}
        minimize 1e-12 1e-08 ${maxiter} ${maxeval}
        minimize 1e-12 1e-08 10000 ${maxeval}
        minimize 1e-12 1e-08 10000 20000
WARNING: Resetting reneighboring criteria during minimization (../min.cpp:168)
Memory usage per processor = 3.35169 Mbytes
Step Temp PotEng Lx Ly Lz 
     113            0   -241.86013    2.2449075    38.892486    1.1224537 
     114            0   -241.86014    2.2449075    38.892486    1.1224537 
     115            0   -241.86015    2.2449075    38.892486    1.1224537 
     116            0   -241.86016    2.2449075    38.892486    1.1224537 
     117            0   -241.86017    2.2449075    38.892486    1.1224537 
     118            0   -241.86018    2.2449075    38.892486    1.1224537 
     119            0   -241.86019    2.2449075    38.892486    1.1224537 
     120            0   -241.86019    2.2449075    38.892486    1.1224537 
     121            0   -241.86019    2.2449075    38.892486    1.1224537 
Loop time of 0.00132911 on 1 procs for 8 steps with 82 atoms

Minimization stats:
  Stopping criterion = linesearch alpha is zero
  Energy initial, next-to-last, final = 
        -241.860128307     -241.860190635     -241.860190635
  Force two-norm initial, final = 0.0634658 0.025468
  Force max component initial, final = 0.0306923 0.00600535
  Final line search alpha, max atom move = 1.52588e-05 9.16343e-08
  Iterations, force evaluations = 8 65

Pair  time (%) = 0.00104983 (78.9877)
Neigh time (%) = 0 (0)
Comm  time (%) = 8.18039e-05 (6.15479)
Outpt time (%) = 5.37445e-05 (4.04365)
Other time (%) = 0.000143728 (10.8139)

Nlocal:    82 ave 82 max 82 min
Histogram: 1 0 0 0 0 0 0 0 0 0
Nghost:    175 ave 175 max 175 min
Histogram: 1 0 0 0 0 0 0 0 0 0
Neighs:    714 ave 714 max 714 min
Histogram: 1 0 0 0 0 0 0 0 0 0

Total # of neighbors = 714
Ave neighs/atom = 8.70732
Neighbor list builds = 0
Dangerous builds = 0
        # write_dump all atom ${dumpfile}
        next i
jump SELF loop1
        displace_atoms upper move ${xstep1} 0.0 0.0 units lattice
        displace_atoms upper move 0.00333333333333333 0.0 0.0 units lattice
        min_style ${style}
        min_style cg
        minimize ${etol} ${ftol} ${maxiter} ${maxeval}
        minimize 1e-12 ${ftol} ${maxiter} ${maxeval}
        minimize 1e-12 1e-08 ${maxiter} ${maxeval}
        minimize 1e-12 1e-08 10000 ${maxeval}
        minimize 1e-12 1e-08 10000 20000
WARNING: Resetting reneighboring criteria during minimization (../min.cpp:168)
Memory usage per processor = 3.35169 Mbytes
Step Temp PotEng Lx Ly Lz 
     121            0   -241.85169    2.2449075    38.893216    1.1224537 
     122            0   -241.85171    2.2449075    38.893216    1.1224537 
     123            0   -241.85171    2.2449075    38.893216    1.1224537 
     124            0   -241.85172    2.2449075    38.893216    1.1224537 
     125            0   -241.85173    2.2449075    38.893216    1.1224537 
     126            0   -241.85175    2.2449075    38.893216    1.1224537 
     127            0   -241.85176    2.2449075    38.893216    1.1224537 
     128            0   -241.85176    2.2449075    38.893216    1.1224537 
     129            0   -241.85176    2.2449075    38.893216    1.1224537 
Loop time of 0.00130498 on 1 procs for 8 steps with 82 atoms

Minimization stats:
  Stopping criterion = linesearch alpha is zero
  Energy initial, next-to-last, final = 
        -241.851689237     -241.851758531     -241.851758531
  Force two-norm initial, final = 0.062864 0.01765
  Force max component initial, final = 0.0290014 0.00438099
  Final line search alpha, max atom move = 3.05176e-05 1.33697e-07
  Iterations, force evaluations = 8 64

Pair  time (%) = 0.00104436 (80.0285)
Neigh time (%) = 0 (0)
Comm  time (%) = 7.7042e-05 (5.9037)
Outpt time (%) = 4.2795e-05 (3.27936)
Other time (%) = 0.000140787 (10.7884)

Nlocal:    82 ave 82 max 82 min
Histogram: 1 0 0 0 0 0 0 0 0 0
Nghost:    175 ave 175 max 175 min
Histogram: 1 0 0 0 0 0 0 0 0 0
Neighs:    714 ave 714 max 714 min
Histogram: 1 0 0 0 0 0 0 0 0 0

Total # of neighbors = 714
Ave neighs/atom = 8.70732
Neighbor list builds = 0
Dangerous builds = 0
        # write_dump all atom ${dumpfile}
        next i
jump SELF loop1
        displace_atoms upper move ${xstep1} 0.0 0.0 units lattice
        displace_atoms upper move 0.00333333333333333 0.0 0.0 units lattice
        min_style ${style}
        min_style cg
        minimize ${etol} ${ftol} ${maxiter} ${maxeval}
        minimize 1e-12 ${ftol} ${maxiter} ${maxeval}
        minimize 1e-12 1e-08 ${maxiter} ${maxeval}
        minimize 1e-12 1e-08 10000 ${maxeval}
        minimize 1e-12 1e-08 10000 20000
WARNING: Resetting reneighboring criteria during minimization (../min.cpp:168)
Memory usage per processor = 3.35169 Mbytes
Step Temp PotEng Lx Ly Lz 
     129            0    -241.8431    2.2449075    38.894277    1.1224537 
     130            0   -241.84312    2.2449075    38.894277    1.1224537 
     131            0   -241.84313    2.2449075    38.894277    1.1224537 
     132            0   -241.84313    2.2449075    38.894277    1.1224537 
     133            0   -241.84313    2.2449075    38.894277    1.1224537 
Loop time of 0.00146108 on 1 procs for 4 steps with 82 atoms

Minimization stats:
  Stopping criterion = linesearch alpha is zero
  Energy initial, next-to-last, final = 
         -241.84309539      -241.84312779      -241.84312779
  Force two-norm initial, final = 0.0663082 0.0121541
  Force max component initial, final = 0.0319877 0.00262816
  Final line search alpha, max atom move = 6.10352e-05 1.6041e-07
  Iterations, force evaluations = 4 37

Pair  time (%) = 0.00111797 (76.5167)
Neigh time (%) = 0 (0)
Comm  time (%) = 0.000146791 (10.0468)
Outpt time (%) = 1.70128e-05 (1.1644)
Other time (%) = 0.000179307 (12.2722)

Nlocal:    82 ave 82 max 82 min
Histogram: 1 0 0 0 0 0 0 0 0 0
Nghost:    175 ave 175 max 175 min
Histogram: 1 0 0 0 0 0 0 0 0 0
Neighs:    714 ave 714 max 714 min
Histogram: 1 0 0 0 0 0 0 0 0 0

Total # of neighbors = 714
Ave neighs/atom = 8.70732
Neighbor list builds = 0
Dangerous builds = 0
        # write_dump all atom ${dumpfile}
        next i
jump SELF loop1
        displace_atoms upper move ${xstep1} 0.0 0.0 units lattice
        displace_atoms upper move 0.00333333333333333 0.0 0.0 units lattice
        min_style ${style}
        min_style cg
        minimize ${etol} ${ftol} ${maxiter} ${maxeval}
        minimize 1e-12 ${ftol} ${maxiter} ${maxeval}
        minimize 1e-12 1e-08 ${maxiter} ${maxeval}
        minimize 1e-12 1e-08 10000 ${maxeval}
        minimize 1e-12 1e-08 10000 20000
WARNING: Resetting reneighboring criteria during minimization (../min.cpp:168)
Memory usage per processor = 3.35169 Mbytes
Step Temp PotEng Lx Ly Lz 
     133            0   -241.83429    2.2449075    38.894388    1.1224537 
     134            0   -241.83429    2.2449075    38.894388    1.1224537 
     135            0   -241.83429    2.2449075    38.894388    1.1224537 
     136            0   -241.83429    2.2449075    38.894388    1.1224537 
     137            0   -241.83429    2.2449075    38.894388    1.1224537 
Loop time of 0.0014889 on 1 procs for 4 steps with 82 atoms

Minimization stats:
  Stopping criterion = linesearch alpha is zero
  Energy initial, next-to-last, final = 
         -241.83428626     -241.834291444     -241.834291444
  Force two-norm initial, final = 0.063281 0.0495507
  Force max component initial, final = 0.0311379 0.0239698
  Final line search alpha, max atom move = 3.8147e-06 9.14373e-08
  Iterations, force evaluations = 4 59

Pair  time (%) = 0.00122928 (82.5629)
Neigh time (%) = 0 (0)
Comm  time (%) = 8.65287e-05 (5.81158)
Outpt time (%) = 3.08185e-05 (2.06988)
Other time (%) = 0.000142274 (9.55562)

Nlocal:    82 ave 82 max 82 min
Histogram: 1 0 0 0 0 0 0 0 0 0
Nghost:    175 ave 175 max 175 min
Histogram: 1 0 0 0 0 0 0 0 0 0
Neighs:    714 ave 714 max 714 min
Histogram: 1 0 0 0 0 0 0 0 0 0

Total # of neighbors = 714
Ave neighs/atom = 8.70732
Neighbor list builds = 0
Dangerous builds = 0
        # write_dump all atom ${dumpfile}
        next i
jump SELF loop1
        displace_atoms upper move ${xstep1} 0.0 0.0 units lattice
        displace_atoms upper move 0.00333333333333333 0.0 0.0 units lattice
        min_style ${style}
        min_style cg
        minimize ${etol} ${ftol} ${maxiter} ${maxeval}
        minimize 1e-12 ${ftol} ${maxiter} ${maxeval}
        minimize 1e-12 1e-08 ${maxiter} ${maxeval}
        minimize 1e-12 1e-08 10000 ${maxeval}
        minimize 1e-12 1e-08 10000 20000
WARNING: Resetting reneighboring criteria during minimization (../min.cpp:168)
Memory usage per processor = 3.35169 Mbytes
Step Temp PotEng Lx Ly Lz 
     137            0   -241.82523    2.2449075    38.894393    1.1224537 
     138            0   -241.82529    2.2449075    38.894393    1.1224537 
     139            0   -241.82529    2.2449075    38.894393    1.1224537 
     140            0   -241.82529    2.2449075    38.894393    1.1224537 
Loop time of 0.000852094 on 1 procs for 3 steps with 82 atoms

Minimization stats:
  Stopping criterion = linesearch alpha is zero
  Energy initial, next-to-last, final = 
         -241.82523188     -241.825293316     -241.825293316
  Force two-norm initial, final = 0.116121 0.0375694
  Force max component initial, final = 0.0577295 0.0162625
  Final line search alpha, max atom move = 7.62939e-06 1.24073e-07
  Iterations, force evaluations = 3 36

Pair  time (%) = 0.00058102 (68.1872)
Neigh time (%) = 0 (0)
Comm  time (%) = 4.59419e-05 (5.39165)
Outpt time (%) = 1.59694e-05 (1.87413)
Other time (%) = 0.000209164 (24.547)

Nlocal:    82 ave 82 max 82 min
Histogram: 1 0 0 0 0 0 0 0 0 0
Nghost:    175 ave 175 max 175 min
Histogram: 1 0 0 0 0 0 0 0 0 0
Neighs:    714 ave 714 max 714 min
Histogram: 1 0 0 0 0 0 0 0 0 0

Total # of neighbors = 714
Ave neighs/atom = 8.70732
Neighbor list builds = 0
Dangerous builds = 0
        # write_dump all atom ${dumpfile}
        next i
jump SELF loop1
        displace_atoms upper move ${xstep1} 0.0 0.0 units lattice
        displace_atoms upper move 0.00333333333333333 0.0 0.0 units lattice
        min_style ${style}
        min_style cg
        minimize ${etol} ${ftol} ${maxiter} ${maxeval}
        minimize 1e-12 ${ftol} ${maxiter} ${maxeval}
        minimize 1e-12 1e-08 ${maxiter} ${maxeval}
        minimize 1e-12 1e-08 10000 ${maxeval}
        minimize 1e-12 1e-08 10000 20000
WARNING: Resetting reneighboring criteria during minimization (../min.cpp:168)
Memory usage per processor = 3.35169 Mbytes
Step Temp PotEng Lx Ly Lz 
     140            0   -241.81608    2.2449075    38.894417    1.1224537 
     141            0   -241.81612    2.2449075    38.894417    1.1224537 
     142            0   -241.81614    2.2449075    38.894417    1.1224537 
     143            0   -241.81616    2.2449075    38.894417    1.1224537 
     144            0   -241.81617    2.2449075    38.894417    1.1224537 
     145            0   -241.81617    2.2449075    38.894417    1.1224537 
Loop time of 0.000900888 on 1 procs for 5 steps with 82 atoms

Minimization stats:
  Stopping criterion = linesearch alpha is zero
  Energy initial, next-to-last, final = 
        -241.816077484     -241.816174185     -241.816174185
  Force two-norm initial, final = 0.0893897 0.0613969
  Force max component initial, final = 0.0412214 0.0177889
  Final line search alpha, max atom move = 1.52588e-05 2.71436e-07
  Iterations, force evaluations = 5 44

Pair  time (%) = 0.000725629 (80.5459)
Neigh time (%) = 0 (0)
Comm  time (%) = 5.11419e-05 (5.67683)
Outpt time (%) = 2.61284e-05 (2.90029)
Other time (%) = 9.79896e-05 (10.877)

Nlocal:    82 ave 82 max 82 min
Histogram: 1 0 0 0 0 0 0 0 0 0
Nghost:    175 ave 175 max 175 min
Histogram: 1 0 0 0 0 0 0 0 0 0
Neighs:    714 ave 714 max 714 min
Histogram: 1 0 0 0 0 0 0 0 0 0

Total # of neighbors = 714
Ave neighs/atom = 8.70732
Neighbor list builds = 0
Dangerous builds = 0
        # write_dump all atom ${dumpfile}
        next i
jump SELF loop1
        displace_atoms upper move ${xstep1} 0.0 0.0 units lattice
        displace_atoms upper move 0.00333333333333333 0.0 0.0 units lattice
        min_style ${style}
        min_style cg
        minimize ${etol} ${ftol} ${maxiter} ${maxeval}
        minimize 1e-12 ${ftol} ${maxiter} ${maxeval}
        minimize 1e-12 1e-08 ${maxiter} ${maxeval}
        minimize 1e-12 1e-08 10000 ${maxeval}
        minimize 1e-12 1e-08 10000 20000
WARNING: Resetting reneighboring criteria during minimization (../min.cpp:168)
Memory usage per processor = 3.35169 Mbytes
Step Temp PotEng Lx Ly Lz 
     145            0   -241.80683    2.2449075    38.894684    1.1224537 
     146            0   -241.80687    2.2449075    38.894684    1.1224537 
     147            0   -241.80688    2.2449075    38.894684    1.1224537 
     148            0   -241.80691    2.2449075    38.894684    1.1224537 
     149            0   -241.80694    2.2449075    38.894684    1.1224537 
     150            0   -241.80694    2.2449075    38.894684    1.1224537 
     151            0   -241.80696    2.2449075    38.894684    1.1224537 
     152            0   -241.80698    2.2449075    38.894684    1.1224537 
     153            0   -241.80701    2.2449075    38.894684    1.1224537 
     154            0   -241.80701    2.2449075    38.894684    1.1224537 
     155            0   -241.80701    2.2449075    38.894684    1.1224537 
Loop time of 0.00180489 on 1 procs for 10 steps with 82 atoms

Minimization stats:
  Stopping criterion = linesearch alpha is zero
  Energy initial, next-to-last, final = 
        -241.806829901     -241.807008817     -241.807008817
  Force two-norm initial, final = 0.110547 0.0742776
  Force max component initial, final = 0.0481258 0.0230271
  Final line search alpha, max atom move = 1.90735e-06 4.39208e-08
  Iterations, force evaluations = 10 83

Pair  time (%) = 0.00127631 (70.7139)
Neigh time (%) = 0 (0)
Comm  time (%) = 9.68963e-05 (5.36855)
Outpt time (%) = 0.000242067 (13.4118)
Other time (%) = 0.000189617 (10.5058)

Nlocal:    82 ave 82 max 82 min
Histogram: 1 0 0 0 0 0 0 0 0 0
Nghost:    175 ave 175 max 175 min
Histogram: 1 0 0 0 0 0 0 0 0 0
Neighs:    714 ave 714 max 714 min
Histogram: 1 0 0 0 0 0 0 0 0 0

Total # of neighbors = 714
Ave neighs/atom = 8.70732
Neighbor list builds = 0
Dangerous builds = 0
        # write_dump all atom ${dumpfile}
        next i
jump SELF loop1
        displace_atoms upper move ${xstep1} 0.0 0.0 units lattice
        displace_atoms upper move 0.00333333333333333 0.0 0.0 units lattice
        min_style ${style}
        min_style cg
        minimize ${etol} ${ftol} ${maxiter} ${maxeval}
        minimize 1e-12 ${ftol} ${maxiter} ${maxeval}
        minimize 1e-12 1e-08 ${maxiter} ${maxeval}
        minimize 1e-12 1e-08 10000 ${maxeval}
        minimize 1e-12 1e-08 10000 20000
WARNING: Resetting reneighboring criteria during minimization (../min.cpp:168)
Memory usage per processor = 3.35169 Mbytes
Step Temp PotEng Lx Ly Lz 
     155            0   -241.79751    2.2449075    38.897095    1.1224537 
     156            0   -241.79756    2.2449075    38.897095    1.1224537 
     157            0   -241.79759    2.2449075    38.897095    1.1224537 
     158            0    -241.7976    2.2449075    38.897095    1.1224537 
     159            0   -241.79762    2.2449075    38.897095    1.1224537 
     160            0   -241.79763    2.2449075    38.897095    1.1224537 
     161            0   -241.79764    2.2449075    38.897095    1.1224537 
     162            0   -241.79764    2.2449075    38.897095    1.1224537 
     163            0   -241.79764    2.2449075    38.897095    1.1224537 
Loop time of 0.00145693 on 1 procs for 8 steps with 82 atoms

Minimization stats:
  Stopping criterion = linesearch alpha is zero
  Energy initial, next-to-last, final = 
        -241.797510024     -241.797637136     -241.797637136
  Force two-norm initial, final = 0.114899 0.0152466
  Force max component initial, final = 0.0452552 0.00320026
  Final line search alpha, max atom move = 3.05176e-05 9.76643e-08
  Iterations, force evaluations = 8 66

Pair  time (%) = 0.00107394 (73.7122)
Neigh time (%) = 0 (0)
Comm  time (%) = 0.000184208 (12.6436)
Outpt time (%) = 4.52147e-05 (3.10341)
Other time (%) = 0.000153573 (10.5408)

Nlocal:    82 ave 82 max 82 min
Histogram: 1 0 0 0 0 0 0 0 0 0
Nghost:    175 ave 175 max 175 min
Histogram: 1 0 0 0 0 0 0 0 0 0
Neighs:    714 ave 714 max 714 min
Histogram: 1 0 0 0 0 0 0 0 0 0

Total # of neighbors = 714
Ave neighs/atom = 8.70732
Neighbor list builds = 0
Dangerous builds = 0
        # write_dump all atom ${dumpfile}
        next i
jump SELF loop1
        displace_atoms upper move ${xstep1} 0.0 0.0 units lattice
        displace_atoms upper move 0.00333333333333333 0.0 0.0 units lattice
        min_style ${style}
        min_style cg
        minimize ${etol} ${ftol} ${maxiter} ${maxeval}
        minimize 1e-12 ${ftol} ${maxiter} ${maxeval}
        minimize 1e-12 1e-08 ${maxiter} ${maxeval}
        minimize 1e-12 1e-08 10000 ${maxeval}
        minimize 1e-12 1e-08 10000 20000
WARNING: Resetting reneighboring criteria during minimization (../min.cpp:168)
Memory usage per processor = 3.35169 Mbytes
Step Temp PotEng Lx Ly Lz 
     163            0   -241.78803    2.2449075    38.897534    1.1224537 
     164            0   -241.78805    2.2449075    38.897534    1.1224537 
     165            0   -241.78805    2.2449075    38.897534    1.1224537 
     166            0   -241.78806    2.2449075    38.897534    1.1224537 
     167            0   -241.78806    2.2449075    38.897534    1.1224537 
     168            0   -241.78807    2.2449075    38.897534    1.1224537 
     169            0   -241.78813    2.2449075    38.897534    1.1224537 
     170            0   -241.78815    2.2449075    38.897534    1.1224537 
     171            0   -241.78817    2.2449075    38.897534    1.1224537 
     172            0   -241.78818    2.2449075    38.897534    1.1224537 
     173            0   -241.78818    2.2449075    38.897534    1.1224537 
Loop time of 0.00144212 on 1 procs for 10 steps with 82 atoms

[...]
        next i
jump SELF loop1
        displace_atoms upper move ${xstep1} 0.0 0.0 units lattice
        displace_atoms upper move 0.00333333333333333 0.0 0.0 units lattice
        min_style ${style}
        min_style cg
        minimize ${etol} ${ftol} ${maxiter} ${maxeval}
        minimize 1e-12 ${ftol} ${maxiter} ${maxeval}
        minimize 1e-12 1e-08 ${maxiter} ${maxeval}
        minimize 1e-12 1e-08 10000 ${maxeval}
        minimize 1e-12 1e-08 10000 20000
WARNING: Resetting reneighboring criteria during minimization (../min.cpp:168)
Memory usage per processor = 3.35169 Mbytes
Step Temp PotEng Lx Ly Lz 
    1267            0   -241.98271    2.2449075    38.904658    1.1224537 
    1268            0   -241.98273    2.2449075    38.904658    1.1224537 
    1269            0   -241.98273    2.2449075    38.904658    1.1224537 
    1270            0   -241.98273    2.2449075    38.904658    1.1224537 
    1271            0   -241.98273    2.2449075    38.904658    1.1224537 
    1272            0   -241.98273    2.2449075    38.904658    1.1224537 
Loop time of 0.00115092 on 1 procs for 5 steps with 82 atoms

Minimization stats:
  Stopping criterion = linesearch alpha is zero
  Energy initial, next-to-last, final = 
        -241.982713456     -241.982727692     -241.982727692
  Force two-norm initial, final = 0.0618254 0.0185693
  Force max component initial, final = 0.0259506 0.00452453
  Final line search alpha, max atom move = 3.05176e-05 1.38078e-07
  Iterations, force evaluations = 5 59

Pair  time (%) = 0.00091071 (79.1286)
Neigh time (%) = 0 (0)
Comm  time (%) = 8.5643e-05 (7.44125)
Outpt time (%) = 3.01112e-05 (2.61626)
Other time (%) = 0.000124459 (10.8139)

Nlocal:    82 ave 82 max 82 min
Histogram: 1 0 0 0 0 0 0 0 0 0
Nghost:    185 ave 185 max 185 min
Histogram: 1 0 0 0 0 0 0 0 0 0
Neighs:    718 ave 718 max 718 min
Histogram: 1 0 0 0 0 0 0 0 0 0

Total # of neighbors = 718
Ave neighs/atom = 8.7561
Neighbor list builds = 0
Dangerous builds = 0
        # write_dump all atom ${dumpfile}
        next i
jump SELF loop1
        displace_atoms upper move ${xstep1} 0.0 0.0 units lattice
        displace_atoms upper move 0.00333333333333333 0.0 0.0 units lattice
        min_style ${style}
        min_style cg
        minimize ${etol} ${ftol} ${maxiter} ${maxeval}
        minimize 1e-12 ${ftol} ${maxiter} ${maxeval}
        minimize 1e-12 1e-08 ${maxiter} ${maxeval}
        minimize 1e-12 1e-08 10000 ${maxeval}
        minimize 1e-12 1e-08 10000 20000
WARNING: Resetting reneighboring criteria during minimization (../min.cpp:168)
Memory usage per processor = 3.35169 Mbytes
Step Temp PotEng Lx Ly Lz 
    1272            0    -241.9859    2.2449075     38.90463    1.1224537 
    1273            0   -241.98591    2.2449075     38.90463    1.1224537 
    1274            0   -241.98591    2.2449075     38.90463    1.1224537 
Loop time of 0.000471111 on 1 procs for 2 steps with 82 atoms

Minimization stats:
  Stopping criterion = linesearch alpha is zero
  Energy initial, next-to-last, final = 
         -241.98590432     -241.985912467     -241.985912467
  Force two-norm initial, final = 0.0355671 0.0248661
  Force max component initial, final = 0.0153528 0.00909163
  Final line search alpha, max atom move = 3.05176e-05 2.77455e-07
  Iterations, force evaluations = 2 23

Pair  time (%) = 0.000385075 (81.7377)
Neigh time (%) = 0 (0)
Comm  time (%) = 2.95623e-05 (6.27501)
Outpt time (%) = 6.0203e-06 (1.27789)
Other time (%) = 5.0453e-05 (10.7094)

Nlocal:    82 ave 82 max 82 min
Histogram: 1 0 0 0 0 0 0 0 0 0
Nghost:    185 ave 185 max 185 min
Histogram: 1 0 0 0 0 0 0 0 0 0
Neighs:    718 ave 718 max 718 min
Histogram: 1 0 0 0 0 0 0 0 0 0

Total # of neighbors = 718
Ave neighs/atom = 8.7561
Neighbor list builds = 0
Dangerous builds = 0
        # write_dump all atom ${dumpfile}
        next i
jump SELF loop1
        displace_atoms upper move ${xstep1} 0.0 0.0 units lattice
        displace_atoms upper move 0.00333333333333333 0.0 0.0 units lattice
        min_style ${style}
        min_style cg
        minimize ${etol} ${ftol} ${maxiter} ${maxeval}
        minimize 1e-12 ${ftol} ${maxiter} ${maxeval}
        minimize 1e-12 1e-08 ${maxiter} ${maxeval}
        minimize 1e-12 1e-08 10000 ${maxeval}
        minimize 1e-12 1e-08 10000 20000
WARNING: Resetting reneighboring criteria during minimization (../min.cpp:168)
Memory usage per processor = 3.35169 Mbytes
Step Temp PotEng Lx Ly Lz 
    1274            0   -241.98877    2.2449075    38.904592    1.1224537 
    1275            0   -241.98877    2.2449075    38.904592    1.1224537 
    1276            0   -241.98877    2.2449075    38.904592    1.1224537 
Loop time of 0.000491117 on 1 procs for 2 steps with 82 atoms

Minimization stats:
  Stopping criterion = linesearch alpha is zero
  Energy initial, next-to-last, final = 
        -241.988769374     -241.988774975     -241.988774975
  Force two-norm initial, final = 0.0179491 0.0158159
  Force max component initial, final = 0.00574655 0.00349418
  Final line search alpha, max atom move = 3.05176e-05 1.06634e-07
  Iterations, force evaluations = 2 22

Pair  time (%) = 0.000400166 (81.4808)
Neigh time (%) = 0 (0)
Comm  time (%) = 2.93935e-05 (5.98502)
Outpt time (%) = 6.99377e-06 (1.42405)
Other time (%) = 5.45635e-05 (11.1101)

Nlocal:    82 ave 82 max 82 min
Histogram: 1 0 0 0 0 0 0 0 0 0
Nghost:    185 ave 185 max 185 min
Histogram: 1 0 0 0 0 0 0 0 0 0
Neighs:    718 ave 718 max 718 min
Histogram: 1 0 0 0 0 0 0 0 0 0

Total # of neighbors = 718
Ave neighs/atom = 8.7561
Neighbor list builds = 0
Dangerous builds = 0
        # write_dump all atom ${dumpfile}
        next i
jump SELF loop1
        displace_atoms upper move ${xstep1} 0.0 0.0 units lattice
        displace_atoms upper move 0.00333333333333333 0.0 0.0 units lattice
        min_style ${style}
        min_style cg
        minimize ${etol} ${ftol} ${maxiter} ${maxeval}
        minimize 1e-12 ${ftol} ${maxiter} ${maxeval}
        minimize 1e-12 1e-08 ${maxiter} ${maxeval}
        minimize 1e-12 1e-08 10000 ${maxeval}
        minimize 1e-12 1e-08 10000 20000
WARNING: Resetting reneighboring criteria during minimization (../min.cpp:168)
Memory usage per processor = 3.35169 Mbytes
Step Temp PotEng Lx Ly Lz 
    1276            0    -241.9913    2.2449075    38.904528    1.1224537 
    1277            0   -241.99131    2.2449075    38.904528    1.1224537 
    1278            0   -241.99131    2.2449075    38.904528    1.1224537 
    1279            0   -241.99132    2.2449075    38.904528    1.1224537 
    1280            0   -241.99132    2.2449075    38.904528    1.1224537 
Loop time of 0.000734103 on 1 procs for 4 steps with 82 atoms

Minimization stats:
  Stopping criterion = linesearch alpha is zero
  Energy initial, next-to-last, final = 
         -241.99130371     -241.991320204     -241.991320204
  Force two-norm initial, final = 0.0258229 0.0250758
  Force max component initial, final = 0.0102442 0.00722803
  Final line search alpha, max atom move = 1.52588e-05 1.10291e-07
  Iterations, force evaluations = 4 36

Pair  time (%) = 0.000590217 (80.3998)
Neigh time (%) = 0 (0)
Comm  time (%) = 4.63033e-05 (6.30746)
Outpt time (%) = 1.69652e-05 (2.31101)
Other time (%) = 8.06175e-05 (10.9818)

Nlocal:    82 ave 82 max 82 min
Histogram: 1 0 0 0 0 0 0 0 0 0
Nghost:    185 ave 185 max 185 min
Histogram: 1 0 0 0 0 0 0 0 0 0
Neighs:    718 ave 718 max 718 min
Histogram: 1 0 0 0 0 0 0 0 0 0

Total # of neighbors = 718
Ave neighs/atom = 8.7561
Neighbor list builds = 0
Dangerous builds = 0
        # write_dump all atom ${dumpfile}
        next i
jump SELF loop1
        displace_atoms upper move ${xstep1} 0.0 0.0 units lattice
        displace_atoms upper move 0.00333333333333333 0.0 0.0 units lattice
        min_style ${style}
        min_style cg
        minimize ${etol} ${ftol} ${maxiter} ${maxeval}
        minimize 1e-12 ${ftol} ${maxiter} ${maxeval}
        minimize 1e-12 1e-08 ${maxiter} ${maxeval}
        minimize 1e-12 1e-08 10000 ${maxeval}
        minimize 1e-12 1e-08 10000 20000
WARNING: Resetting reneighboring criteria during minimization (../min.cpp:168)
Memory usage per processor = 3.35169 Mbytes
Step Temp PotEng Lx Ly Lz 
    1280            0   -241.99352    2.2449075    38.904063    1.1224537 
    1281            0   -241.99352    2.2449075    38.904063    1.1224537 
Loop time of 0.0003691 on 1 procs for 1 steps with 82 atoms

Minimization stats:
  Stopping criterion = linesearch alpha is zero
  Energy initial, next-to-last, final = 
        -241.993523493     -241.993523493     -241.993523493
  Force two-norm initial, final = 0.0236351 0.0236351
  Force max component initial, final = 0.00722803 0.00722803
  Final line search alpha, max atom move = 1.52588e-05 1.10291e-07
  Iterations, force evaluations = 1 17

Pair  time (%) = 0.000307785 (83.3881)
Neigh time (%) = 0 (0)
Comm  time (%) = 2.6561e-05 (7.19615)
Outpt time (%) = 0 (0)
Other time (%) = 3.47535e-05 (9.41574)

Nlocal:    82 ave 82 max 82 min
Histogram: 1 0 0 0 0 0 0 0 0 0
Nghost:    185 ave 185 max 185 min
Histogram: 1 0 0 0 0 0 0 0 0 0
Neighs:    718 ave 718 max 718 min
Histogram: 1 0 0 0 0 0 0 0 0 0

Total # of neighbors = 718
Ave neighs/atom = 8.7561
Neighbor list builds = 0
Dangerous builds = 0
        # write_dump all atom ${dumpfile}
        next i
jump SELF loop1
        displace_atoms upper move ${xstep1} 0.0 0.0 units lattice
        displace_atoms upper move 0.00333333333333333 0.0 0.0 units lattice
        min_style ${style}
        min_style cg
        minimize ${etol} ${ftol} ${maxiter} ${maxeval}
        minimize 1e-12 ${ftol} ${maxiter} ${maxeval}
        minimize 1e-12 1e-08 ${maxiter} ${maxeval}
        minimize 1e-12 1e-08 10000 ${maxeval}
        minimize 1e-12 1e-08 10000 20000
WARNING: Resetting reneighboring criteria during minimization (../min.cpp:168)
Memory usage per processor = 3.35169 Mbytes
Step Temp PotEng Lx Ly Lz 
    1281            0   -241.99539    2.2449075    38.904063    1.1224537 
    1282            0   -241.99539    2.2449075    38.904063    1.1224537 
    1283            0   -241.99539    2.2449075    38.904063    1.1224537 
Loop time of 0.000491077 on 1 procs for 2 steps with 82 atoms

Minimization stats:
  Stopping criterion = linesearch alpha is zero
  Energy initial, next-to-last, final = 
        -241.995386342     -241.995391046     -241.995391046
  Force two-norm initial, final = 0.031987 0.0161701
  Force max component initial, final = 0.0113897 0.00479389
  Final line search alpha, max atom move = 3.05176e-05 1.46298e-07
  Iterations, force evaluations = 2 24

Pair  time (%) = 0.000403065 (82.0777)
Neigh time (%) = 0 (0)
Comm  time (%) = 3.28061e-05 (6.68043)
Outpt time (%) = 6.95954e-06 (1.4172)
Other time (%) = 4.82467e-05 (9.82466)

Nlocal:    82 ave 82 max 82 min
Histogram: 1 0 0 0 0 0 0 0 0 0
Nghost:    185 ave 185 max 185 min
Histogram: 1 0 0 0 0 0 0 0 0 0
Neighs:    718 ave 718 max 718 min
Histogram: 1 0 0 0 0 0 0 0 0 0

Total # of neighbors = 718
Ave neighs/atom = 8.7561
Neighbor list builds = 0
Dangerous builds = 0
        # write_dump all atom ${dumpfile}
        next i
jump SELF loop1
        displace_atoms upper move ${xstep1} 0.0 0.0 units lattice
        displace_atoms upper move 0.00333333333333333 0.0 0.0 units lattice
        min_style ${style}
        min_style cg
        minimize ${etol} ${ftol} ${maxiter} ${maxeval}
        minimize 1e-12 ${ftol} ${maxiter} ${maxeval}
        minimize 1e-12 1e-08 ${maxiter} ${maxeval}
        minimize 1e-12 1e-08 10000 ${maxeval}
        minimize 1e-12 1e-08 10000 20000
WARNING: Resetting reneighboring criteria during minimization (../min.cpp:168)
Memory usage per processor = 3.35169 Mbytes
Step Temp PotEng Lx Ly Lz 
    1283            0   -241.99692    2.2449075    38.904051    1.1224537 
    1284            0   -241.99692    2.2449075    38.904051    1.1224537 
    1285            0   -241.99692    2.2449075    38.904051    1.1224537 
Loop time of 0.00047193 on 1 procs for 2 steps with 82 atoms

Minimization stats:
  Stopping criterion = linesearch alpha is zero
  Energy initial, next-to-last, final = 
        -241.996920265     -241.996923644     -241.996923644
  Force two-norm initial, final = 0.020723 0.0154983
  Force max component initial, final = 0.00650238 0.00455847
  Final line search alpha, max atom move = 3.05176e-05 1.39113e-07
  Iterations, force evaluations = 2 23

Pair  time (%) = 0.000370992 (78.6118)
Neigh time (%) = 0 (0)
Comm  time (%) = 3.78938e-05 (8.02954)
Outpt time (%) = 9.03127e-06 (1.91369)
Other time (%) = 5.40123e-05 (11.445)

Nlocal:    82 ave 82 max 82 min
Histogram: 1 0 0 0 0 0 0 0 0 0
Nghost:    185 ave 185 max 185 min
Histogram: 1 0 0 0 0 0 0 0 0 0
Neighs:    718 ave 718 max 718 min
Histogram: 1 0 0 0 0 0 0 0 0 0

Total # of neighbors = 718
Ave neighs/atom = 8.7561
Neighbor list builds = 0
Dangerous builds = 0
        # write_dump all atom ${dumpfile}
        next i
jump SELF loop1
        displace_atoms upper move ${xstep1} 0.0 0.0 units lattice
        displace_atoms upper move 0.00333333333333333 0.0 0.0 units lattice
        min_style ${style}
        min_style cg
        minimize ${etol} ${ftol} ${maxiter} ${maxeval}
        minimize 1e-12 ${ftol} ${maxiter} ${maxeval}
        minimize 1e-12 1e-08 ${maxiter} ${maxeval}
        minimize 1e-12 1e-08 10000 ${maxeval}
        minimize 1e-12 1e-08 10000 20000
WARNING: Resetting reneighboring criteria during minimization (../min.cpp:168)
Memory usage per processor = 3.35169 Mbytes
Step Temp PotEng Lx Ly Lz 
    1285            0   -241.99811    2.2449075    38.904028    1.1224537 
    1286            0   -241.99811    2.2449075    38.904028    1.1224537 
Loop time of 0.000295008 on 1 procs for 1 steps with 82 atoms

Minimization stats:
  Stopping criterion = linesearch alpha is zero
  Energy initial, next-to-last, final = 
        -241.998114277     -241.998114277     -241.998114277
  Force two-norm initial, final = 0.0125954 0.0125954
  Force max component initial, final = 0.0029473 0.0029473
  Final line search alpha, max atom move = 6.10352e-05 1.79889e-07
  Iterations, force evaluations = 1 15

Pair  time (%) = 0.000240308 (81.4581)
Neigh time (%) = 0 (0)
Comm  time (%) = 1.92643e-05 (6.53008)
Outpt time (%) = 0 (0)
Other time (%) = 3.54359e-05 (12.0118)

Nlocal:    82 ave 82 max 82 min
Histogram: 1 0 0 0 0 0 0 0 0 0
Nghost:    185 ave 185 max 185 min
Histogram: 1 0 0 0 0 0 0 0 0 0
Neighs:    718 ave 718 max 718 min
Histogram: 1 0 0 0 0 0 0 0 0 0

Total # of neighbors = 718
Ave neighs/atom = 8.7561
Neighbor list builds = 0
Dangerous builds = 0
        # write_dump all atom ${dumpfile}
        next i
jump SELF loop1
        displace_atoms upper move ${xstep1} 0.0 0.0 units lattice
        displace_atoms upper move 0.00333333333333333 0.0 0.0 units lattice
        min_style ${style}
        min_style cg
        minimize ${etol} ${ftol} ${maxiter} ${maxeval}
        minimize 1e-12 ${ftol} ${maxiter} ${maxeval}
        minimize 1e-12 1e-08 ${maxiter} ${maxeval}
        minimize 1e-12 1e-08 10000 ${maxeval}
        minimize 1e-12 1e-08 10000 20000
WARNING: Resetting reneighboring criteria during minimization (../min.cpp:168)
Memory usage per processor = 3.35169 Mbytes
Step Temp PotEng Lx Ly Lz 
    1286            0   -241.99897    2.2449075    38.904028    1.1224537 
    1287            0   -241.99897    2.2449075    38.904028    1.1224537 
    1288            0   -241.99897    2.2449075    38.904028    1.1224537 
Loop time of 0.00114107 on 1 procs for 2 steps with 82 atoms

Minimization stats:
  Stopping criterion = linesearch alpha is zero
  Energy initial, next-to-last, final = 
         -241.99896579     -241.998971524     -241.998971524
  Force two-norm initial, final = 0.0148547 0.0190474
  Force max component initial, final = 0.00398352 0.00713573
  Final line search alpha, max atom move = 3.05176e-05 2.17765e-07
  Iterations, force evaluations = 2 22

Pair  time (%) = 0.00105224 (92.215)
Neigh time (%) = 0 (0)
Comm  time (%) = 2.879e-05 (2.52307)
Outpt time (%) = 1.00757e-05 (0.883009)
Other time (%) = 4.99671e-05 (4.37897)

Nlocal:    82 ave 82 max 82 min
Histogram: 1 0 0 0 0 0 0 0 0 0
Nghost:    185 ave 185 max 185 min
Histogram: 1 0 0 0 0 0 0 0 0 0
Neighs:    718 ave 718 max 718 min
Histogram: 1 0 0 0 0 0 0 0 0 0

Total # of neighbors = 718
Ave neighs/atom = 8.7561
Neighbor list builds = 0
Dangerous builds = 0
        # write_dump all atom ${dumpfile}
        next i
jump SELF loop1
        displace_atoms upper move ${xstep1} 0.0 0.0 units lattice
        displace_atoms upper move 0.00333333333333333 0.0 0.0 units lattice
        min_style ${style}
        min_style cg
        minimize ${etol} ${ftol} ${maxiter} ${maxeval}
        minimize 1e-12 ${ftol} ${maxiter} ${maxeval}
        minimize 1e-12 1e-08 ${maxiter} ${maxeval}
        minimize 1e-12 1e-08 10000 ${maxeval}
        minimize 1e-12 1e-08 10000 20000
WARNING: Resetting reneighboring criteria during minimization (../min.cpp:168)
Memory usage per processor = 3.35169 Mbytes
Step Temp PotEng Lx Ly Lz 
    1288            0   -241.99948    2.2449075     38.90398    1.1224537 
    1289            0   -241.99948    2.2449075     38.90398    1.1224537 
Loop time of 0.000308973 on 1 procs for 1 steps with 82 atoms

Minimization stats:
  Stopping criterion = linesearch alpha is zero
  Energy initial, next-to-last, final = 
        -241.999484222     -241.999484222     -241.999484222
  Force two-norm initial, final = 0.0161149 0.0161149
  Force max component initial, final = 0.00500167 0.00500167
  Final line search alpha, max atom move = 3.05176e-05 1.52639e-07
  Iterations, force evaluations = 1 16

Pair  time (%) = 0.000250687 (81.1357)
Neigh time (%) = 0 (0)
Comm  time (%) = 2.22469e-05 (7.20027)
Outpt time (%) = 0 (0)
Other time (%) = 3.60388e-05 (11.6641)

Nlocal:    82 ave 82 max 82 min
Histogram: 1 0 0 0 0 0 0 0 0 0
Nghost:    185 ave 185 max 185 min
Histogram: 1 0 0 0 0 0 0 0 0 0
Neighs:    718 ave 718 max 718 min
Histogram: 1 0 0 0 0 0 0 0 0 0

Total # of neighbors = 718
Ave neighs/atom = 8.7561
Neighbor list builds = 0
Dangerous builds = 0
        # write_dump all atom ${dumpfile}
        next i
jump SELF loop1
        displace_atoms upper move ${xstep1} 0.0 0.0 units lattice
        displace_atoms upper move 0.00333333333333333 0.0 0.0 units lattice
        min_style ${style}
        min_style cg
        minimize ${etol} ${ftol} ${maxiter} ${maxeval}
        minimize 1e-12 ${ftol} ${maxiter} ${maxeval}
        minimize 1e-12 1e-08 ${maxiter} ${maxeval}
        minimize 1e-12 1e-08 10000 ${maxeval}
        minimize 1e-12 1e-08 10000 20000
WARNING: Resetting reneighboring criteria during minimization (../min.cpp:168)
Memory usage per processor = 3.35169 Mbytes
Step Temp PotEng Lx Ly Lz 
    1289            0   -241.99965    2.2449075     38.90398    1.1224537 
    1290            0   -241.99965    2.2449075     38.90398    1.1224537 
Loop time of 0.000329977 on 1 procs for 1 steps with 82 atoms

Minimization stats:
  Stopping criterion = linesearch alpha is zero
  Energy initial, next-to-last, final = 
        -241.999654418     -241.999654418     -241.999654418
  Force two-norm initial, final = 0.0152823 0.0152823
  Force max component initial, final = 0.00429428 0.00429428
  Final line search alpha, max atom move = 3.05176e-05 1.31051e-07
  Iterations, force evaluations = 1 16

Pair  time (%) = 0.000271922 (82.4063)
Neigh time (%) = 0 (0)
Comm  time (%) = 2.09742e-05 (6.35626)
Outpt time (%) = 0 (0)
Other time (%) = 3.70808e-05 (11.2374)

Nlocal:    82 ave 82 max 82 min
Histogram: 1 0 0 0 0 0 0 0 0 0
Nghost:    185 ave 185 max 185 min
Histogram: 1 0 0 0 0 0 0 0 0 0
Neighs:    718 ave 718 max 718 min
Histogram: 1 0 0 0 0 0 0 0 0 0

Total # of neighbors = 718
Ave neighs/atom = 8.7561
Neighbor list builds = 0
Dangerous builds = 0
        # write_dump all atom ${dumpfile}
        next i
jump SELF loop1


