LAMMPS (28 Jun 2014)
# attempt at getting generalized stacking fault (GSF) energy curve

#file prefix
variable prefix string gsf_V_inter4new
variable dumpfile string ${prefix}.*.dump
variable dumpfile string gsf_V_inter4new.*.dump
variable restartfile string ${prefix}.*.equil
variable restartfile string gsf_V_inter4new.*.equil

#Mass (g/mol)
variable m equal 1

# lattice constant (in Angstroms) and orientation of axes (given by lattice vectors)
variable rho equal 0.9165
variable x1 equal 1
variable x2 equal 0
variable x3 equal 0
variable y1 equal 0
variable y2 equal 1
variable y3 equal 0
# length of lattice in different directions (using orientation of lattice vectors)
variable ax equal sqrt(${x1}*${x1}+${x2}*${x2}+${x3}*${x3})
variable ax equal sqrt(1*${x1}+${x2}*${x2}+${x3}*${x3})
variable ax equal sqrt(1*1+${x2}*${x2}+${x3}*${x3})
variable ax equal sqrt(1*1+0*${x2}+${x3}*${x3})
variable ax equal sqrt(1*1+0*0+${x3}*${x3})
variable ax equal sqrt(1*1+0*0+0*${x3})
variable ax equal sqrt(1*1+0*0+0*0)
variable ay equal sqrt(${y1}*${y1}+${y2}*${y2}+${y3}*${y3})
variable ay equal sqrt(0*${y1}+${y2}*${y2}+${y3}*${y3})
variable ay equal sqrt(0*0+${y2}*${y2}+${y3}*${y3})
variable ay equal sqrt(0*0+1*${y2}+${y3}*${y3})
variable ay equal sqrt(0*0+1*1+${y3}*${y3})
variable ay equal sqrt(0*0+1*1+0*${y3})
variable ay equal sqrt(0*0+1*1+0*0)
variable az equal 1

# size of box in lattice units
variable lxpos equal 1
variable lxneg equal -1*${lxpos}
variable lxneg equal -1*1
variable lypos equal 10
variable lyneg equal -1*${lypos}
variable lyneg equal -1*10
variable lzpos equal 0
variable lzneg equal -1

# Define minimization parameters and damping
variable etol equal 1.0e-12
variable ftol equal 1.0e-8
variable maxiter equal 10000
variable maxeval equal 20000
variable style string cg

# boundary conditions
dimension	2
boundary	p s p
atom_style	atomic

# create geometry
units		lj
lattice         hex ${rho}
lattice         hex 0.9165
Lattice spacing in x,y,z = 1.12245 1.94415 1.12245
region		myregion block ${lxneg} ${lxpos} ${lyneg} ${lypos} ${lzneg} ${lzpos} units lattice
region		myregion block -1 ${lxpos} ${lyneg} ${lypos} ${lzneg} ${lzpos} units lattice
region		myregion block -1 1 ${lyneg} ${lypos} ${lzneg} ${lzpos} units lattice
region		myregion block -1 1 -10 ${lypos} ${lzneg} ${lzpos} units lattice
region		myregion block -1 1 -10 10 ${lzneg} ${lzpos} units lattice
region		myregion block -1 1 -10 10 -1 ${lzpos} units lattice
region		myregion block -1 1 -10 10 -1 0 units lattice
create_box	3 myregion
Created orthogonal box = (-1.12245 -19.4415 -1.12245) to (1.12245 19.4415 0)
  1 by 1 by 1 MPI processor grid
create_atoms	1 box
Created 82 atoms

# define masses
mass * $m
mass * 1

# my fake/morse potential
pair_style      table linear 3001
pair_coeff      * * vpotential_inter4new dummy
neighbor	0.3 bin
neigh_modify	delay 5

# define groups
region	    upper block INF INF 0.01 ${lypos} INF INF units lattice
region	    upper block INF INF 0.01 10 INF INF units lattice
group		upper region upper
40 atoms in group upper

# Setup output
thermo 1
thermo_style custom step temp pe lx ly lz
thermo_modify norm no

# Compute initial state by relaxing box
min_style ${style}
min_style cg
minimize ${etol} ${ftol} ${maxiter} ${maxeval}
minimize 1e-12 ${ftol} ${maxiter} ${maxeval}
minimize 1e-12 1e-08 ${maxiter} ${maxeval}
minimize 1e-12 1e-08 10000 ${maxeval}
minimize 1e-12 1e-08 10000 20000
WARNING: Resetting reneighboring criteria during minimization (../min.cpp:168)
Memory usage per processor = 3.35169 Mbytes
Step Temp PotEng Lx Ly Lz 
       0            0   -241.99993    2.2449075    38.890715    1.1224537 
       1            0   -241.99993    2.2449075    38.890715    1.1224537 
       2            0   -241.99993    2.2449075    38.890715    1.1224537 
Loop time of 0.000328055 on 1 procs for 2 steps with 82 atoms

Minimization stats:
  Stopping criterion = linesearch alpha is zero
  Energy initial, next-to-last, final = 
        -241.999927696     -241.999929863     -241.999929863
  Force two-norm initial, final = 0.000778805 0.00455994
  Force max component initial, final = 0.000389403 0.00179508
  Final line search alpha, max atom move = 0.000488281 8.76506e-07
  Iterations, force evaluations = 2 16

Pair  time (%) = 0.000263368 (80.2815)
Neigh time (%) = 0 (0)
Comm  time (%) = 2.31642e-05 (7.06107)
Outpt time (%) = 8.9464e-06 (2.7271)
Other time (%) = 3.25768e-05 (9.9303)

Nlocal:    82 ave 82 max 82 min
Histogram: 1 0 0 0 0 0 0 0 0 0
Nghost:    185 ave 185 max 185 min
Histogram: 1 0 0 0 0 0 0 0 0 0
Neighs:    718 ave 718 max 718 min
Histogram: 1 0 0 0 0 0 0 0 0 0

Total # of neighbors = 718
Ave neighs/atom = 8.7561
Neighbor list builds = 0
Dangerous builds = 0

# don't allow atoms to relax in x-direction
fix 2 all setforce 0.0 NULL 0.0

# GSF energy curve will have 100*2 steps
variable nsteps equal 300
variable sstep1 equal 1.
variable xstep1 equal ${sstep1}/(${ax}*${nsteps})
variable xstep1 equal 1/(${ax}*${nsteps})
variable xstep1 equal 1/(1*${nsteps})
variable xstep1 equal 1/(1*300)

variable i loop ${nsteps}
variable i loop 300
label loop1
        displace_atoms upper move ${xstep1} 0.0 0.0 units lattice
        displace_atoms upper move 0.00333333333333333 0.0 0.0 units lattice
        min_style ${style}
        min_style cg
        minimize ${etol} ${ftol} ${maxiter} ${maxeval}
        minimize 1e-12 ${ftol} ${maxiter} ${maxeval}
        minimize 1e-12 1e-08 ${maxiter} ${maxeval}
        minimize 1e-12 1e-08 10000 ${maxeval}
        minimize 1e-12 1e-08 10000 20000
WARNING: Resetting reneighboring criteria during minimization (../min.cpp:168)
Memory usage per processor = 3.35169 Mbytes
Step Temp PotEng Lx Ly Lz 
       2            0   -241.99976    2.2449075    38.890812    1.1224537 
       3            0   -241.99976    2.2449075    38.890812    1.1224537 
Loop time of 0.000269949 on 1 procs for 1 steps with 82 atoms

Minimization stats:
  Stopping criterion = linesearch alpha is zero
  Energy initial, next-to-last, final = 
        -241.999757399     -241.999757399     -241.999757399
  Force two-norm initial, final = 0.00478129 0.00478129
  Force max component initial, final = 0.00179508 0.00179508
  Final line search alpha, max atom move = 0.000488281 8.76506e-07
  Iterations, force evaluations = 1 12

Pair  time (%) = 0.00022377 (82.8934)
Neigh time (%) = 0 (0)
Comm  time (%) = 1.79703e-05 (6.65693)
Outpt time (%) = 0 (0)
Other time (%) = 2.82089e-05 (10.4497)

Nlocal:    82 ave 82 max 82 min
Histogram: 1 0 0 0 0 0 0 0 0 0
Nghost:    185 ave 185 max 185 min
Histogram: 1 0 0 0 0 0 0 0 0 0
Neighs:    718 ave 718 max 718 min
Histogram: 1 0 0 0 0 0 0 0 0 0

Total # of neighbors = 718
Ave neighs/atom = 8.7561
Neighbor list builds = 0
Dangerous builds = 0
        # write_dump all atom ${dumpfile}
        next i
jump SELF loop1
        displace_atoms upper move ${xstep1} 0.0 0.0 units lattice
        displace_atoms upper move 0.00333333333333333 0.0 0.0 units lattice
        min_style ${style}
        min_style cg
        minimize ${etol} ${ftol} ${maxiter} ${maxeval}
        minimize 1e-12 ${ftol} ${maxiter} ${maxeval}
        minimize 1e-12 1e-08 ${maxiter} ${maxeval}
        minimize 1e-12 1e-08 10000 ${maxeval}
        minimize 1e-12 1e-08 10000 20000
WARNING: Resetting reneighboring criteria during minimization (../min.cpp:168)
Memory usage per processor = 3.35169 Mbytes
Step Temp PotEng Lx Ly Lz 
       3            0   -241.99924    2.2449075    38.890812    1.1224537 
       4            0   -241.99924    2.2449075    38.890812    1.1224537 
Loop time of 0.000282918 on 1 procs for 1 steps with 82 atoms

Minimization stats:
  Stopping criterion = linesearch alpha is zero
  Energy initial, next-to-last, final = 
        -241.999241512     -241.999241512     -241.999241512
  Force two-norm initial, final = 0.00732734 0.00732734
  Force max component initial, final = 0.00286779 0.00286779
  Final line search alpha, max atom move = 0.00012207 3.50072e-07
  Iterations, force evaluations = 1 14

Pair  time (%) = 0.000231919 (81.974)
Neigh time (%) = 0 (0)
Comm  time (%) = 1.94001e-05 (6.85717)
Outpt time (%) = 0 (0)
Other time (%) = 3.15987e-05 (11.1689)

Nlocal:    82 ave 82 max 82 min
Histogram: 1 0 0 0 0 0 0 0 0 0
Nghost:    185 ave 185 max 185 min
Histogram: 1 0 0 0 0 0 0 0 0 0
Neighs:    718 ave 718 max 718 min
Histogram: 1 0 0 0 0 0 0 0 0 0

Total # of neighbors = 718
Ave neighs/atom = 8.7561
Neighbor list builds = 0
Dangerous builds = 0
        # write_dump all atom ${dumpfile}
        next i
jump SELF loop1
        displace_atoms upper move ${xstep1} 0.0 0.0 units lattice
        displace_atoms upper move 0.00333333333333333 0.0 0.0 units lattice
        min_style ${style}
        min_style cg
        minimize ${etol} ${ftol} ${maxiter} ${maxeval}
        minimize 1e-12 ${ftol} ${maxiter} ${maxeval}
        minimize 1e-12 1e-08 ${maxiter} ${maxeval}
        minimize 1e-12 1e-08 10000 ${maxeval}
        minimize 1e-12 1e-08 10000 20000
WARNING: Resetting reneighboring criteria during minimization (../min.cpp:168)
Memory usage per processor = 3.35169 Mbytes
Step Temp PotEng Lx Ly Lz 
       4            0   -241.99838    2.2449075    38.890812    1.1224537 
       5            0   -241.99838    2.2449075    38.890812    1.1224537 
Loop time of 0.000318109 on 1 procs for 1 steps with 82 atoms

Minimization stats:
  Stopping criterion = linesearch alpha is zero
  Energy initial, next-to-last, final = 
        -241.998383655     -241.998383655     -241.998383655
  Force two-norm initial, final = 0.01366 0.01366
  Force max component initial, final = 0.00643821 0.00643821
  Final line search alpha, max atom move = 6.10352e-05 3.92957e-07
  Iterations, force evaluations = 1 15

Pair  time (%) = 0.000259117 (81.4554)
Neigh time (%) = 0 (0)
Comm  time (%) = 1.98077e-05 (6.22672)
Outpt time (%) = 0 (0)
Other time (%) = 3.91843e-05 (12.3179)

Nlocal:    82 ave 82 max 82 min
Histogram: 1 0 0 0 0 0 0 0 0 0
Nghost:    185 ave 185 max 185 min
Histogram: 1 0 0 0 0 0 0 0 0 0
Neighs:    718 ave 718 max 718 min
Histogram: 1 0 0 0 0 0 0 0 0 0

Total # of neighbors = 718
Ave neighs/atom = 8.7561
Neighbor list builds = 0
Dangerous builds = 0
        # write_dump all atom ${dumpfile}
        next i
jump SELF loop1
        displace_atoms upper move ${xstep1} 0.0 0.0 units lattice
        displace_atoms upper move 0.00333333333333333 0.0 0.0 units lattice
        min_style ${style}
        min_style cg
        minimize ${etol} ${ftol} ${maxiter} ${maxeval}
        minimize 1e-12 ${ftol} ${maxiter} ${maxeval}
        minimize 1e-12 1e-08 ${maxiter} ${maxeval}
        minimize 1e-12 1e-08 10000 ${maxeval}
        minimize 1e-12 1e-08 10000 20000
WARNING: Resetting reneighboring criteria during minimization (../min.cpp:168)
Memory usage per processor = 3.35169 Mbytes
Step Temp PotEng Lx Ly Lz 
       5            0   -241.99718    2.2449075    38.890812    1.1224537 
       6            0   -241.99718    2.2449075    38.890812    1.1224537 
Loop time of 0.000241067 on 1 procs for 1 steps with 82 atoms

Minimization stats:
  Stopping criterion = linesearch alpha is zero
  Energy initial, next-to-last, final = 
        -241.997184208     -241.997184208     -241.997184208
  Force two-norm initial, final = 0.0233072 0.0233072
  Force max component initial, final = 0.0114284 0.0114284
  Final line search alpha, max atom move = 1.52588e-05 1.74383e-07
  Iterations, force evaluations = 1 17

Pair  time (%) = 0.000192086 (79.6818)
Neigh time (%) = 0 (0)
Comm  time (%) = 1.7597e-05 (7.29964)
Outpt time (%) = 0 (0)
Other time (%) = 3.13834e-05 (13.0185)

Nlocal:    82 ave 82 max 82 min
Histogram: 1 0 0 0 0 0 0 0 0 0
Nghost:    185 ave 185 max 185 min
Histogram: 1 0 0 0 0 0 0 0 0 0
Neighs:    718 ave 718 max 718 min
Histogram: 1 0 0 0 0 0 0 0 0 0

Total # of neighbors = 718
Ave neighs/atom = 8.7561
Neighbor list builds = 0
Dangerous builds = 0
        # write_dump all atom ${dumpfile}
        next i
jump SELF loop1
        displace_atoms upper move ${xstep1} 0.0 0.0 units lattice
        displace_atoms upper move 0.00333333333333333 0.0 0.0 units lattice
        min_style ${style}
        min_style cg
        minimize ${etol} ${ftol} ${maxiter} ${maxeval}
        minimize 1e-12 ${ftol} ${maxiter} ${maxeval}
        minimize 1e-12 1e-08 ${maxiter} ${maxeval}
        minimize 1e-12 1e-08 10000 ${maxeval}
        minimize 1e-12 1e-08 10000 20000
WARNING: Resetting reneighboring criteria during minimization (../min.cpp:168)
Memory usage per processor = 3.35169 Mbytes
Step Temp PotEng Lx Ly Lz 
       6            0   -241.99564    2.2449075    38.890812    1.1224537 
       7            0   -241.99564    2.2449075    38.890812    1.1224537 
       8            0   -241.99564    2.2449075    38.890812    1.1224537 
       9            0   -241.99564    2.2449075    38.890812    1.1224537 
Loop time of 0.000776113 on 1 procs for 3 steps with 82 atoms

Minimization stats:
  Stopping criterion = linesearch alpha is zero
  Energy initial, next-to-last, final = 
        -241.995643567     -241.995644433     -241.995644433
  Force two-norm initial, final = 0.0359625 0.0312651
  Force max component initial, final = 0.0178361 0.015482
  Final line search alpha, max atom move = 7.62939e-06 1.18118e-07
  Iterations, force evaluations = 3 42

Pair  time (%) = 0.000636347 (81.9915)
Neigh time (%) = 0 (0)
Comm  time (%) = 5.16012e-05 (6.64867)
Outpt time (%) = 6.78061e-06 (0.873663)
Other time (%) = 8.13844e-05 (10.4862)

Nlocal:    82 ave 82 max 82 min
Histogram: 1 0 0 0 0 0 0 0 0 0
Nghost:    185 ave 185 max 185 min
Histogram: 1 0 0 0 0 0 0 0 0 0
Neighs:    718 ave 718 max 718 min
Histogram: 1 0 0 0 0 0 0 0 0 0

Total # of neighbors = 718
Ave neighs/atom = 8.7561
Neighbor list builds = 0
Dangerous builds = 0
        # write_dump all atom ${dumpfile}
        next i
jump SELF loop1
        displace_atoms upper move ${xstep1} 0.0 0.0 units lattice
        displace_atoms upper move 0.00333333333333333 0.0 0.0 units lattice
        min_style ${style}
        min_style cg
        minimize ${etol} ${ftol} ${maxiter} ${maxeval}
        minimize 1e-12 ${ftol} ${maxiter} ${maxeval}
        minimize 1e-12 1e-08 ${maxiter} ${maxeval}
        minimize 1e-12 1e-08 10000 ${maxeval}
        minimize 1e-12 1e-08 10000 20000
WARNING: Resetting reneighboring criteria during minimization (../min.cpp:168)
Memory usage per processor = 3.35169 Mbytes
Step Temp PotEng Lx Ly Lz 
       9            0   -241.99376    2.2449075    38.890809    1.1224537 
      10            0   -241.99377    2.2449075    38.890809    1.1224537 
      11            0   -241.99377    2.2449075    38.890809    1.1224537 
Loop time of 0.000430095 on 1 procs for 2 steps with 82 atoms

Minimization stats:
  Stopping criterion = linesearch alpha is zero
  Energy initial, next-to-last, final = 
        -241.993760152     -241.993767243     -241.993767243
  Force two-norm initial, final = 0.046848 0.0156938
  Force max component initial, final = 0.0233238 0.00704691
  Final line search alpha, max atom move = 3.05176e-05 2.15055e-07
  Iterations, force evaluations = 2 24

Pair  time (%) = 0.000344765 (80.1604)
Neigh time (%) = 0 (0)
Comm  time (%) = 3.52357e-05 (8.19253)
Outpt time (%) = 5.98375e-06 (1.39126)
Other time (%) = 4.41099e-05 (10.2559)

Nlocal:    82 ave 82 max 82 min
Histogram: 1 0 0 0 0 0 0 0 0 0
Nghost:    185 ave 185 max 185 min
Histogram: 1 0 0 0 0 0 0 0 0 0
Neighs:    718 ave 718 max 718 min
Histogram: 1 0 0 0 0 0 0 0 0 0

Total # of neighbors = 718
Ave neighs/atom = 8.7561
Neighbor list builds = 0
Dangerous builds = 0
        # write_dump all atom ${dumpfile}
        next i
jump SELF loop1
        displace_atoms upper move ${xstep1} 0.0 0.0 units lattice
        displace_atoms upper move 0.00333333333333333 0.0 0.0 units lattice
        min_style ${style}
        min_style cg
        minimize ${etol} ${ftol} ${maxiter} ${maxeval}
        minimize 1e-12 ${ftol} ${maxiter} ${maxeval}
        minimize 1e-12 1e-08 ${maxiter} ${maxeval}
        minimize 1e-12 1e-08 10000 ${maxeval}
        minimize 1e-12 1e-08 10000 20000
WARNING: Resetting reneighboring criteria during minimization (../min.cpp:168)
Memory usage per processor = 3.35169 Mbytes
Step Temp PotEng Lx Ly Lz 
      11            0   -241.99155    2.2449075    38.890789    1.1224537 
      12            0   -241.99155    2.2449075    38.890789    1.1224537 
      13            0   -241.99155    2.2449075    38.890789    1.1224537 
Loop time of 0.000522036 on 1 procs for 2 steps with 82 atoms

Minimization stats:
  Stopping criterion = linesearch alpha is zero
  Energy initial, next-to-last, final = 
        -241.991550751     -241.991550944     -241.991550944
  Force two-norm initial, final = 0.0288861 0.0279066
  Force max component initial, final = 0.0125837 0.0120304
  Final line search alpha, max atom move = 1.52588e-05 1.83569e-07
  Iterations, force evaluations = 2 29

Pair  time (%) = 0.000419619 (80.3813)
Neigh time (%) = 0 (0)
Comm  time (%) = 3.71317e-05 (7.11287)
Outpt time (%) = 5.92205e-06 (1.13441)
Other time (%) = 5.93629e-05 (11.3714)

Nlocal:    82 ave 82 max 82 min
Histogram: 1 0 0 0 0 0 0 0 0 0
Nghost:    185 ave 185 max 185 min
Histogram: 1 0 0 0 0 0 0 0 0 0
Neighs:    718 ave 718 max 718 min
Histogram: 1 0 0 0 0 0 0 0 0 0

Total # of neighbors = 718
Ave neighs/atom = 8.7561
Neighbor list builds = 0
Dangerous builds = 0
        # write_dump all atom ${dumpfile}
        next i
jump SELF loop1
        displace_atoms upper move ${xstep1} 0.0 0.0 units lattice
        displace_atoms upper move 0.00333333333333333 0.0 0.0 units lattice
        min_style ${style}
        min_style cg
        minimize ${etol} ${ftol} ${maxiter} ${maxeval}
        minimize 1e-12 ${ftol} ${maxiter} ${maxeval}
        minimize 1e-12 1e-08 ${maxiter} ${maxeval}
        minimize 1e-12 1e-08 10000 ${maxeval}
        minimize 1e-12 1e-08 10000 20000
WARNING: Resetting reneighboring criteria during minimization (../min.cpp:168)
Memory usage per processor = 3.35169 Mbytes
Step Temp PotEng Lx Ly Lz 
      13            0   -241.98899    2.2449075    38.890788    1.1224537 
      14            0     -241.989    2.2449075    38.890788    1.1224537 
      15            0     -241.989    2.2449075    38.890788    1.1224537 
      16            0     -241.989    2.2449075    38.890788    1.1224537 
      17            0     -241.989    2.2449075    38.890788    1.1224537 
      18            0     -241.989    2.2449075    38.890788    1.1224537 
Loop time of 0.0009909 on 1 procs for 5 steps with 82 atoms

Minimization stats:
  Stopping criterion = linesearch alpha is zero
  Energy initial, next-to-last, final = 
        -241.988993908     -241.989002581     -241.989002581
  Force two-norm initial, final = 0.0474891 0.0179964
  Force max component initial, final = 0.022668 0.00742927
  Final line search alpha, max atom move = 3.05176e-05 2.26723e-07
  Iterations, force evaluations = 5 56

Pair  time (%) = 0.000792835 (80.0115)
Neigh time (%) = 0 (0)
Comm  time (%) = 6.02341e-05 (6.07872)
Outpt time (%) = 2.71868e-05 (2.74365)
Other time (%) = 0.000110645 (11.1661)

Nlocal:    82 ave 82 max 82 min
Histogram: 1 0 0 0 0 0 0 0 0 0
Nghost:    185 ave 185 max 185 min
Histogram: 1 0 0 0 0 0 0 0 0 0
Neighs:    718 ave 718 max 718 min
Histogram: 1 0 0 0 0 0 0 0 0 0

Total # of neighbors = 718
Ave neighs/atom = 8.7561
Neighbor list builds = 0
Dangerous builds = 0
        # write_dump all atom ${dumpfile}
        next i
jump SELF loop1
        displace_atoms upper move ${xstep1} 0.0 0.0 units lattice
        displace_atoms upper move 0.00333333333333333 0.0 0.0 units lattice
        min_style ${style}
        min_style cg
        minimize ${etol} ${ftol} ${maxiter} ${maxeval}
        minimize 1e-12 ${ftol} ${maxiter} ${maxeval}
        minimize 1e-12 1e-08 ${maxiter} ${maxeval}
        minimize 1e-12 1e-08 10000 ${maxeval}
        minimize 1e-12 1e-08 10000 20000
WARNING: Resetting reneighboring criteria during minimization (../min.cpp:168)
Memory usage per processor = 3.35169 Mbytes
Step Temp PotEng Lx Ly Lz 
      18            0   -241.98612    2.2449075    38.890779    1.1224537 
      19            0   -241.98612    2.2449075    38.890779    1.1224537 
      20            0   -241.98612    2.2449075    38.890779    1.1224537 
Loop time of 0.0004941 on 1 procs for 2 steps with 82 atoms

Minimization stats:
  Stopping criterion = linesearch alpha is zero
  Energy initial, next-to-last, final = 
        -241.986116556      -241.98612464      -241.98612464
  Force two-norm initial, final = 0.0357773 0.026114
  Force max component initial, final = 0.0159702 0.00983095
  Final line search alpha, max atom move = 1.52588e-05 1.50008e-07
  Iterations, force evaluations = 2 24

Pair  time (%) = 0.000386325 (78.1876)
Neigh time (%) = 0 (0)
Comm  time (%) = 3.00148e-05 (6.07464)
Outpt time (%) = 6.06221e-06 (1.22692)
Other time (%) = 7.16982e-05 (14.5109)

Nlocal:    82 ave 82 max 82 min
Histogram: 1 0 0 0 0 0 0 0 0 0
Nghost:    185 ave 185 max 185 min
Histogram: 1 0 0 0 0 0 0 0 0 0
Neighs:    718 ave 718 max 718 min
Histogram: 1 0 0 0 0 0 0 0 0 0

Total # of neighbors = 718
Ave neighs/atom = 8.7561
Neighbor list builds = 0
Dangerous builds = 0
        # write_dump all atom ${dumpfile}
        next i
jump SELF loop1
        displace_atoms upper move ${xstep1} 0.0 0.0 units lattice
        displace_atoms upper move 0.00333333333333333 0.0 0.0 units lattice
        min_style ${style}
        min_style cg
        minimize ${etol} ${ftol} ${maxiter} ${maxeval}
        minimize 1e-12 ${ftol} ${maxiter} ${maxeval}
        minimize 1e-12 1e-08 ${maxiter} ${maxeval}
        minimize 1e-12 1e-08 10000 ${maxeval}
        minimize 1e-12 1e-08 10000 20000
WARNING: Resetting reneighboring criteria during minimization (../min.cpp:168)
Memory usage per processor = 3.35169 Mbytes
Step Temp PotEng Lx Ly Lz 
      20            0   -241.98293    2.2449075    38.890775    1.1224537 
      21            0   -241.98293    2.2449075    38.890775    1.1224537 
Loop time of 0.000337053 on 1 procs for 1 steps with 82 atoms

Minimization stats:
  Stopping criterion = linesearch alpha is zero
  Energy initial, next-to-last, final = 
        -241.982931842     -241.982931842     -241.982931842
  Force two-norm initial, final = 0.0222808 0.0222808
  Force max component initial, final = 0.00983095 0.00983095
  Final line search alpha, max atom move = 1.52588e-05 1.50008e-07
  Iterations, force evaluations = 1 17

Pair  time (%) = 0.00027475 (81.5153)
Neigh time (%) = 0 (0)
Comm  time (%) = 2.39151e-05 (7.09535)
Outpt time (%) = 0 (0)
Other time (%) = 3.83881e-05 (11.3893)

Nlocal:    82 ave 82 max 82 min
Histogram: 1 0 0 0 0 0 0 0 0 0
Nghost:    185 ave 185 max 185 min
Histogram: 1 0 0 0 0 0 0 0 0 0
Neighs:    718 ave 718 max 718 min
Histogram: 1 0 0 0 0 0 0 0 0 0

Total # of neighbors = 718
Ave neighs/atom = 8.7561
Neighbor list builds = 0
Dangerous builds = 0
        # write_dump all atom ${dumpfile}
        next i
jump SELF loop1
        displace_atoms upper move ${xstep1} 0.0 0.0 units lattice
        displace_atoms upper move 0.00333333333333333 0.0 0.0 units lattice
        min_style ${style}
        min_style cg
        minimize ${etol} ${ftol} ${maxiter} ${maxeval}
        minimize 1e-12 ${ftol} ${maxiter} ${maxeval}
        minimize 1e-12 1e-08 ${maxiter} ${maxeval}
        minimize 1e-12 1e-08 10000 ${maxeval}
        minimize 1e-12 1e-08 10000 20000
WARNING: Resetting reneighboring criteria during minimization (../min.cpp:168)
Memory usage per processor = 3.35169 Mbytes
Step Temp PotEng Lx Ly Lz 
      21            0   -241.97946    2.2449075    38.890775    1.1224537 
      22            0   -241.97947    2.2449075    38.890775    1.1224537 
      23            0   -241.97947    2.2449075    38.890775    1.1224537 
Loop time of 0.000457037 on 1 procs for 2 steps with 82 atoms

Minimization stats:
  Stopping criterion = linesearch alpha is zero
  Energy initial, next-to-last, final = 
        -241.979458449     -241.979468996     -241.979468996
  Force two-norm initial, final = 0.0341703 0.0226954
  Force max component initial, final = 0.0132431 0.0084956
  Final line search alpha, max atom move = 1.52588e-05 1.29633e-07
  Iterations, force evaluations = 2 24

Pair  time (%) = 0.000369126 (80.7649)
Neigh time (%) = 0 (0)
Comm  time (%) = 2.88752e-05 (6.31791)
Outpt time (%) = 5.99923e-06 (1.31264)
Other time (%) = 5.30368e-05 (11.6045)

Nlocal:    82 ave 82 max 82 min
Histogram: 1 0 0 0 0 0 0 0 0 0
Nghost:    185 ave 185 max 185 min
Histogram: 1 0 0 0 0 0 0 0 0 0
Neighs:    718 ave 718 max 718 min
Histogram: 1 0 0 0 0 0 0 0 0 0

Total # of neighbors = 718
Ave neighs/atom = 8.7561
Neighbor list builds = 0
Dangerous builds = 0
        # write_dump all atom ${dumpfile}
        next i
jump SELF loop1
        displace_atoms upper move ${xstep1} 0.0 0.0 units lattice
        displace_atoms upper move 0.00333333333333333 0.0 0.0 units lattice
        min_style ${style}
        min_style cg
        minimize ${etol} ${ftol} ${maxiter} ${maxeval}
        minimize 1e-12 ${ftol} ${maxiter} ${maxeval}
        minimize 1e-12 1e-08 ${maxiter} ${maxeval}
        minimize 1e-12 1e-08 10000 ${maxeval}
        minimize 1e-12 1e-08 10000 20000
WARNING: Resetting reneighboring criteria during minimization (../min.cpp:168)
Memory usage per processor = 3.35169 Mbytes
Step Temp PotEng Lx Ly Lz 
      23            0   -241.97573    2.2449075    38.890775    1.1224537 
      24            0   -241.97573    2.2449075    38.890775    1.1224537 
      25            0   -241.97573    2.2449075    38.890775    1.1224537 
Loop time of 0.000412043 on 1 procs for 2 steps with 82 atoms

Minimization stats:
  Stopping criterion = linesearch alpha is zero
  Energy initial, next-to-last, final = 
        -241.975725634      -241.97573011      -241.97573011
  Force two-norm initial, final = 0.0266855 0.0189428
  Force max component initial, final = 0.0084956 0.00676803
  Final line search alpha, max atom move = 3.05176e-05 2.06544e-07
  Iterations, force evaluations = 2 23

Pair  time (%) = 0.000330862 (80.2979)
Neigh time (%) = 0 (0)
Comm  time (%) = 3.21633e-05 (7.80582)
Outpt time (%) = 5.05184e-06 (1.22605)
Other time (%) = 4.39661e-05 (10.6703)

Nlocal:    82 ave 82 max 82 min
Histogram: 1 0 0 0 0 0 0 0 0 0
Nghost:    185 ave 185 max 185 min
Histogram: 1 0 0 0 0 0 0 0 0 0
Neighs:    718 ave 718 max 718 min
Histogram: 1 0 0 0 0 0 0 0 0 0

Total # of neighbors = 718
Ave neighs/atom = 8.7561
Neighbor list builds = 0
Dangerous builds = 0
        # write_dump all atom ${dumpfile}
        next i
jump SELF loop1
        displace_atoms upper move ${xstep1} 0.0 0.0 units lattice
        displace_atoms upper move 0.00333333333333333 0.0 0.0 units lattice
        min_style ${style}
        min_style cg
        minimize ${etol} ${ftol} ${maxiter} ${maxeval}
        minimize 1e-12 ${ftol} ${maxiter} ${maxeval}
        minimize 1e-12 1e-08 ${maxiter} ${maxeval}
        minimize 1e-12 1e-08 10000 ${maxeval}
        minimize 1e-12 1e-08 10000 20000
WARNING: Resetting reneighboring criteria during minimization (../min.cpp:168)
Memory usage per processor = 3.35169 Mbytes
Step Temp PotEng Lx Ly Lz 
      25            0   -241.97172    2.2449075    38.890775    1.1224537 
      26            0   -241.97173    2.2449075    38.890775    1.1224537 
      27            0   -241.97173    2.2449075    38.890775    1.1224537 
Loop time of 0.000585025 on 1 procs for 2 steps with 82 atoms

Minimization stats:
  Stopping criterion = linesearch alpha is zero
  Energy initial, next-to-last, final = 
        -241.971717098     -241.971727909     -241.971727909
  Force two-norm initial, final = 0.0308712 0.0243416
  Force max component initial, final = 0.0122131 0.00904561
  Final line search alpha, max atom move = 1.52588e-05 1.38025e-07
  Iterations, force evaluations = 2 24

Pair  time (%) = 0.000419224 (71.6591)
Neigh time (%) = 0 (0)
Comm  time (%) = 4.14021e-05 (7.07697)
Outpt time (%) = 3.69606e-05 (6.31778)
Other time (%) = 8.74385e-05 (14.9461)

Nlocal:    82 ave 82 max 82 min
Histogram: 1 0 0 0 0 0 0 0 0 0
Nghost:    185 ave 185 max 185 min
Histogram: 1 0 0 0 0 0 0 0 0 0
Neighs:    718 ave 718 max 718 min
Histogram: 1 0 0 0 0 0 0 0 0 0

Total # of neighbors = 718
Ave neighs/atom = 8.7561
Neighbor list builds = 0
Dangerous builds = 0
        # write_dump all atom ${dumpfile}
        next i
jump SELF loop1
        displace_atoms upper move ${xstep1} 0.0 0.0 units lattice
        displace_atoms upper move 0.00333333333333333 0.0 0.0 units lattice
        min_style ${style}
        min_style cg
        minimize ${etol} ${ftol} ${maxiter} ${maxeval}
        minimize 1e-12 ${ftol} ${maxiter} ${maxeval}
        minimize 1e-12 1e-08 ${maxiter} ${maxeval}
        minimize 1e-12 1e-08 10000 ${maxeval}
        minimize 1e-12 1e-08 10000 20000
WARNING: Resetting reneighboring criteria during minimization (../min.cpp:168)
Memory usage per processor = 3.35169 Mbytes
Step Temp PotEng Lx Ly Lz 
      27            0   -241.96745    2.2449075    38.890777    1.1224537 
      28            0   -241.96746    2.2449075    38.890777    1.1224537 
      29            0   -241.96746    2.2449075    38.890777    1.1224537 
Loop time of 0.000477108 on 1 procs for 2 steps with 82 atoms

Minimization stats:
  Stopping criterion = linesearch alpha is zero
  Energy initial, next-to-last, final = 
        -241.967451448     -241.967462503     -241.967462503
  Force two-norm initial, final = 0.0291957 0.0321638
  Force max component initial, final = 0.00939497 0.0123941
  Final line search alpha, max atom move = 7.62939e-06 9.45595e-08
  Iterations, force evaluations = 2 24

Pair  time (%) = 0.000387445 (81.207)
Neigh time (%) = 0 (0)
Comm  time (%) = 3.42551e-05 (7.17974)
Outpt time (%) = 5.99783e-06 (1.25712)
Other time (%) = 4.94099e-05 (10.3561)

Nlocal:    82 ave 82 max 82 min
Histogram: 1 0 0 0 0 0 0 0 0 0
Nghost:    185 ave 185 max 185 min
Histogram: 1 0 0 0 0 0 0 0 0 0
Neighs:    718 ave 718 max 718 min
Histogram: 1 0 0 0 0 0 0 0 0 0

Total # of neighbors = 718
Ave neighs/atom = 8.7561
Neighbor list builds = 0
Dangerous builds = 0
        # write_dump all atom ${dumpfile}
        next i
jump SELF loop1
        displace_atoms upper move ${xstep1} 0.0 0.0 units lattice
        displace_atoms upper move 0.00333333333333333 0.0 0.0 units lattice
        min_style ${style}
        min_style cg
        minimize ${etol} ${ftol} ${maxiter} ${maxeval}
        minimize 1e-12 ${ftol} ${maxiter} ${maxeval}
        minimize 1e-12 1e-08 ${maxiter} ${maxeval}
        minimize 1e-12 1e-08 10000 ${maxeval}
        minimize 1e-12 1e-08 10000 20000
WARNING: Resetting reneighboring criteria during minimization (../min.cpp:168)
Memory usage per processor = 3.35169 Mbytes
Step Temp PotEng Lx Ly Lz 
      29            0   -241.96294    2.2449075     38.89078    1.1224537 
      30            0   -241.96294    2.2449075     38.89078    1.1224537 
Loop time of 0.00033808 on 1 procs for 1 steps with 82 atoms

Minimization stats:
  Stopping criterion = linesearch alpha is zero
  Energy initial, next-to-last, final = 
         -241.96293568      -241.96293568      -241.96293568
  Force two-norm initial, final = 0.021351 0.021351
  Force max component initial, final = 0.00731668 0.00731668
  Final line search alpha, max atom move = 1.52588e-05 1.11644e-07
  Iterations, force evaluations = 1 17

Pair  time (%) = 0.000279045 (82.5383)
Neigh time (%) = 0 (0)
Comm  time (%) = 2.42607e-05 (7.17603)
Outpt time (%) = 0 (0)
Other time (%) = 3.4774e-05 (10.2857)

Nlocal:    82 ave 82 max 82 min
Histogram: 1 0 0 0 0 0 0 0 0 0
Nghost:    175 ave 175 max 175 min
Histogram: 1 0 0 0 0 0 0 0 0 0
Neighs:    718 ave 718 max 718 min
Histogram: 1 0 0 0 0 0 0 0 0 0

Total # of neighbors = 718
Ave neighs/atom = 8.7561
Neighbor list builds = 0
Dangerous builds = 0
        # write_dump all atom ${dumpfile}
        next i
jump SELF loop1
        displace_atoms upper move ${xstep1} 0.0 0.0 units lattice
        displace_atoms upper move 0.00333333333333333 0.0 0.0 units lattice
        min_style ${style}
        min_style cg
        minimize ${etol} ${ftol} ${maxiter} ${maxeval}
        minimize 1e-12 ${ftol} ${maxiter} ${maxeval}
        minimize 1e-12 1e-08 ${maxiter} ${maxeval}
        minimize 1e-12 1e-08 10000 ${maxeval}
        minimize 1e-12 1e-08 10000 20000
WARNING: Resetting reneighboring criteria during minimization (../min.cpp:168)
Memory usage per processor = 3.35169 Mbytes
Step Temp PotEng Lx Ly Lz 
      30            0   -241.95814    2.2449075     38.89078    1.1224537 
      31            0   -241.95815    2.2449075     38.89078    1.1224537 
      32            0   -241.95817    2.2449075     38.89078    1.1224537 
      33            0   -241.95817    2.2449075     38.89078    1.1224537 
Loop time of 0.000614011 on 1 procs for 3 steps with 82 atoms

Minimization stats:
  Stopping criterion = linesearch alpha is zero
  Energy initial, next-to-last, final = 
        -241.958141962     -241.958165008     -241.958165008
  Force two-norm initial, final = 0.0442997 0.0214704
  Force max component initial, final = 0.0196367 0.0089165
  Final line search alpha, max atom move = 1.52588e-05 1.36055e-07
  Iterations, force evaluations = 3 31

Pair  time (%) = 0.0004932 (80.3244)
Neigh time (%) = 0 (0)
Comm  time (%) = 4.13914e-05 (6.74114)
Outpt time (%) = 1.37822e-05 (2.24462)
Other time (%) = 6.56369e-05 (10.6899)

Nlocal:    82 ave 82 max 82 min
Histogram: 1 0 0 0 0 0 0 0 0 0
Nghost:    175 ave 175 max 175 min
Histogram: 1 0 0 0 0 0 0 0 0 0
Neighs:    718 ave 718 max 718 min
Histogram: 1 0 0 0 0 0 0 0 0 0

Total # of neighbors = 718
Ave neighs/atom = 8.7561
Neighbor list builds = 0
Dangerous builds = 0
        # write_dump all atom ${dumpfile}
        next i
jump SELF loop1
        displace_atoms upper move ${xstep1} 0.0 0.0 units lattice
        displace_atoms upper move 0.00333333333333333 0.0 0.0 units lattice
        min_style ${style}
        min_style cg
        minimize ${etol} ${ftol} ${maxiter} ${maxeval}
        minimize 1e-12 ${ftol} ${maxiter} ${maxeval}
        minimize 1e-12 1e-08 ${maxiter} ${maxeval}
        minimize 1e-12 1e-08 10000 ${maxeval}
        minimize 1e-12 1e-08 10000 20000
WARNING: Resetting reneighboring criteria during minimization (../min.cpp:168)
Memory usage per processor = 3.35169 Mbytes
Step Temp PotEng Lx Ly Lz 
      33            0   -241.95313    2.2449075    38.890784    1.1224537 
      34            0   -241.95314    2.2449075    38.890784    1.1224537 
      35            0   -241.95315    2.2449075    38.890784    1.1224537 
      36            0   -241.95315    2.2449075    38.890784    1.1224537 
Loop time of 0.000696047 on 1 procs for 3 steps with 82 atoms

Minimization stats:
  Stopping criterion = linesearch alpha is zero
  Energy initial, next-to-last, final = 
        -241.953127757     -241.953145136     -241.953145136
  Force two-norm initial, final = 0.0436691 0.0187974
  Force max component initial, final = 0.0190555 0.00632064
  Final line search alpha, max atom move = 3.05176e-05 1.92891e-07
  Iterations, force evaluations = 3 31

Pair  time (%) = 0.000547983 (78.7278)
Neigh time (%) = 0 (0)
Comm  time (%) = 4.43722e-05 (6.37488)
Outpt time (%) = 1.31374e-05 (1.88742)
Other time (%) = 9.05551e-05 (13.0099)

Nlocal:    82 ave 82 max 82 min
Histogram: 1 0 0 0 0 0 0 0 0 0
Nghost:    175 ave 175 max 175 min
Histogram: 1 0 0 0 0 0 0 0 0 0
Neighs:    718 ave 718 max 718 min
Histogram: 1 0 0 0 0 0 0 0 0 0

Total # of neighbors = 718
Ave neighs/atom = 8.7561
Neighbor list builds = 0
Dangerous builds = 0
        # write_dump all atom ${dumpfile}
        next i
jump SELF loop1
        displace_atoms upper move ${xstep1} 0.0 0.0 units lattice
        displace_atoms upper move 0.00333333333333333 0.0 0.0 units lattice
        min_style ${style}
        min_style cg
        minimize ${etol} ${ftol} ${maxiter} ${maxeval}
        minimize 1e-12 ${ftol} ${maxiter} ${maxeval}
        minimize 1e-12 1e-08 ${maxiter} ${maxeval}
        minimize 1e-12 1e-08 10000 ${maxeval}
        minimize 1e-12 1e-08 10000 20000
WARNING: Resetting reneighboring criteria during minimization (../min.cpp:168)
Memory usage per processor = 3.35169 Mbytes
Step Temp PotEng Lx Ly Lz 
      36            0   -241.94786    2.2449075    38.890787    1.1224537 
      37            0   -241.94787    2.2449075    38.890787    1.1224537 
      38            0   -241.94789    2.2449075    38.890787    1.1224537 
      39            0   -241.94789    2.2449075    38.890787    1.1224537 
Loop time of 0.000616992 on 1 procs for 3 steps with 82 atoms

Minimization stats:
  Stopping criterion = linesearch alpha is zero
  Energy initial, next-to-last, final = 
        -241.947861822     -241.947886889     -241.947886889
  Force two-norm initial, final = 0.0451402 0.0230532
  Force max component initial, final = 0.0205853 0.00955738
  Final line search alpha, max atom move = 1.52588e-05 1.45834e-07
  Iterations, force evaluations = 3 31

Pair  time (%) = 0.000496122 (80.4098)
Neigh time (%) = 0 (0)
Comm  time (%) = 3.80895e-05 (6.17341)
Outpt time (%) = 1.38767e-05 (2.24909)
Other time (%) = 6.89037e-05 (11.1677)

Nlocal:    82 ave 82 max 82 min
Histogram: 1 0 0 0 0 0 0 0 0 0
Nghost:    175 ave 175 max 175 min
Histogram: 1 0 0 0 0 0 0 0 0 0
Neighs:    718 ave 718 max 718 min
Histogram: 1 0 0 0 0 0 0 0 0 0

Total # of neighbors = 718
Ave neighs/atom = 8.7561
Neighbor list builds = 0
Dangerous builds = 0
        # write_dump all atom ${dumpfile}
        next i
jump SELF loop1
        displace_atoms upper move ${xstep1} 0.0 0.0 units lattice
        displace_atoms upper move 0.00333333333333333 0.0 0.0 units lattice
        min_style ${style}
        min_style cg
        minimize ${etol} ${ftol} ${maxiter} ${maxeval}
        minimize 1e-12 ${ftol} ${maxiter} ${maxeval}
        minimize 1e-12 1e-08 ${maxiter} ${maxeval}
        minimize 1e-12 1e-08 10000 ${maxeval}
        minimize 1e-12 1e-08 10000 20000
WARNING: Resetting reneighboring criteria during minimization (../min.cpp:168)
Memory usage per processor = 3.35169 Mbytes
Step Temp PotEng Lx Ly Lz 
      39            0   -241.94237    2.2449075    38.890792    1.1224537 
      40            0   -241.94238    2.2449075    38.890792    1.1224537 
      41            0   -241.94238    2.2449075    38.890792    1.1224537 
Loop time of 0.000539119 on 1 procs for 2 steps with 82 atoms

Minimization stats:
  Stopping criterion = linesearch alpha is zero
  Energy initial, next-to-last, final = 
        -241.942370605     -241.942377454     -241.942377454
  Force two-norm initial, final = 0.0485412 0.0308999
  Force max component initial, final = 0.0214018 0.0118636
  Final line search alpha, max atom move = 7.62939e-06 9.05124e-08
  Iterations, force evaluations = 2 27

Pair  time (%) = 0.000440108 (81.6347)
Neigh time (%) = 0 (0)
Comm  time (%) = 3.4751e-05 (6.44589)
Outpt time (%) = 7.97363e-06 (1.47901)
Other time (%) = 5.62863e-05 (10.4404)

Nlocal:    82 ave 82 max 82 min
Histogram: 1 0 0 0 0 0 0 0 0 0
Nghost:    175 ave 175 max 175 min
Histogram: 1 0 0 0 0 0 0 0 0 0
Neighs:    718 ave 718 max 718 min
Histogram: 1 0 0 0 0 0 0 0 0 0

Total # of neighbors = 718
Ave neighs/atom = 8.7561
Neighbor list builds = 0
Dangerous builds = 0
        # write_dump all atom ${dumpfile}
        next i
jump SELF loop1
        displace_atoms upper move ${xstep1} 0.0 0.0 units lattice
        displace_atoms upper move 0.00333333333333333 0.0 0.0 units lattice
        min_style ${style}
        min_style cg
        minimize ${etol} ${ftol} ${maxiter} ${maxeval}
        minimize 1e-12 ${ftol} ${maxiter} ${maxeval}
        minimize 1e-12 1e-08 ${maxiter} ${maxeval}
        minimize 1e-12 1e-08 10000 ${maxeval}
        minimize 1e-12 1e-08 10000 20000
WARNING: Resetting reneighboring criteria during minimization (../min.cpp:168)
Memory usage per processor = 3.35169 Mbytes
Step Temp PotEng Lx Ly Lz 
      41            0   -241.93662    2.2449075    38.890792    1.1224537 
      42            0   -241.93663    2.2449075    38.890792    1.1224537 
      43            0   -241.93664    2.2449075    38.890792    1.1224537 
      44            0   -241.93666    2.2449075    38.890792    1.1224537 
      45            0   -241.93667    2.2449075    38.890792    1.1224537 
      46            0   -241.93667    2.2449075    38.890792    1.1224537 
Loop time of 0.000932958 on 1 procs for 5 steps with 82 atoms

Minimization stats:
  Stopping criterion = linesearch alpha is zero
  Energy initial, next-to-last, final = 
        -241.936618844     -241.936667237     -241.936667237
  Force two-norm initial, final = 0.0690249 0.0359602
  Force max component initial, final = 0.0330629 0.0119802
  Final line search alpha, max atom move = 7.62939e-06 9.1402e-08
  Iterations, force evaluations = 5 47

Pair  time (%) = 0.000747679 (80.1407)
Neigh time (%) = 0 (0)
Comm  time (%) = 5.44537e-05 (5.83668)
Outpt time (%) = 2.42033e-05 (2.59426)
Other time (%) = 0.000106621 (11.4283)

Nlocal:    82 ave 82 max 82 min
Histogram: 1 0 0 0 0 0 0 0 0 0
Nghost:    175 ave 175 max 175 min
Histogram: 1 0 0 0 0 0 0 0 0 0
Neighs:    718 ave 718 max 718 min
Histogram: 1 0 0 0 0 0 0 0 0 0

Total # of neighbors = 718
Ave neighs/atom = 8.7561
Neighbor list builds = 0
Dangerous builds = 0
        # write_dump all atom ${dumpfile}
        next i
jump SELF loop1
        displace_atoms upper move ${xstep1} 0.0 0.0 units lattice
        displace_atoms upper move 0.00333333333333333 0.0 0.0 units lattice
        min_style ${style}
        min_style cg
        minimize ${etol} ${ftol} ${maxiter} ${maxeval}
        minimize 1e-12 ${ftol} ${maxiter} ${maxeval}
        minimize 1e-12 1e-08 ${maxiter} ${maxeval}
        minimize 1e-12 1e-08 10000 ${maxeval}
        minimize 1e-12 1e-08 10000 20000
WARNING: Resetting reneighboring criteria during minimization (../min.cpp:168)
Memory usage per processor = 3.35169 Mbytes
Step Temp PotEng Lx Ly Lz 
      46            0   -241.93069    2.2449075    38.890801    1.1224537 
      47            0   -241.93071    2.2449075    38.890801    1.1224537 
      48            0   -241.93072    2.2449075    38.890801    1.1224537 
      49            0   -241.93073    2.2449075    38.890801    1.1224537 
      50            0   -241.93073    2.2449075    38.890801    1.1224537 
      51            0   -241.93073    2.2449075    38.890801    1.1224537 
Loop time of 0.0283131 on 1 procs for 5 steps with 82 atoms

Minimization stats:
  Stopping criterion = linesearch alpha is zero
  Energy initial, next-to-last, final = 
        -241.930685811     -241.930732391     -241.930732391
  Force two-norm initial, final = 0.0735471 0.0159638
  Force max component initial, final = 0.0342423 0.00458243
  Final line search alpha, max atom move = 3.05176e-05 1.39845e-07
  Iterations, force evaluations = 5 45

Pair  time (%) = 0.0015293 (5.4014)
Neigh time (%) = 0 (0)
Comm  time (%) = 0.000120045 (0.423991)
Outpt time (%) = 0.0256108 (90.4557)
Other time (%) = 0.00105293 (3.71888)

Nlocal:    82 ave 82 max 82 min
Histogram: 1 0 0 0 0 0 0 0 0 0
Nghost:    175 ave 175 max 175 min
Histogram: 1 0 0 0 0 0 0 0 0 0
Neighs:    718 ave 718 max 718 min
Histogram: 1 0 0 0 0 0 0 0 0 0

Total # of neighbors = 718
Ave neighs/atom = 8.7561
Neighbor list builds = 0
Dangerous builds = 0
        # write_dump all atom ${dumpfile}
        next i
jump SELF loop1
        displace_atoms upper move ${xstep1} 0.0 0.0 units lattice
        displace_atoms upper move 0.00333333333333333 0.0 0.0 units lattice
        min_style ${style}
        min_style cg
        minimize ${etol} ${ftol} ${maxiter} ${maxeval}
        minimize 1e-12 ${ftol} ${maxiter} ${maxeval}
        minimize 1e-12 1e-08 ${maxiter} ${maxeval}
        minimize 1e-12 1e-08 10000 ${maxeval}
        minimize 1e-12 1e-08 10000 20000
WARNING: Resetting reneighboring criteria during minimization (../min.cpp:168)
Memory usage per processor = 3.35169 Mbytes
Step Temp PotEng Lx Ly Lz 
      51            0   -241.92455    2.2449075    38.890808    1.1224537 
      52            0   -241.92456    2.2449075    38.890808    1.1224537 
      53            0   -241.92456    2.2449075    38.890808    1.1224537 
      54            0   -241.92456    2.2449075    38.890808    1.1224537 
Loop time of 0.00226911 on 1 procs for 3 steps with 82 atoms

Minimization stats:
  Stopping criterion = linesearch alpha is zero
  Energy initial, next-to-last, final = 
        -241.924547583      -241.92455588      -241.92455588
  Force two-norm initial, final = 0.0506726 0.0329529
  Force max component initial, final = 0.0240606 0.0138222
  Final line search alpha, max atom move = 7.62939e-06 1.05455e-07
  Iterations, force evaluations = 3 42

Pair  time (%) = 0.00180904 (79.7243)
Neigh time (%) = 0 (0)
Comm  time (%) = 0.000145923 (6.43082)
Outpt time (%) = 5.8992e-05 (2.59978)
Other time (%) = 0.000255164 (11.2451)

Nlocal:    82 ave 82 max 82 min
Histogram: 1 0 0 0 0 0 0 0 0 0
Nghost:    175 ave 175 max 175 min
Histogram: 1 0 0 0 0 0 0 0 0 0
Neighs:    718 ave 718 max 718 min
Histogram: 1 0 0 0 0 0 0 0 0 0

Total # of neighbors = 718
Ave neighs/atom = 8.7561
Neighbor list builds = 0
Dangerous builds = 0
        # write_dump all atom ${dumpfile}
        next i
jump SELF loop1
        displace_atoms upper move ${xstep1} 0.0 0.0 units lattice
        displace_atoms upper move 0.00333333333333333 0.0 0.0 units lattice
        min_style ${style}
        min_style cg
        minimize ${etol} ${ftol} ${maxiter} ${maxeval}
        minimize 1e-12 ${ftol} ${maxiter} ${maxeval}
        minimize 1e-12 1e-08 ${maxiter} ${maxeval}
        minimize 1e-12 1e-08 10000 ${maxeval}
        minimize 1e-12 1e-08 10000 20000
WARNING: Resetting reneighboring criteria during minimization (../min.cpp:168)
Memory usage per processor = 3.35169 Mbytes
Step Temp PotEng Lx Ly Lz 
      54            0   -241.91814    2.2449075    38.890808    1.1224537 
      55            0   -241.91816    2.2449075    38.890808    1.1224537 
      56            0   -241.91817    2.2449075    38.890808    1.1224537 
      57            0   -241.91819    2.2449075    38.890808    1.1224537 
      58            0   -241.91821    2.2449075    38.890808    1.1224537 
      59            0   -241.91822    2.2449075    38.890808    1.1224537 
      60            0   -241.91822    2.2449075    38.890808    1.1224537 
      61            0   -241.91822    2.2449075    38.890808    1.1224537 
Loop time of 0.00458407 on 1 procs for 7 steps with 82 atoms

Minimization stats:
  Stopping criterion = linesearch alpha is zero
  Energy initial, next-to-last, final = 
        -241.918137404     -241.918221231     -241.918221231
  Force two-norm initial, final = 0.0784336 0.0206137
  Force max component initial, final = 0.0381778 0.006425
  Final line search alpha, max atom move = 1.52588e-05 9.80377e-08
  Iterations, force evaluations = 7 61

Pair  time (%) = 0.00379756 (82.8424)
Neigh time (%) = 0 (0)
Comm  time (%) = 0.000272996 (5.95532)
Outpt time (%) = 0.000134623 (2.93676)
Other time (%) = 0.000378898 (8.26553)

Nlocal:    82 ave 82 max 82 min
Histogram: 1 0 0 0 0 0 0 0 0 0
Nghost:    175 ave 175 max 175 min
Histogram: 1 0 0 0 0 0 0 0 0 0
Neighs:    718 ave 718 max 718 min
Histogram: 1 0 0 0 0 0 0 0 0 0

Total # of neighbors = 718
Ave neighs/atom = 8.7561
Neighbor list builds = 0
Dangerous builds = 0
        # write_dump all atom ${dumpfile}
        next i
jump SELF loop1
        displace_atoms upper move ${xstep1} 0.0 0.0 units lattice
        displace_atoms upper move 0.00333333333333333 0.0 0.0 units lattice
        min_style ${style}
        min_style cg
        minimize ${etol} ${ftol} ${maxiter} ${maxeval}
        minimize 1e-12 ${ftol} ${maxiter} ${maxeval}
        minimize 1e-12 1e-08 ${maxiter} ${maxeval}
        minimize 1e-12 1e-08 10000 ${maxeval}
        minimize 1e-12 1e-08 10000 20000
WARNING: Resetting reneighboring criteria during minimization (../min.cpp:168)
Memory usage per processor = 3.35169 Mbytes
Step Temp PotEng Lx Ly Lz 
      61            0   -241.91163    2.2449075    38.890824    1.1224537 
      62            0   -241.91164    2.2449075    38.890824    1.1224537 
      63            0   -241.91164    2.2449075    38.890824    1.1224537 
      64            0   -241.91165    2.2449075    38.890824    1.1224537 
      65            0   -241.91166    2.2449075    38.890824    1.1224537 
      66            0   -241.91166    2.2449075    38.890824    1.1224537 
Loop time of 0.00208199 on 1 procs for 5 steps with 82 atoms

Minimization stats:
  Stopping criterion = linesearch alpha is zero
  Energy initial, next-to-last, final = 
         -241.91163037     -241.911656409     -241.911656409
  Force two-norm initial, final = 0.0428513 0.0194542
  Force max component initial, final = 0.0195964 0.00476535
  Final line search alpha, max atom move = 3.05176e-05 1.45427e-07
  Iterations, force evaluations = 5 44

Pair  time (%) = 0.00164174 (78.8545)
Neigh time (%) = 0 (0)
Comm  time (%) = 0.000135928 (6.52874)
Outpt time (%) = 8.09521e-05 (3.8882)
Other time (%) = 0.000223367 (10.7285)

Nlocal:    82 ave 82 max 82 min
Histogram: 1 0 0 0 0 0 0 0 0 0
Nghost:    175 ave 175 max 175 min
Histogram: 1 0 0 0 0 0 0 0 0 0
Neighs:    718 ave 718 max 718 min
Histogram: 1 0 0 0 0 0 0 0 0 0

Total # of neighbors = 718
Ave neighs/atom = 8.7561
Neighbor list builds = 0
Dangerous builds = 0
        # write_dump all atom ${dumpfile}
        next i
jump SELF loop1
        displace_atoms upper move ${xstep1} 0.0 0.0 units lattice
        displace_atoms upper move 0.00333333333333333 0.0 0.0 units lattice
        min_style ${style}
        min_style cg
        minimize ${etol} ${ftol} ${maxiter} ${maxeval}
        minimize 1e-12 ${ftol} ${maxiter} ${maxeval}
        minimize 1e-12 1e-08 ${maxiter} ${maxeval}
        minimize 1e-12 1e-08 10000 ${maxeval}
        minimize 1e-12 1e-08 10000 20000
WARNING: Resetting reneighboring criteria during minimization (../min.cpp:168)
Memory usage per processor = 3.35169 Mbytes
Step Temp PotEng Lx Ly Lz 
      66            0   -241.90487    2.2449075    38.890842    1.1224537 
      67            0   -241.90488    2.2449075    38.890842    1.1224537 
      68            0   -241.90489    2.2449075    38.890842    1.1224537 
      69            0    -241.9049    2.2449075    38.890842    1.1224537 
      70            0   -241.90491    2.2449075    38.890842    1.1224537 
      71            0   -241.90491    2.2449075    38.890842    1.1224537 
      72            0   -241.90491    2.2449075    38.890842    1.1224537 
Loop time of 0.00207301 on 1 procs for 6 steps with 82 atoms

Minimization stats:
  Stopping criterion = linesearch alpha is zero
  Energy initial, next-to-last, final = 
        -241.904871648     -241.904910339     -241.904910339
  Force two-norm initial, final = 0.054134 0.0153393
  Force max component initial, final = 0.0253226 0.00476831
  Final line search alpha, max atom move = 3.05176e-05 1.45517e-07
  Iterations, force evaluations = 6 52

Pair  time (%) = 0.0015978 (77.0762)
Neigh time (%) = 0 (0)
Comm  time (%) = 0.000150786 (7.27378)
Outpt time (%) = 0.000105126 (5.07118)
Other time (%) = 0.000219301 (10.5788)

Nlocal:    82 ave 82 max 82 min
Histogram: 1 0 0 0 0 0 0 0 0 0
Nghost:    175 ave 175 max 175 min
Histogram: 1 0 0 0 0 0 0 0 0 0
Neighs:    718 ave 718 max 718 min
Histogram: 1 0 0 0 0 0 0 0 0 0

Total # of neighbors = 718
Ave neighs/atom = 8.7561
Neighbor list builds = 0
Dangerous builds = 0
        # write_dump all atom ${dumpfile}
        next i
jump SELF loop1
        displace_atoms upper move ${xstep1} 0.0 0.0 units lattice
        displace_atoms upper move 0.00333333333333333 0.0 0.0 units lattice
        min_style ${style}
        min_style cg
        minimize ${etol} ${ftol} ${maxiter} ${maxeval}
        minimize 1e-12 ${ftol} ${maxiter} ${maxeval}
        minimize 1e-12 1e-08 ${maxiter} ${maxeval}
        minimize 1e-12 1e-08 10000 ${maxeval}
        minimize 1e-12 1e-08 10000 20000
WARNING: Resetting reneighboring criteria during minimization (../min.cpp:168)
Memory usage per processor = 3.35169 Mbytes
Step Temp PotEng Lx Ly Lz 
      72            0   -241.89797    2.2449075    38.890886    1.1224537 
      73            0   -241.89799    2.2449075    38.890886    1.1224537 
      74            0   -241.89799    2.2449075    38.890886    1.1224537 
      75            0     -241.898    2.2449075    38.890886    1.1224537 
      76            0   -241.89801    2.2449075    38.890886    1.1224537 
      77            0   -241.89802    2.2449075    38.890886    1.1224537 
      78            0   -241.89802    2.2449075    38.890886    1.1224537 
Loop time of 0.00138809 on 1 procs for 6 steps with 82 atoms

Minimization stats:
  Stopping criterion = linesearch alpha is zero
  Energy initial, next-to-last, final = 
        -241.897967032      -241.89801774      -241.89801774
  Force two-norm initial, final = 0.0686012 0.0198186
  Force max component initial, final = 0.0334428 0.0059536
  Final line search alpha, max atom move = 3.05176e-05 1.8169e-07
  Iterations, force evaluations = 6 50

Pair  time (%) = 0.00110372 (79.5133)
Neigh time (%) = 0 (0)
Comm  time (%) = 8.76538e-05 (6.31469)
Outpt time (%) = 4.22796e-05 (3.04588)
Other time (%) = 0.000154441 (11.1261)

Nlocal:    82 ave 82 max 82 min
Histogram: 1 0 0 0 0 0 0 0 0 0
Nghost:    175 ave 175 max 175 min
Histogram: 1 0 0 0 0 0 0 0 0 0
Neighs:    714 ave 714 max 714 min
Histogram: 1 0 0 0 0 0 0 0 0 0

Total # of neighbors = 714
Ave neighs/atom = 8.70732
Neighbor list builds = 0
Dangerous builds = 0
        # write_dump all atom ${dumpfile}
        next i
jump SELF loop1
        displace_atoms upper move ${xstep1} 0.0 0.0 units lattice
        displace_atoms upper move 0.00333333333333333 0.0 0.0 units lattice
        min_style ${style}
        min_style cg
        minimize ${etol} ${ftol} ${maxiter} ${maxeval}
        minimize 1e-12 ${ftol} ${maxiter} ${maxeval}
        minimize 1e-12 1e-08 ${maxiter} ${maxeval}
        minimize 1e-12 1e-08 10000 ${maxeval}
        minimize 1e-12 1e-08 10000 20000
WARNING: Resetting reneighboring criteria during minimization (../min.cpp:168)
Memory usage per processor = 3.35169 Mbytes
Step Temp PotEng Lx Ly Lz 
      78            0   -241.89095    2.2449075    38.891019    1.1224537 
      79            0   -241.89097    2.2449075    38.891019    1.1224537 
      80            0   -241.89098    2.2449075    38.891019    1.1224537 
      81            0   -241.89098    2.2449075    38.891019    1.1224537 
      82            0   -241.89099    2.2449075    38.891019    1.1224537 
      83            0   -241.89099    2.2449075    38.891019    1.1224537 
      84            0   -241.89099    2.2449075    38.891019    1.1224537 
Loop time of 0.00150796 on 1 procs for 6 steps with 82 atoms

Minimization stats:
  Stopping criterion = linesearch alpha is zero
  Energy initial, next-to-last, final = 
        -241.890949361     -241.890992426     -241.890992426
  Force two-norm initial, final = 0.0710666 0.0231467
  Force max component initial, final = 0.0341505 0.00561217
  Final line search alpha, max atom move = 7.62939e-06 4.28175e-08
  Iterations, force evaluations = 6 52

Pair  time (%) = 0.0012064 (80.0022)
Neigh time (%) = 0 (0)
Comm  time (%) = 9.21616e-05 (6.11169)
Outpt time (%) = 4.21901e-05 (2.79783)
Other time (%) = 0.000167207 (11.0883)

Nlocal:    82 ave 82 max 82 min
Histogram: 1 0 0 0 0 0 0 0 0 0
Nghost:    175 ave 175 max 175 min
Histogram: 1 0 0 0 0 0 0 0 0 0
Neighs:    714 ave 714 max 714 min
Histogram: 1 0 0 0 0 0 0 0 0 0

Total # of neighbors = 714
Ave neighs/atom = 8.70732
Neighbor list builds = 0
Dangerous builds = 0
        # write_dump all atom ${dumpfile}
        next i
jump SELF loop1
        displace_atoms upper move ${xstep1} 0.0 0.0 units lattice
        displace_atoms upper move 0.00333333333333333 0.0 0.0 units lattice
        min_style ${style}
        min_style cg
        minimize ${etol} ${ftol} ${maxiter} ${maxeval}
        minimize 1e-12 ${ftol} ${maxiter} ${maxeval}
        minimize 1e-12 1e-08 ${maxiter} ${maxeval}
        minimize 1e-12 1e-08 10000 ${maxeval}
        minimize 1e-12 1e-08 10000 20000
WARNING: Resetting reneighboring criteria during minimization (../min.cpp:168)
Memory usage per processor = 3.35169 Mbytes
Step Temp PotEng Lx Ly Lz 
      84            0    -241.8838    2.2449075    38.891187    1.1224537 
      85            0    -241.8838    2.2449075    38.891187    1.1224537 
      86            0   -241.88381    2.2449075    38.891187    1.1224537 
      87            0   -241.88382    2.2449075    38.891187    1.1224537 
      88            0   -241.88383    2.2449075    38.891187    1.1224537 
      89            0   -241.88384    2.2449075    38.891187    1.1224537 
      90            0   -241.88384    2.2449075    38.891187    1.1224537 
      91            0   -241.88384    2.2449075    38.891187    1.1224537 
Loop time of 0.00171505 on 1 procs for 7 steps with 82 atoms

Minimization stats:
  Stopping criterion = linesearch alpha is zero
  Energy initial, next-to-last, final = 
        -241.883796211     -241.883842514     -241.883842514
  Force two-norm initial, final = 0.060144 0.0130241
  Force max component initial, final = 0.0281803 0.0032906
  Final line search alpha, max atom move = 6.10352e-05 2.00842e-07
  Iterations, force evaluations = 7 59

Pair  time (%) = 0.00119905 (69.9132)
Neigh time (%) = 0 (0)
Comm  time (%) = 9.49466e-05 (5.53609)
Outpt time (%) = 0.000209005 (12.1865)
Other time (%) = 0.000212052 (12.3642)

Nlocal:    82 ave 82 max 82 min
Histogram: 1 0 0 0 0 0 0 0 0 0
Nghost:    175 ave 175 max 175 min
Histogram: 1 0 0 0 0 0 0 0 0 0
Neighs:    714 ave 714 max 714 min
Histogram: 1 0 0 0 0 0 0 0 0 0

Total # of neighbors = 714
Ave neighs/atom = 8.70732
Neighbor list builds = 0
Dangerous builds = 0
        # write_dump all atom ${dumpfile}
        next i
jump SELF loop1
        displace_atoms upper move ${xstep1} 0.0 0.0 units lattice
        displace_atoms upper move 0.00333333333333333 0.0 0.0 units lattice
        min_style ${style}
        min_style cg
        minimize ${etol} ${ftol} ${maxiter} ${maxeval}
        minimize 1e-12 ${ftol} ${maxiter} ${maxeval}
        minimize 1e-12 1e-08 ${maxiter} ${maxeval}
        minimize 1e-12 1e-08 10000 ${maxeval}
        minimize 1e-12 1e-08 10000 20000
WARNING: Resetting reneighboring criteria during minimization (../min.cpp:168)
Memory usage per processor = 3.35169 Mbytes
Step Temp PotEng Lx Ly Lz 
      91            0   -241.87652    2.2449075    38.891402    1.1224537 
      92            0   -241.87653    2.2449075    38.891402    1.1224537 
      93            0   -241.87653    2.2449075    38.891402    1.1224537 
      94            0   -241.87654    2.2449075    38.891402    1.1224537 
      95            0   -241.87655    2.2449075    38.891402    1.1224537 
      96            0   -241.87657    2.2449075    38.891402    1.1224537 
      97            0   -241.87658    2.2449075    38.891402    1.1224537 
      98            0   -241.87658    2.2449075    38.891402    1.1224537 
Loop time of 0.00230006 on 1 procs for 7 steps with 82 atoms

Minimization stats:
  Stopping criterion = linesearch alpha is zero
  Energy initial, next-to-last, final = 
        -241.876516125     -241.876578898     -241.876578898
  Force two-norm initial, final = 0.0634391 0.021686
  Force max component initial, final = 0.031121 0.00767366
  Final line search alpha, max atom move = 1.52588e-05 1.17091e-07
  Iterations, force evaluations = 7 57

Pair  time (%) = 0.00168199 (73.1279)
Neigh time (%) = 0 (0)
Comm  time (%) = 0.000240786 (10.4687)
Outpt time (%) = 7.38812e-05 (3.21214)
Other time (%) = 0.000303407 (13.1913)

Nlocal:    82 ave 82 max 82 min
Histogram: 1 0 0 0 0 0 0 0 0 0
Nghost:    175 ave 175 max 175 min
Histogram: 1 0 0 0 0 0 0 0 0 0
Neighs:    714 ave 714 max 714 min
Histogram: 1 0 0 0 0 0 0 0 0 0

Total # of neighbors = 714
Ave neighs/atom = 8.70732
Neighbor list builds = 0
Dangerous builds = 0
        # write_dump all atom ${dumpfile}
        next i
jump SELF loop1
        displace_atoms upper move ${xstep1} 0.0 0.0 units lattice
        displace_atoms upper move 0.00333333333333333 0.0 0.0 units lattice
        min_style ${style}
        min_style cg
        minimize ${etol} ${ftol} ${maxiter} ${maxeval}
        minimize 1e-12 ${ftol} ${maxiter} ${maxeval}
        minimize 1e-12 1e-08 ${maxiter} ${maxeval}
        minimize 1e-12 1e-08 10000 ${maxeval}
        minimize 1e-12 1e-08 10000 20000
WARNING: Resetting reneighboring criteria during minimization (../min.cpp:168)
Memory usage per processor = 3.35169 Mbytes
Step Temp PotEng Lx Ly Lz 
      98            0   -241.86915    2.2449075    38.892025    1.1224537 
      99            0   -241.86917    2.2449075    38.892025    1.1224537 
     100            0   -241.86918    2.2449075    38.892025    1.1224537 
     101            0   -241.86918    2.2449075    38.892025    1.1224537 
     102            0   -241.86918    2.2449075    38.892025    1.1224537 
     103            0   -241.86918    2.2449075    38.892025    1.1224537 
Loop time of 0.00120407 on 1 procs for 5 steps with 82 atoms

Minimization stats:
  Stopping criterion = linesearch alpha is zero
  Energy initial, next-to-last, final = 
        -241.869150393      -241.86918239      -241.86918239
  Force two-norm initial, final = 0.0626359 0.0133542
  Force max component initial, final = 0.0296217 0.0037889
  Final line search alpha, max atom move = 6.10352e-05 2.31256e-07
  Iterations, force evaluations = 5 44

Pair  time (%) = 0.000967329 (80.3384)
Neigh time (%) = 0 (0)
Comm  time (%) = 7.57597e-05 (6.29198)
Outpt time (%) = 3.49019e-05 (2.89867)
Other time (%) = 0.000126077 (10.4709)

Nlocal:    82 ave 82 max 82 min
Histogram: 1 0 0 0 0 0 0 0 0 0
Nghost:    175 ave 175 max 175 min
Histogram: 1 0 0 0 0 0 0 0 0 0
Neighs:    714 ave 714 max 714 min
Histogram: 1 0 0 0 0 0 0 0 0 0

Total # of neighbors = 714
Ave neighs/atom = 8.70732
Neighbor list builds = 0
Dangerous builds = 0
        # write_dump all atom ${dumpfile}
        next i
jump SELF loop1
        displace_atoms upper move ${xstep1} 0.0 0.0 units lattice
        displace_atoms upper move 0.00333333333333333 0.0 0.0 units lattice
        min_style ${style}
        min_style cg
        minimize ${etol} ${ftol} ${maxiter} ${maxeval}
        minimize 1e-12 ${ftol} ${maxiter} ${maxeval}
        minimize 1e-12 1e-08 ${maxiter} ${maxeval}
        minimize 1e-12 1e-08 10000 ${maxeval}
        minimize 1e-12 1e-08 10000 20000
WARNING: Resetting reneighboring criteria during minimization (../min.cpp:168)
Memory usage per processor = 3.35169 Mbytes
Step Temp PotEng Lx Ly Lz 
     103            0   -241.86161    2.2449075    38.892183    1.1224537 
     104            0   -241.86162    2.2449075    38.892183    1.1224537 
     105            0   -241.86163    2.2449075    38.892183    1.1224537 
     106            0   -241.86164    2.2449075    38.892183    1.1224537 
     107            0   -241.86165    2.2449075    38.892183    1.1224537 
     108            0   -241.86166    2.2449075    38.892183    1.1224537 
     109            0   -241.86167    2.2449075    38.892183    1.1224537 
     110            0   -241.86168    2.2449075    38.892183    1.1224537 
     111            0   -241.86168    2.2449075    38.892183    1.1224537 
Loop time of 0.0017411 on 1 procs for 8 steps with 82 atoms

Minimization stats:
  Stopping criterion = linesearch alpha is zero
  Energy initial, next-to-last, final = 
        -241.861609049     -241.861677186     -241.861677186
  Force two-norm initial, final = 0.0670543 0.0216506
  Force max component initial, final = 0.0328697 0.00512429
  Final line search alpha, max atom move = 1.52588e-05 7.81904e-08
  Iterations, force evaluations = 8 65

Pair  time (%) = 0.00137422 (78.9282)
Neigh time (%) = 0 (0)
Comm  time (%) = 0.000108831 (6.25068)
Outpt time (%) = 6.81308e-05 (3.91309)
Other time (%) = 0.000189919 (10.908)

Nlocal:    82 ave 82 max 82 min
Histogram: 1 0 0 0 0 0 0 0 0 0
Nghost:    175 ave 175 max 175 min
Histogram: 1 0 0 0 0 0 0 0 0 0
Neighs:    714 ave 714 max 714 min
Histogram: 1 0 0 0 0 0 0 0 0 0

Total # of neighbors = 714
Ave neighs/atom = 8.70732
Neighbor list builds = 0
Dangerous builds = 0
        # write_dump all atom ${dumpfile}
        next i
jump SELF loop1
        displace_atoms upper move ${xstep1} 0.0 0.0 units lattice
        displace_atoms upper move 0.00333333333333333 0.0 0.0 units lattice
        min_style ${style}
        min_style cg
        minimize ${etol} ${ftol} ${maxiter} ${maxeval}
        minimize 1e-12 ${ftol} ${maxiter} ${maxeval}
        minimize 1e-12 1e-08 ${maxiter} ${maxeval}
        minimize 1e-12 1e-08 10000 ${maxeval}
        minimize 1e-12 1e-08 10000 20000
WARNING: Resetting reneighboring criteria during minimization (../min.cpp:168)
Memory usage per processor = 3.35169 Mbytes
Step Temp PotEng Lx Ly Lz 
     111            0   -241.85399    2.2449075    38.892823    1.1224537 
     112            0   -241.85401    2.2449075    38.892823    1.1224537 
     113            0   -241.85402    2.2449075    38.892823    1.1224537 
     114            0   -241.85402    2.2449075    38.892823    1.1224537 
     115            0   -241.85403    2.2449075    38.892823    1.1224537 
     116            0   -241.85405    2.2449075    38.892823    1.1224537 
     117            0   -241.85406    2.2449075    38.892823    1.1224537 
     118            0   -241.85407    2.2449075    38.892823    1.1224537 
     119            0   -241.85407    2.2449075    38.892823    1.1224537 
Loop time of 0.001711 on 1 procs for 8 steps with 82 atoms

Minimization stats:
  Stopping criterion = linesearch alpha is zero
  Energy initial, next-to-last, final = 
        -241.853992751     -241.854068242     -241.854068242
  Force two-norm initial, final = 0.0664274 0.0180776
  Force max component initial, final = 0.0314974 0.00552982
  Final line search alpha, max atom move = 3.05176e-05 1.68757e-07
  Iterations, force evaluations = 8 63

Pair  time (%) = 0.0013464 (78.6911)
Neigh time (%) = 0 (0)
Comm  time (%) = 0.000102464 (5.98854)
Outpt time (%) = 6.23068e-05 (3.64155)
Other time (%) = 0.000199824 (11.6788)

Nlocal:    82 ave 82 max 82 min
Histogram: 1 0 0 0 0 0 0 0 0 0
Nghost:    175 ave 175 max 175 min
Histogram: 1 0 0 0 0 0 0 0 0 0
Neighs:    714 ave 714 max 714 min
Histogram: 1 0 0 0 0 0 0 0 0 0

Total # of neighbors = 714
Ave neighs/atom = 8.70732
Neighbor list builds = 0
Dangerous builds = 0
        # write_dump all atom ${dumpfile}
        next i
jump SELF loop1
        displace_atoms upper move ${xstep1} 0.0 0.0 units lattice
        displace_atoms upper move 0.00333333333333333 0.0 0.0 units lattice
        min_style ${style}
        min_style cg
        minimize ${etol} ${ftol} ${maxiter} ${maxeval}
        minimize 1e-12 ${ftol} ${maxiter} ${maxeval}
        minimize 1e-12 1e-08 ${maxiter} ${maxeval}
        minimize 1e-12 1e-08 10000 ${maxeval}
        minimize 1e-12 1e-08 10000 20000
WARNING: Resetting reneighboring criteria during minimization (../min.cpp:168)
Memory usage per processor = 3.35169 Mbytes
Step Temp PotEng Lx Ly Lz 
     119            0   -241.84628    2.2449075    38.893864    1.1224537 
     120            0    -241.8463    2.2449075    38.893864    1.1224537 
     121            0   -241.84631    2.2449075    38.893864    1.1224537 
     122            0   -241.84632    2.2449075    38.893864    1.1224537 
     123            0   -241.84632    2.2449075    38.893864    1.1224537 
     124            0   -241.84633    2.2449075    38.893864    1.1224537 
     125            0   -241.84635    2.2449075    38.893864    1.1224537 
     126            0    -241.8464    2.2449075    38.893864    1.1224537 
     127            0    -241.8464    2.2449075    38.893864    1.1224537 
Loop time of 0.00264899 on 1 procs for 8 steps with 82 atoms

Minimization stats:
  Stopping criterion = linesearch alpha is zero
  Energy initial, next-to-last, final = 
        -241.846277811     -241.846404004     -241.846404004
  Force two-norm initial, final = 0.0741673 0.0323562
  Force max component initial, final = 0.0360323 0.00922667
  Final line search alpha, max atom move = 7.62939e-06 7.03939e-08
  Iterations, force evaluations = 8 63

Pair  time (%) = 0.00195511 (73.806)
Neigh time (%) = 0 (0)
Comm  time (%) = 0.000259156 (9.78321)
Outpt time (%) = 9.89765e-05 (3.73639)
Other time (%) = 0.000335743 (12.6744)

Nlocal:    82 ave 82 max 82 min
Histogram: 1 0 0 0 0 0 0 0 0 0
Nghost:    175 ave 175 max 175 min
Histogram: 1 0 0 0 0 0 0 0 0 0
Neighs:    714 ave 714 max 714 min
Histogram: 1 0 0 0 0 0 0 0 0 0

Total # of neighbors = 714
Ave neighs/atom = 8.70732
Neighbor list builds = 0
Dangerous builds = 0
        # write_dump all atom ${dumpfile}
        next i
jump SELF loop1
        displace_atoms upper move ${xstep1} 0.0 0.0 units lattice
        displace_atoms upper move 0.00333333333333333 0.0 0.0 units lattice
        min_style ${style}
        min_style cg
        minimize ${etol} ${ftol} ${maxiter} ${maxeval}
        minimize 1e-12 ${ftol} ${maxiter} ${maxeval}
        minimize 1e-12 1e-08 ${maxiter} ${maxeval}
        minimize 1e-12 1e-08 10000 ${maxeval}
        minimize 1e-12 1e-08 10000 20000
WARNING: Resetting reneighboring criteria during minimization (../min.cpp:168)
Memory usage per processor = 3.35169 Mbytes
Step Temp PotEng Lx Ly Lz 
     127            0   -241.83853    2.2449075    38.897631    1.1224537 
     128            0   -241.83855    2.2449075    38.897631    1.1224537 
     129            0   -241.83855    2.2449075    38.897631    1.1224537 
Loop time of 0.00074889 on 1 procs for 2 steps with 82 atoms

Minimization stats:
  Stopping criterion = linesearch alpha is zero
  Energy initial, next-to-last, final = 
        -241.838528757     -241.838549338     -241.838549338
  Force two-norm initial, final = 0.0794024 0.0296577
  Force max component initial, final = 0.0363581 0.00945011
  Final line search alpha, max atom move = 7.62939e-06 7.20986e-08
  Iterations, force evaluations = 2 26

Pair  time (%) = 0.000614308 (82.0292)
Neigh time (%) = 0 (0)
Comm  time (%) = 4.47825e-05 (5.97986)
Outpt time (%) = 7.88271e-06 (1.05259)
Other time (%) = 8.19163e-05 (10.9384)

Nlocal:    82 ave 82 max 82 min
Histogram: 1 0 0 0 0 0 0 0 0 0
Nghost:    175 ave 175 max 175 min
Histogram: 1 0 0 0 0 0 0 0 0 0
Neighs:    714 ave 714 max 714 min
Histogram: 1 0 0 0 0 0 0 0 0 0

Total # of neighbors = 714
Ave neighs/atom = 8.70732
Neighbor list builds = 0
Dangerous builds = 0
        # write_dump all atom ${dumpfile}
        next i
jump SELF loop1
        displace_atoms upper move ${xstep1} 0.0 0.0 units lattice
        displace_atoms upper move 0.00333333333333333 0.0 0.0 units lattice
        min_style ${style}
        min_style cg
        minimize ${etol} ${ftol} ${maxiter} ${maxeval}
        minimize 1e-12 ${ftol} ${maxiter} ${maxeval}
        minimize 1e-12 1e-08 ${maxiter} ${maxeval}
        minimize 1e-12 1e-08 10000 ${maxeval}
        minimize 1e-12 1e-08 10000 20000
WARNING: Resetting reneighboring criteria during minimization (../min.cpp:168)
Memory usage per processor = 3.35169 Mbytes
Step Temp PotEng Lx Ly Lz 
     129            0   -241.83054    2.2449075    38.897652    1.1224537 
     130            0   -241.83058    2.2449075    38.897652    1.1224537 
     131            0   -241.83059    2.2449075    38.897652    1.1224537 
     132            0    -241.8306    2.2449075    38.897652    1.1224537 
     133            0    -241.8306    2.2449075    38.897652    1.1224537 
Loop time of 0.0118951 on 1 procs for 4 steps with 82 atoms

Minimization stats:
  Stopping criterion = linesearch alpha is zero
  Energy initial, next-to-last, final = 
        -241.830541721     -241.830596273     -241.830596273
  Force two-norm initial, final = 0.0824978 0.0142712
  Force max component initial, final = 0.0387716 0.00362665
  Final line search alpha, max atom move = 6.10352e-05 2.21353e-07
  Iterations, force evaluations = 4 37

Pair  time (%) = 0.000755387 (6.35041)
Neigh time (%) = 0 (0)
Comm  time (%) = 5.60015e-05 (0.470795)
Outpt time (%) = 0.0109772 (92.2832)
Other time (%) = 0.000106526 (0.89555)

Nlocal:    82 ave 82 max 82 min
Histogram: 1 0 0 0 0 0 0 0 0 0
Nghost:    175 ave 175 max 175 min
Histogram: 1 0 0 0 0 0 0 0 0 0
Neighs:    714 ave 714 max 714 min
Histogram: 1 0 0 0 0 0 0 0 0 0

Total # of neighbors = 714
Ave neighs/atom = 8.70732
Neighbor list builds = 0
Dangerous builds = 0
        # write_dump all atom ${dumpfile}
        next i
jump SELF loop1
        displace_atoms upper move ${xstep1} 0.0 0.0 units lattice
        displace_atoms upper move 0.00333333333333333 0.0 0.0 units lattice
        min_style ${style}
        min_style cg
        minimize ${etol} ${ftol} ${maxiter} ${maxeval}
        minimize 1e-12 ${ftol} ${maxiter} ${maxeval}
        minimize 1e-12 1e-08 ${maxiter} ${maxeval}
        minimize 1e-12 1e-08 10000 ${maxeval}
        minimize 1e-12 1e-08 10000 20000
WARNING: Resetting reneighboring criteria during minimization (../min.cpp:168)
Memory usage per processor = 3.35169 Mbytes
Step Temp PotEng Lx Ly Lz 
     133            0   -241.82249    2.2449075    38.897791    1.1224537 
     134            0   -241.82251    2.2449075    38.897791    1.1224537 
     135            0   -241.82252    2.2449075    38.897791    1.1224537 
     136            0   -241.82253    2.2449075    38.897791    1.1224537 
     137            0   -241.82253    2.2449075    38.897791    1.1224537 
Loop time of 0.000714066 on 1 procs for 4 steps with 82 atoms

Minimization stats:
  Stopping criterion = linesearch alpha is zero
  Energy initial, next-to-last, final = 
        -241.822494063     -241.822532317     -241.822532317
  Force two-norm initial, final = 0.0641925 0.0382535
  Force max component initial, final = 0.0314653 0.013149
  Final line search alpha, max atom move = 3.05176e-05 4.01276e-07
  Iterations, force evaluations = 4 36

Pair  time (%) = 0.000571795 (80.0759)
Neigh time (%) = 0 (0)
Comm  time (%) = 4.51471e-05 (6.32254)
Outpt time (%) = 1.72304e-05 (2.413)
Other time (%) = 7.9894e-05 (11.1886)

Nlocal:    82 ave 82 max 82 min
Histogram: 1 0 0 0 0 0 0 0 0 0
Nghost:    175 ave 175 max 175 min
Histogram: 1 0 0 0 0 0 0 0 0 0
Neighs:    714 ave 714 max 714 min
Histogram: 1 0 0 0 0 0 0 0 0 0

Total # of neighbors = 714
Ave neighs/atom = 8.70732
Neighbor list builds = 0
Dangerous builds = 0
        # write_dump all atom ${dumpfile}
        next i
jump SELF loop1
        displace_atoms upper move ${xstep1} 0.0 0.0 units lattice
        displace_atoms upper move 0.00333333333333333 0.0 0.0 units lattice
        min_style ${style}
        min_style cg
        minimize ${etol} ${ftol} ${maxiter} ${maxeval}
        minimize 1e-12 ${ftol} ${maxiter} ${maxeval}
        minimize 1e-12 1e-08 ${maxiter} ${maxeval}
        minimize 1e-12 1e-08 10000 ${maxeval}
        minimize 1e-12 1e-08 10000 20000
WARNING: Resetting reneighboring criteria during minimization (../min.cpp:168)
Memory usage per processor = 3.35169 Mbytes
Step Temp PotEng Lx Ly Lz 
     137            0   -241.81435    2.2449075    38.898149    1.1224537 
     138            0   -241.81437    2.2449075    38.898149    1.1224537 
     139            0   -241.81437    2.2449075    38.898149    1.1224537 
     140            0   -241.81438    2.2449075    38.898149    1.1224537 
     141            0   -241.81439    2.2449075    38.898149    1.1224537 
     142            0   -241.81441    2.2449075    38.898149    1.1224537 
     143            0   -241.81441    2.2449075    38.898149    1.1224537 
     144            0   -241.81441    2.2449075    38.898149    1.1224537 
Loop time of 0.00115307 on 1 procs for 7 steps with 82 atoms

Minimization stats:
  Stopping criterion = linesearch alpha is zero
  Energy initial, next-to-last, final = 
        -241.814348211     -241.814411617     -241.814411617
  Force two-norm initial, final = 0.0509247 0.0218897
  Force max component initial, final = 0.0213514 0.00516137
  Final line search alpha, max atom move = 1.52588e-05 7.87563e-08
  Iterations, force evaluations = 7 59

Pair  time (%) = 0.000912676 (79.1518)
Neigh time (%) = 0 (0)
Comm  time (%) = 7.65274e-05 (6.63684)
Outpt time (%) = 3.58266e-05 (3.10706)
Other time (%) = 0.00012804 (11.1043)

Nlocal:    82 ave 82 max 82 min
Histogram: 1 0 0 0 0 0 0 0 0 0
Nghost:    175 ave 175 max 175 min
Histogram: 1 0 0 0 0 0 0 0 0 0
Neighs:    714 ave 714 max 714 min
Histogram: 1 0 0 0 0 0 0 0 0 0

Total # of neighbors = 714
Ave neighs/atom = 8.70732
Neighbor list builds = 0
Dangerous builds = 0
        # write_dump all atom ${dumpfile}
        next i
jump SELF loop1
        displace_atoms upper move ${xstep1} 0.0 0.0 units lattice
        displace_atoms upper move 0.00333333333333333 0.0 0.0 units lattice
        min_style ${style}
        min_style cg
        minimize ${etol} ${ftol} ${maxiter} ${maxeval}
        minimize 1e-12 ${ftol} ${maxiter} ${maxeval}
        minimize 1e-12 1e-08 ${maxiter} ${maxeval}
        minimize 1e-12 1e-08 10000 ${maxeval}
        minimize 1e-12 1e-08 10000 20000
WARNING: Resetting reneighboring criteria during minimization (../min.cpp:168)
Memory usage per processor = 3.35169 Mbytes
Step Temp PotEng Lx Ly Lz 
     144            0   -241.80612    2.2449075    38.899242    1.1224537 
     145            0   -241.80614    2.2449075    38.899242    1.1224537 
     146            0   -241.80615    2.2449075    38.899242    1.1224537 
     147            0   -241.80616    2.2449075    38.899242    1.1224537 
     148            0   -241.80616    2.2449075    38.899242    1.1224537 
     149            0   -241.80616    2.2449075    38.899242    1.1224537 
     150            0   -241.80616    2.2449075    38.899242    1.1224537 
Loop time of 0.00175289 on 1 procs for 6 steps with 82 atoms

Minimization stats:
  Stopping criterion = linesearch alpha is zero
  Energy initial, next-to-last, final = 
        -241.806120117     -241.806157387     -241.806157387
  Force two-norm initial, final = 0.068511 0.0186199
  Force max component initial, final = 0.0325608 0.00445115
  Final line search alpha, max atom move = 3.05176e-05 1.35838e-07
  Iterations, force evaluations = 6 58

Pair  time (%) = 0.0015508 (88.471)
Neigh time (%) = 0 (0)
Comm  time (%) = 6.22839e-05 (3.55321)
Outpt time (%) = 2.88932e-05 (1.64832)
Other time (%) = 0.000110914 (6.32746)

Nlocal:    82 ave 82 max 82 min
Histogram: 1 0 0 0 0 0 0 0 0 0
Nghost:    175 ave 175 max 175 min
Histogram: 1 0 0 0 0 0 0 0 0 0
Neighs:    714 ave 714 max 714 min
Histogram: 1 0 0 0 0 0 0 0 0 0

Total # of neighbors = 714
Ave neighs/atom = 8.70732
Neighbor list builds = 0
Dangerous builds = 0
        # write_dump all atom ${dumpfile}
        next i
jump SELF loop1
        displace_atoms upper move ${xstep1} 0.0 0.0 units lattice
        displace_atoms upper move 0.00333333333333333 0.0 0.0 units lattice
        min_style ${style}
        min_style cg
        minimize ${etol} ${ftol} ${maxiter} ${maxeval}
        minimize 1e-12 ${ftol} ${maxiter} ${maxeval}
        minimize 1e-12 1e-08 ${maxiter} ${maxeval}
        minimize 1e-12 1e-08 10000 ${maxeval}
        minimize 1e-12 1e-08 10000 20000
WARNING: Resetting reneighboring criteria during minimization (../min.cpp:168)
Memory usage per processor = 3.35169 Mbytes
Step Temp PotEng Lx Ly Lz 
     150            0   -241.79776    2.2449075      38.8994    1.1224537 
     151            0   -241.79778    2.2449075      38.8994    1.1224537 
[...]
Memory usage per processor = 3.35169 Mbytes
Step Temp PotEng Lx Ly Lz 
    1224            0   -241.98278    2.2449075    38.902999    1.1224537 
    1225            0   -241.98278    2.2449075    38.902999    1.1224537 
Loop time of 0.000383027 on 1 procs for 1 steps with 82 atoms

Minimization stats:
  Stopping criterion = linesearch alpha is zero
  Energy initial, next-to-last, final = 
        -241.982783521     -241.982783521     -241.982783521
  Force two-norm initial, final = 0.040848 0.040848
  Force max component initial, final = 0.0147037 0.0147037
  Final line search alpha, max atom move = 3.8147e-06 5.60903e-08
  Iterations, force evaluations = 1 19

Pair  time (%) = 0.000317156 (82.8025)
Neigh time (%) = 0 (0)
Comm  time (%) = 2.50512e-05 (6.54031)
Outpt time (%) = 0 (0)
Other time (%) = 4.08199e-05 (10.6572)

Nlocal:    82 ave 82 max 82 min
Histogram: 1 0 0 0 0 0 0 0 0 0
Nghost:    185 ave 185 max 185 min
Histogram: 1 0 0 0 0 0 0 0 0 0
Neighs:    718 ave 718 max 718 min
Histogram: 1 0 0 0 0 0 0 0 0 0

Total # of neighbors = 718
Ave neighs/atom = 8.7561
Neighbor list builds = 0
Dangerous builds = 0
        # write_dump all atom ${dumpfile}
        next i
jump SELF loop1
        displace_atoms upper move ${xstep1} 0.0 0.0 units lattice
        displace_atoms upper move 0.00333333333333333 0.0 0.0 units lattice
        min_style ${style}
        min_style cg
        minimize ${etol} ${ftol} ${maxiter} ${maxeval}
        minimize 1e-12 ${ftol} ${maxiter} ${maxeval}
        minimize 1e-12 1e-08 ${maxiter} ${maxeval}
        minimize 1e-12 1e-08 10000 ${maxeval}
        minimize 1e-12 1e-08 10000 20000
WARNING: Resetting reneighboring criteria during minimization (../min.cpp:168)
Memory usage per processor = 3.35169 Mbytes
Step Temp PotEng Lx Ly Lz 
    1225            0   -241.98595    2.2449075    38.902999    1.1224537 
    1226            0   -241.98595    2.2449075    38.902999    1.1224537 
Loop time of 0.000577897 on 1 procs for 1 steps with 82 atoms

Minimization stats:
  Stopping criterion = linesearch alpha is zero
  Energy initial, next-to-last, final = 
        -241.985951664     -241.985951664     -241.985951664
  Force two-norm initial, final = 0.0580712 0.0580712
  Force max component initial, final = 0.0253486 0.0253486
  Final line search alpha, max atom move = 1.90735e-06 4.83486e-08
  Iterations, force evaluations = 1 20

Pair  time (%) = 0.000492385 (85.2028)
Neigh time (%) = 0 (0)
Comm  time (%) = 4.38606e-05 (7.5897)
Outpt time (%) = 0 (0)
Other time (%) = 4.16518e-05 (7.20747)

Nlocal:    82 ave 82 max 82 min
Histogram: 1 0 0 0 0 0 0 0 0 0
Nghost:    185 ave 185 max 185 min
Histogram: 1 0 0 0 0 0 0 0 0 0
Neighs:    718 ave 718 max 718 min
Histogram: 1 0 0 0 0 0 0 0 0 0

Total # of neighbors = 718
Ave neighs/atom = 8.7561
Neighbor list builds = 0
Dangerous builds = 0
        # write_dump all atom ${dumpfile}
        next i
jump SELF loop1
        displace_atoms upper move ${xstep1} 0.0 0.0 units lattice
        displace_atoms upper move 0.00333333333333333 0.0 0.0 units lattice
        min_style ${style}
        min_style cg
        minimize ${etol} ${ftol} ${maxiter} ${maxeval}
        minimize 1e-12 ${ftol} ${maxiter} ${maxeval}
        minimize 1e-12 1e-08 ${maxiter} ${maxeval}
        minimize 1e-12 1e-08 10000 ${maxeval}
        minimize 1e-12 1e-08 10000 20000
WARNING: Resetting reneighboring criteria during minimization (../min.cpp:168)
Memory usage per processor = 3.35169 Mbytes
Step Temp PotEng Lx Ly Lz 
    1226            0    -241.9888    2.2449075    38.902999    1.1224537 
    1227            0   -241.98882    2.2449075    38.902999    1.1224537 
    1228            0   -241.98882    2.2449075    38.902999    1.1224537 
    1229            0   -241.98882    2.2449075    38.902999    1.1224537 
Loop time of 0.00071703 on 1 procs for 3 steps with 82 atoms

Minimization stats:
  Stopping criterion = linesearch alpha is zero
  Energy initial, next-to-last, final = 
        -241.988799545     -241.988820515     -241.988820515
  Force two-norm initial, final = 0.0795752 0.0219862
  Force max component initial, final = 0.0371888 0.00766606
  Final line search alpha, max atom move = 1.52588e-05 1.16975e-07
  Iterations, force evaluations = 3 36

Pair  time (%) = 0.000586088 (81.7382)
Neigh time (%) = 0 (0)
Comm  time (%) = 4.24295e-05 (5.9174)
Outpt time (%) = 1.3063e-05 (1.82181)
Other time (%) = 7.54498e-05 (10.5225)

Nlocal:    82 ave 82 max 82 min
Histogram: 1 0 0 0 0 0 0 0 0 0
Nghost:    185 ave 185 max 185 min
Histogram: 1 0 0 0 0 0 0 0 0 0
Neighs:    718 ave 718 max 718 min
Histogram: 1 0 0 0 0 0 0 0 0 0

Total # of neighbors = 718
Ave neighs/atom = 8.7561
Neighbor list builds = 0
Dangerous builds = 0
        # write_dump all atom ${dumpfile}
        next i
jump SELF loop1
        displace_atoms upper move ${xstep1} 0.0 0.0 units lattice
        displace_atoms upper move 0.00333333333333333 0.0 0.0 units lattice
        min_style ${style}
        min_style cg
        minimize ${etol} ${ftol} ${maxiter} ${maxeval}
        minimize 1e-12 ${ftol} ${maxiter} ${maxeval}
        minimize 1e-12 1e-08 ${maxiter} ${maxeval}
        minimize 1e-12 1e-08 10000 ${maxeval}
        minimize 1e-12 1e-08 10000 20000
WARNING: Resetting reneighboring criteria during minimization (../min.cpp:168)
Memory usage per processor = 3.35169 Mbytes
Step Temp PotEng Lx Ly Lz 
    1229            0   -241.99135    2.2449075    38.902971    1.1224537 
    1230            0   -241.99135    2.2449075    38.902971    1.1224537 
    1231            0   -241.99135    2.2449075    38.902971    1.1224537 
Loop time of 0.00110295 on 1 procs for 2 steps with 82 atoms

Minimization stats:
  Stopping criterion = linesearch alpha is zero
  Energy initial, next-to-last, final = 
        -241.991348757     -241.991350986     -241.991350986
  Force two-norm initial, final = 0.0366075 0.0270063
  Force max component initial, final = 0.0154637 0.0099327
  Final line search alpha, max atom move = 1.52588e-05 1.51561e-07
  Iterations, force evaluations = 2 26

Pair  time (%) = 0.000335827 (30.4479)
Neigh time (%) = 0 (0)
Comm  time (%) = 9.52347e-05 (8.63451)
Outpt time (%) = -5.69271e-08 (-0.00516133)
Other time (%) = 0.00067195 (60.9227)

Nlocal:    82 ave 82 max 82 min
Histogram: 1 0 0 0 0 0 0 0 0 0
Nghost:    185 ave 185 max 185 min
Histogram: 1 0 0 0 0 0 0 0 0 0
Neighs:    718 ave 718 max 718 min
Histogram: 1 0 0 0 0 0 0 0 0 0

Total # of neighbors = 718
Ave neighs/atom = 8.7561
Neighbor list builds = 0
Dangerous builds = 0
        # write_dump all atom ${dumpfile}
        next i
jump SELF loop1
        displace_atoms upper move ${xstep1} 0.0 0.0 units lattice
        displace_atoms upper move 0.00333333333333333 0.0 0.0 units lattice
        min_style ${style}
        min_style cg
        minimize ${etol} ${ftol} ${maxiter} ${maxeval}
        minimize 1e-12 ${ftol} ${maxiter} ${maxeval}
        minimize 1e-12 1e-08 ${maxiter} ${maxeval}
        minimize 1e-12 1e-08 10000 ${maxeval}
        minimize 1e-12 1e-08 10000 20000
WARNING: Resetting reneighboring criteria during minimization (../min.cpp:168)
Memory usage per processor = 3.35169 Mbytes
Step Temp PotEng Lx Ly Lz 
    1231            0   -241.99354    2.2449075    38.902958    1.1224537 
    1232            0   -241.99356    2.2449075    38.902958    1.1224537 
    1233            0   -241.99356    2.2449075    38.902958    1.1224537 
Loop time of 0.000480884 on 1 procs for 2 steps with 82 atoms

Minimization stats:
  Stopping criterion = linesearch alpha is zero
  Energy initial, next-to-last, final = 
         -241.99354405     -241.993558571     -241.993558571
  Force two-norm initial, final = 0.0422472 0.0292811
  Force max component initial, final = 0.0190502 0.00959678
  Final line search alpha, max atom move = 1.52588e-05 1.46435e-07
  Iterations, force evaluations = 2 24

Pair  time (%) = 0.000386139 (80.2977)
Neigh time (%) = 0 (0)
Comm  time (%) = 2.78809e-05 (5.79784)
Outpt time (%) = 5.98503e-06 (1.24459)
Other time (%) = 6.08792e-05 (12.6599)

Nlocal:    82 ave 82 max 82 min
Histogram: 1 0 0 0 0 0 0 0 0 0
Nghost:    185 ave 185 max 185 min
Histogram: 1 0 0 0 0 0 0 0 0 0
Neighs:    718 ave 718 max 718 min
Histogram: 1 0 0 0 0 0 0 0 0 0

Total # of neighbors = 718
Ave neighs/atom = 8.7561
Neighbor list builds = 0
Dangerous builds = 0
        # write_dump all atom ${dumpfile}
        next i
jump SELF loop1
        displace_atoms upper move ${xstep1} 0.0 0.0 units lattice
        displace_atoms upper move 0.00333333333333333 0.0 0.0 units lattice
        min_style ${style}
        min_style cg
        minimize ${etol} ${ftol} ${maxiter} ${maxeval}
        minimize 1e-12 ${ftol} ${maxiter} ${maxeval}
        minimize 1e-12 1e-08 ${maxiter} ${maxeval}
        minimize 1e-12 1e-08 10000 ${maxeval}
        minimize 1e-12 1e-08 10000 20000
WARNING: Resetting reneighboring criteria during minimization (../min.cpp:168)
Memory usage per processor = 3.35169 Mbytes
Step Temp PotEng Lx Ly Lz 
    1233            0   -241.99543    2.2449075    38.902909    1.1224537 
    1234            0   -241.99543    2.2449075    38.902909    1.1224537 
Loop time of 0.000344902 on 1 procs for 1 steps with 82 atoms

Minimization stats:
  Stopping criterion = linesearch alpha is zero
  Energy initial, next-to-last, final = 
        -241.995425262     -241.995425262     -241.995425262
  Force two-norm initial, final = 0.022731 0.022731
  Force max component initial, final = 0.00959678 0.00959678
  Final line search alpha, max atom move = 1.52588e-05 1.46435e-07
  Iterations, force evaluations = 1 17

Pair  time (%) = 0.000284824 (82.5811)
Neigh time (%) = 0 (0)
Comm  time (%) = 1.99036e-05 (5.77081)
Outpt time (%) = 0 (0)
Other time (%) = 4.01747e-05 (11.6481)

Nlocal:    82 ave 82 max 82 min
Histogram: 1 0 0 0 0 0 0 0 0 0
Nghost:    185 ave 185 max 185 min
Histogram: 1 0 0 0 0 0 0 0 0 0
Neighs:    718 ave 718 max 718 min
Histogram: 1 0 0 0 0 0 0 0 0 0

Total # of neighbors = 718
Ave neighs/atom = 8.7561
Neighbor list builds = 0
Dangerous builds = 0
        # write_dump all atom ${dumpfile}
        next i
jump SELF loop1
        displace_atoms upper move ${xstep1} 0.0 0.0 units lattice
        displace_atoms upper move 0.00333333333333333 0.0 0.0 units lattice
        min_style ${style}
        min_style cg
        minimize ${etol} ${ftol} ${maxiter} ${maxeval}
        minimize 1e-12 ${ftol} ${maxiter} ${maxeval}
        minimize 1e-12 1e-08 ${maxiter} ${maxeval}
        minimize 1e-12 1e-08 10000 ${maxeval}
        minimize 1e-12 1e-08 10000 20000
WARNING: Resetting reneighboring criteria during minimization (../min.cpp:168)
Memory usage per processor = 3.35169 Mbytes
Step Temp PotEng Lx Ly Lz 
    1234            0   -241.99695    2.2449075    38.902909    1.1224537 
    1235            0   -241.99696    2.2449075    38.902909    1.1224537 
    1236            0   -241.99696    2.2449075    38.902909    1.1224537 
    1237            0   -241.99696    2.2449075    38.902909    1.1224537 
Loop time of 0.000606071 on 1 procs for 3 steps with 82 atoms

Minimization stats:
  Stopping criterion = linesearch alpha is zero
  Energy initial, next-to-last, final = 
        -241.996953651     -241.996959165     -241.996959165
  Force two-norm initial, final = 0.0244293 0.0129274
  Force max component initial, final = 0.00959678 0.00332111
  Final line search alpha, max atom move = 6.10352e-05 2.02705e-07
  Iterations, force evaluations = 3 30

Pair  time (%) = 0.000488309 (80.5695)
Neigh time (%) = 0 (0)
Comm  time (%) = 3.66158e-05 (6.04149)
Outpt time (%) = 1.189e-05 (1.96181)
Other time (%) = 6.92568e-05 (11.4272)

Nlocal:    82 ave 82 max 82 min
Histogram: 1 0 0 0 0 0 0 0 0 0
Nghost:    185 ave 185 max 185 min
Histogram: 1 0 0 0 0 0 0 0 0 0
Neighs:    718 ave 718 max 718 min
Histogram: 1 0 0 0 0 0 0 0 0 0

Total # of neighbors = 718
Ave neighs/atom = 8.7561
Neighbor list builds = 0
Dangerous builds = 0
        # write_dump all atom ${dumpfile}
        next i
jump SELF loop1
        displace_atoms upper move ${xstep1} 0.0 0.0 units lattice
        displace_atoms upper move 0.00333333333333333 0.0 0.0 units lattice
        min_style ${style}
        min_style cg
        minimize ${etol} ${ftol} ${maxiter} ${maxeval}
        minimize 1e-12 ${ftol} ${maxiter} ${maxeval}
        minimize 1e-12 1e-08 ${maxiter} ${maxeval}
        minimize 1e-12 1e-08 10000 ${maxeval}
        minimize 1e-12 1e-08 10000 20000
WARNING: Resetting reneighboring criteria during minimization (../min.cpp:168)
Memory usage per processor = 3.35169 Mbytes
Step Temp PotEng Lx Ly Lz 
    1237            0   -241.99815    2.2449075    38.902839    1.1224537 
    1238            0   -241.99815    2.2449075    38.902839    1.1224537 
    1239            0   -241.99816    2.2449075    38.902839    1.1224537 
    1240            0   -241.99816    2.2449075    38.902839    1.1224537 
    1241            0   -241.99816    2.2449075    38.902839    1.1224537 
    1242            0   -241.99816    2.2449075    38.902839    1.1224537 
    1243            0   -241.99816    2.2449075    38.902839    1.1224537 
Loop time of 0.00187508 on 1 procs for 6 steps with 82 atoms

Minimization stats:
  Stopping criterion = linesearch alpha is zero
  Energy initial, next-to-last, final = 
         -241.99814928      -241.99816026      -241.99816026
  Force two-norm initial, final = 0.017755 0.0222704
  Force max component initial, final = 0.00623593 0.00947339
  Final line search alpha, max atom move = 1.52588e-05 1.44553e-07
  Iterations, force evaluations = 6 67

Pair  time (%) = 0.00162545 (86.6868)
Neigh time (%) = 0 (0)
Comm  time (%) = 7.71048e-05 (4.11208)
Outpt time (%) = 3.80499e-05 (2.02924)
Other time (%) = 0.000134479 (7.17192)

Nlocal:    82 ave 82 max 82 min
Histogram: 1 0 0 0 0 0 0 0 0 0
Nghost:    185 ave 185 max 185 min
Histogram: 1 0 0 0 0 0 0 0 0 0
Neighs:    718 ave 718 max 718 min
Histogram: 1 0 0 0 0 0 0 0 0 0

Total # of neighbors = 718
Ave neighs/atom = 8.7561
Neighbor list builds = 0
Dangerous builds = 0
        # write_dump all atom ${dumpfile}
        next i
jump SELF loop1
        displace_atoms upper move ${xstep1} 0.0 0.0 units lattice
        displace_atoms upper move 0.00333333333333333 0.0 0.0 units lattice
        min_style ${style}
        min_style cg
        minimize ${etol} ${ftol} ${maxiter} ${maxeval}
        minimize 1e-12 ${ftol} ${maxiter} ${maxeval}
        minimize 1e-12 1e-08 ${maxiter} ${maxeval}
        minimize 1e-12 1e-08 10000 ${maxeval}
        minimize 1e-12 1e-08 10000 20000
WARNING: Resetting reneighboring criteria during minimization (../min.cpp:168)
Memory usage per processor = 3.35169 Mbytes
Step Temp PotEng Lx Ly Lz 
    1243            0   -241.99901    2.2449075    38.902571    1.1224537 
    1244            0   -241.99901    2.2449075    38.902571    1.1224537 
    1245            0   -241.99902    2.2449075    38.902571    1.1224537 
    1246            0   -241.99903    2.2449075    38.902571    1.1224537 
    1247            0   -241.99905    2.2449075    38.902571    1.1224537 
    1248            0   -241.99906    2.2449075    38.902571    1.1224537 
    1249            0   -241.99911    2.2449075    38.902571    1.1224537 
    1250            0   -241.99916    2.2449075    38.902571    1.1224537 
    1251            0   -241.99916    2.2449075    38.902571    1.1224537 
    1252            0   -241.99916    2.2449075    38.902571    1.1224537 
Loop time of 0.00136612 on 1 procs for 9 steps with 82 atoms

Minimization stats:
  Stopping criterion = linesearch alpha is zero
  Energy initial, next-to-last, final = 
         -241.99901297     -241.999158034     -241.999158034
  Force two-norm initial, final = 0.0166779 0.0269483
  Force max component initial, final = 0.00592871 0.00739611
  Final line search alpha, max atom move = 1.52588e-05 1.12856e-07
  Iterations, force evaluations = 9 69

Pair  time (%) = 0.00108355 (79.3161)
Neigh time (%) = 0 (0)
Comm  time (%) = 8.97777e-05 (6.57174)
Outpt time (%) = 4.97433e-05 (3.64122)
Other time (%) = 0.000143045 (10.4709)

Nlocal:    82 ave 82 max 82 min
Histogram: 1 0 0 0 0 0 0 0 0 0
Nghost:    185 ave 185 max 185 min
Histogram: 1 0 0 0 0 0 0 0 0 0
Neighs:    718 ave 718 max 718 min
Histogram: 1 0 0 0 0 0 0 0 0 0

Total # of neighbors = 718
Ave neighs/atom = 8.7561
Neighbor list builds = 0
Dangerous builds = 0
        # write_dump all atom ${dumpfile}
        next i
jump SELF loop1
        displace_atoms upper move ${xstep1} 0.0 0.0 units lattice
        displace_atoms upper move 0.00333333333333333 0.0 0.0 units lattice
        min_style ${style}
        min_style cg
        minimize ${etol} ${ftol} ${maxiter} ${maxeval}
        minimize 1e-12 ${ftol} ${maxiter} ${maxeval}
        minimize 1e-12 1e-08 ${maxiter} ${maxeval}
        minimize 1e-12 1e-08 10000 ${maxeval}
        minimize 1e-12 1e-08 10000 20000
WARNING: Resetting reneighboring criteria during minimization (../min.cpp:168)
Memory usage per processor = 3.35169 Mbytes
Step Temp PotEng Lx Ly Lz 
    1252            0   -241.99967    2.2449075    38.896687    1.1224537 
    1253            0   -241.99967    2.2449075    38.896687    1.1224537 
Loop time of 0.000331921 on 1 procs for 1 steps with 82 atoms

Minimization stats:
  Stopping criterion = linesearch alpha is zero
  Energy initial, next-to-last, final = 
         -241.99967039      -241.99967039      -241.99967039
  Force two-norm initial, final = 0.0276045 0.0276045
  Force max component initial, final = 0.00739611 0.00739611
  Final line search alpha, max atom move = 1.52588e-05 1.12856e-07
  Iterations, force evaluations = 1 17

Pair  time (%) = 0.000272211 (82.0107)
Neigh time (%) = 0 (0)
Comm  time (%) = 2.19301e-05 (6.60701)
Outpt time (%) = 0 (0)
Other time (%) = 3.77803e-05 (11.3823)

Nlocal:    82 ave 82 max 82 min
Histogram: 1 0 0 0 0 0 0 0 0 0
Nghost:    185 ave 185 max 185 min
Histogram: 1 0 0 0 0 0 0 0 0 0
Neighs:    718 ave 718 max 718 min
Histogram: 1 0 0 0 0 0 0 0 0 0

Total # of neighbors = 718
Ave neighs/atom = 8.7561
Neighbor list builds = 0
Dangerous builds = 0
        # write_dump all atom ${dumpfile}
        next i
jump SELF loop1
        displace_atoms upper move ${xstep1} 0.0 0.0 units lattice
        displace_atoms upper move 0.00333333333333333 0.0 0.0 units lattice
        min_style ${style}
        min_style cg
        minimize ${etol} ${ftol} ${maxiter} ${maxeval}
        minimize 1e-12 ${ftol} ${maxiter} ${maxeval}
        minimize 1e-12 1e-08 ${maxiter} ${maxeval}
        minimize 1e-12 1e-08 10000 ${maxeval}
        minimize 1e-12 1e-08 10000 20000
WARNING: Resetting reneighboring criteria during minimization (../min.cpp:168)
Memory usage per processor = 3.35169 Mbytes
Step Temp PotEng Lx Ly Lz 
    1253            0   -241.99984    2.2449075    38.896687    1.1224537 
    1254            0   -241.99984    2.2449075    38.896687    1.1224537 
Loop time of 0.000235892 on 1 procs for 1 steps with 82 atoms

Minimization stats:
  Stopping criterion = linesearch alpha is zero
  Energy initial, next-to-last, final = 
        -241.999841198     -241.999841198     -241.999841198
  Force two-norm initial, final = 0.0279644 0.0279644
  Force max component initial, final = 0.00739611 0.00739611
  Final line search alpha, max atom move = 1.52588e-05 1.12856e-07
  Iterations, force evaluations = 1 17

Pair  time (%) = 0.000191115 (81.0183)
Neigh time (%) = 0 (0)
Comm  time (%) = 1.41782e-05 (6.01048)
Outpt time (%) = 0 (0)
Other time (%) = 3.0598e-05 (12.9712)

Nlocal:    82 ave 82 max 82 min
Histogram: 1 0 0 0 0 0 0 0 0 0
Nghost:    185 ave 185 max 185 min
Histogram: 1 0 0 0 0 0 0 0 0 0
Neighs:    718 ave 718 max 718 min
Histogram: 1 0 0 0 0 0 0 0 0 0

Total # of neighbors = 718
Ave neighs/atom = 8.7561
Neighbor list builds = 0
Dangerous builds = 0
        # write_dump all atom ${dumpfile}
        next i
jump SELF loop1


