LAMMPS (28 Jun 2014)
# attempt at getting generalized stacking fault (GSF) energy curve

#file prefix
variable prefix string gsf_V_inter1newnorm
variable dumpfile string ${prefix}.*.dump
variable dumpfile string gsf_V_inter1newnorm.*.dump
variable restartfile string ${prefix}.*.equil
variable restartfile string gsf_V_inter1newnorm.*.equil

#Mass (g/mol)
variable m equal 1

# lattice constant (in Angstroms) and orientation of axes (given by lattice vectors)
variable rho equal 1.1547
variable x1 equal 1
variable x2 equal 0
variable x3 equal 0
variable y1 equal 0
variable y2 equal 1
variable y3 equal 0
# length of lattice in different directions (using orientation of lattice vectors)
variable ax equal sqrt(${x1}*${x1}+${x2}*${x2}+${x3}*${x3})
variable ax equal sqrt(1*${x1}+${x2}*${x2}+${x3}*${x3})
variable ax equal sqrt(1*1+${x2}*${x2}+${x3}*${x3})
variable ax equal sqrt(1*1+0*${x2}+${x3}*${x3})
variable ax equal sqrt(1*1+0*0+${x3}*${x3})
variable ax equal sqrt(1*1+0*0+0*${x3})
variable ax equal sqrt(1*1+0*0+0*0)
variable ay equal sqrt(${y1}*${y1}+${y2}*${y2}+${y3}*${y3})
variable ay equal sqrt(0*${y1}+${y2}*${y2}+${y3}*${y3})
variable ay equal sqrt(0*0+${y2}*${y2}+${y3}*${y3})
variable ay equal sqrt(0*0+1*${y2}+${y3}*${y3})
variable ay equal sqrt(0*0+1*1+${y3}*${y3})
variable ay equal sqrt(0*0+1*1+0*${y3})
variable ay equal sqrt(0*0+1*1+0*0)
variable az equal 1

# size of box in lattice units
variable lxpos equal 1
variable lxneg equal -1*${lxpos}
variable lxneg equal -1*1
variable lypos equal 10
variable lyneg equal -1*${lypos}
variable lyneg equal -1*10
variable lzpos equal 0
variable lzneg equal -1

# Define minimization parameters and damping
variable etol equal 1.0e-12
variable ftol equal 1.0e-8
variable maxiter equal 10000
variable maxeval equal 20000
variable style string cg

# boundary conditions
dimension	2
boundary	p s p
atom_style	atomic

# create geometry
units		lj
lattice         hex ${rho}
lattice         hex 1.1547
Lattice spacing in x,y,z = 1 1.73205 1
region		myregion block ${lxneg} ${lxpos} ${lyneg} ${lypos} ${lzneg} ${lzpos} units lattice
region		myregion block -1 ${lxpos} ${lyneg} ${lypos} ${lzneg} ${lzpos} units lattice
region		myregion block -1 1 ${lyneg} ${lypos} ${lzneg} ${lzpos} units lattice
region		myregion block -1 1 -10 ${lypos} ${lzneg} ${lzpos} units lattice
region		myregion block -1 1 -10 10 ${lzneg} ${lzpos} units lattice
region		myregion block -1 1 -10 10 -1 ${lzpos} units lattice
region		myregion block -1 1 -10 10 -1 0 units lattice
create_box	3 myregion
Created orthogonal box = (-1 -17.3205 -1) to (1 17.3205 0)
  1 by 1 by 1 MPI processor grid
create_atoms	1 box
Created 82 atoms

# define masses
mass * $m
mass * 1

# my fake/morse potential
pair_style      table linear 3001
pair_coeff      * * vpotential_inter1newnorm dummy
neighbor	0.3 bin
neigh_modify	delay 5

# define groups
region	    upper block INF INF 0.01 ${lypos} INF INF units lattice
region	    upper block INF INF 0.01 10 INF INF units lattice
group		upper region upper
40 atoms in group upper

# Setup output
thermo 1
thermo_style custom step temp pe lx ly lz
thermo_modify norm no

# Compute initial state by relaxing box
min_style ${style}
min_style cg
minimize ${etol} ${ftol} ${maxiter} ${maxeval}
minimize 1e-12 ${ftol} ${maxiter} ${maxeval}
minimize 1e-12 1e-08 ${maxiter} ${maxeval}
minimize 1e-12 1e-08 10000 ${maxeval}
minimize 1e-12 1e-08 10000 20000
WARNING: Resetting reneighboring criteria during minimization (../min.cpp:168)
Memory usage per processor = 3.35161 Mbytes
Step Temp PotEng Lx Ly Lz 
       0            0   -241.99991    2.0000005    34.647952    1.0000002 
       1            0   -241.99991    2.0000005    34.647952    1.0000002 
Loop time of 6.79825e-05 on 1 procs for 1 steps with 82 atoms

Minimization stats:
  Stopping criterion = linesearch alpha is zero
  Energy initial, next-to-last, final = 
        -241.999911808     -241.999911808     -241.999911808
  Force two-norm initial, final = 6.11446e-06 6.11446e-06
  Force max component initial, final = 3.05723e-06 3.05723e-06
  Final line search alpha, max atom move = 0.5 1.52862e-06
  Iterations, force evaluations = 1 2

Pair  time (%) = 4.80376e-05 (70.6618)
Neigh time (%) = 0 (0)
Comm  time (%) = 5.01424e-06 (7.37578)
Outpt time (%) = 0 (0)
Other time (%) = 1.49306e-05 (21.9624)

Nlocal:    82 ave 82 max 82 min
Histogram: 1 0 0 0 0 0 0 0 0 0
Nghost:    185 ave 185 max 185 min
Histogram: 1 0 0 0 0 0 0 0 0 0
Neighs:    718 ave 718 max 718 min
Histogram: 1 0 0 0 0 0 0 0 0 0

Total # of neighbors = 718
Ave neighs/atom = 8.7561
Neighbor list builds = 0
Dangerous builds = 0

# don't allow atoms to relax in x-direction
fix 2 all setforce 0.0 NULL 0.0

# GSF energy curve will have 100*2 steps
variable nsteps equal 300
variable sstep1 equal 1.
variable xstep1 equal ${sstep1}/(${ax}*${nsteps})
variable xstep1 equal 1/(${ax}*${nsteps})
variable xstep1 equal 1/(1*${nsteps})
variable xstep1 equal 1/(1*300)

variable i loop ${nsteps}
variable i loop 300
label loop1
        displace_atoms upper move ${xstep1} 0.0 0.0 units lattice
        displace_atoms upper move 0.00333333333333333 0.0 0.0 units lattice
        min_style ${style}
        min_style cg
        minimize ${etol} ${ftol} ${maxiter} ${maxeval}
        minimize 1e-12 ${ftol} ${maxiter} ${maxeval}
        minimize 1e-12 1e-08 ${maxiter} ${maxeval}
        minimize 1e-12 1e-08 10000 ${maxeval}
        minimize 1e-12 1e-08 10000 20000
WARNING: Resetting reneighboring criteria during minimization (../min.cpp:168)
Memory usage per processor = 3.35161 Mbytes
Step Temp PotEng Lx Ly Lz 
       1            0   -241.99973    2.0000005    34.647952    1.0000002 
       2            0   -241.99973    2.0000005    34.647952    1.0000002 
Loop time of 0.000189972 on 1 procs for 1 steps with 82 atoms

Minimization stats:
  Stopping criterion = linesearch alpha is zero
  Energy initial, next-to-last, final = 
        -241.999734982     -241.999734982     -241.999734982
  Force two-norm initial, final = 0.00166994 0.00166994
  Force max component initial, final = 0.000834963 0.000834963
  Final line search alpha, max atom move = 0.00390625 3.26157e-06
  Iterations, force evaluations = 1 9

Pair  time (%) = 0.000156637 (82.4528)
Neigh time (%) = 0 (0)
Comm  time (%) = 1.31238e-05 (6.90831)
Outpt time (%) = 0 (0)
Other time (%) = 2.02109e-05 (10.6389)

Nlocal:    82 ave 82 max 82 min
Histogram: 1 0 0 0 0 0 0 0 0 0
Nghost:    185 ave 185 max 185 min
Histogram: 1 0 0 0 0 0 0 0 0 0
Neighs:    718 ave 718 max 718 min
Histogram: 1 0 0 0 0 0 0 0 0 0

Total # of neighbors = 718
Ave neighs/atom = 8.7561
Neighbor list builds = 0
Dangerous builds = 0
        # write_dump all atom ${dumpfile}
        next i
jump SELF loop1
        displace_atoms upper move ${xstep1} 0.0 0.0 units lattice
        displace_atoms upper move 0.00333333333333333 0.0 0.0 units lattice
        min_style ${style}
        min_style cg
        minimize ${etol} ${ftol} ${maxiter} ${maxeval}
        minimize 1e-12 ${ftol} ${maxiter} ${maxeval}
        minimize 1e-12 1e-08 ${maxiter} ${maxeval}
        minimize 1e-12 1e-08 10000 ${maxeval}
        minimize 1e-12 1e-08 10000 20000
WARNING: Resetting reneighboring criteria during minimization (../min.cpp:168)
Memory usage per processor = 3.35161 Mbytes
Step Temp PotEng Lx Ly Lz 
       2            0   -241.99923    2.0000005    34.647952    1.0000002 
       3            0   -241.99923    2.0000005    34.647952    1.0000002 
       4            0   -241.99923    2.0000005    34.647952    1.0000002 
       5            0   -241.99923    2.0000005    34.647952    1.0000002 
Loop time of 0.000645004 on 1 procs for 3 steps with 82 atoms

Minimization stats:
  Stopping criterion = linesearch alpha is zero
  Energy initial, next-to-last, final = 
         -241.99922677     -241.999226919     -241.999226919
  Force two-norm initial, final = 0.00639572 0.00411107
  Force max component initial, final = 0.00319786 0.00202197
  Final line search alpha, max atom move = 0.000488281 9.87289e-07
  Iterations, force evaluations = 3 33

Pair  time (%) = 0.000528264 (81.9009)
Neigh time (%) = 0 (0)
Comm  time (%) = 3.68023e-05 (5.70574)
Outpt time (%) = 1.18886e-05 (1.84318)
Other time (%) = 6.80489e-05 (10.5502)

Nlocal:    82 ave 82 max 82 min
Histogram: 1 0 0 0 0 0 0 0 0 0
Nghost:    185 ave 185 max 185 min
Histogram: 1 0 0 0 0 0 0 0 0 0
Neighs:    718 ave 718 max 718 min
Histogram: 1 0 0 0 0 0 0 0 0 0

Total # of neighbors = 718
Ave neighs/atom = 8.7561
Neighbor list builds = 0
Dangerous builds = 0
        # write_dump all atom ${dumpfile}
        next i
jump SELF loop1
        displace_atoms upper move ${xstep1} 0.0 0.0 units lattice
        displace_atoms upper move 0.00333333333333333 0.0 0.0 units lattice
        min_style ${style}
        min_style cg
        minimize ${etol} ${ftol} ${maxiter} ${maxeval}
        minimize 1e-12 ${ftol} ${maxiter} ${maxeval}
        minimize 1e-12 1e-08 ${maxiter} ${maxeval}
        minimize 1e-12 1e-08 10000 ${maxeval}
        minimize 1e-12 1e-08 10000 20000
WARNING: Resetting reneighboring criteria during minimization (../min.cpp:168)
Memory usage per processor = 3.35161 Mbytes
Step Temp PotEng Lx Ly Lz 
       5            0   -241.99836    2.0000005    34.647952    1.0000002 
       6            0   -241.99836    2.0000005    34.647952    1.0000002 
Loop time of 0.000301022 on 1 procs for 1 steps with 82 atoms

Minimization stats:
  Stopping criterion = linesearch alpha is zero
  Energy initial, next-to-last, final = 
        -241.998363102     -241.998363102     -241.998363102
  Force two-norm initial, final = 0.0121585 0.0121585
  Force max component initial, final = 0.00606797 0.00606797
  Final line search alpha, max atom move = 6.10352e-05 3.7036e-07
  Iterations, force evaluations = 1 15

Pair  time (%) = 0.00024879 (82.6483)
Neigh time (%) = 0 (0)
Comm  time (%) = 1.76905e-05 (5.87681)
Outpt time (%) = 0 (0)
Other time (%) = 3.45418e-05 (11.4749)

Nlocal:    82 ave 82 max 82 min
Histogram: 1 0 0 0 0 0 0 0 0 0
Nghost:    185 ave 185 max 185 min
Histogram: 1 0 0 0 0 0 0 0 0 0
Neighs:    718 ave 718 max 718 min
Histogram: 1 0 0 0 0 0 0 0 0 0

Total # of neighbors = 718
Ave neighs/atom = 8.7561
Neighbor list builds = 0
Dangerous builds = 0
        # write_dump all atom ${dumpfile}
        next i
jump SELF loop1
        displace_atoms upper move ${xstep1} 0.0 0.0 units lattice
        displace_atoms upper move 0.00333333333333333 0.0 0.0 units lattice
        min_style ${style}
        min_style cg
        minimize ${etol} ${ftol} ${maxiter} ${maxeval}
        minimize 1e-12 ${ftol} ${maxiter} ${maxeval}
        minimize 1e-12 1e-08 ${maxiter} ${maxeval}
        minimize 1e-12 1e-08 10000 ${maxeval}
        minimize 1e-12 1e-08 10000 20000
WARNING: Resetting reneighboring criteria during minimization (../min.cpp:168)
Memory usage per processor = 3.35161 Mbytes
Step Temp PotEng Lx Ly Lz 
       6            0   -241.99717    2.0000005    34.647952    1.0000002 
       7            0   -241.99717    2.0000005    34.647952    1.0000002 
Loop time of 0.000445882 on 1 procs for 1 steps with 82 atoms

Minimization stats:
  Stopping criterion = linesearch alpha is zero
  Energy initial, next-to-last, final = 
        -241.997168015     -241.997168015     -241.997168015
  Force two-norm initial, final = 0.0232953 0.0232953
  Force max component initial, final = 0.0116418 0.0116418
  Final line search alpha, max atom move = 1.52588e-05 1.7764e-07
  Iterations, force evaluations = 1 17

Pair  time (%) = 0.000389081 (87.2611)
Neigh time (%) = 0 (0)
Comm  time (%) = 1.75138e-05 (3.92789)
Outpt time (%) = 0 (0)
Other time (%) = 3.92868e-05 (8.81104)

Nlocal:    82 ave 82 max 82 min
Histogram: 1 0 0 0 0 0 0 0 0 0
Nghost:    185 ave 185 max 185 min
Histogram: 1 0 0 0 0 0 0 0 0 0
Neighs:    718 ave 718 max 718 min
Histogram: 1 0 0 0 0 0 0 0 0 0

Total # of neighbors = 718
Ave neighs/atom = 8.7561
Neighbor list builds = 0
Dangerous builds = 0
        # write_dump all atom ${dumpfile}
        next i
jump SELF loop1
        displace_atoms upper move ${xstep1} 0.0 0.0 units lattice
        displace_atoms upper move 0.00333333333333333 0.0 0.0 units lattice
        min_style ${style}
        min_style cg
        minimize ${etol} ${ftol} ${maxiter} ${maxeval}
        minimize 1e-12 ${ftol} ${maxiter} ${maxeval}
        minimize 1e-12 1e-08 ${maxiter} ${maxeval}
        minimize 1e-12 1e-08 10000 ${maxeval}
        minimize 1e-12 1e-08 10000 20000
WARNING: Resetting reneighboring criteria during minimization (../min.cpp:168)
Memory usage per processor = 3.35161 Mbytes
Step Temp PotEng Lx Ly Lz 
       7            0   -241.99562    2.0000005    34.647952    1.0000002 
       8            0   -241.99563    2.0000005    34.647952    1.0000002 
       9            0   -241.99563    2.0000005    34.647952    1.0000002 
      10            0   -241.99563    2.0000005    34.647952    1.0000002 
      11            0   -241.99563    2.0000005    34.647952    1.0000002 
Loop time of 0.00087801 on 1 procs for 4 steps with 82 atoms

Minimization stats:
  Stopping criterion = linesearch alpha is zero
  Energy initial, next-to-last, final = 
        -241.995622928     -241.995627731     -241.995627731
  Force two-norm initial, final = 0.0377342 0.00919951
  Force max component initial, final = 0.0188635 0.00345684
  Final line search alpha, max atom move = 0.00012207 4.21977e-07
  Iterations, force evaluations = 4 41

Pair  time (%) = 0.000694755 (79.1283)
Neigh time (%) = 0 (0)
Comm  time (%) = 6.78782e-05 (7.73091)
Outpt time (%) = 1.58045e-05 (1.80004)
Other time (%) = 9.95727e-05 (11.3407)

Nlocal:    82 ave 82 max 82 min
Histogram: 1 0 0 0 0 0 0 0 0 0
Nghost:    185 ave 185 max 185 min
Histogram: 1 0 0 0 0 0 0 0 0 0
Neighs:    718 ave 718 max 718 min
Histogram: 1 0 0 0 0 0 0 0 0 0

Total # of neighbors = 718
Ave neighs/atom = 8.7561
Neighbor list builds = 0
Dangerous builds = 0
        # write_dump all atom ${dumpfile}
        next i
jump SELF loop1
        displace_atoms upper move ${xstep1} 0.0 0.0 units lattice
        displace_atoms upper move 0.00333333333333333 0.0 0.0 units lattice
        min_style ${style}
        min_style cg
        minimize ${etol} ${ftol} ${maxiter} ${maxeval}
        minimize 1e-12 ${ftol} ${maxiter} ${maxeval}
        minimize 1e-12 1e-08 ${maxiter} ${maxeval}
        minimize 1e-12 1e-08 10000 ${maxeval}
        minimize 1e-12 1e-08 10000 20000
WARNING: Resetting reneighboring criteria during minimization (../min.cpp:168)
Memory usage per processor = 3.35161 Mbytes
Step Temp PotEng Lx Ly Lz 
      11            0   -241.99374    2.0000005    34.647952    1.0000002 
      12            0   -241.99374    2.0000005    34.647952    1.0000002 
Loop time of 0.000343108 on 1 procs for 1 steps with 82 atoms

Minimization stats:
  Stopping criterion = linesearch alpha is zero
  Energy initial, next-to-last, final = 
         -241.99374242      -241.99374242      -241.99374242
  Force two-norm initial, final = 0.0243447 0.0243447
  Force max component initial, final = 0.0116117 0.0116117
  Final line search alpha, max atom move = 1.52588e-05 1.7718e-07
  Iterations, force evaluations = 1 17

Pair  time (%) = 0.000286327 (83.4509)
Neigh time (%) = 0 (0)
Comm  time (%) = 2.30018e-05 (6.70396)
Outpt time (%) = 0 (0)
Other time (%) = 3.37794e-05 (9.84513)

Nlocal:    82 ave 82 max 82 min
Histogram: 1 0 0 0 0 0 0 0 0 0
Nghost:    185 ave 185 max 185 min
Histogram: 1 0 0 0 0 0 0 0 0 0
Neighs:    718 ave 718 max 718 min
Histogram: 1 0 0 0 0 0 0 0 0 0

Total # of neighbors = 718
Ave neighs/atom = 8.7561
Neighbor list builds = 0
Dangerous builds = 0
        # write_dump all atom ${dumpfile}
        next i
jump SELF loop1
        displace_atoms upper move ${xstep1} 0.0 0.0 units lattice
        displace_atoms upper move 0.00333333333333333 0.0 0.0 units lattice
        min_style ${style}
        min_style cg
        minimize ${etol} ${ftol} ${maxiter} ${maxeval}
        minimize 1e-12 ${ftol} ${maxiter} ${maxeval}
        minimize 1e-12 1e-08 ${maxiter} ${maxeval}
        minimize 1e-12 1e-08 10000 ${maxeval}
        minimize 1e-12 1e-08 10000 20000
WARNING: Resetting reneighboring criteria during minimization (../min.cpp:168)
Memory usage per processor = 3.35161 Mbytes
Step Temp PotEng Lx Ly Lz 
      12            0   -241.99153    2.0000005    34.647952    1.0000002 
      13            0   -241.99153    2.0000005    34.647952    1.0000002 
Loop time of 0.000351972 on 1 procs for 1 steps with 82 atoms

Minimization stats:
  Stopping criterion = linesearch alpha is zero
  Energy initial, next-to-last, final = 
        -241.991525808     -241.991525808     -241.991525808
  Force two-norm initial, final = 0.0445182 0.0445182
  Force max component initial, final = 0.0219575 0.0219575
  Final line search alpha, max atom move = 3.8147e-06 8.37612e-08
  Iterations, force evaluations = 1 19

Pair  time (%) = 0.000299086 (84.9743)
Neigh time (%) = 0 (0)
Comm  time (%) = 2.1268e-05 (6.04254)
Outpt time (%) = 0 (0)
Other time (%) = 3.16182e-05 (8.98315)

Nlocal:    82 ave 82 max 82 min
Histogram: 1 0 0 0 0 0 0 0 0 0
Nghost:    185 ave 185 max 185 min
Histogram: 1 0 0 0 0 0 0 0 0 0
Neighs:    718 ave 718 max 718 min
Histogram: 1 0 0 0 0 0 0 0 0 0

Total # of neighbors = 718
Ave neighs/atom = 8.7561
Neighbor list builds = 0
Dangerous builds = 0
        # write_dump all atom ${dumpfile}
        next i
jump SELF loop1
        displace_atoms upper move ${xstep1} 0.0 0.0 units lattice
        displace_atoms upper move 0.00333333333333333 0.0 0.0 units lattice
        min_style ${style}
        min_style cg
        minimize ${etol} ${ftol} ${maxiter} ${maxeval}
        minimize 1e-12 ${ftol} ${maxiter} ${maxeval}
        minimize 1e-12 1e-08 ${maxiter} ${maxeval}
        minimize 1e-12 1e-08 10000 ${maxeval}
        minimize 1e-12 1e-08 10000 20000
WARNING: Resetting reneighboring criteria during minimization (../min.cpp:168)
Memory usage per processor = 3.35161 Mbytes
Step Temp PotEng Lx Ly Lz 
      13            0   -241.98897    2.0000005    34.647952    1.0000002 
      14            0   -241.98898    2.0000005    34.647952    1.0000002 
      15            0   -241.98898    2.0000005    34.647952    1.0000002 
Loop time of 0.000561009 on 1 procs for 2 steps with 82 atoms

Minimization stats:
  Stopping criterion = linesearch alpha is zero
  Energy initial, next-to-last, final = 
        -241.988967902     -241.988976818     -241.988976818
  Force two-norm initial, final = 0.0681916 0.0364549
  Force max component initial, final = 0.0338997 0.0160243
  Final line search alpha, max atom move = 7.62939e-06 1.22256e-07
  Iterations, force evaluations = 2 27

Pair  time (%) = 0.000467276 (83.2921)
Neigh time (%) = 0 (0)
Comm  time (%) = 2.90002e-05 (5.1693)
Outpt time (%) = 4.96337e-06 (0.884722)
Other time (%) = 5.97695e-05 (10.6539)

Nlocal:    82 ave 82 max 82 min
Histogram: 1 0 0 0 0 0 0 0 0 0
Nghost:    185 ave 185 max 185 min
Histogram: 1 0 0 0 0 0 0 0 0 0
Neighs:    718 ave 718 max 718 min
Histogram: 1 0 0 0 0 0 0 0 0 0

Total # of neighbors = 718
Ave neighs/atom = 8.7561
Neighbor list builds = 0
Dangerous builds = 0
        # write_dump all atom ${dumpfile}
        next i
jump SELF loop1
        displace_atoms upper move ${xstep1} 0.0 0.0 units lattice
        displace_atoms upper move 0.00333333333333333 0.0 0.0 units lattice
        min_style ${style}
        min_style cg
        minimize ${etol} ${ftol} ${maxiter} ${maxeval}
        minimize 1e-12 ${ftol} ${maxiter} ${maxeval}
        minimize 1e-12 1e-08 ${maxiter} ${maxeval}
        minimize 1e-12 1e-08 10000 ${maxeval}
        minimize 1e-12 1e-08 10000 20000
WARNING: Resetting reneighboring criteria during minimization (../min.cpp:168)
Memory usage per processor = 3.35161 Mbytes
Step Temp PotEng Lx Ly Lz 
      15            0   -241.98609    2.0000005    34.647952    1.0000002 
      16            0    -241.9861    2.0000005    34.647952    1.0000002 
      17            0    -241.9861    2.0000005    34.647952    1.0000002 
Loop time of 0.000542024 on 1 procs for 2 steps with 82 atoms

Minimization stats:
  Stopping criterion = linesearch alpha is zero
  Energy initial, next-to-last, final = 
        -241.986086425     -241.986096528     -241.986096528
  Force two-norm initial, final = 0.0616392 0.0376408
  Force max component initial, final = 0.02957 0.015001
  Final line search alpha, max atom move = 7.62939e-06 1.14449e-07
  Iterations, force evaluations = 2 27

Pair  time (%) = 0.00045074 (83.1586)
Neigh time (%) = 0 (0)
Comm  time (%) = 3.5902e-05 (6.6237)
Outpt time (%) = 5.02472e-06 (0.927029)
Other time (%) = 5.03577e-05 (9.29067)

Nlocal:    82 ave 82 max 82 min
Histogram: 1 0 0 0 0 0 0 0 0 0
Nghost:    185 ave 185 max 185 min
Histogram: 1 0 0 0 0 0 0 0 0 0
Neighs:    718 ave 718 max 718 min
Histogram: 1 0 0 0 0 0 0 0 0 0

Total # of neighbors = 718
Ave neighs/atom = 8.7561
Neighbor list builds = 0
Dangerous builds = 0
        # write_dump all atom ${dumpfile}
        next i
jump SELF loop1
        displace_atoms upper move ${xstep1} 0.0 0.0 units lattice
        displace_atoms upper move 0.00333333333333333 0.0 0.0 units lattice
        min_style ${style}
        min_style cg
        minimize ${etol} ${ftol} ${maxiter} ${maxeval}
        minimize 1e-12 ${ftol} ${maxiter} ${maxeval}
        minimize 1e-12 1e-08 ${maxiter} ${maxeval}
        minimize 1e-12 1e-08 10000 ${maxeval}
        minimize 1e-12 1e-08 10000 20000
WARNING: Resetting reneighboring criteria during minimization (../min.cpp:168)
Memory usage per processor = 3.35161 Mbytes
Step Temp PotEng Lx Ly Lz 
      17            0   -241.98294    2.0000005    34.647952    1.0000002 
      18            0   -241.98295    2.0000005    34.647952    1.0000002 
      19            0   -241.98295    2.0000005    34.647952    1.0000002 
Loop time of 0.000546928 on 1 procs for 2 steps with 82 atoms

Minimization stats:
  Stopping criterion = linesearch alpha is zero
  Energy initial, next-to-last, final = 
        -241.982943548      -241.98295034      -241.98295034
  Force two-norm initial, final = 0.038724 0.0226618
  Force max component initial, final = 0.0156752 0.00963108
  Final line search alpha, max atom move = 1.52588e-05 1.46959e-07
  Iterations, force evaluations = 2 25

Pair  time (%) = 0.000430963 (78.7969)
Neigh time (%) = 0 (0)
Comm  time (%) = 3.07527e-05 (5.62281)
Outpt time (%) = 8.09401e-06 (1.4799)
Other time (%) = 7.71189e-05 (14.1004)

Nlocal:    82 ave 82 max 82 min
Histogram: 1 0 0 0 0 0 0 0 0 0
Nghost:    185 ave 185 max 185 min
Histogram: 1 0 0 0 0 0 0 0 0 0
Neighs:    718 ave 718 max 718 min
Histogram: 1 0 0 0 0 0 0 0 0 0

Total # of neighbors = 718
Ave neighs/atom = 8.7561
Neighbor list builds = 0
Dangerous builds = 0
        # write_dump all atom ${dumpfile}
        next i
jump SELF loop1
        displace_atoms upper move ${xstep1} 0.0 0.0 units lattice
        displace_atoms upper move 0.00333333333333333 0.0 0.0 units lattice
        min_style ${style}
        min_style cg
        minimize ${etol} ${ftol} ${maxiter} ${maxeval}
        minimize 1e-12 ${ftol} ${maxiter} ${maxeval}
        minimize 1e-12 1e-08 ${maxiter} ${maxeval}
        minimize 1e-12 1e-08 10000 ${maxeval}
        minimize 1e-12 1e-08 10000 20000
WARNING: Resetting reneighboring criteria during minimization (../min.cpp:168)
Memory usage per processor = 3.35161 Mbytes
Step Temp PotEng Lx Ly Lz 
      19            0   -241.97965    2.0000005    34.647952    1.0000002 
      20            0   -241.97965    2.0000005    34.647952    1.0000002 
Loop time of 0.000366071 on 1 procs for 1 steps with 82 atoms

Minimization stats:
  Stopping criterion = linesearch alpha is zero
  Energy initial, next-to-last, final = 
        -241.979647705     -241.979647705     -241.979647705
  Force two-norm initial, final = 0.0225814 0.0225814
  Force max component initial, final = 0.00963108 0.00963108
  Final line search alpha, max atom move = 1.52588e-05 1.46959e-07
  Iterations, force evaluations = 1 17

Pair  time (%) = 0.000291929 (79.7464)
Neigh time (%) = 0 (0)
Comm  time (%) = 2.28679e-05 (6.24685)
Outpt time (%) = 0 (0)
Other time (%) = 5.12747e-05 (14.0067)

Nlocal:    82 ave 82 max 82 min
Histogram: 1 0 0 0 0 0 0 0 0 0
Nghost:    185 ave 185 max 185 min
Histogram: 1 0 0 0 0 0 0 0 0 0
Neighs:    718 ave 718 max 718 min
Histogram: 1 0 0 0 0 0 0 0 0 0

Total # of neighbors = 718
Ave neighs/atom = 8.7561
Neighbor list builds = 0
Dangerous builds = 0
        # write_dump all atom ${dumpfile}
        next i
jump SELF loop1
        displace_atoms upper move ${xstep1} 0.0 0.0 units lattice
        displace_atoms upper move 0.00333333333333333 0.0 0.0 units lattice
        min_style ${style}
        min_style cg
        minimize ${etol} ${ftol} ${maxiter} ${maxeval}
        minimize 1e-12 ${ftol} ${maxiter} ${maxeval}
        minimize 1e-12 1e-08 ${maxiter} ${maxeval}
        minimize 1e-12 1e-08 10000 ${maxeval}
        minimize 1e-12 1e-08 10000 20000
WARNING: Resetting reneighboring criteria during minimization (../min.cpp:168)
Memory usage per processor = 3.35161 Mbytes
Step Temp PotEng Lx Ly Lz 
      20            0    -241.9762    2.0000005    34.647952    1.0000002 
      21            0    -241.9762    2.0000005    34.647952    1.0000002 
Loop time of 0.000347882 on 1 procs for 1 steps with 82 atoms

Minimization stats:
  Stopping criterion = linesearch alpha is zero
  Energy initial, next-to-last, final = 
        -241.976199475     -241.976199475     -241.976199475
  Force two-norm initial, final = 0.0235946 0.0235946
  Force max component initial, final = 0.00963108 0.00963108
  Final line search alpha, max atom move = 1.52588e-05 1.46959e-07
  Iterations, force evaluations = 1 17

Pair  time (%) = 0.000290268 (83.4385)
Neigh time (%) = 0 (0)
Comm  time (%) = 2.23074e-05 (6.41234)
Outpt time (%) = 0 (0)
Other time (%) = 3.5307e-05 (10.1491)

Nlocal:    82 ave 82 max 82 min
Histogram: 1 0 0 0 0 0 0 0 0 0
Nghost:    185 ave 185 max 185 min
Histogram: 1 0 0 0 0 0 0 0 0 0
Neighs:    718 ave 718 max 718 min
Histogram: 1 0 0 0 0 0 0 0 0 0

Total # of neighbors = 718
Ave neighs/atom = 8.7561
Neighbor list builds = 0
Dangerous builds = 0
        # write_dump all atom ${dumpfile}
        next i
jump SELF loop1
        displace_atoms upper move ${xstep1} 0.0 0.0 units lattice
        displace_atoms upper move 0.00333333333333333 0.0 0.0 units lattice
        min_style ${style}
        min_style cg
        minimize ${etol} ${ftol} ${maxiter} ${maxeval}
        minimize 1e-12 ${ftol} ${maxiter} ${maxeval}
        minimize 1e-12 1e-08 ${maxiter} ${maxeval}
        minimize 1e-12 1e-08 10000 ${maxeval}
        minimize 1e-12 1e-08 10000 20000
WARNING: Resetting reneighboring criteria during minimization (../min.cpp:168)
Memory usage per processor = 3.35161 Mbytes
Step Temp PotEng Lx Ly Lz 
      21            0   -241.97261    2.0000005    34.647952    1.0000002 
      22            0   -241.97261    2.0000005    34.647952    1.0000002 
Loop time of 0.000347974 on 1 procs for 1 steps with 82 atoms

Minimization stats:
  Stopping criterion = linesearch alpha is zero
  Energy initial, next-to-last, final = 
        -241.972608551     -241.972608551     -241.972608551
  Force two-norm initial, final = 0.026675 0.026675
  Force max component initial, final = 0.00963108 0.00963108
  Final line search alpha, max atom move = 1.52588e-05 1.46959e-07
  Iterations, force evaluations = 1 17

Pair  time (%) = 0.000292098 (83.9425)
Neigh time (%) = 0 (0)
Comm  time (%) = 2.38222e-05 (6.84597)
Outpt time (%) = 0 (0)
Other time (%) = 3.20538e-05 (9.21155)

Nlocal:    82 ave 82 max 82 min
Histogram: 1 0 0 0 0 0 0 0 0 0
Nghost:    185 ave 185 max 185 min
Histogram: 1 0 0 0 0 0 0 0 0 0
Neighs:    718 ave 718 max 718 min
Histogram: 1 0 0 0 0 0 0 0 0 0

Total # of neighbors = 718
Ave neighs/atom = 8.7561
Neighbor list builds = 0
Dangerous builds = 0
        # write_dump all atom ${dumpfile}
        next i
jump SELF loop1
        displace_atoms upper move ${xstep1} 0.0 0.0 units lattice
        displace_atoms upper move 0.00333333333333333 0.0 0.0 units lattice
        min_style ${style}
        min_style cg
        minimize ${etol} ${ftol} ${maxiter} ${maxeval}
        minimize 1e-12 ${ftol} ${maxiter} ${maxeval}
        minimize 1e-12 1e-08 ${maxiter} ${maxeval}
        minimize 1e-12 1e-08 10000 ${maxeval}
        minimize 1e-12 1e-08 10000 20000
WARNING: Resetting reneighboring criteria during minimization (../min.cpp:168)
Memory usage per processor = 3.35161 Mbytes
Step Temp PotEng Lx Ly Lz 
      22            0   -241.96887    2.0000005    34.647952    1.0000002 
      23            0   -241.96887    2.0000005    34.647952    1.0000002 
      24            0   -241.96887    2.0000005    34.647952    1.0000002 
Loop time of 0.00137699 on 1 procs for 2 steps with 82 atoms

Minimization stats:
  Stopping criterion = linesearch alpha is zero
  Energy initial, next-to-last, final = 
        -241.968867537     -241.968871876     -241.968871876
  Force two-norm initial, final = 0.0331585 0.0262888
  Force max component initial, final = 0.0125392 0.00929446
  Final line search alpha, max atom move = 1.52588e-05 1.41822e-07
  Iterations, force evaluations = 2 26

Pair  time (%) = 0.00126138 (91.6039)
Neigh time (%) = 0 (0)
Comm  time (%) = 4.58546e-05 (3.33006)
Outpt time (%) = 1.00367e-05 (0.72889)
Other time (%) = 5.97218e-05 (4.33712)

Nlocal:    82 ave 82 max 82 min
Histogram: 1 0 0 0 0 0 0 0 0 0
Nghost:    185 ave 185 max 185 min
Histogram: 1 0 0 0 0 0 0 0 0 0
Neighs:    718 ave 718 max 718 min
Histogram: 1 0 0 0 0 0 0 0 0 0

Total # of neighbors = 718
Ave neighs/atom = 8.7561
Neighbor list builds = 0
Dangerous builds = 0
        # write_dump all atom ${dumpfile}
        next i
jump SELF loop1
        displace_atoms upper move ${xstep1} 0.0 0.0 units lattice
        displace_atoms upper move 0.00333333333333333 0.0 0.0 units lattice
        min_style ${style}
        min_style cg
        minimize ${etol} ${ftol} ${maxiter} ${maxeval}
        minimize 1e-12 ${ftol} ${maxiter} ${maxeval}
        minimize 1e-12 1e-08 ${maxiter} ${maxeval}
        minimize 1e-12 1e-08 10000 ${maxeval}
        minimize 1e-12 1e-08 10000 20000
WARNING: Resetting reneighboring criteria during minimization (../min.cpp:168)
Memory usage per processor = 3.35161 Mbytes
Step Temp PotEng Lx Ly Lz 
      24            0   -241.96498    2.0000005    34.647952    1.0000002 
      25            0   -241.96499    2.0000005    34.647952    1.0000002 
      26            0   -241.96499    2.0000005    34.647952    1.0000002 
Loop time of 0.000548934 on 1 procs for 2 steps with 82 atoms

Minimization stats:
  Stopping criterion = linesearch alpha is zero
  Energy initial, next-to-last, final = 
        -241.964978166     -241.964986245     -241.964986245
  Force two-norm initial, final = 0.0353392 0.0228633
  Force max component initial, final = 0.0140627 0.00948083
  Final line search alpha, max atom move = 1.52588e-05 1.44666e-07
  Iterations, force evaluations = 2 25

Pair  time (%) = 0.000448904 (81.7774)
Neigh time (%) = 0 (0)
Comm  time (%) = 2.57534e-05 (4.69153)
Outpt time (%) = 6.1004e-06 (1.11132)
Other time (%) = 6.81762e-05 (12.4198)

Nlocal:    82 ave 82 max 82 min
Histogram: 1 0 0 0 0 0 0 0 0 0
Nghost:    185 ave 185 max 185 min
Histogram: 1 0 0 0 0 0 0 0 0 0
Neighs:    718 ave 718 max 718 min
Histogram: 1 0 0 0 0 0 0 0 0 0

Total # of neighbors = 718
Ave neighs/atom = 8.7561
Neighbor list builds = 0
Dangerous builds = 0
        # write_dump all atom ${dumpfile}
        next i
jump SELF loop1
        displace_atoms upper move ${xstep1} 0.0 0.0 units lattice
        displace_atoms upper move 0.00333333333333333 0.0 0.0 units lattice
        min_style ${style}
        min_style cg
        minimize ${etol} ${ftol} ${maxiter} ${maxeval}
        minimize 1e-12 ${ftol} ${maxiter} ${maxeval}
        minimize 1e-12 1e-08 ${maxiter} ${maxeval}
        minimize 1e-12 1e-08 10000 ${maxeval}
        minimize 1e-12 1e-08 10000 20000
WARNING: Resetting reneighboring criteria during minimization (../min.cpp:168)
Memory usage per processor = 3.35161 Mbytes
Step Temp PotEng Lx Ly Lz 
      26            0   -241.96095    2.0000005    34.647952    1.0000002 
      27            0   -241.96096    2.0000005    34.647952    1.0000002 
      28            0   -241.96096    2.0000005    34.647952    1.0000002 
Loop time of 0.000525924 on 1 procs for 2 steps with 82 atoms

Minimization stats:
  Stopping criterion = linesearch alpha is zero
  Energy initial, next-to-last, final = 
        -241.960948664     -241.960955549     -241.960955549
  Force two-norm initial, final = 0.0306078 0.021875
  Force max component initial, final = 0.0104749 0.00833561
  Final line search alpha, max atom move = 1.52588e-05 1.27191e-07
  Iterations, force evaluations = 2 25

Pair  time (%) = 0.000437186 (83.1273)
Neigh time (%) = 0 (0)
Comm  time (%) = 3.17625e-05 (6.03938)
Outpt time (%) = 6.09073e-06 (1.1581)
Other time (%) = 5.08841e-05 (9.67518)

Nlocal:    82 ave 82 max 82 min
Histogram: 1 0 0 0 0 0 0 0 0 0
Nghost:    185 ave 185 max 185 min
Histogram: 1 0 0 0 0 0 0 0 0 0
Neighs:    718 ave 718 max 718 min
Histogram: 1 0 0 0 0 0 0 0 0 0

Total # of neighbors = 718
Ave neighs/atom = 8.7561
Neighbor list builds = 0
Dangerous builds = 0
        # write_dump all atom ${dumpfile}
        next i
jump SELF loop1
        displace_atoms upper move ${xstep1} 0.0 0.0 units lattice
        displace_atoms upper move 0.00333333333333333 0.0 0.0 units lattice
        min_style ${style}
        min_style cg
        minimize ${etol} ${ftol} ${maxiter} ${maxeval}
        minimize 1e-12 ${ftol} ${maxiter} ${maxeval}
        minimize 1e-12 1e-08 ${maxiter} ${maxeval}
        minimize 1e-12 1e-08 10000 ${maxeval}
        minimize 1e-12 1e-08 10000 20000
WARNING: Resetting reneighboring criteria during minimization (../min.cpp:168)
Memory usage per processor = 3.35161 Mbytes
Step Temp PotEng Lx Ly Lz 
      28            0   -241.95677    2.0000005    34.647952    1.0000002 
      29            0   -241.95678    2.0000005    34.647952    1.0000002 
      30            0   -241.95678    2.0000005    34.647952    1.0000002 
Loop time of 0.000530895 on 1 procs for 2 steps with 82 atoms

Minimization stats:
  Stopping criterion = linesearch alpha is zero
  Energy initial, next-to-last, final = 
        -241.956771878     -241.956779433     -241.956779433
  Force two-norm initial, final = 0.0324708 0.0226057
  Force max component initial, final = 0.0123086 0.00884455
  Final line search alpha, max atom move = 1.52588e-05 1.34957e-07
  Iterations, force evaluations = 2 25

Pair  time (%) = 0.000441786 (83.2153)
Neigh time (%) = 0 (0)
Comm  time (%) = 3.1054e-05 (5.84937)
Outpt time (%) = 6.10808e-06 (1.15053)
Other time (%) = 5.19471e-05 (9.78481)

Nlocal:    82 ave 82 max 82 min
Histogram: 1 0 0 0 0 0 0 0 0 0
Nghost:    185 ave 185 max 185 min
Histogram: 1 0 0 0 0 0 0 0 0 0
Neighs:    718 ave 718 max 718 min
Histogram: 1 0 0 0 0 0 0 0 0 0

Total # of neighbors = 718
Ave neighs/atom = 8.7561
Neighbor list builds = 0
Dangerous builds = 0
        # write_dump all atom ${dumpfile}
        next i
jump SELF loop1
        displace_atoms upper move ${xstep1} 0.0 0.0 units lattice
        displace_atoms upper move 0.00333333333333333 0.0 0.0 units lattice
        min_style ${style}
        min_style cg
        minimize ${etol} ${ftol} ${maxiter} ${maxeval}
        minimize 1e-12 ${ftol} ${maxiter} ${maxeval}
        minimize 1e-12 1e-08 ${maxiter} ${maxeval}
        minimize 1e-12 1e-08 10000 ${maxeval}
        minimize 1e-12 1e-08 10000 20000
WARNING: Resetting reneighboring criteria during minimization (../min.cpp:168)
Memory usage per processor = 3.35161 Mbytes
Step Temp PotEng Lx Ly Lz 
      30            0   -241.95245    2.0000005    34.647952    1.0000002 
      31            0   -241.95246    2.0000005    34.647952    1.0000002 
      32            0   -241.95246    2.0000005    34.647952    1.0000002 
Loop time of 0.000549946 on 1 procs for 2 steps with 82 atoms

Minimization stats:
  Stopping criterion = linesearch alpha is zero
  Energy initial, next-to-last, final = 
        -241.952453373     -241.952460003     -241.952460003
  Force two-norm initial, final = 0.0346062 0.0238657
  Force max component initial, final = 0.0132813 0.00928904
  Final line search alpha, max atom move = 1.52588e-05 1.41739e-07
  Iterations, force evaluations = 2 25

Pair  time (%) = 0.000459646 (83.5801)
Neigh time (%) = 0 (0)
Comm  time (%) = 3.68929e-05 (6.70846)
Outpt time (%) = 5.921e-06 (1.07665)
Other time (%) = 4.74866e-05 (8.63478)

Nlocal:    82 ave 82 max 82 min
Histogram: 1 0 0 0 0 0 0 0 0 0
Nghost:    185 ave 185 max 185 min
Histogram: 1 0 0 0 0 0 0 0 0 0
Neighs:    718 ave 718 max 718 min
Histogram: 1 0 0 0 0 0 0 0 0 0

Total # of neighbors = 718
Ave neighs/atom = 8.7561
Neighbor list builds = 0
Dangerous builds = 0
        # write_dump all atom ${dumpfile}
        next i
jump SELF loop1
        displace_atoms upper move ${xstep1} 0.0 0.0 units lattice
        displace_atoms upper move 0.00333333333333333 0.0 0.0 units lattice
        min_style ${style}
        min_style cg
        minimize ${etol} ${ftol} ${maxiter} ${maxeval}
        minimize 1e-12 ${ftol} ${maxiter} ${maxeval}
        minimize 1e-12 1e-08 ${maxiter} ${maxeval}
        minimize 1e-12 1e-08 10000 ${maxeval}
        minimize 1e-12 1e-08 10000 20000
WARNING: Resetting reneighboring criteria during minimization (../min.cpp:168)
Memory usage per processor = 3.35161 Mbytes
Step Temp PotEng Lx Ly Lz 
      32            0   -241.94799    2.0000005    34.647952    1.0000002 
      33            0     -241.948    2.0000005    34.647952    1.0000002 
      34            0     -241.948    2.0000005    34.647952    1.0000002 
Loop time of 0.000532983 on 1 procs for 2 steps with 82 atoms

Minimization stats:
  Stopping criterion = linesearch alpha is zero
  Energy initial, next-to-last, final = 
        -241.947994585     -241.947999462     -241.947999462
  Force two-norm initial, final = 0.0378808 0.0257265
  Force max component initial, final = 0.0148831 0.0101029
  Final line search alpha, max atom move = 1.52588e-05 1.54159e-07
  Iterations, force evaluations = 2 25

Pair  time (%) = 0.000442582 (83.0387)
Neigh time (%) = 0 (0)
Comm  time (%) = 3.02164e-05 (5.6693)
Outpt time (%) = 5.00388e-06 (0.938845)
Other time (%) = 5.51806e-05 (10.3532)

Nlocal:    82 ave 82 max 82 min
Histogram: 1 0 0 0 0 0 0 0 0 0
Nghost:    185 ave 185 max 185 min
Histogram: 1 0 0 0 0 0 0 0 0 0
Neighs:    718 ave 718 max 718 min
Histogram: 1 0 0 0 0 0 0 0 0 0

Total # of neighbors = 718
Ave neighs/atom = 8.7561
Neighbor list builds = 0
Dangerous builds = 0
        # write_dump all atom ${dumpfile}
        next i
jump SELF loop1
        displace_atoms upper move ${xstep1} 0.0 0.0 units lattice
        displace_atoms upper move 0.00333333333333333 0.0 0.0 units lattice
        min_style ${style}
        min_style cg
        minimize ${etol} ${ftol} ${maxiter} ${maxeval}
        minimize 1e-12 ${ftol} ${maxiter} ${maxeval}
        minimize 1e-12 1e-08 ${maxiter} ${maxeval}
        minimize 1e-12 1e-08 10000 ${maxeval}
        minimize 1e-12 1e-08 10000 20000
WARNING: Resetting reneighboring criteria during minimization (../min.cpp:168)
Memory usage per processor = 3.35161 Mbytes
Step Temp PotEng Lx Ly Lz 
      34            0    -241.9434    2.0000005    34.647952    1.0000002 
      35            0    -241.9434    2.0000005    34.647952    1.0000002 
Loop time of 0.000403907 on 1 procs for 1 steps with 82 atoms

Minimization stats:
  Stopping criterion = linesearch alpha is zero
  Energy initial, next-to-last, final = 
        -241.943397227     -241.943397227     -241.943397227
  Force two-norm initial, final = 0.0414215 0.0414215
  Force max component initial, final = 0.0163938 0.0163938
  Final line search alpha, max atom move = 3.8147e-06 6.25374e-08
  Iterations, force evaluations = 1 19

Pair  time (%) = 0.000337717 (83.6125)
Neigh time (%) = 0 (0)
Comm  time (%) = 2.33375e-05 (5.77794)
Outpt time (%) = 0 (0)
Other time (%) = 4.28527e-05 (10.6095)

Nlocal:    82 ave 82 max 82 min
Histogram: 1 0 0 0 0 0 0 0 0 0
Nghost:    185 ave 185 max 185 min
Histogram: 1 0 0 0 0 0 0 0 0 0
Neighs:    718 ave 718 max 718 min
Histogram: 1 0 0 0 0 0 0 0 0 0

Total # of neighbors = 718
Ave neighs/atom = 8.7561
Neighbor list builds = 0
Dangerous builds = 0
        # write_dump all atom ${dumpfile}
        next i
jump SELF loop1
        displace_atoms upper move ${xstep1} 0.0 0.0 units lattice
        displace_atoms upper move 0.00333333333333333 0.0 0.0 units lattice
        min_style ${style}
        min_style cg
        minimize ${etol} ${ftol} ${maxiter} ${maxeval}
        minimize 1e-12 ${ftol} ${maxiter} ${maxeval}
        minimize 1e-12 1e-08 ${maxiter} ${maxeval}
        minimize 1e-12 1e-08 10000 ${maxeval}
        minimize 1e-12 1e-08 10000 20000
WARNING: Resetting reneighboring criteria during minimization (../min.cpp:168)
Memory usage per processor = 3.35161 Mbytes
Step Temp PotEng Lx Ly Lz 
      35            0   -241.93864    2.0000005    34.647952    1.0000002 
      36            0   -241.93867    2.0000005    34.647952    1.0000002 
      37            0   -241.93867    2.0000005    34.647952    1.0000002 
Loop time of 0.000540994 on 1 procs for 2 steps with 82 atoms

Minimization stats:
  Stopping criterion = linesearch alpha is zero
  Energy initial, next-to-last, final = 
        -241.938643313     -241.938667765     -241.938667765
  Force two-norm initial, final = 0.0689977 0.0372837
  Force max component initial, final = 0.0320935 0.0166802
  Final line search alpha, max atom move = 7.62939e-06 1.2726e-07
  Iterations, force evaluations = 2 26

Pair  time (%) = 0.000451315 (83.4232)
Neigh time (%) = 0 (0)
Comm  time (%) = 3.30057e-05 (6.10094)
Outpt time (%) = 6.01518e-06 (1.11188)
Other time (%) = 5.06585e-05 (9.36396)

Nlocal:    82 ave 82 max 82 min
Histogram: 1 0 0 0 0 0 0 0 0 0
Nghost:    185 ave 185 max 185 min
Histogram: 1 0 0 0 0 0 0 0 0 0
Neighs:    718 ave 718 max 718 min
Histogram: 1 0 0 0 0 0 0 0 0 0

Total # of neighbors = 718
Ave neighs/atom = 8.7561
Neighbor list builds = 0
Dangerous builds = 0
        # write_dump all atom ${dumpfile}
        next i
jump SELF loop1
        displace_atoms upper move ${xstep1} 0.0 0.0 units lattice
        displace_atoms upper move 0.00333333333333333 0.0 0.0 units lattice
        min_style ${style}
        min_style cg
        minimize ${etol} ${ftol} ${maxiter} ${maxeval}
        minimize 1e-12 ${ftol} ${maxiter} ${maxeval}
        minimize 1e-12 1e-08 ${maxiter} ${maxeval}
        minimize 1e-12 1e-08 10000 ${maxeval}
        minimize 1e-12 1e-08 10000 20000
WARNING: Resetting reneighboring criteria during minimization (../min.cpp:168)
Memory usage per processor = 3.35161 Mbytes
Step Temp PotEng Lx Ly Lz 
      37            0   -241.93379    2.0000005    34.647952    1.0000002 
      38            0   -241.93381    2.0000005    34.647952    1.0000002 
      39            0   -241.93381    2.0000005    34.647952    1.0000002 
Loop time of 0.000546116 on 1 procs for 2 steps with 82 atoms

Minimization stats:
  Stopping criterion = linesearch alpha is zero
  Energy initial, next-to-last, final = 
        -241.933787503     -241.933814368     -241.933814368
  Force two-norm initial, final = 0.0520268 0.0384421
  Force max component initial, final = 0.0181772 0.0119788
  Final line search alpha, max atom move = 3.8147e-06 4.56954e-08
  Iterations, force evaluations = 2 26

Pair  time (%) = 0.000454837 (83.2857)
Neigh time (%) = 0 (0)
Comm  time (%) = 3.48052e-05 (6.37321)
Outpt time (%) = 5.0189e-06 (0.919016)
Other time (%) = 5.14555e-05 (9.42207)

Nlocal:    82 ave 82 max 82 min
Histogram: 1 0 0 0 0 0 0 0 0 0
Nghost:    185 ave 185 max 185 min
Histogram: 1 0 0 0 0 0 0 0 0 0
Neighs:    718 ave 718 max 718 min
Histogram: 1 0 0 0 0 0 0 0 0 0

Total # of neighbors = 718
Ave neighs/atom = 8.7561
Neighbor list builds = 0
Dangerous builds = 0
        # write_dump all atom ${dumpfile}
        next i
jump SELF loop1
        displace_atoms upper move ${xstep1} 0.0 0.0 units lattice
        displace_atoms upper move 0.00333333333333333 0.0 0.0 units lattice
        min_style ${style}
        min_style cg
        minimize ${etol} ${ftol} ${maxiter} ${maxeval}
        minimize 1e-12 ${ftol} ${maxiter} ${maxeval}
        minimize 1e-12 1e-08 ${maxiter} ${maxeval}
        minimize 1e-12 1e-08 10000 ${maxeval}
        minimize 1e-12 1e-08 10000 20000
WARNING: Resetting reneighboring criteria during minimization (../min.cpp:168)
Memory usage per processor = 3.35161 Mbytes
Step Temp PotEng Lx Ly Lz 
      39            0   -241.92881    2.0000005    34.647952    1.0000002 
      40            0   -241.92881    2.0000005    34.647952    1.0000002 
Loop time of 0.000383103 on 1 procs for 1 steps with 82 atoms

Minimization stats:
  Stopping criterion = linesearch alpha is zero
  Energy initial, next-to-last, final = 
        -241.928813717     -241.928813717     -241.928813717
  Force two-norm initial, final = 0.0386543 0.0386543
  Force max component initial, final = 0.0119788 0.0119788
  Final line search alpha, max atom move = 7.62939e-06 9.13908e-08
  Iterations, force evaluations = 1 18

Pair  time (%) = 0.000317933 (82.9887)
Neigh time (%) = 0 (0)
Comm  time (%) = 2.3365e-05 (6.09888)
Outpt time (%) = 0 (0)
Other time (%) = 4.18058e-05 (10.9124)

Nlocal:    82 ave 82 max 82 min
Histogram: 1 0 0 0 0 0 0 0 0 0
Nghost:    185 ave 185 max 185 min
Histogram: 1 0 0 0 0 0 0 0 0 0
Neighs:    718 ave 718 max 718 min
Histogram: 1 0 0 0 0 0 0 0 0 0

Total # of neighbors = 718
Ave neighs/atom = 8.7561
Neighbor list builds = 0
Dangerous builds = 0
        # write_dump all atom ${dumpfile}
        next i
jump SELF loop1
        displace_atoms upper move ${xstep1} 0.0 0.0 units lattice
        displace_atoms upper move 0.00333333333333333 0.0 0.0 units lattice
        min_style ${style}
        min_style cg
        minimize ${etol} ${ftol} ${maxiter} ${maxeval}
        minimize 1e-12 ${ftol} ${maxiter} ${maxeval}
        minimize 1e-12 1e-08 ${maxiter} ${maxeval}
        minimize 1e-12 1e-08 10000 ${maxeval}
        minimize 1e-12 1e-08 10000 20000
WARNING: Resetting reneighboring criteria during minimization (../min.cpp:168)
Memory usage per processor = 3.35161 Mbytes
Step Temp PotEng Lx Ly Lz 
      40            0   -241.92367    2.0000005    34.647952    1.0000002 
      41            0   -241.92368    2.0000005    34.647952    1.0000002 
      42            0    -241.9237    2.0000005    34.647952    1.0000002 
      43            0    -241.9237    2.0000005    34.647952    1.0000002 
      44            0    -241.9237    2.0000005    34.647952    1.0000002 
Loop time of 0.00161901 on 1 procs for 4 steps with 82 atoms

Minimization stats:
  Stopping criterion = linesearch alpha is zero
  Energy initial, next-to-last, final = 
        -241.923665744     -241.923703068     -241.923703068
  Force two-norm initial, final = 0.0675905 0.0274247
  Force max component initial, final = 0.0292426 0.00955384
  Final line search alpha, max atom move = 1.52588e-05 1.4578e-07
  Iterations, force evaluations = 4 41

Pair  time (%) = 0.00146757 (90.6464)
Neigh time (%) = 0 (0)
Comm  time (%) = 5.00146e-05 (3.08922)
Outpt time (%) = 1.70299e-05 (1.05188)
Other time (%) = 8.43903e-05 (5.21248)

Nlocal:    82 ave 82 max 82 min
Histogram: 1 0 0 0 0 0 0 0 0 0
Nghost:    185 ave 185 max 185 min
Histogram: 1 0 0 0 0 0 0 0 0 0
Neighs:    718 ave 718 max 718 min
Histogram: 1 0 0 0 0 0 0 0 0 0

Total # of neighbors = 718
Ave neighs/atom = 8.7561
Neighbor list builds = 0
Dangerous builds = 0
        # write_dump all atom ${dumpfile}
        next i
jump SELF loop1
        displace_atoms upper move ${xstep1} 0.0 0.0 units lattice
        displace_atoms upper move 0.00333333333333333 0.0 0.0 units lattice
        min_style ${style}
        min_style cg
        minimize ${etol} ${ftol} ${maxiter} ${maxeval}
        minimize 1e-12 ${ftol} ${maxiter} ${maxeval}
        minimize 1e-12 1e-08 ${maxiter} ${maxeval}
        minimize 1e-12 1e-08 10000 ${maxeval}
        minimize 1e-12 1e-08 10000 20000
WARNING: Resetting reneighboring criteria during minimization (../min.cpp:168)
Memory usage per processor = 3.35161 Mbytes
Step Temp PotEng Lx Ly Lz 
      44            0   -241.91844    2.0000005    34.647952    1.0000002 
      45            0   -241.91846    2.0000005    34.647952    1.0000002 
      46            0   -241.91847    2.0000005    34.647952    1.0000002 
      47            0   -241.91847    2.0000005    34.647952    1.0000002 
Loop time of 0.000691967 on 1 procs for 3 steps with 82 atoms

Minimization stats:
  Stopping criterion = linesearch alpha is zero
  Energy initial, next-to-last, final = 
        -241.918442719     -241.918467939     -241.918467939
  Force two-norm initial, final = 0.0538301 0.0272215
  Force max component initial, final = 0.0232517 0.0105662
  Final line search alpha, max atom move = 1.52588e-05 1.61228e-07
  Iterations, force evaluations = 3 32

Pair  time (%) = 0.000578242 (83.565)
Neigh time (%) = 0 (0)
Comm  time (%) = 4.3175e-05 (6.23946)
Outpt time (%) = 1.20497e-05 (1.74137)
Other time (%) = 5.84997e-05 (8.45413)

Nlocal:    82 ave 82 max 82 min
Histogram: 1 0 0 0 0 0 0 0 0 0
Nghost:    185 ave 185 max 185 min
Histogram: 1 0 0 0 0 0 0 0 0 0
Neighs:    718 ave 718 max 718 min
Histogram: 1 0 0 0 0 0 0 0 0 0

Total # of neighbors = 718
Ave neighs/atom = 8.7561
Neighbor list builds = 0
Dangerous builds = 0
        # write_dump all atom ${dumpfile}
        next i
jump SELF loop1
        displace_atoms upper move ${xstep1} 0.0 0.0 units lattice
        displace_atoms upper move 0.00333333333333333 0.0 0.0 units lattice
        min_style ${style}
        min_style cg
        minimize ${etol} ${ftol} ${maxiter} ${maxeval}
        minimize 1e-12 ${ftol} ${maxiter} ${maxeval}
        minimize 1e-12 1e-08 ${maxiter} ${maxeval}
        minimize 1e-12 1e-08 10000 ${maxeval}
        minimize 1e-12 1e-08 10000 20000
WARNING: Resetting reneighboring criteria during minimization (../min.cpp:168)
Memory usage per processor = 3.35161 Mbytes
Step Temp PotEng Lx Ly Lz 
      47            0   -241.91309    2.0000005    34.647952    1.0000002 
      48            0    -241.9131    2.0000005    34.647952    1.0000002 
      49            0   -241.91311    2.0000005    34.647952    1.0000002 
      50            0   -241.91312    2.0000005    34.647952    1.0000002 
      51            0   -241.91312    2.0000005    34.647952    1.0000002 
Loop time of 0.000889098 on 1 procs for 4 steps with 82 atoms

Minimization stats:
  Stopping criterion = linesearch alpha is zero
  Energy initial, next-to-last, final = 
        -241.913091606     -241.913121127     -241.913121127
  Force two-norm initial, final = 0.0568431 0.0244105
  Force max component initial, final = 0.0250715 0.00753383
  Final line search alpha, max atom move = 1.52588e-05 1.14957e-07
  Iterations, force evaluations = 4 41

Pair  time (%) = 0.000735704 (82.7472)
Neigh time (%) = 0 (0)
Comm  time (%) = 4.76493e-05 (5.35928)
Outpt time (%) = 1.79873e-05 (2.0231)
Other time (%) = 8.77574e-05 (9.87038)

Nlocal:    82 ave 82 max 82 min
Histogram: 1 0 0 0 0 0 0 0 0 0
Nghost:    185 ave 185 max 185 min
Histogram: 1 0 0 0 0 0 0 0 0 0
Neighs:    718 ave 718 max 718 min
Histogram: 1 0 0 0 0 0 0 0 0 0

Total # of neighbors = 718
Ave neighs/atom = 8.7561
Neighbor list builds = 0
Dangerous builds = 0
        # write_dump all atom ${dumpfile}
        next i
jump SELF loop1
        displace_atoms upper move ${xstep1} 0.0 0.0 units lattice
        displace_atoms upper move 0.00333333333333333 0.0 0.0 units lattice
        min_style ${style}
        min_style cg
        minimize ${etol} ${ftol} ${maxiter} ${maxeval}
        minimize 1e-12 ${ftol} ${maxiter} ${maxeval}
        minimize 1e-12 1e-08 ${maxiter} ${maxeval}
        minimize 1e-12 1e-08 10000 ${maxeval}
        minimize 1e-12 1e-08 10000 20000
WARNING: Resetting reneighboring criteria during minimization (../min.cpp:168)
Memory usage per processor = 3.35161 Mbytes
Step Temp PotEng Lx Ly Lz 
      51            0   -241.90767    2.0000005    34.647952    1.0000002 
      52            0   -241.90769    2.0000005    34.647952    1.0000002 
      53            0   -241.90771    2.0000005    34.647952    1.0000002 
      54            0   -241.90773    2.0000005    34.647952    1.0000002 
      55            0   -241.90774    2.0000005    34.647952    1.0000002 
      56            0   -241.90774    2.0000005    34.647952    1.0000002 
Loop time of 0.00102992 on 1 procs for 5 steps with 82 atoms

Minimization stats:
  Stopping criterion = linesearch alpha is zero
  Energy initial, next-to-last, final = 
        -241.907672868     -241.907739398     -241.907739398
  Force two-norm initial, final = 0.079994 0.0240528
  Force max component initial, final = 0.0381194 0.00829734
  Final line search alpha, max atom move = 1.52588e-05 1.26607e-07
  Iterations, force evaluations = 5 48

Pair  time (%) = 0.000850515 (82.5808)
Neigh time (%) = 0 (0)
Comm  time (%) = 5.93191e-05 (5.75959)
Outpt time (%) = 2.20644e-05 (2.14235)
Other time (%) = 9.80198e-05 (9.51725)

Nlocal:    82 ave 82 max 82 min
Histogram: 1 0 0 0 0 0 0 0 0 0
Nghost:    185 ave 185 max 185 min
Histogram: 1 0 0 0 0 0 0 0 0 0
Neighs:    718 ave 718 max 718 min
Histogram: 1 0 0 0 0 0 0 0 0 0

Total # of neighbors = 718
Ave neighs/atom = 8.7561
Neighbor list builds = 0
Dangerous builds = 0
        # write_dump all atom ${dumpfile}
        next i
jump SELF loop1
        displace_atoms upper move ${xstep1} 0.0 0.0 units lattice
        displace_atoms upper move 0.00333333333333333 0.0 0.0 units lattice
        min_style ${style}
        min_style cg
        minimize ${etol} ${ftol} ${maxiter} ${maxeval}
        minimize 1e-12 ${ftol} ${maxiter} ${maxeval}
        minimize 1e-12 1e-08 ${maxiter} ${maxeval}
        minimize 1e-12 1e-08 10000 ${maxeval}
        minimize 1e-12 1e-08 10000 20000
WARNING: Resetting reneighboring criteria during minimization (../min.cpp:168)
Memory usage per processor = 3.35161 Mbytes
Step Temp PotEng Lx Ly Lz 
      56            0   -241.90232    2.0000005    34.647952    1.0000002 
      57            0   -241.90233    2.0000005    34.647952    1.0000002 
      58            0   -241.90235    2.0000005    34.647952    1.0000002 
      59            0   -241.90237    2.0000005    34.647952    1.0000002 
      60            0   -241.90238    2.0000005    34.647952    1.0000002 
      61            0   -241.90238    2.0000005    34.647952    1.0000002 
      62            0   -241.90238    2.0000005    34.647952    1.0000002 
Loop time of 0.00128 on 1 procs for 6 steps with 82 atoms

Minimization stats:
  Stopping criterion = linesearch alpha is zero
  Energy initial, next-to-last, final = 
        -241.902315717     -241.902383712     -241.902383712
  Force two-norm initial, final = 0.0842462 0.0332478
  Force max component initial, final = 0.0403711 0.00889093
  Final line search alpha, max atom move = 7.62939e-06 6.78324e-08
  Iterations, force evaluations = 6 57

Pair  time (%) = 0.00104476 (81.6224)
Neigh time (%) = 0 (0)
Comm  time (%) = 7.3258e-05 (5.72329)
Outpt time (%) = 2.70257e-05 (2.11139)
Other time (%) = 0.000134949 (10.5429)

Nlocal:    82 ave 82 max 82 min
Histogram: 1 0 0 0 0 0 0 0 0 0
Nghost:    185 ave 185 max 185 min
Histogram: 1 0 0 0 0 0 0 0 0 0
Neighs:    718 ave 718 max 718 min
Histogram: 1 0 0 0 0 0 0 0 0 0

Total # of neighbors = 718
Ave neighs/atom = 8.7561
Neighbor list builds = 0
Dangerous builds = 0
        # write_dump all atom ${dumpfile}
        next i
jump SELF loop1
        displace_atoms upper move ${xstep1} 0.0 0.0 units lattice
        displace_atoms upper move 0.00333333333333333 0.0 0.0 units lattice
        min_style ${style}
        min_style cg
        minimize ${etol} ${ftol} ${maxiter} ${maxeval}
        minimize 1e-12 ${ftol} ${maxiter} ${maxeval}
        minimize 1e-12 1e-08 ${maxiter} ${maxeval}
        minimize 1e-12 1e-08 10000 ${maxeval}
        minimize 1e-12 1e-08 10000 20000
WARNING: Resetting reneighboring criteria during minimization (../min.cpp:168)
Memory usage per processor = 3.35161 Mbytes
Step Temp PotEng Lx Ly Lz 
      62            0   -241.89699    2.0000005    34.647952    1.0000002 
      63            0   -241.89701    2.0000005    34.647952    1.0000002 
      64            0   -241.89703    2.0000005    34.647952    1.0000002 
      65            0   -241.89704    2.0000005    34.647952    1.0000002 
      66            0   -241.89704    2.0000005    34.647952    1.0000002 
      67            0   -241.89705    2.0000005    34.647952    1.0000002 
      68            0   -241.89705    2.0000005    34.647952    1.0000002 
Loop time of 0.00126907 on 1 procs for 6 steps with 82 atoms

Minimization stats:
  Stopping criterion = linesearch alpha is zero
  Energy initial, next-to-last, final = 
        -241.896994184     -241.897050348     -241.897050348
  Force two-norm initial, final = 0.0696235 0.0248746
  Force max component initial, final = 0.0318521 0.00735799
  Final line search alpha, max atom move = 7.62939e-06 5.6137e-08
  Iterations, force evaluations = 6 54

Pair  time (%) = 0.00103665 (81.6858)
Neigh time (%) = 0 (0)
Comm  time (%) = 8.59969e-05 (6.77635)
Outpt time (%) = 2.61441e-05 (2.06009)
Other time (%) = 0.000120279 (9.47771)

Nlocal:    82 ave 82 max 82 min
Histogram: 1 0 0 0 0 0 0 0 0 0
Nghost:    185 ave 185 max 185 min
Histogram: 1 0 0 0 0 0 0 0 0 0
Neighs:    718 ave 718 max 718 min
Histogram: 1 0 0 0 0 0 0 0 0 0

Total # of neighbors = 718
Ave neighs/atom = 8.7561
Neighbor list builds = 0
Dangerous builds = 0
        # write_dump all atom ${dumpfile}
        next i
jump SELF loop1
        displace_atoms upper move ${xstep1} 0.0 0.0 units lattice
        displace_atoms upper move 0.00333333333333333 0.0 0.0 units lattice
        min_style ${style}
        min_style cg
        minimize ${etol} ${ftol} ${maxiter} ${maxeval}
        minimize 1e-12 ${ftol} ${maxiter} ${maxeval}
        minimize 1e-12 1e-08 ${maxiter} ${maxeval}
        minimize 1e-12 1e-08 10000 ${maxeval}
        minimize 1e-12 1e-08 10000 20000
WARNING: Resetting reneighboring criteria during minimization (../min.cpp:168)
Memory usage per processor = 3.35161 Mbytes
Step Temp PotEng Lx Ly Lz 
      68            0   -241.89167    2.0000005    34.647953    1.0000002 
      69            0   -241.89169    2.0000005    34.647953    1.0000002 
      70            0    -241.8917    2.0000005    34.647953    1.0000002 
      71            0   -241.89173    2.0000005    34.647953    1.0000002 
      72            0   -241.89174    2.0000005    34.647953    1.0000002 
      73            0   -241.89175    2.0000005    34.647953    1.0000002 
      74            0   -241.89175    2.0000005    34.647953    1.0000002 
Loop time of 0.00118101 on 1 procs for 6 steps with 82 atoms

Minimization stats:
  Stopping criterion = linesearch alpha is zero
  Energy initial, next-to-last, final = 
        -241.891674368     -241.891749638     -241.891749638
  Force two-norm initial, final = 0.0797795 0.0211713
  Force max component initial, final = 0.0380159 0.00707863
  Final line search alpha, max atom move = 1.52588e-05 1.08011e-07
  Iterations, force evaluations = 6 54

Pair  time (%) = 0.000905462 (76.6688)
Neigh time (%) = 0 (0)
Comm  time (%) = 6.23721e-05 (5.28127)
Outpt time (%) = 0.00011833 (10.0194)
Other time (%) = 9.48416e-05 (8.03058)

Nlocal:    82 ave 82 max 82 min
Histogram: 1 0 0 0 0 0 0 0 0 0
Nghost:    185 ave 185 max 185 min
Histogram: 1 0 0 0 0 0 0 0 0 0
Neighs:    718 ave 718 max 718 min
Histogram: 1 0 0 0 0 0 0 0 0 0

Total # of neighbors = 718
Ave neighs/atom = 8.7561
Neighbor list builds = 0
Dangerous builds = 0
        # write_dump all atom ${dumpfile}
        next i
jump SELF loop1
        displace_atoms upper move ${xstep1} 0.0 0.0 units lattice
        displace_atoms upper move 0.00333333333333333 0.0 0.0 units lattice
        min_style ${style}
        min_style cg
        minimize ${etol} ${ftol} ${maxiter} ${maxeval}
        minimize 1e-12 ${ftol} ${maxiter} ${maxeval}
        minimize 1e-12 1e-08 ${maxiter} ${maxeval}
        minimize 1e-12 1e-08 10000 ${maxeval}
        minimize 1e-12 1e-08 10000 20000
WARNING: Resetting reneighboring criteria during minimization (../min.cpp:168)
Memory usage per processor = 3.35161 Mbytes
Step Temp PotEng Lx Ly Lz 
      74            0    -241.8864    2.0000005    34.647961    1.0000002 
      75            0   -241.88642    2.0000005    34.647961    1.0000002 
      76            0   -241.88643    2.0000005    34.647961    1.0000002 
      77            0   -241.88645    2.0000005    34.647961    1.0000002 
      78            0   -241.88645    2.0000005    34.647961    1.0000002 
      79            0   -241.88646    2.0000005    34.647961    1.0000002 
      80            0   -241.88646    2.0000005    34.647961    1.0000002 
Loop time of 0.00207408 on 1 procs for 6 steps with 82 atoms

Minimization stats:
  Stopping criterion = linesearch alpha is zero
  Energy initial, next-to-last, final = 
        -241.886399237     -241.886464327     -241.886464327
  Force two-norm initial, final = 0.0883378 0.0302803
  Force max component initial, final = 0.042921 0.00810288
  Final line search alpha, max atom move = 7.62939e-06 6.18201e-08
  Iterations, force evaluations = 6 55

Pair  time (%) = 0.00159992 (77.1386)
Neigh time (%) = 0 (0)
Comm  time (%) = 0.000189923 (9.15696)
Outpt time (%) = 5.03199e-05 (2.42613)
Other time (%) = 0.00023392 (11.2783)

Nlocal:    82 ave 82 max 82 min
Histogram: 1 0 0 0 0 0 0 0 0 0
Nghost:    185 ave 185 max 185 min
Histogram: 1 0 0 0 0 0 0 0 0 0
Neighs:    718 ave 718 max 718 min
Histogram: 1 0 0 0 0 0 0 0 0 0

Total # of neighbors = 718
Ave neighs/atom = 8.7561
Neighbor list builds = 0
Dangerous builds = 0
        # write_dump all atom ${dumpfile}
        next i
jump SELF loop1
        displace_atoms upper move ${xstep1} 0.0 0.0 units lattice
        displace_atoms upper move 0.00333333333333333 0.0 0.0 units lattice
        min_style ${style}
        min_style cg
        minimize ${etol} ${ftol} ${maxiter} ${maxeval}
        minimize 1e-12 ${ftol} ${maxiter} ${maxeval}
        minimize 1e-12 1e-08 ${maxiter} ${maxeval}
        minimize 1e-12 1e-08 10000 ${maxeval}
        minimize 1e-12 1e-08 10000 20000
WARNING: Resetting reneighboring criteria during minimization (../min.cpp:168)
Memory usage per processor = 3.35161 Mbytes
Step Temp PotEng Lx Ly Lz 
      80            0   -241.88113    2.0000005    34.647986    1.0000002 
      81            0   -241.88116    2.0000005    34.647986    1.0000002 
      82            0   -241.88117    2.0000005    34.647986    1.0000002 
      83            0   -241.88118    2.0000005    34.647986    1.0000002 
      84            0   -241.88119    2.0000005    34.647986    1.0000002 
      85            0   -241.88121    2.0000005    34.647986    1.0000002 
      86            0   -241.88123    2.0000005    34.647986    1.0000002 
      87            0   -241.88123    2.0000005    34.647986    1.0000002 
Loop time of 0.00138098 on 1 procs for 7 steps with 82 atoms

Minimization stats:
  Stopping criterion = linesearch alpha is zero
  Energy initial, next-to-last, final = 
        -241.881130238     -241.881226234     -241.881226234
  Force two-norm initial, final = 0.102004 0.0216663
  Force max component initial, final = 0.0493722 0.00720194
  Final line search alpha, max atom move = 1.52588e-05 1.09893e-07
  Iterations, force evaluations = 7 61

Pair  time (%) = 0.00115289 (83.483)
Neigh time (%) = 0 (0)
Comm  time (%) = 7.98572e-05 (5.78263)
Outpt time (%) = 3.4037e-05 (2.46469)
Other time (%) = 0.000114203 (8.26968)

Nlocal:    82 ave 82 max 82 min
Histogram: 1 0 0 0 0 0 0 0 0 0
Nghost:    185 ave 185 max 185 min
Histogram: 1 0 0 0 0 0 0 0 0 0
Neighs:    718 ave 718 max 718 min
Histogram: 1 0 0 0 0 0 0 0 0 0

Total # of neighbors = 718
Ave neighs/atom = 8.7561
Neighbor list builds = 0
Dangerous builds = 0
        # write_dump all atom ${dumpfile}
        next i
jump SELF loop1
        displace_atoms upper move ${xstep1} 0.0 0.0 units lattice
        displace_atoms upper move 0.00333333333333333 0.0 0.0 units lattice
        min_style ${style}
        min_style cg
        minimize ${etol} ${ftol} ${maxiter} ${maxeval}
        minimize 1e-12 ${ftol} ${maxiter} ${maxeval}
        minimize 1e-12 1e-08 ${maxiter} ${maxeval}
        minimize 1e-12 1e-08 10000 ${maxeval}
        minimize 1e-12 1e-08 10000 20000
WARNING: Resetting reneighboring criteria during minimization (../min.cpp:168)
Memory usage per processor = 3.35161 Mbytes
Step Temp PotEng Lx Ly Lz 
      87            0   -241.87595    2.0000005    34.648088    1.0000002 
      88            0   -241.87597    2.0000005    34.648088    1.0000002 
      89            0   -241.87599    2.0000005    34.648088    1.0000002 
      90            0     -241.876    2.0000005    34.648088    1.0000002 
      91            0     -241.876    2.0000005    34.648088    1.0000002 
      92            0     -241.876    2.0000005    34.648088    1.0000002 
Loop time of 0.0007799 on 1 procs for 5 steps with 82 atoms

Minimization stats:
  Stopping criterion = linesearch alpha is zero
  Energy initial, next-to-last, final = 
        -241.875945714      -241.87600193      -241.87600193
  Force two-norm initial, final = 0.0853592 0.0195354
  Force max component initial, final = 0.0412821 0.00690259
  Final line search alpha, max atom move = 1.52588e-05 1.05325e-07
  Iterations, force evaluations = 5 46

Pair  time (%) = 0.000634479 (81.3539)
Neigh time (%) = 0 (0)
Comm  time (%) = 5.11033e-05 (6.55255)
Outpt time (%) = 1.98943e-05 (2.55088)
Other time (%) = 7.4423e-05 (9.54264)

Nlocal:    82 ave 82 max 82 min
Histogram: 1 0 0 0 0 0 0 0 0 0
Nghost:    185 ave 185 max 185 min
Histogram: 1 0 0 0 0 0 0 0 0 0
Neighs:    718 ave 718 max 718 min
Histogram: 1 0 0 0 0 0 0 0 0 0

Total # of neighbors = 718
Ave neighs/atom = 8.7561
Neighbor list builds = 0
Dangerous builds = 0
        # write_dump all atom ${dumpfile}
        next i
jump SELF loop1
        displace_atoms upper move ${xstep1} 0.0 0.0 units lattice
        displace_atoms upper move 0.00333333333333333 0.0 0.0 units lattice
        min_style ${style}
        min_style cg
        minimize ${etol} ${ftol} ${maxiter} ${maxeval}
        minimize 1e-12 ${ftol} ${maxiter} ${maxeval}
        minimize 1e-12 1e-08 ${maxiter} ${maxeval}
        minimize 1e-12 1e-08 10000 ${maxeval}
        minimize 1e-12 1e-08 10000 20000
WARNING: Resetting reneighboring criteria during minimization (../min.cpp:168)
Memory usage per processor = 3.35161 Mbytes
Step Temp PotEng Lx Ly Lz 
      92            0   -241.87073    2.0000005    34.648171    1.0000002 
      93            0   -241.87074    2.0000005    34.648171    1.0000002 
      94            0   -241.87076    2.0000005    34.648171    1.0000002 
      95            0   -241.87077    2.0000005    34.648171    1.0000002 
      96            0   -241.87079    2.0000005    34.648171    1.0000002 
      97            0   -241.87081    2.0000005    34.648171    1.0000002 
      98            0   -241.87081    2.0000005    34.648171    1.0000002 
Loop time of 0.00124709 on 1 procs for 6 steps with 82 atoms

Minimization stats:
  Stopping criterion = linesearch alpha is zero
  Energy initial, next-to-last, final = 
        -241.870734369     -241.870808981     -241.870808981
  Force two-norm initial, final = 0.0819448 0.0223026
  Force max component initial, final = 0.0398201 0.00776352
  Final line search alpha, max atom move = 1.52588e-05 1.18462e-07
  Iterations, force evaluations = 6 54

Pair  time (%) = 0.00104993 (84.1905)
Neigh time (%) = 0 (0)
Comm  time (%) = 5.97421e-05 (4.79051)
Outpt time (%) = 2.93149e-05 (2.35066)
Other time (%) = 0.000108103 (8.66837)

Nlocal:    82 ave 82 max 82 min
Histogram: 1 0 0 0 0 0 0 0 0 0
Nghost:    185 ave 185 max 185 min
Histogram: 1 0 0 0 0 0 0 0 0 0
Neighs:    718 ave 718 max 718 min
Histogram: 1 0 0 0 0 0 0 0 0 0

Total # of neighbors = 718
Ave neighs/atom = 8.7561
Neighbor list builds = 0
Dangerous builds = 0
        # write_dump all atom ${dumpfile}
        next i
jump SELF loop1
        displace_atoms upper move ${xstep1} 0.0 0.0 units lattice
        displace_atoms upper move 0.00333333333333333 0.0 0.0 units lattice
        min_style ${style}
        min_style cg
        minimize ${etol} ${ftol} ${maxiter} ${maxeval}
        minimize 1e-12 ${ftol} ${maxiter} ${maxeval}
        minimize 1e-12 1e-08 ${maxiter} ${maxeval}
        minimize 1e-12 1e-08 10000 ${maxeval}
        minimize 1e-12 1e-08 10000 20000
WARNING: Resetting reneighboring criteria during minimization (../min.cpp:168)
Memory usage per processor = 3.35161 Mbytes
Step Temp PotEng Lx Ly Lz 
      98            0   -241.86558    2.0000005    34.648343    1.0000002 
      99            0    -241.8656    2.0000005    34.648343    1.0000002 
     100            0    -241.8656    2.0000005    34.648343    1.0000002 
     101            0    -241.8656    2.0000005    34.648343    1.0000002 
Loop time of 0.000926902 on 1 procs for 3 steps with 82 atoms

Minimization stats:
  Stopping criterion = linesearch alpha is zero
  Energy initial, next-to-last, final = 
         -241.86557812     -241.865601909     -241.865601909
  Force two-norm initial, final = 0.0811059 0.0431529
  Force max component initial, final = 0.0390566 0.0183544
  Final line search alpha, max atom move = 3.8147e-06 7.00166e-08
  Iterations, force evaluations = 3 41

Pair  time (%) = 0.000761731 (82.1803)
Neigh time (%) = 0 (0)
Comm  time (%) = 7.99078e-05 (8.62096)
Outpt time (%) = 1.29594e-05 (1.39814)
Other time (%) = 7.23038e-05 (7.80059)

Nlocal:    82 ave 82 max 82 min
Histogram: 1 0 0 0 0 0 0 0 0 0
Nghost:    185 ave 185 max 185 min
Histogram: 1 0 0 0 0 0 0 0 0 0
Neighs:    718 ave 718 max 718 min
Histogram: 1 0 0 0 0 0 0 0 0 0

Total # of neighbors = 718
Ave neighs/atom = 8.7561
Neighbor list builds = 0
Dangerous builds = 0
        # write_dump all atom ${dumpfile}
        next i
jump SELF loop1
        displace_atoms upper move ${xstep1} 0.0 0.0 units lattice
        displace_atoms upper move 0.00333333333333333 0.0 0.0 units lattice
        min_style ${style}
        min_style cg
        minimize ${etol} ${ftol} ${maxiter} ${maxeval}
        minimize 1e-12 ${ftol} ${maxiter} ${maxeval}
        minimize 1e-12 1e-08 ${maxiter} ${maxeval}
        minimize 1e-12 1e-08 10000 ${maxeval}
        minimize 1e-12 1e-08 10000 20000
WARNING: Resetting reneighboring criteria during minimization (../min.cpp:168)
Memory usage per processor = 3.35161 Mbytes
Step Temp PotEng Lx Ly Lz 
     101            0   -241.86034    2.0000005    34.648349    1.0000002 
     102            0   -241.86039    2.0000005    34.648349    1.0000002 
     103            0   -241.86039    2.0000005    34.648349    1.0000002 
Loop time of 0.00166591 on 1 procs for 2 steps with 82 atoms

Minimization stats:
  Stopping criterion = linesearch alpha is zero
  Energy initial, next-to-last, final = 
         -241.86034274      -241.86039431      -241.86039431
  Force two-norm initial, final = 0.122578 0.0495053
  Force max component initial, final = 0.0602305 0.0231309
  Final line search alpha, max atom move = 3.8147e-06 8.82374e-08
  Iterations, force evaluations = 2 27

Pair  time (%) = 0.00155681 (93.4508)
Neigh time (%) = 0 (0)
Comm  time (%) = 3.41638e-05 (2.05076)
Outpt time (%) = 1.10212e-05 (0.661568)
Other time (%) = 6.39195e-05 (3.8369)

Nlocal:    82 ave 82 max 82 min
Histogram: 1 0 0 0 0 0 0 0 0 0
Nghost:    185 ave 185 max 185 min
Histogram: 1 0 0 0 0 0 0 0 0 0
Neighs:    718 ave 718 max 718 min
Histogram: 1 0 0 0 0 0 0 0 0 0

Total # of neighbors = 718
Ave neighs/atom = 8.7561
Neighbor list builds = 0
Dangerous builds = 0
        # write_dump all atom ${dumpfile}
        next i
jump SELF loop1
        displace_atoms upper move ${xstep1} 0.0 0.0 units lattice
        displace_atoms upper move 0.00333333333333333 0.0 0.0 units lattice
        min_style ${style}
        min_style cg
        minimize ${etol} ${ftol} ${maxiter} ${maxeval}
        minimize 1e-12 ${ftol} ${maxiter} ${maxeval}
        minimize 1e-12 1e-08 ${maxiter} ${maxeval}
        minimize 1e-12 1e-08 10000 ${maxeval}
        minimize 1e-12 1e-08 10000 20000
WARNING: Resetting reneighboring criteria during minimization (../min.cpp:168)
Memory usage per processor = 3.35161 Mbytes
Step Temp PotEng Lx Ly Lz 
     103            0   -241.85516    2.0000005    34.648362    1.0000002 
     104            0   -241.85521    2.0000005    34.648362    1.0000002 
     105            0   -241.85522    2.0000005    34.648362    1.0000002 
     106            0   -241.85526    2.0000005    34.648362    1.0000002 
     107            0   -241.85529    2.0000005    34.648362    1.0000002 
     108            0   -241.85529    2.0000005    34.648362    1.0000002 
     109            0   -241.85532    2.0000005    34.648362    1.0000002 
     110            0   -241.85534    2.0000005    34.648362    1.0000002 
     111            0   -241.85537    2.0000005    34.648362    1.0000002 
     112            0   -241.85538    2.0000005    34.648362    1.0000002 
     113            0   -241.85539    2.0000005    34.648362    1.0000002 
     114            0   -241.85539    2.0000005    34.648362    1.0000002 
     115            0   -241.85539    2.0000005    34.648362    1.0000002 
Loop time of 0.0207731 on 1 procs for 12 steps with 82 atoms

Minimization stats:
  Stopping criterion = linesearch alpha is zero
  Energy initial, next-to-last, final = 
        -241.855163496     -241.855394661     -241.855394661
  Force two-norm initial, final = 0.0981604 0.0181541
  Force max component initial, final = 0.0423837 0.00353459
  Final line search alpha, max atom move = 3.05176e-05 1.07867e-07
  Iterations, force evaluations = 12 99

Pair  time (%) = 0.00201992 (9.72373)
Neigh time (%) = 0 (0)
Comm  time (%) = 0.000134167 (0.64587)
Outpt time (%) = 0.0181383 (87.3163)
Other time (%) = 0.0004807 (2.31405)

Nlocal:    82 ave 82 max 82 min
Histogram: 1 0 0 0 0 0 0 0 0 0
Nghost:    185 ave 185 max 185 min
Histogram: 1 0 0 0 0 0 0 0 0 0
Neighs:    718 ave 718 max 718 min
Histogram: 1 0 0 0 0 0 0 0 0 0

Total # of neighbors = 718
Ave neighs/atom = 8.7561
Neighbor list builds = 0
Dangerous builds = 0
        # write_dump all atom ${dumpfile}
        next i
jump SELF loop1
        displace_atoms upper move ${xstep1} 0.0 0.0 units lattice
        displace_atoms upper move 0.00333333333333333 0.0 0.0 units lattice
        min_style ${style}
        min_style cg
        minimize ${etol} ${ftol} ${maxiter} ${maxeval}
        minimize 1e-12 ${ftol} ${maxiter} ${maxeval}
        minimize 1e-12 1e-08 ${maxiter} ${maxeval}
        minimize 1e-12 1e-08 10000 ${maxeval}
        minimize 1e-12 1e-08 10000 20000
WARNING: Resetting reneighboring criteria during minimization (../min.cpp:168)
Memory usage per processor = 3.35161 Mbytes
Step Temp PotEng Lx Ly Lz 
     115            0   -241.85023    2.0000005    34.648833    1.0000002 
     116            0   -241.85025    2.0000005    34.648833    1.0000002 
     117            0   -241.85026    2.0000005    34.648833    1.0000002 
     118            0   -241.85026    2.0000005    34.648833    1.0000002 
Loop time of 0.00186308 on 1 procs for 3 steps with 82 atoms

Minimization stats:
  Stopping criterion = linesearch alpha is zero
  Energy initial, next-to-last, final = 
        -241.850234694     -241.850256635     -241.850256635
  Force two-norm initial, final = 0.0877532 0.041658
  Force max component initial, final = 0.0429486 0.0163362
  Final line search alpha, max atom move = 3.8147e-06 6.23176e-08
  Iterations, force evaluations = 3 38

Pair  time (%) = 0.00153071 (82.1604)
Neigh time (%) = 0 (0)
Comm  time (%) = 0.000129055 (6.92698)
Outpt time (%) = 1.5042e-05 (0.807375)
Other time (%) = 0.000188269 (10.1053)

Nlocal:    82 ave 82 max 82 min
Histogram: 1 0 0 0 0 0 0 0 0 0
Nghost:    185 ave 185 max 185 min
Histogram: 1 0 0 0 0 0 0 0 0 0
Neighs:    718 ave 718 max 718 min
Histogram: 1 0 0 0 0 0 0 0 0 0

Total # of neighbors = 718
Ave neighs/atom = 8.7561
Neighbor list builds = 0
Dangerous builds = 0
        # write_dump all atom ${dumpfile}
        next i
jump SELF loop1
        displace_atoms upper move ${xstep1} 0.0 0.0 units lattice
        displace_atoms upper move 0.00333333333333333 0.0 0.0 units lattice
        min_style ${style}
        min_style cg
        minimize ${etol} ${ftol} ${maxiter} ${maxeval}
        minimize 1e-12 ${ftol} ${maxiter} ${maxeval}
        minimize 1e-12 1e-08 ${maxiter} ${maxeval}
        minimize 1e-12 1e-08 10000 ${maxeval}
        minimize 1e-12 1e-08 10000 20000
WARNING: Resetting reneighboring criteria during minimization (../min.cpp:168)
Memory usage per processor = 3.35161 Mbytes
Step Temp PotEng Lx Ly Lz 
     118            0   -241.84508    2.0000005    34.648846    1.0000002 
     119            0   -241.84514    2.0000005    34.648846    1.0000002 
     120            0   -241.84514    2.0000005    34.648846    1.0000002 
Loop time of 0.00060094 on 1 procs for 2 steps with 82 atoms

Minimization stats:
  Stopping criterion = linesearch alpha is zero
  Energy initial, next-to-last, final = 
        -241.845079846     -241.845137505     -241.845137505
  Force two-norm initial, final = 0.119602 0.0527211
  Force max component initial, final = 0.0583892 0.0245452
  Final line search alpha, max atom move = 3.8147e-06 9.36324e-08
  Iterations, force evaluations = 2 27

Pair  time (%) = 0.000509601 (84.8008)
Neigh time (%) = 0 (0)
Comm  time (%) = 3.19284e-05 (5.31308)
Outpt time (%) = 6.03974e-06 (1.00505)
Other time (%) = 5.33699e-05 (8.88108)

Nlocal:    82 ave 82 max 82 min
Histogram: 1 0 0 0 0 0 0 0 0 0
Nghost:    185 ave 185 max 185 min
Histogram: 1 0 0 0 0 0 0 0 0 0
Neighs:    718 ave 718 max 718 min
Histogram: 1 0 0 0 0 0 0 0 0 0

Total # of neighbors = 718
Ave neighs/atom = 8.7561
Neighbor list builds = 0
Dangerous builds = 0
        # write_dump all atom ${dumpfile}
        next i
jump SELF loop1
        displace_atoms upper move ${xstep1} 0.0 0.0 units lattice
        displace_atoms upper move 0.00333333333333333 0.0 0.0 units lattice
        min_style ${style}
        min_style cg
        minimize ${etol} ${ftol} ${maxiter} ${maxeval}
        minimize 1e-12 ${ftol} ${maxiter} ${maxeval}
        minimize 1e-12 1e-08 ${maxiter} ${maxeval}
        minimize 1e-12 1e-08 10000 ${maxeval}
        minimize 1e-12 1e-08 10000 20000
WARNING: Resetting reneighboring criteria during minimization (../min.cpp:168)
Memory usage per processor = 3.35161 Mbytes
Step Temp PotEng Lx Ly Lz 
     120            0   -241.83999    2.0000005    34.648864    1.0000002 
     121            0   -241.84005    2.0000005    34.648864    1.0000002 
     122            0   -241.84005    2.0000005    34.648864    1.0000002 
Loop time of 0.000599997 on 1 procs for 2 steps with 82 atoms

Minimization stats:
  Stopping criterion = linesearch alpha is zero
  Energy initial, next-to-last, final = 
        -241.839991048     -241.840046322     -241.840046322
  Force two-norm initial, final = 0.100774 0.0568899
  Force max component initial, final = 0.0429514 0.0238737
  Final line search alpha, max atom move = 3.8147e-06 9.1071e-08
  Iterations, force evaluations = 2 27

Pair  time (%) = 0.000507992 (84.6657)
Neigh time (%) = 0 (0)
Comm  time (%) = 3.38091e-05 (5.63488)
Outpt time (%) = 6.09749e-06 (1.01625)
Other time (%) = 5.20987e-05 (8.68315)

Nlocal:    82 ave 82 max 82 min
[...]
Dangerous builds = 0
        # write_dump all atom ${dumpfile}
        next i
jump SELF loop1
        displace_atoms upper move ${xstep1} 0.0 0.0 units lattice
        displace_atoms upper move 0.00333333333333333 0.0 0.0 units lattice
        min_style ${style}
        min_style cg
        minimize ${etol} ${ftol} ${maxiter} ${maxeval}
        minimize 1e-12 ${ftol} ${maxiter} ${maxeval}
        minimize 1e-12 1e-08 ${maxiter} ${maxeval}
        minimize 1e-12 1e-08 10000 ${maxeval}
        minimize 1e-12 1e-08 10000 20000
WARNING: Resetting reneighboring criteria during minimization (../min.cpp:168)
Memory usage per processor = 3.35161 Mbytes
Step Temp PotEng Lx Ly Lz 
    1202            0   -241.98254    2.0000005     34.66388    1.0000002 
    1203            0   -241.98255    2.0000005     34.66388    1.0000002 
    1204            0   -241.98256    2.0000005     34.66388    1.0000002 
    1205            0   -241.98257    2.0000005     34.66388    1.0000002 
    1206            0   -241.98257    2.0000005     34.66388    1.0000002 
Loop time of 0.00075992 on 1 procs for 4 steps with 82 atoms

Minimization stats:
  Stopping criterion = linesearch alpha is zero
  Energy initial, next-to-last, final = 
        -241.982542017     -241.982569984     -241.982569984
  Force two-norm initial, final = 0.0249679 0.0499859
  Force max component initial, final = 0.00605994 0.019329
  Final line search alpha, max atom move = 3.8147e-06 7.37343e-08
  Iterations, force evaluations = 4 39

Pair  time (%) = 0.000617607 (81.2726)
Neigh time (%) = 0 (0)
Comm  time (%) = 5.30962e-05 (6.98708)
Outpt time (%) = 1.59674e-05 (2.1012)
Other time (%) = 7.32493e-05 (9.63908)

Nlocal:    82 ave 82 max 82 min
Histogram: 1 0 0 0 0 0 0 0 0 0
Nghost:    185 ave 185 max 185 min
Histogram: 1 0 0 0 0 0 0 0 0 0
Neighs:    718 ave 718 max 718 min
Histogram: 1 0 0 0 0 0 0 0 0 0

Total # of neighbors = 718
Ave neighs/atom = 8.7561
Neighbor list builds = 0
Dangerous builds = 0
        # write_dump all atom ${dumpfile}
        next i
jump SELF loop1
        displace_atoms upper move ${xstep1} 0.0 0.0 units lattice
        displace_atoms upper move 0.00333333333333333 0.0 0.0 units lattice
        min_style ${style}
        min_style cg
        minimize ${etol} ${ftol} ${maxiter} ${maxeval}
        minimize 1e-12 ${ftol} ${maxiter} ${maxeval}
        minimize 1e-12 1e-08 ${maxiter} ${maxeval}
        minimize 1e-12 1e-08 10000 ${maxeval}
        minimize 1e-12 1e-08 10000 20000
WARNING: Resetting reneighboring criteria during minimization (../min.cpp:168)
Memory usage per processor = 3.35161 Mbytes
Step Temp PotEng Lx Ly Lz 
    1206            0   -241.98571    2.0000005    34.663012    1.0000002 
    1207            0   -241.98572    2.0000005    34.663012    1.0000002 
    1208            0   -241.98572    2.0000005    34.663012    1.0000002 
Loop time of 0.0011291 on 1 procs for 2 steps with 82 atoms

Minimization stats:
  Stopping criterion = linesearch alpha is zero
  Energy initial, next-to-last, final = 
        -241.985710102     -241.985720413     -241.985720413
  Force two-norm initial, final = 0.0522636 0.0375889
  Force max component initial, final = 0.019329 0.0124262
  Final line search alpha, max atom move = 7.62939e-06 9.48043e-08
  Iterations, force evaluations = 2 26

Pair  time (%) = 0.00103023 (91.2438)
Neigh time (%) = 0 (0)
Comm  time (%) = 3.34828e-05 (2.96545)
Outpt time (%) = 5.94009e-06 (0.526092)
Other time (%) = 5.94427e-05 (5.26462)

Nlocal:    82 ave 82 max 82 min
Histogram: 1 0 0 0 0 0 0 0 0 0
Nghost:    185 ave 185 max 185 min
Histogram: 1 0 0 0 0 0 0 0 0 0
Neighs:    718 ave 718 max 718 min
Histogram: 1 0 0 0 0 0 0 0 0 0

Total # of neighbors = 718
Ave neighs/atom = 8.7561
Neighbor list builds = 0
Dangerous builds = 0
        # write_dump all atom ${dumpfile}
        next i
jump SELF loop1
        displace_atoms upper move ${xstep1} 0.0 0.0 units lattice
        displace_atoms upper move 0.00333333333333333 0.0 0.0 units lattice
        min_style ${style}
        min_style cg
        minimize ${etol} ${ftol} ${maxiter} ${maxeval}
        minimize 1e-12 ${ftol} ${maxiter} ${maxeval}
        minimize 1e-12 1e-08 ${maxiter} ${maxeval}
        minimize 1e-12 1e-08 10000 ${maxeval}
        minimize 1e-12 1e-08 10000 20000
WARNING: Resetting reneighboring criteria during minimization (../min.cpp:168)
Memory usage per processor = 3.35161 Mbytes
Step Temp PotEng Lx Ly Lz 
    1208            0   -241.98856    2.0000005    34.662982    1.0000002 
    1209            0   -241.98858    2.0000005    34.662982    1.0000002 
    1210            0   -241.98859    2.0000005    34.662982    1.0000002 
    1211            0   -241.98859    2.0000005    34.662982    1.0000002 
Loop time of 0.000624028 on 1 procs for 3 steps with 82 atoms

Minimization stats:
  Stopping criterion = linesearch alpha is zero
  Energy initial, next-to-last, final = 
        -241.988558969     -241.988585737     -241.988585737
  Force two-norm initial, final = 0.0488863 0.0217118
  Force max component initial, final = 0.0158845 0.00744378
  Final line search alpha, max atom move = 1.52588e-05 1.13583e-07
  Iterations, force evaluations = 3 32

Pair  time (%) = 0.000508524 (81.4907)
Neigh time (%) = 0 (0)
Comm  time (%) = 4.14501e-05 (6.64236)
Outpt time (%) = 1.1008e-05 (1.76402)
Other time (%) = 6.30451e-05 (10.1029)

Nlocal:    82 ave 82 max 82 min
Histogram: 1 0 0 0 0 0 0 0 0 0
Nghost:    185 ave 185 max 185 min
Histogram: 1 0 0 0 0 0 0 0 0 0
Neighs:    718 ave 718 max 718 min
Histogram: 1 0 0 0 0 0 0 0 0 0

Total # of neighbors = 718
Ave neighs/atom = 8.7561
Neighbor list builds = 0
Dangerous builds = 0
        # write_dump all atom ${dumpfile}
        next i
jump SELF loop1
        displace_atoms upper move ${xstep1} 0.0 0.0 units lattice
        displace_atoms upper move 0.00333333333333333 0.0 0.0 units lattice
        min_style ${style}
        min_style cg
        minimize ${etol} ${ftol} ${maxiter} ${maxeval}
        minimize 1e-12 ${ftol} ${maxiter} ${maxeval}
        minimize 1e-12 1e-08 ${maxiter} ${maxeval}
        minimize 1e-12 1e-08 10000 ${maxeval}
        minimize 1e-12 1e-08 10000 20000
WARNING: Resetting reneighboring criteria during minimization (../min.cpp:168)
Memory usage per processor = 3.35161 Mbytes
Step Temp PotEng Lx Ly Lz 
    1211            0   -241.99111    2.0000005    34.662882    1.0000002 
    1212            0   -241.99112    2.0000005    34.662882    1.0000002 
    1213            0   -241.99113    2.0000005    34.662882    1.0000002 
    1214            0   -241.99113    2.0000005    34.662882    1.0000002 
Loop time of 0.000624975 on 1 procs for 3 steps with 82 atoms

Minimization stats:
  Stopping criterion = linesearch alpha is zero
  Energy initial, next-to-last, final = 
        -241.991107426     -241.991125861     -241.991125861
  Force two-norm initial, final = 0.0324598 0.030287
  Force max component initial, final = 0.0121057 0.0130585
  Final line search alpha, max atom move = 7.62939e-06 9.96283e-08
  Iterations, force evaluations = 3 32

Pair  time (%) = 0.000507771 (81.2467)
Neigh time (%) = 0 (0)
Comm  time (%) = 3.50366e-05 (5.60608)
Outpt time (%) = 1.09758e-05 (1.75619)
Other time (%) = 7.11912e-05 (11.3911)

Nlocal:    82 ave 82 max 82 min
Histogram: 1 0 0 0 0 0 0 0 0 0
Nghost:    185 ave 185 max 185 min
Histogram: 1 0 0 0 0 0 0 0 0 0
Neighs:    718 ave 718 max 718 min
Histogram: 1 0 0 0 0 0 0 0 0 0

Total # of neighbors = 718
Ave neighs/atom = 8.7561
Neighbor list builds = 0
Dangerous builds = 0
        # write_dump all atom ${dumpfile}
        next i
jump SELF loop1
        displace_atoms upper move ${xstep1} 0.0 0.0 units lattice
        displace_atoms upper move 0.00333333333333333 0.0 0.0 units lattice
        min_style ${style}
        min_style cg
        minimize ${etol} ${ftol} ${maxiter} ${maxeval}
        minimize 1e-12 ${ftol} ${maxiter} ${maxeval}
        minimize 1e-12 1e-08 ${maxiter} ${maxeval}
        minimize 1e-12 1e-08 10000 ${maxeval}
        minimize 1e-12 1e-08 10000 20000
WARNING: Resetting reneighboring criteria during minimization (../min.cpp:168)
Memory usage per processor = 3.35161 Mbytes
Step Temp PotEng Lx Ly Lz 
    1214            0   -241.99333    2.0000005    34.662676    1.0000002 
    1215            0   -241.99333    2.0000005    34.662676    1.0000002 
    1216            0   -241.99334    2.0000005    34.662676    1.0000002 
    1217            0   -241.99338    2.0000005    34.662676    1.0000002 
    1218            0   -241.99342    2.0000005    34.662676    1.0000002 
    1219            0   -241.99342    2.0000005    34.662676    1.0000002 
Loop time of 0.000905909 on 1 procs for 5 steps with 82 atoms

Minimization stats:
  Stopping criterion = linesearch alpha is zero
  Energy initial, next-to-last, final = 
        -241.993327966     -241.993422166     -241.993422166
  Force two-norm initial, final = 0.0164011 0.0519747
  Force max component initial, final = 0.00341243 0.0156877
  Final line search alpha, max atom move = 3.8147e-06 5.98439e-08
  Iterations, force evaluations = 5 46

Pair  time (%) = 0.000732321 (80.8382)
Neigh time (%) = 0 (0)
Comm  time (%) = 5.70891e-05 (6.30186)
Outpt time (%) = 2.0853e-05 (2.30189)
Other time (%) = 9.56464e-05 (10.558)

Nlocal:    82 ave 82 max 82 min
Histogram: 1 0 0 0 0 0 0 0 0 0
Nghost:    185 ave 185 max 185 min
Histogram: 1 0 0 0 0 0 0 0 0 0
Neighs:    718 ave 718 max 718 min
Histogram: 1 0 0 0 0 0 0 0 0 0

Total # of neighbors = 718
Ave neighs/atom = 8.7561
Neighbor list builds = 0
Dangerous builds = 0
        # write_dump all atom ${dumpfile}
        next i
jump SELF loop1
        displace_atoms upper move ${xstep1} 0.0 0.0 units lattice
        displace_atoms upper move 0.00333333333333333 0.0 0.0 units lattice
        min_style ${style}
        min_style cg
        minimize ${etol} ${ftol} ${maxiter} ${maxeval}
        minimize 1e-12 ${ftol} ${maxiter} ${maxeval}
        minimize 1e-12 1e-08 ${maxiter} ${maxeval}
        minimize 1e-12 1e-08 10000 ${maxeval}
        minimize 1e-12 1e-08 10000 20000
WARNING: Resetting reneighboring criteria during minimization (../min.cpp:168)
Memory usage per processor = 3.35161 Mbytes
Step Temp PotEng Lx Ly Lz 
    1219            0   -241.99529    2.0000005     34.66017    1.0000002 
    1220            0   -241.99529    2.0000005     34.66017    1.0000002 
Loop time of 0.000331987 on 1 procs for 1 steps with 82 atoms

Minimization stats:
  Stopping criterion = linesearch alpha is zero
  Energy initial, next-to-last, final = 
        -241.995290707     -241.995290707     -241.995290707
  Force two-norm initial, final = 0.0520785 0.0520785
  Force max component initial, final = 0.0156877 0.0156877
  Final line search alpha, max atom move = 3.8147e-06 5.98439e-08
  Iterations, force evaluations = 1 19

Pair  time (%) = 0.000260839 (78.5691)
Neigh time (%) = 0 (0)
Comm  time (%) = 3.38759e-05 (10.204)
Outpt time (%) = 0 (0)
Other time (%) = 3.72718e-05 (11.2269)

Nlocal:    82 ave 82 max 82 min
Histogram: 1 0 0 0 0 0 0 0 0 0
Nghost:    185 ave 185 max 185 min
Histogram: 1 0 0 0 0 0 0 0 0 0
Neighs:    718 ave 718 max 718 min
Histogram: 1 0 0 0 0 0 0 0 0 0

Total # of neighbors = 718
Ave neighs/atom = 8.7561
Neighbor list builds = 0
Dangerous builds = 0
        # write_dump all atom ${dumpfile}
        next i
jump SELF loop1
        displace_atoms upper move ${xstep1} 0.0 0.0 units lattice
        displace_atoms upper move 0.00333333333333333 0.0 0.0 units lattice
        min_style ${style}
        min_style cg
        minimize ${etol} ${ftol} ${maxiter} ${maxeval}
        minimize 1e-12 ${ftol} ${maxiter} ${maxeval}
        minimize 1e-12 1e-08 ${maxiter} ${maxeval}
        minimize 1e-12 1e-08 10000 ${maxeval}
        minimize 1e-12 1e-08 10000 20000
WARNING: Resetting reneighboring criteria during minimization (../min.cpp:168)
Memory usage per processor = 3.35161 Mbytes
Step Temp PotEng Lx Ly Lz 
    1220            0   -241.99683    2.0000005     34.66017    1.0000002 
    1221            0   -241.99683    2.0000005     34.66017    1.0000002 
Loop time of 0.000395019 on 1 procs for 1 steps with 82 atoms

Minimization stats:
  Stopping criterion = linesearch alpha is zero
  Energy initial, next-to-last, final = 
        -241.996826511     -241.996826511     -241.996826511
  Force two-norm initial, final = 0.0563705 0.0563705
  Force max component initial, final = 0.0156877 0.0156877
  Final line search alpha, max atom move = 3.8147e-06 5.98439e-08
  Iterations, force evaluations = 1 19

Pair  time (%) = 0.00032594 (82.5125)
Neigh time (%) = 0 (0)
Comm  time (%) = 2.37501e-05 (6.0124)
Outpt time (%) = 0 (0)
Other time (%) = 4.5329e-05 (11.4751)

Nlocal:    82 ave 82 max 82 min
Histogram: 1 0 0 0 0 0 0 0 0 0
Nghost:    185 ave 185 max 185 min
Histogram: 1 0 0 0 0 0 0 0 0 0
Neighs:    718 ave 718 max 718 min
Histogram: 1 0 0 0 0 0 0 0 0 0

Total # of neighbors = 718
Ave neighs/atom = 8.7561
Neighbor list builds = 0
Dangerous builds = 0
        # write_dump all atom ${dumpfile}
        next i
jump SELF loop1
        displace_atoms upper move ${xstep1} 0.0 0.0 units lattice
        displace_atoms upper move 0.00333333333333333 0.0 0.0 units lattice
        min_style ${style}
        min_style cg
        minimize ${etol} ${ftol} ${maxiter} ${maxeval}
        minimize 1e-12 ${ftol} ${maxiter} ${maxeval}
        minimize 1e-12 1e-08 ${maxiter} ${maxeval}
        minimize 1e-12 1e-08 10000 ${maxeval}
        minimize 1e-12 1e-08 10000 20000
WARNING: Resetting reneighboring criteria during minimization (../min.cpp:168)
Memory usage per processor = 3.35161 Mbytes
Step Temp PotEng Lx Ly Lz 
    1221            0   -241.99801    2.0000005     34.66017    1.0000002 
    1222            0   -241.99801    2.0000005     34.66017    1.0000002 
Loop time of 0.000496058 on 1 procs for 1 steps with 82 atoms

Minimization stats:
  Stopping criterion = linesearch alpha is zero
  Energy initial, next-to-last, final = 
        -241.998012396     -241.998012396     -241.998012396
  Force two-norm initial, final = 0.0617819 0.0617819
  Force max component initial, final = 0.0172583 0.0172583
  Final line search alpha, max atom move = 1.90735e-06 3.29176e-08
  Iterations, force evaluations = 1 20

Pair  time (%) = 0.000418046 (84.2737)
Neigh time (%) = 0 (0)
Comm  time (%) = 3.58864e-05 (7.23432)
Outpt time (%) = 0 (0)
Other time (%) = 4.21253e-05 (8.49202)

Nlocal:    82 ave 82 max 82 min
Histogram: 1 0 0 0 0 0 0 0 0 0
Nghost:    185 ave 185 max 185 min
Histogram: 1 0 0 0 0 0 0 0 0 0
Neighs:    718 ave 718 max 718 min
Histogram: 1 0 0 0 0 0 0 0 0 0

Total # of neighbors = 718
Ave neighs/atom = 8.7561
Neighbor list builds = 0
Dangerous builds = 0
        # write_dump all atom ${dumpfile}
        next i
jump SELF loop1
        displace_atoms upper move ${xstep1} 0.0 0.0 units lattice
        displace_atoms upper move 0.00333333333333333 0.0 0.0 units lattice
        min_style ${style}
        min_style cg
        minimize ${etol} ${ftol} ${maxiter} ${maxeval}
        minimize 1e-12 ${ftol} ${maxiter} ${maxeval}
        minimize 1e-12 1e-08 ${maxiter} ${maxeval}
        minimize 1e-12 1e-08 10000 ${maxeval}
        minimize 1e-12 1e-08 10000 20000
WARNING: Resetting reneighboring criteria during minimization (../min.cpp:168)
Memory usage per processor = 3.35161 Mbytes
Step Temp PotEng Lx Ly Lz 
    1222            0   -241.99887    2.0000005     34.66017    1.0000002 
    1223            0   -241.99887    2.0000005     34.66017    1.0000002 
Loop time of 0.000388116 on 1 procs for 1 steps with 82 atoms

Minimization stats:
  Stopping criterion = linesearch alpha is zero
  Energy initial, next-to-last, final = 
        -241.998869222     -241.998869222     -241.998869222
  Force two-norm initial, final = 0.0665878 0.0665878
  Force max component initial, final = 0.021269 0.021269
  Final line search alpha, max atom move = 1.90735e-06 4.05675e-08
  Iterations, force evaluations = 1 20

Pair  time (%) = 0.00032307 (83.2406)
Neigh time (%) = 0 (0)
Comm  time (%) = 2.26332e-05 (5.83157)
Outpt time (%) = 0 (0)
Other time (%) = 4.24125e-05 (10.9278)

Nlocal:    82 ave 82 max 82 min
Histogram: 1 0 0 0 0 0 0 0 0 0
Nghost:    185 ave 185 max 185 min
Histogram: 1 0 0 0 0 0 0 0 0 0
Neighs:    718 ave 718 max 718 min
Histogram: 1 0 0 0 0 0 0 0 0 0

Total # of neighbors = 718
Ave neighs/atom = 8.7561
Neighbor list builds = 0
Dangerous builds = 0
        # write_dump all atom ${dumpfile}
        next i
jump SELF loop1
        displace_atoms upper move ${xstep1} 0.0 0.0 units lattice
        displace_atoms upper move 0.00333333333333333 0.0 0.0 units lattice
        min_style ${style}
        min_style cg
        minimize ${etol} ${ftol} ${maxiter} ${maxeval}
        minimize 1e-12 ${ftol} ${maxiter} ${maxeval}
        minimize 1e-12 1e-08 ${maxiter} ${maxeval}
        minimize 1e-12 1e-08 10000 ${maxeval}
        minimize 1e-12 1e-08 10000 20000
WARNING: Resetting reneighboring criteria during minimization (../min.cpp:168)
Memory usage per processor = 3.35161 Mbytes
Step Temp PotEng Lx Ly Lz 
    1223            0   -241.99937    2.0000005     34.66017    1.0000002 
    1224            0   -241.99937    2.0000005     34.66017    1.0000002 
Loop time of 0.000387957 on 1 procs for 1 steps with 82 atoms

Minimization stats:
  Stopping criterion = linesearch alpha is zero
  Energy initial, next-to-last, final = 
        -241.999374444     -241.999374444     -241.999374444
  Force two-norm initial, final = 0.0696782 0.0696782
  Force max component initial, final = 0.0236183 0.0236183
  Final line search alpha, max atom move = 1.90735e-06 4.50483e-08
  Iterations, force evaluations = 1 20

Pair  time (%) = 0.000323015 (83.2606)
Neigh time (%) = 0 (0)
Comm  time (%) = 2.59542e-05 (6.68997)
Outpt time (%) = 0 (0)
Other time (%) = 3.89875e-05 (10.0494)

Nlocal:    82 ave 82 max 82 min
Histogram: 1 0 0 0 0 0 0 0 0 0
Nghost:    185 ave 185 max 185 min
Histogram: 1 0 0 0 0 0 0 0 0 0
Neighs:    718 ave 718 max 718 min
Histogram: 1 0 0 0 0 0 0 0 0 0

Total # of neighbors = 718
Ave neighs/atom = 8.7561
Neighbor list builds = 0
Dangerous builds = 0
        # write_dump all atom ${dumpfile}
        next i
jump SELF loop1
        displace_atoms upper move ${xstep1} 0.0 0.0 units lattice
        displace_atoms upper move 0.00333333333333333 0.0 0.0 units lattice
        min_style ${style}
        min_style cg
        minimize ${etol} ${ftol} ${maxiter} ${maxeval}
        minimize 1e-12 ${ftol} ${maxiter} ${maxeval}
        minimize 1e-12 1e-08 ${maxiter} ${maxeval}
        minimize 1e-12 1e-08 10000 ${maxeval}
        minimize 1e-12 1e-08 10000 20000
WARNING: Resetting reneighboring criteria during minimization (../min.cpp:168)
Memory usage per processor = 3.35161 Mbytes
Step Temp PotEng Lx Ly Lz 
    1224            0   -241.99955    2.0000005     34.66017    1.0000002 
    1225            0   -241.99955    2.0000005     34.66017    1.0000002 
Loop time of 0.000388892 on 1 procs for 1 steps with 82 atoms

Minimization stats:
  Stopping criterion = linesearch alpha is zero
  Energy initial, next-to-last, final = 
        -241.999549477     -241.999549477     -241.999549477
  Force two-norm initial, final = 0.0708062 0.0708062
  Force max component initial, final = 0.0244438 0.0244438
  Final line search alpha, max atom move = 1.90735e-06 4.66229e-08
  Iterations, force evaluations = 1 20

Pair  time (%) = 0.000325177 (83.6162)
Neigh time (%) = 0 (0)
Comm  time (%) = 2.44158e-05 (6.27829)
Outpt time (%) = 0 (0)
Other time (%) = 3.92996e-05 (10.1055)

Nlocal:    82 ave 82 max 82 min
Histogram: 1 0 0 0 0 0 0 0 0 0
Nghost:    185 ave 185 max 185 min
Histogram: 1 0 0 0 0 0 0 0 0 0
Neighs:    718 ave 718 max 718 min
Histogram: 1 0 0 0 0 0 0 0 0 0

Total # of neighbors = 718
Ave neighs/atom = 8.7561
Neighbor list builds = 0
Dangerous builds = 0
        # write_dump all atom ${dumpfile}
        next i
jump SELF loop1


