LAMMPS (28 Jun 2014)
# attempt at getting generalized stacking fault (GSF) energy curve

#file prefix
variable prefix string gsf_V_brittlenewnorm
variable dumpfile string ${prefix}.*.dump
variable dumpfile string gsf_V_brittlenewnorm.*.dump
variable restartfile string ${prefix}.*.equil
variable restartfile string gsf_V_brittlenewnorm.*.equil

#Mass (g/mol)
variable m equal 1

# lattice constant (in Angstroms) and orientation of axes (given by lattice vectors)
variable rho equal 1.1547
variable x1 equal 1
variable x2 equal 0
variable x3 equal 0
variable y1 equal 0
variable y2 equal 1
variable y3 equal 0
# length of lattice in different directions (using orientation of lattice vectors)
variable ax equal sqrt(${x1}*${x1}+${x2}*${x2}+${x3}*${x3})
variable ax equal sqrt(1*${x1}+${x2}*${x2}+${x3}*${x3})
variable ax equal sqrt(1*1+${x2}*${x2}+${x3}*${x3})
variable ax equal sqrt(1*1+0*${x2}+${x3}*${x3})
variable ax equal sqrt(1*1+0*0+${x3}*${x3})
variable ax equal sqrt(1*1+0*0+0*${x3})
variable ax equal sqrt(1*1+0*0+0*0)
variable ay equal sqrt(${y1}*${y1}+${y2}*${y2}+${y3}*${y3})
variable ay equal sqrt(0*${y1}+${y2}*${y2}+${y3}*${y3})
variable ay equal sqrt(0*0+${y2}*${y2}+${y3}*${y3})
variable ay equal sqrt(0*0+1*${y2}+${y3}*${y3})
variable ay equal sqrt(0*0+1*1+${y3}*${y3})
variable ay equal sqrt(0*0+1*1+0*${y3})
variable ay equal sqrt(0*0+1*1+0*0)
variable az equal 1

# size of box in lattice units
variable lxpos equal 1
variable lxneg equal -1*${lxpos}
variable lxneg equal -1*1
variable lypos equal 10
variable lyneg equal -1*${lypos}
variable lyneg equal -1*10
variable lzpos equal 0
variable lzneg equal -1

# Define minimization parameters and damping
variable etol equal 1.0e-12
variable ftol equal 1.0e-8
variable maxiter equal 10000
variable maxeval equal 20000
variable style string cg

# boundary conditions
dimension	2
boundary	p s p
atom_style	atomic

# create geometry
units		lj
lattice         hex ${rho}
lattice         hex 1.1547
Lattice spacing in x,y,z = 1 1.73205 1
region		myregion block ${lxneg} ${lxpos} ${lyneg} ${lypos} ${lzneg} ${lzpos} units lattice
region		myregion block -1 ${lxpos} ${lyneg} ${lypos} ${lzneg} ${lzpos} units lattice
region		myregion block -1 1 ${lyneg} ${lypos} ${lzneg} ${lzpos} units lattice
region		myregion block -1 1 -10 ${lypos} ${lzneg} ${lzpos} units lattice
region		myregion block -1 1 -10 10 ${lzneg} ${lzpos} units lattice
region		myregion block -1 1 -10 10 -1 ${lzpos} units lattice
region		myregion block -1 1 -10 10 -1 0 units lattice
create_box	3 myregion
Created orthogonal box = (-1 -17.3205 -1) to (1 17.3205 0)
  1 by 1 by 1 MPI processor grid
create_atoms	1 box
Created 82 atoms

# define masses
mass * $m
mass * 1

# my fake/morse potential
pair_style      table linear 3001
pair_coeff      * * vpotential_brittlenewnorm dummy
neighbor	0.3 bin
neigh_modify	delay 5

# define groups
region	    upper block INF INF 0.01 ${lypos} INF INF units lattice
region	    upper block INF INF 0.01 10 INF INF units lattice
group		upper region upper
40 atoms in group upper

# Setup output
thermo 1
thermo_style custom step temp pe lx ly lz
thermo_modify norm no

# Compute initial state by relaxing box
min_style ${style}
min_style cg
minimize ${etol} ${ftol} ${maxiter} ${maxeval}
minimize 1e-12 ${ftol} ${maxiter} ${maxeval}
minimize 1e-12 1e-08 ${maxiter} ${maxeval}
minimize 1e-12 1e-08 10000 ${maxeval}
minimize 1e-12 1e-08 10000 20000
WARNING: Resetting reneighboring criteria during minimization (../min.cpp:168)
Memory usage per processor = 3.35161 Mbytes
Step Temp PotEng Lx Ly Lz 
       0            0   -241.99991    2.0000005    34.647952    1.0000002 
       1            0   -241.99991    2.0000005    34.647952    1.0000002 
Loop time of 6.80942e-05 on 1 procs for 1 steps with 82 atoms

Minimization stats:
  Stopping criterion = linesearch alpha is zero
  Energy initial, next-to-last, final = 
        -241.999911808     -241.999911808     -241.999911808
  Force two-norm initial, final = 6.11446e-06 6.11446e-06
  Force max component initial, final = 3.05723e-06 3.05723e-06
  Final line search alpha, max atom move = 0.5 1.52862e-06
  Iterations, force evaluations = 1 2

Pair  time (%) = 4.78958e-05 (70.3376)
Neigh time (%) = 0 (0)
Comm  time (%) = 2.96906e-06 (4.36022)
Outpt time (%) = 0 (0)
Other time (%) = 1.72294e-05 (25.3022)

Nlocal:    82 ave 82 max 82 min
Histogram: 1 0 0 0 0 0 0 0 0 0
Nghost:    185 ave 185 max 185 min
Histogram: 1 0 0 0 0 0 0 0 0 0
Neighs:    718 ave 718 max 718 min
Histogram: 1 0 0 0 0 0 0 0 0 0

Total # of neighbors = 718
Ave neighs/atom = 8.7561
Neighbor list builds = 0
Dangerous builds = 0

# don't allow atoms to relax in x-direction
fix 2 all setforce 0.0 NULL 0.0

# GSF energy curve will have 100*2 steps
variable nsteps equal 300
variable sstep1 equal 1.
variable xstep1 equal ${sstep1}/(${ax}*${nsteps})
variable xstep1 equal 1/(${ax}*${nsteps})
variable xstep1 equal 1/(1*${nsteps})
variable xstep1 equal 1/(1*300)

variable i loop ${nsteps}
variable i loop 300
label loop1
        displace_atoms upper move ${xstep1} 0.0 0.0 units lattice
        displace_atoms upper move 0.00333333333333333 0.0 0.0 units lattice
        min_style ${style}
        min_style cg
        minimize ${etol} ${ftol} ${maxiter} ${maxeval}
        minimize 1e-12 ${ftol} ${maxiter} ${maxeval}
        minimize 1e-12 1e-08 ${maxiter} ${maxeval}
        minimize 1e-12 1e-08 10000 ${maxeval}
        minimize 1e-12 1e-08 10000 20000
WARNING: Resetting reneighboring criteria during minimization (../min.cpp:168)
Memory usage per processor = 3.35161 Mbytes
Step Temp PotEng Lx Ly Lz 
       1            0   -241.99973    2.0000005    34.647952    1.0000002 
       2            0   -241.99973    2.0000005    34.647952    1.0000002 
Loop time of 0.000191892 on 1 procs for 1 steps with 82 atoms

Minimization stats:
  Stopping criterion = linesearch alpha is zero
  Energy initial, next-to-last, final = 
        -241.999734982     -241.999734982     -241.999734982
  Force two-norm initial, final = 0.00166994 0.00166994
  Force max component initial, final = 0.000834963 0.000834963
  Final line search alpha, max atom move = 0.00390625 3.26157e-06
  Iterations, force evaluations = 1 9

Pair  time (%) = 0.000155116 (80.835)
Neigh time (%) = 0 (0)
Comm  time (%) = 1.40349e-05 (7.31396)
Outpt time (%) = 0 (0)
Other time (%) = 2.27413e-05 (11.8511)

Nlocal:    82 ave 82 max 82 min
Histogram: 1 0 0 0 0 0 0 0 0 0
Nghost:    185 ave 185 max 185 min
Histogram: 1 0 0 0 0 0 0 0 0 0
Neighs:    718 ave 718 max 718 min
Histogram: 1 0 0 0 0 0 0 0 0 0

Total # of neighbors = 718
Ave neighs/atom = 8.7561
Neighbor list builds = 0
Dangerous builds = 0
        # write_dump all atom ${dumpfile}
        next i
jump SELF loop1
        displace_atoms upper move ${xstep1} 0.0 0.0 units lattice
        displace_atoms upper move 0.00333333333333333 0.0 0.0 units lattice
        min_style ${style}
        min_style cg
        minimize ${etol} ${ftol} ${maxiter} ${maxeval}
        minimize 1e-12 ${ftol} ${maxiter} ${maxeval}
        minimize 1e-12 1e-08 ${maxiter} ${maxeval}
        minimize 1e-12 1e-08 10000 ${maxeval}
        minimize 1e-12 1e-08 10000 20000
WARNING: Resetting reneighboring criteria during minimization (../min.cpp:168)
Memory usage per processor = 3.35161 Mbytes
Step Temp PotEng Lx Ly Lz 
       2            0   -241.99923    2.0000005    34.647952    1.0000002 
       3            0   -241.99923    2.0000005    34.647952    1.0000002 
       4            0   -241.99923    2.0000005    34.647952    1.0000002 
       5            0   -241.99923    2.0000005    34.647952    1.0000002 
Loop time of 0.000654059 on 1 procs for 3 steps with 82 atoms

Minimization stats:
  Stopping criterion = linesearch alpha is zero
  Energy initial, next-to-last, final = 
         -241.99922677     -241.999226919     -241.999226919
  Force two-norm initial, final = 0.00639572 0.00411107
  Force max component initial, final = 0.00319786 0.00202197
  Final line search alpha, max atom move = 0.000488281 9.87289e-07
  Iterations, force evaluations = 3 33

Pair  time (%) = 0.000534505 (81.7212)
Neigh time (%) = 0 (0)
Comm  time (%) = 3.71318e-05 (5.67714)
Outpt time (%) = 1.50856e-05 (2.30645)
Other time (%) = 6.7337e-05 (10.2952)

Nlocal:    82 ave 82 max 82 min
Histogram: 1 0 0 0 0 0 0 0 0 0
Nghost:    185 ave 185 max 185 min
Histogram: 1 0 0 0 0 0 0 0 0 0
Neighs:    718 ave 718 max 718 min
Histogram: 1 0 0 0 0 0 0 0 0 0

Total # of neighbors = 718
Ave neighs/atom = 8.7561
Neighbor list builds = 0
Dangerous builds = 0
        # write_dump all atom ${dumpfile}
        next i
jump SELF loop1
        displace_atoms upper move ${xstep1} 0.0 0.0 units lattice
        displace_atoms upper move 0.00333333333333333 0.0 0.0 units lattice
        min_style ${style}
        min_style cg
        minimize ${etol} ${ftol} ${maxiter} ${maxeval}
        minimize 1e-12 ${ftol} ${maxiter} ${maxeval}
        minimize 1e-12 1e-08 ${maxiter} ${maxeval}
        minimize 1e-12 1e-08 10000 ${maxeval}
        minimize 1e-12 1e-08 10000 20000
WARNING: Resetting reneighboring criteria during minimization (../min.cpp:168)
Memory usage per processor = 3.35161 Mbytes
Step Temp PotEng Lx Ly Lz 
       5            0   -241.99836    2.0000005    34.647952    1.0000002 
       6            0   -241.99836    2.0000005    34.647952    1.0000002 
Loop time of 0.000563087 on 1 procs for 1 steps with 82 atoms

Minimization stats:
  Stopping criterion = linesearch alpha is zero
  Energy initial, next-to-last, final = 
        -241.998363102     -241.998363102     -241.998363102
  Force two-norm initial, final = 0.0121585 0.0121585
  Force max component initial, final = 0.00606797 0.00606797
  Final line search alpha, max atom move = 6.10352e-05 3.7036e-07
  Iterations, force evaluations = 1 15

Pair  time (%) = 0.000506073 (89.8747)
Neigh time (%) = 0 (0)
Comm  time (%) = 1.99113e-05 (3.5361)
Outpt time (%) = 0 (0)
Other time (%) = 3.71027e-05 (6.58916)

Nlocal:    82 ave 82 max 82 min
Histogram: 1 0 0 0 0 0 0 0 0 0
Nghost:    185 ave 185 max 185 min
Histogram: 1 0 0 0 0 0 0 0 0 0
Neighs:    718 ave 718 max 718 min
Histogram: 1 0 0 0 0 0 0 0 0 0

Total # of neighbors = 718
Ave neighs/atom = 8.7561
Neighbor list builds = 0
Dangerous builds = 0
        # write_dump all atom ${dumpfile}
        next i
jump SELF loop1
        displace_atoms upper move ${xstep1} 0.0 0.0 units lattice
        displace_atoms upper move 0.00333333333333333 0.0 0.0 units lattice
        min_style ${style}
        min_style cg
        minimize ${etol} ${ftol} ${maxiter} ${maxeval}
        minimize 1e-12 ${ftol} ${maxiter} ${maxeval}
        minimize 1e-12 1e-08 ${maxiter} ${maxeval}
        minimize 1e-12 1e-08 10000 ${maxeval}
        minimize 1e-12 1e-08 10000 20000
WARNING: Resetting reneighboring criteria during minimization (../min.cpp:168)
Memory usage per processor = 3.35161 Mbytes
Step Temp PotEng Lx Ly Lz 
       6            0   -241.99717    2.0000005    34.647952    1.0000002 
       7            0   -241.99717    2.0000005    34.647952    1.0000002 
Loop time of 0.00034393 on 1 procs for 1 steps with 82 atoms

Minimization stats:
  Stopping criterion = linesearch alpha is zero
  Energy initial, next-to-last, final = 
        -241.997168015     -241.997168015     -241.997168015
  Force two-norm initial, final = 0.0232953 0.0232953
  Force max component initial, final = 0.0116418 0.0116418
  Final line search alpha, max atom move = 1.52588e-05 1.7764e-07
  Iterations, force evaluations = 1 17

Pair  time (%) = 0.000283816 (82.5213)
Neigh time (%) = 0 (0)
Comm  time (%) = 2.23183e-05 (6.4892)
Outpt time (%) = 0 (0)
Other time (%) = 3.77963e-05 (10.9895)

Nlocal:    82 ave 82 max 82 min
Histogram: 1 0 0 0 0 0 0 0 0 0
Nghost:    185 ave 185 max 185 min
Histogram: 1 0 0 0 0 0 0 0 0 0
Neighs:    718 ave 718 max 718 min
Histogram: 1 0 0 0 0 0 0 0 0 0

Total # of neighbors = 718
Ave neighs/atom = 8.7561
Neighbor list builds = 0
Dangerous builds = 0
        # write_dump all atom ${dumpfile}
        next i
jump SELF loop1
        displace_atoms upper move ${xstep1} 0.0 0.0 units lattice
        displace_atoms upper move 0.00333333333333333 0.0 0.0 units lattice
        min_style ${style}
        min_style cg
        minimize ${etol} ${ftol} ${maxiter} ${maxeval}
        minimize 1e-12 ${ftol} ${maxiter} ${maxeval}
        minimize 1e-12 1e-08 ${maxiter} ${maxeval}
        minimize 1e-12 1e-08 10000 ${maxeval}
        minimize 1e-12 1e-08 10000 20000
WARNING: Resetting reneighboring criteria during minimization (../min.cpp:168)
Memory usage per processor = 3.35161 Mbytes
Step Temp PotEng Lx Ly Lz 
       7            0   -241.99562    2.0000005    34.647952    1.0000002 
       8            0   -241.99563    2.0000005    34.647952    1.0000002 
       9            0   -241.99563    2.0000005    34.647952    1.0000002 
      10            0   -241.99563    2.0000005    34.647952    1.0000002 
      11            0   -241.99563    2.0000005    34.647952    1.0000002 
Loop time of 0.000851053 on 1 procs for 4 steps with 82 atoms

Minimization stats:
  Stopping criterion = linesearch alpha is zero
  Energy initial, next-to-last, final = 
        -241.995622928     -241.995627731     -241.995627731
  Force two-norm initial, final = 0.0377342 0.00919951
  Force max component initial, final = 0.0188635 0.00345684
  Final line search alpha, max atom move = 0.00012207 4.21977e-07
  Iterations, force evaluations = 4 41

Pair  time (%) = 0.000681837 (80.1169)
Neigh time (%) = 0 (0)
Comm  time (%) = 6.25664e-05 (7.35164)
Outpt time (%) = 2.11362e-05 (2.48354)
Other time (%) = 8.55136e-05 (10.048)

Nlocal:    82 ave 82 max 82 min
Histogram: 1 0 0 0 0 0 0 0 0 0
Nghost:    185 ave 185 max 185 min
Histogram: 1 0 0 0 0 0 0 0 0 0
Neighs:    718 ave 718 max 718 min
Histogram: 1 0 0 0 0 0 0 0 0 0

Total # of neighbors = 718
Ave neighs/atom = 8.7561
Neighbor list builds = 0
Dangerous builds = 0
        # write_dump all atom ${dumpfile}
        next i
jump SELF loop1
        displace_atoms upper move ${xstep1} 0.0 0.0 units lattice
        displace_atoms upper move 0.00333333333333333 0.0 0.0 units lattice
        min_style ${style}
        min_style cg
        minimize ${etol} ${ftol} ${maxiter} ${maxeval}
        minimize 1e-12 ${ftol} ${maxiter} ${maxeval}
        minimize 1e-12 1e-08 ${maxiter} ${maxeval}
        minimize 1e-12 1e-08 10000 ${maxeval}
        minimize 1e-12 1e-08 10000 20000
WARNING: Resetting reneighboring criteria during minimization (../min.cpp:168)
Memory usage per processor = 3.35161 Mbytes
Step Temp PotEng Lx Ly Lz 
      11            0   -241.99374    2.0000005    34.647952    1.0000002 
      12            0   -241.99374    2.0000005    34.647952    1.0000002 
Loop time of 0.000346053 on 1 procs for 1 steps with 82 atoms

Minimization stats:
  Stopping criterion = linesearch alpha is zero
  Energy initial, next-to-last, final = 
         -241.99374242      -241.99374242      -241.99374242
  Force two-norm initial, final = 0.0243447 0.0243447
  Force max component initial, final = 0.0116117 0.0116117
  Final line search alpha, max atom move = 1.52588e-05 1.7718e-07
  Iterations, force evaluations = 1 17

Pair  time (%) = 0.000284169 (82.1171)
Neigh time (%) = 0 (0)
Comm  time (%) = 1.98322e-05 (5.73096)
Outpt time (%) = 0 (0)
Other time (%) = 4.2052e-05 (12.1519)

Nlocal:    82 ave 82 max 82 min
Histogram: 1 0 0 0 0 0 0 0 0 0
Nghost:    185 ave 185 max 185 min
Histogram: 1 0 0 0 0 0 0 0 0 0
Neighs:    718 ave 718 max 718 min
Histogram: 1 0 0 0 0 0 0 0 0 0

Total # of neighbors = 718
Ave neighs/atom = 8.7561
Neighbor list builds = 0
Dangerous builds = 0
        # write_dump all atom ${dumpfile}
        next i
jump SELF loop1
        displace_atoms upper move ${xstep1} 0.0 0.0 units lattice
        displace_atoms upper move 0.00333333333333333 0.0 0.0 units lattice
        min_style ${style}
        min_style cg
        minimize ${etol} ${ftol} ${maxiter} ${maxeval}
        minimize 1e-12 ${ftol} ${maxiter} ${maxeval}
        minimize 1e-12 1e-08 ${maxiter} ${maxeval}
        minimize 1e-12 1e-08 10000 ${maxeval}
        minimize 1e-12 1e-08 10000 20000
WARNING: Resetting reneighboring criteria during minimization (../min.cpp:168)
Memory usage per processor = 3.35161 Mbytes
Step Temp PotEng Lx Ly Lz 
      12            0   -241.99153    2.0000005    34.647952    1.0000002 
      13            0   -241.99153    2.0000005    34.647952    1.0000002 
Loop time of 0.000401086 on 1 procs for 1 steps with 82 atoms

Minimization stats:
  Stopping criterion = linesearch alpha is zero
  Energy initial, next-to-last, final = 
        -241.991525808     -241.991525808     -241.991525808
  Force two-norm initial, final = 0.0445182 0.0445182
  Force max component initial, final = 0.0219575 0.0219575
  Final line search alpha, max atom move = 3.8147e-06 8.37612e-08
  Iterations, force evaluations = 1 19

Pair  time (%) = 0.000333137 (83.0587)
Neigh time (%) = 0 (0)
Comm  time (%) = 2.5708e-05 (6.40959)
Outpt time (%) = 0 (0)
Other time (%) = 4.22411e-05 (10.5317)

Nlocal:    82 ave 82 max 82 min
Histogram: 1 0 0 0 0 0 0 0 0 0
Nghost:    185 ave 185 max 185 min
Histogram: 1 0 0 0 0 0 0 0 0 0
Neighs:    718 ave 718 max 718 min
Histogram: 1 0 0 0 0 0 0 0 0 0

Total # of neighbors = 718
Ave neighs/atom = 8.7561
Neighbor list builds = 0
Dangerous builds = 0
        # write_dump all atom ${dumpfile}
        next i
jump SELF loop1
        displace_atoms upper move ${xstep1} 0.0 0.0 units lattice
        displace_atoms upper move 0.00333333333333333 0.0 0.0 units lattice
        min_style ${style}
        min_style cg
        minimize ${etol} ${ftol} ${maxiter} ${maxeval}
        minimize 1e-12 ${ftol} ${maxiter} ${maxeval}
        minimize 1e-12 1e-08 ${maxiter} ${maxeval}
        minimize 1e-12 1e-08 10000 ${maxeval}
        minimize 1e-12 1e-08 10000 20000
WARNING: Resetting reneighboring criteria during minimization (../min.cpp:168)
Memory usage per processor = 3.35161 Mbytes
Step Temp PotEng Lx Ly Lz 
      13            0   -241.98897    2.0000005    34.647952    1.0000002 
      14            0   -241.98898    2.0000005    34.647952    1.0000002 
      15            0   -241.98898    2.0000005    34.647952    1.0000002 
Loop time of 0.000630963 on 1 procs for 2 steps with 82 atoms

Minimization stats:
  Stopping criterion = linesearch alpha is zero
  Energy initial, next-to-last, final = 
        -241.988967903     -241.988976818     -241.988976818
  Force two-norm initial, final = 0.0681913 0.0364551
  Force max component initial, final = 0.0338995 0.0160244
  Final line search alpha, max atom move = 7.62939e-06 1.22257e-07
  Iterations, force evaluations = 2 27

Pair  time (%) = 0.000515241 (81.6594)
Neigh time (%) = 0 (0)
Comm  time (%) = 3.27694e-05 (5.19355)
Outpt time (%) = 2.29575e-05 (3.63848)
Other time (%) = 5.99959e-05 (9.50862)

Nlocal:    82 ave 82 max 82 min
Histogram: 1 0 0 0 0 0 0 0 0 0
Nghost:    185 ave 185 max 185 min
Histogram: 1 0 0 0 0 0 0 0 0 0
Neighs:    718 ave 718 max 718 min
Histogram: 1 0 0 0 0 0 0 0 0 0

Total # of neighbors = 718
Ave neighs/atom = 8.7561
Neighbor list builds = 0
Dangerous builds = 0
        # write_dump all atom ${dumpfile}
        next i
jump SELF loop1
        displace_atoms upper move ${xstep1} 0.0 0.0 units lattice
        displace_atoms upper move 0.00333333333333333 0.0 0.0 units lattice
        min_style ${style}
        min_style cg
        minimize ${etol} ${ftol} ${maxiter} ${maxeval}
        minimize 1e-12 ${ftol} ${maxiter} ${maxeval}
        minimize 1e-12 1e-08 ${maxiter} ${maxeval}
        minimize 1e-12 1e-08 10000 ${maxeval}
        minimize 1e-12 1e-08 10000 20000
WARNING: Resetting reneighboring criteria during minimization (../min.cpp:168)
Memory usage per processor = 3.35161 Mbytes
Step Temp PotEng Lx Ly Lz 
      15            0   -241.98609    2.0000005    34.647952    1.0000002 
      16            0    -241.9861    2.0000005    34.647952    1.0000002 
      17            0    -241.9861    2.0000005    34.647952    1.0000002 
Loop time of 0.000441937 on 1 procs for 2 steps with 82 atoms

Minimization stats:
  Stopping criterion = linesearch alpha is zero
  Energy initial, next-to-last, final = 
        -241.986086589     -241.986096672     -241.986096672
  Force two-norm initial, final = 0.061538 0.0375469
  Force max component initial, final = 0.0295173 0.0149492
  Final line search alpha, max atom move = 7.62939e-06 1.14053e-07
  Iterations, force evaluations = 2 27

Pair  time (%) = 0.000358081 (81.0255)
Neigh time (%) = 0 (0)
Comm  time (%) = 2.55624e-05 (5.78417)
Outpt time (%) = 8.11578e-06 (1.83641)
Other time (%) = 5.0177e-05 (11.3539)

Nlocal:    82 ave 82 max 82 min
Histogram: 1 0 0 0 0 0 0 0 0 0
Nghost:    185 ave 185 max 185 min
Histogram: 1 0 0 0 0 0 0 0 0 0
Neighs:    718 ave 718 max 718 min
Histogram: 1 0 0 0 0 0 0 0 0 0

Total # of neighbors = 718
Ave neighs/atom = 8.7561
Neighbor list builds = 0
Dangerous builds = 0
        # write_dump all atom ${dumpfile}
        next i
jump SELF loop1
        displace_atoms upper move ${xstep1} 0.0 0.0 units lattice
        displace_atoms upper move 0.00333333333333333 0.0 0.0 units lattice
        min_style ${style}
        min_style cg
        minimize ${etol} ${ftol} ${maxiter} ${maxeval}
        minimize 1e-12 ${ftol} ${maxiter} ${maxeval}
        minimize 1e-12 1e-08 ${maxiter} ${maxeval}
        minimize 1e-12 1e-08 10000 ${maxeval}
        minimize 1e-12 1e-08 10000 20000
WARNING: Resetting reneighboring criteria during minimization (../min.cpp:168)
Memory usage per processor = 3.35161 Mbytes
Step Temp PotEng Lx Ly Lz 
      17            0   -241.98287    2.0000005    34.647952    1.0000002 
      18            0   -241.98289    2.0000005    34.647952    1.0000002 
      19            0   -241.98289    2.0000005    34.647952    1.0000002 
Loop time of 0.000552102 on 1 procs for 2 steps with 82 atoms

Minimization stats:
  Stopping criterion = linesearch alpha is zero
  Energy initial, next-to-last, final = 
        -241.982874635     -241.982889262     -241.982889262
  Force two-norm initial, final = 0.0641398 0.031382
  Force max component initial, final = 0.0299919 0.0148229
  Final line search alpha, max atom move = 7.62939e-06 1.1309e-07
  Iterations, force evaluations = 2 26

Pair  time (%) = 0.000456177 (82.6255)
Neigh time (%) = 0 (0)
Comm  time (%) = 2.9148e-05 (5.27945)
Outpt time (%) = 9.91195e-06 (1.79531)
Other time (%) = 5.68649e-05 (10.2997)

Nlocal:    82 ave 82 max 82 min
Histogram: 1 0 0 0 0 0 0 0 0 0
Nghost:    185 ave 185 max 185 min
Histogram: 1 0 0 0 0 0 0 0 0 0
Neighs:    718 ave 718 max 718 min
Histogram: 1 0 0 0 0 0 0 0 0 0

Total # of neighbors = 718
Ave neighs/atom = 8.7561
Neighbor list builds = 0
Dangerous builds = 0
        # write_dump all atom ${dumpfile}
        next i
jump SELF loop1
        displace_atoms upper move ${xstep1} 0.0 0.0 units lattice
        displace_atoms upper move 0.00333333333333333 0.0 0.0 units lattice
        min_style ${style}
        min_style cg
        minimize ${etol} ${ftol} ${maxiter} ${maxeval}
        minimize 1e-12 ${ftol} ${maxiter} ${maxeval}
        minimize 1e-12 1e-08 ${maxiter} ${maxeval}
        minimize 1e-12 1e-08 10000 ${maxeval}
        minimize 1e-12 1e-08 10000 20000
WARNING: Resetting reneighboring criteria during minimization (../min.cpp:168)
Memory usage per processor = 3.35161 Mbytes
Step Temp PotEng Lx Ly Lz 
      19            0   -241.97935    2.0000005    34.647952    1.0000002 
      20            0   -241.97935    2.0000005    34.647952    1.0000002 
Loop time of 0.000456026 on 1 procs for 1 steps with 82 atoms

Minimization stats:
  Stopping criterion = linesearch alpha is zero
  Energy initial, next-to-last, final = 
         -241.97935483      -241.97935483      -241.97935483
  Force two-norm initial, final = 0.0473356 0.0473356
  Force max component initial, final = 0.0177651 0.0177651
  Final line search alpha, max atom move = 3.8147e-06 6.77684e-08
  Iterations, force evaluations = 1 19

Pair  time (%) = 0.000395096 (86.6391)
Neigh time (%) = 0 (0)
Comm  time (%) = 2.2915e-05 (5.02493)
Outpt time (%) = 0 (0)
Other time (%) = 3.80143e-05 (8.33599)

Nlocal:    82 ave 82 max 82 min
Histogram: 1 0 0 0 0 0 0 0 0 0
Nghost:    185 ave 185 max 185 min
Histogram: 1 0 0 0 0 0 0 0 0 0
Neighs:    718 ave 718 max 718 min
Histogram: 1 0 0 0 0 0 0 0 0 0

Total # of neighbors = 718
Ave neighs/atom = 8.7561
Neighbor list builds = 0
Dangerous builds = 0
        # write_dump all atom ${dumpfile}
        next i
jump SELF loop1
        displace_atoms upper move ${xstep1} 0.0 0.0 units lattice
        displace_atoms upper move 0.00333333333333333 0.0 0.0 units lattice
        min_style ${style}
        min_style cg
        minimize ${etol} ${ftol} ${maxiter} ${maxeval}
        minimize 1e-12 ${ftol} ${maxiter} ${maxeval}
        minimize 1e-12 1e-08 ${maxiter} ${maxeval}
        minimize 1e-12 1e-08 10000 ${maxeval}
        minimize 1e-12 1e-08 10000 20000
WARNING: Resetting reneighboring criteria during minimization (../min.cpp:168)
Memory usage per processor = 3.35161 Mbytes
Step Temp PotEng Lx Ly Lz 
      20            0   -241.97548    2.0000005    34.647952    1.0000002 
      21            0   -241.97551    2.0000005    34.647952    1.0000002 
      22            0   -241.97551    2.0000005    34.647952    1.0000002 
Loop time of 0.000551092 on 1 procs for 2 steps with 82 atoms

Minimization stats:
  Stopping criterion = linesearch alpha is zero
  Energy initial, next-to-last, final = 
        -241.975478829     -241.975508394     -241.975508394
  Force two-norm initial, final = 0.078238 0.0406994
  Force max component initial, final = 0.0358571 0.0188361
  Final line search alpha, max atom move = 3.8147e-06 7.18542e-08
  Iterations, force evaluations = 2 27

Pair  time (%) = 0.000458176 (83.1398)
Neigh time (%) = 0 (0)
Comm  time (%) = 3.4862e-05 (6.32598)
Outpt time (%) = 6.02019e-06 (1.09241)
Other time (%) = 5.20331e-05 (9.44182)

Nlocal:    82 ave 82 max 82 min
Histogram: 1 0 0 0 0 0 0 0 0 0
Nghost:    185 ave 185 max 185 min
Histogram: 1 0 0 0 0 0 0 0 0 0
Neighs:    718 ave 718 max 718 min
Histogram: 1 0 0 0 0 0 0 0 0 0

Total # of neighbors = 718
Ave neighs/atom = 8.7561
Neighbor list builds = 0
Dangerous builds = 0
        # write_dump all atom ${dumpfile}
        next i
jump SELF loop1
        displace_atoms upper move ${xstep1} 0.0 0.0 units lattice
        displace_atoms upper move 0.00333333333333333 0.0 0.0 units lattice
        min_style ${style}
        min_style cg
        minimize ${etol} ${ftol} ${maxiter} ${maxeval}
        minimize 1e-12 ${ftol} ${maxiter} ${maxeval}
        minimize 1e-12 1e-08 ${maxiter} ${maxeval}
        minimize 1e-12 1e-08 10000 ${maxeval}
        minimize 1e-12 1e-08 10000 20000
WARNING: Resetting reneighboring criteria during minimization (../min.cpp:168)
Memory usage per processor = 3.35161 Mbytes
Step Temp PotEng Lx Ly Lz 
      22            0   -241.97133    2.0000005    34.647952    1.0000002 
      23            0   -241.97136    2.0000005    34.647952    1.0000002 
      24            0   -241.97136    2.0000005    34.647952    1.0000002 
Loop time of 0.00053508 on 1 procs for 2 steps with 82 atoms

Minimization stats:
  Stopping criterion = linesearch alpha is zero
  Energy initial, next-to-last, final = 
        -241.971329514     -241.971357053     -241.971357053
  Force two-norm initial, final = 0.0591201 0.0427812
  Force max component initial, final = 0.021538 0.012275
  Final line search alpha, max atom move = 3.8147e-06 4.68254e-08
  Iterations, force evaluations = 2 26

Pair  time (%) = 0.000450083 (84.1152)
Neigh time (%) = 0 (0)
Comm  time (%) = 2.72058e-05 (5.08444)
Outpt time (%) = 5.88945e-06 (1.10067)
Other time (%) = 5.19009e-05 (9.69965)

Nlocal:    82 ave 82 max 82 min
Histogram: 1 0 0 0 0 0 0 0 0 0
Nghost:    185 ave 185 max 185 min
Histogram: 1 0 0 0 0 0 0 0 0 0
Neighs:    718 ave 718 max 718 min
Histogram: 1 0 0 0 0 0 0 0 0 0

Total # of neighbors = 718
Ave neighs/atom = 8.7561
Neighbor list builds = 0
Dangerous builds = 0
        # write_dump all atom ${dumpfile}
        next i
jump SELF loop1
        displace_atoms upper move ${xstep1} 0.0 0.0 units lattice
        displace_atoms upper move 0.00333333333333333 0.0 0.0 units lattice
        min_style ${style}
        min_style cg
        minimize ${etol} ${ftol} ${maxiter} ${maxeval}
        minimize 1e-12 ${ftol} ${maxiter} ${maxeval}
        minimize 1e-12 1e-08 ${maxiter} ${maxeval}
        minimize 1e-12 1e-08 10000 ${maxeval}
        minimize 1e-12 1e-08 10000 20000
WARNING: Resetting reneighboring criteria during minimization (../min.cpp:168)
Memory usage per processor = 3.35161 Mbytes
Step Temp PotEng Lx Ly Lz 
      24            0   -241.96687    2.0000005    34.647952    1.0000002 
      25            0   -241.96688    2.0000005    34.647952    1.0000002 
      26            0   -241.96688    2.0000005    34.647952    1.0000002 
Loop time of 0.000553007 on 1 procs for 2 steps with 82 atoms

Minimization stats:
  Stopping criterion = linesearch alpha is zero
  Energy initial, next-to-last, final = 
        -241.966872161     -241.966882973     -241.966882973
  Force two-norm initial, final = 0.0399803 0.0291596
  Force max component initial, final = 0.012275 0.00975891
  Final line search alpha, max atom move = 7.62939e-06 7.44546e-08
  Iterations, force evaluations = 2 25

Pair  time (%) = 0.000432093 (78.1351)
Neigh time (%) = 0 (0)
Comm  time (%) = 6.37281e-05 (11.5239)
Outpt time (%) = 6.10214e-06 (1.10345)
Other time (%) = 5.10846e-05 (9.23759)

Nlocal:    82 ave 82 max 82 min
Histogram: 1 0 0 0 0 0 0 0 0 0
Nghost:    185 ave 185 max 185 min
Histogram: 1 0 0 0 0 0 0 0 0 0
Neighs:    718 ave 718 max 718 min
Histogram: 1 0 0 0 0 0 0 0 0 0

Total # of neighbors = 718
Ave neighs/atom = 8.7561
Neighbor list builds = 0
Dangerous builds = 0
        # write_dump all atom ${dumpfile}
        next i
jump SELF loop1
        displace_atoms upper move ${xstep1} 0.0 0.0 units lattice
        displace_atoms upper move 0.00333333333333333 0.0 0.0 units lattice
        min_style ${style}
        min_style cg
        minimize ${etol} ${ftol} ${maxiter} ${maxeval}
        minimize 1e-12 ${ftol} ${maxiter} ${maxeval}
        minimize 1e-12 1e-08 ${maxiter} ${maxeval}
        minimize 1e-12 1e-08 10000 ${maxeval}
        minimize 1e-12 1e-08 10000 20000
WARNING: Resetting reneighboring criteria during minimization (../min.cpp:168)
Memory usage per processor = 3.35161 Mbytes
Step Temp PotEng Lx Ly Lz 
      26            0   -241.96209    2.0000005    34.647952    1.0000002 
      27            0    -241.9621    2.0000005    34.647952    1.0000002 
      28            0    -241.9621    2.0000005    34.647952    1.0000002 
Loop time of 0.000525031 on 1 procs for 2 steps with 82 atoms

Minimization stats:
  Stopping criterion = linesearch alpha is zero
  Energy initial, next-to-last, final = 
        -241.962089993     -241.962102932     -241.962102932
  Force two-norm initial, final = 0.0501785 0.0332468
  Force max component initial, final = 0.020501 0.0125661
  Final line search alpha, max atom move = 7.62939e-06 9.58721e-08
  Iterations, force evaluations = 2 26

Pair  time (%) = 0.000438134 (83.4493)
Neigh time (%) = 0 (0)
Comm  time (%) = 3.16588e-05 (6.02989)
Outpt time (%) = 1.00792e-05 (1.91974)
Other time (%) = 4.51584e-05 (8.6011)

Nlocal:    82 ave 82 max 82 min
Histogram: 1 0 0 0 0 0 0 0 0 0
Nghost:    185 ave 185 max 185 min
Histogram: 1 0 0 0 0 0 0 0 0 0
Neighs:    718 ave 718 max 718 min
Histogram: 1 0 0 0 0 0 0 0 0 0

Total # of neighbors = 718
Ave neighs/atom = 8.7561
Neighbor list builds = 0
Dangerous builds = 0
        # write_dump all atom ${dumpfile}
        next i
jump SELF loop1
        displace_atoms upper move ${xstep1} 0.0 0.0 units lattice
        displace_atoms upper move 0.00333333333333333 0.0 0.0 units lattice
        min_style ${style}
        min_style cg
        minimize ${etol} ${ftol} ${maxiter} ${maxeval}
        minimize 1e-12 ${ftol} ${maxiter} ${maxeval}
        minimize 1e-12 1e-08 ${maxiter} ${maxeval}
        minimize 1e-12 1e-08 10000 ${maxeval}
        minimize 1e-12 1e-08 10000 20000
WARNING: Resetting reneighboring criteria during minimization (../min.cpp:168)
Memory usage per processor = 3.35161 Mbytes
Step Temp PotEng Lx Ly Lz 
      28            0   -241.95701    2.0000005    34.647952    1.0000002 
      29            0   -241.95702    2.0000005    34.647952    1.0000002 
      30            0   -241.95703    2.0000005    34.647952    1.0000002 
      31            0   -241.95704    2.0000005    34.647952    1.0000002 
      32            0   -241.95704    2.0000005    34.647952    1.0000002 
Loop time of 0.00093308 on 1 procs for 4 steps with 82 atoms

Minimization stats:
  Stopping criterion = linesearch alpha is zero
  Energy initial, next-to-last, final = 
        -241.957005821     -241.957042492     -241.957042492
  Force two-norm initial, final = 0.0606327 0.034443
  Force max component initial, final = 0.0254065 0.0111511
  Final line search alpha, max atom move = 7.62939e-06 8.50763e-08
  Iterations, force evaluations = 4 40

Pair  time (%) = 0.000775006 (83.0589)
Neigh time (%) = 0 (0)
Comm  time (%) = 4.70144e-05 (5.03863)
Outpt time (%) = 1.80297e-05 (1.93228)
Other time (%) = 9.30296e-05 (9.97016)

Nlocal:    82 ave 82 max 82 min
Histogram: 1 0 0 0 0 0 0 0 0 0
Nghost:    185 ave 185 max 185 min
Histogram: 1 0 0 0 0 0 0 0 0 0
Neighs:    718 ave 718 max 718 min
Histogram: 1 0 0 0 0 0 0 0 0 0

Total # of neighbors = 718
Ave neighs/atom = 8.7561
Neighbor list builds = 0
Dangerous builds = 0
        # write_dump all atom ${dumpfile}
        next i
jump SELF loop1
        displace_atoms upper move ${xstep1} 0.0 0.0 units lattice
        displace_atoms upper move 0.00333333333333333 0.0 0.0 units lattice
        min_style ${style}
        min_style cg
        minimize ${etol} ${ftol} ${maxiter} ${maxeval}
        minimize 1e-12 ${ftol} ${maxiter} ${maxeval}
        minimize 1e-12 1e-08 ${maxiter} ${maxeval}
        minimize 1e-12 1e-08 10000 ${maxeval}
        minimize 1e-12 1e-08 10000 20000
WARNING: Resetting reneighboring criteria during minimization (../min.cpp:168)
Memory usage per processor = 3.35161 Mbytes
Step Temp PotEng Lx Ly Lz 
      32            0   -241.95166    2.0000005    34.647952    1.0000002 
      33            0   -241.95167    2.0000005    34.647952    1.0000002 
      34            0   -241.95167    2.0000005    34.647952    1.0000002 
      35            0   -241.95167    2.0000005    34.647952    1.0000002 
Loop time of 0.000509928 on 1 procs for 3 steps with 82 atoms

Minimization stats:
  Stopping criterion = linesearch alpha is zero
  Energy initial, next-to-last, final = 
        -241.951656506     -241.951674693     -241.951674693
  Force two-norm initial, final = 0.0456286 0.0392961
  Force max component initial, final = 0.0170097 0.0137757
  Final line search alpha, max atom move = 7.62939e-06 1.051e-07
  Iterations, force evaluations = 3 34

Pair  time (%) = 0.000420828 (82.5271)
Neigh time (%) = 0 (0)
Comm  time (%) = 3.22132e-05 (6.3172)
Outpt time (%) = 7.21577e-06 (1.41506)
Other time (%) = 4.96703e-05 (9.74066)

Nlocal:    82 ave 82 max 82 min
Histogram: 1 0 0 0 0 0 0 0 0 0
Nghost:    185 ave 185 max 185 min
Histogram: 1 0 0 0 0 0 0 0 0 0
Neighs:    718 ave 718 max 718 min
Histogram: 1 0 0 0 0 0 0 0 0 0

Total # of neighbors = 718
Ave neighs/atom = 8.7561
Neighbor list builds = 0
Dangerous builds = 0
        # write_dump all atom ${dumpfile}
        next i
jump SELF loop1
        displace_atoms upper move ${xstep1} 0.0 0.0 units lattice
        displace_atoms upper move 0.00333333333333333 0.0 0.0 units lattice
        min_style ${style}
        min_style cg
        minimize ${etol} ${ftol} ${maxiter} ${maxeval}
        minimize 1e-12 ${ftol} ${maxiter} ${maxeval}
        minimize 1e-12 1e-08 ${maxiter} ${maxeval}
        minimize 1e-12 1e-08 10000 ${maxeval}
        minimize 1e-12 1e-08 10000 20000
WARNING: Resetting reneighboring criteria during minimization (../min.cpp:168)
Memory usage per processor = 3.35161 Mbytes
Step Temp PotEng Lx Ly Lz 
      35            0   -241.94601    2.0000005    34.647952    1.0000002 
      36            0   -241.94601    2.0000005    34.647952    1.0000002 
      37            0   -241.94603    2.0000005    34.647952    1.0000002 
      38            0   -241.94603    2.0000005    34.647952    1.0000002 
Loop time of 0.00081691 on 1 procs for 3 steps with 82 atoms

Minimization stats:
  Stopping criterion = linesearch alpha is zero
  Energy initial, next-to-last, final = 
        -241.946005948     -241.946029785     -241.946029785
  Force two-norm initial, final = 0.0437702 0.0432839
  Force max component initial, final = 0.0149597 0.0138843
  Final line search alpha, max atom move = 3.8147e-06 5.29644e-08
  Iterations, force evaluations = 3 34

Pair  time (%) = 0.000608486 (74.4863)
Neigh time (%) = 0 (0)
Comm  time (%) = 0.000120291 (14.7251)
Outpt time (%) = 1.2949e-05 (1.58512)
Other time (%) = 7.51838e-05 (9.20344)

Nlocal:    82 ave 82 max 82 min
Histogram: 1 0 0 0 0 0 0 0 0 0
Nghost:    185 ave 185 max 185 min
Histogram: 1 0 0 0 0 0 0 0 0 0
Neighs:    718 ave 718 max 718 min
Histogram: 1 0 0 0 0 0 0 0 0 0

Total # of neighbors = 718
Ave neighs/atom = 8.7561
Neighbor list builds = 0
Dangerous builds = 0
        # write_dump all atom ${dumpfile}
        next i
jump SELF loop1
        displace_atoms upper move ${xstep1} 0.0 0.0 units lattice
        displace_atoms upper move 0.00333333333333333 0.0 0.0 units lattice
        min_style ${style}
        min_style cg
        minimize ${etol} ${ftol} ${maxiter} ${maxeval}
        minimize 1e-12 ${ftol} ${maxiter} ${maxeval}
        minimize 1e-12 1e-08 ${maxiter} ${maxeval}
        minimize 1e-12 1e-08 10000 ${maxeval}
        minimize 1e-12 1e-08 10000 20000
WARNING: Resetting reneighboring criteria during minimization (../min.cpp:168)
Memory usage per processor = 3.35161 Mbytes
Step Temp PotEng Lx Ly Lz 
      38            0   -241.94008    2.0000005    34.647952    1.0000002 
      39            0   -241.94009    2.0000005    34.647952    1.0000002 
      40            0   -241.94009    2.0000005    34.647952    1.0000002 
      41            0   -241.94009    2.0000005    34.647952    1.0000002 
Loop time of 0.000755897 on 1 procs for 3 steps with 82 atoms

Minimization stats:
  Stopping criterion = linesearch alpha is zero
  Energy initial, next-to-last, final = 
        -241.940082777     -241.940094119     -241.940094119
  Force two-norm initial, final = 0.043174 0.0288855
  Force max component initial, final = 0.0137984 0.0106841
  Final line search alpha, max atom move = 7.62939e-06 8.15129e-08
  Iterations, force evaluations = 3 34

Pair  time (%) = 0.00063097 (83.4729)
Neigh time (%) = 0 (0)
Comm  time (%) = 4.39388e-05 (5.81279)
Outpt time (%) = 1.28897e-05 (1.70522)
Other time (%) = 6.80994e-05 (9.00907)

Nlocal:    82 ave 82 max 82 min
Histogram: 1 0 0 0 0 0 0 0 0 0
Nghost:    185 ave 185 max 185 min
Histogram: 1 0 0 0 0 0 0 0 0 0
Neighs:    718 ave 718 max 718 min
Histogram: 1 0 0 0 0 0 0 0 0 0

Total # of neighbors = 718
Ave neighs/atom = 8.7561
Neighbor list builds = 0
Dangerous builds = 0
        # write_dump all atom ${dumpfile}
        next i
jump SELF loop1
        displace_atoms upper move ${xstep1} 0.0 0.0 units lattice
        displace_atoms upper move 0.00333333333333333 0.0 0.0 units lattice
        min_style ${style}
        min_style cg
        minimize ${etol} ${ftol} ${maxiter} ${maxeval}
        minimize 1e-12 ${ftol} ${maxiter} ${maxeval}
        minimize 1e-12 1e-08 ${maxiter} ${maxeval}
        minimize 1e-12 1e-08 10000 ${maxeval}
        minimize 1e-12 1e-08 10000 20000
WARNING: Resetting reneighboring criteria during minimization (../min.cpp:168)
Memory usage per processor = 3.35161 Mbytes
Step Temp PotEng Lx Ly Lz 
      41            0   -241.93386    2.0000005    34.647952    1.0000002 
      42            0   -241.93386    2.0000005    34.647952    1.0000002 
      43            0   -241.93386    2.0000005    34.647952    1.0000002 
Loop time of 0.00125798 on 1 procs for 2 steps with 82 atoms

Minimization stats:
  Stopping criterion = linesearch alpha is zero
  Energy initial, next-to-last, final = 
        -241.933858903     -241.933859117     -241.933859117
  Force two-norm initial, final = 0.0588 0.0580588
  Force max component initial, final = 0.0258081 0.0253914
  Final line search alpha, max atom move = 1.90735e-06 4.84302e-08
  Iterations, force evaluations = 2 34

Pair  time (%) = 0.000980072 (77.9084)
Neigh time (%) = 0 (0)
Comm  time (%) = 0.000102855 (8.17618)
Outpt time (%) = 1.70401e-05 (1.35456)
Other time (%) = 0.000158014 (12.5609)

Nlocal:    82 ave 82 max 82 min
Histogram: 1 0 0 0 0 0 0 0 0 0
Nghost:    185 ave 185 max 185 min
Histogram: 1 0 0 0 0 0 0 0 0 0
Neighs:    718 ave 718 max 718 min
Histogram: 1 0 0 0 0 0 0 0 0 0

Total # of neighbors = 718
Ave neighs/atom = 8.7561
Neighbor list builds = 0
Dangerous builds = 0
        # write_dump all atom ${dumpfile}
        next i
jump SELF loop1
        displace_atoms upper move ${xstep1} 0.0 0.0 units lattice
        displace_atoms upper move 0.00333333333333333 0.0 0.0 units lattice
        min_style ${style}
        min_style cg
        minimize ${etol} ${ftol} ${maxiter} ${maxeval}
        minimize 1e-12 ${ftol} ${maxiter} ${maxeval}
        minimize 1e-12 1e-08 ${maxiter} ${maxeval}
        minimize 1e-12 1e-08 10000 ${maxeval}
        minimize 1e-12 1e-08 10000 20000
WARNING: Resetting reneighboring criteria during minimization (../min.cpp:168)
Memory usage per processor = 3.35161 Mbytes
Step Temp PotEng Lx Ly Lz 
      43            0   -241.92732    2.0000005    34.647952    1.0000002 
      44            0   -241.92734    2.0000005    34.647952    1.0000002 
      45            0   -241.92737    2.0000005    34.647952    1.0000002 
      46            0    -241.9274    2.0000005    34.647952    1.0000002 
      47            0   -241.92743    2.0000005    34.647952    1.0000002 
      48            0   -241.92743    2.0000005    34.647952    1.0000002 
      49            0   -241.92743    2.0000005    34.647952    1.0000002 
      50            0   -241.92743    2.0000005    34.647952    1.0000002 
Loop time of 0.00163595 on 1 procs for 7 steps with 82 atoms

Minimization stats:
  Stopping criterion = linesearch alpha is zero
  Energy initial, next-to-last, final = 
        -241.927319537     -241.927434326     -241.927434326
  Force two-norm initial, final = 0.115123 0.0311097
  Force max component initial, final = 0.055815 0.00931102
  Final line search alpha, max atom move = 7.62939e-06 7.10374e-08
  Iterations, force evaluations = 7 65

Pair  time (%) = 0.00138573 (84.7047)
Neigh time (%) = 0 (0)
Comm  time (%) = 8.41451e-05 (5.14349)
Outpt time (%) = 3.88364e-05 (2.37393)
Other time (%) = 0.000127242 (7.77785)

Nlocal:    82 ave 82 max 82 min
Histogram: 1 0 0 0 0 0 0 0 0 0
Nghost:    185 ave 185 max 185 min
Histogram: 1 0 0 0 0 0 0 0 0 0
Neighs:    718 ave 718 max 718 min
Histogram: 1 0 0 0 0 0 0 0 0 0

Total # of neighbors = 718
Ave neighs/atom = 8.7561
Neighbor list builds = 0
Dangerous builds = 0
        # write_dump all atom ${dumpfile}
        next i
jump SELF loop1
        displace_atoms upper move ${xstep1} 0.0 0.0 units lattice
        displace_atoms upper move 0.00333333333333333 0.0 0.0 units lattice
        min_style ${style}
        min_style cg
        minimize ${etol} ${ftol} ${maxiter} ${maxeval}
        minimize 1e-12 ${ftol} ${maxiter} ${maxeval}
        minimize 1e-12 1e-08 ${maxiter} ${maxeval}
        minimize 1e-12 1e-08 10000 ${maxeval}
        minimize 1e-12 1e-08 10000 20000
WARNING: Resetting reneighboring criteria during minimization (../min.cpp:168)
Memory usage per processor = 3.35161 Mbytes
Step Temp PotEng Lx Ly Lz 
      50            0   -241.92067    2.0000005    34.647952    1.0000002 
      51            0   -241.92069    2.0000005    34.647952    1.0000002 
      52            0   -241.92069    2.0000005    34.647952    1.0000002 
Loop time of 0.000596999 on 1 procs for 2 steps with 82 atoms

Minimization stats:
  Stopping criterion = linesearch alpha is zero
  Energy initial, next-to-last, final = 
          -241.9206737     -241.920688016     -241.920688016
  Force two-norm initial, final = 0.0581669 0.0333877
  Force max component initial, final = 0.0253238 0.0113551
  Final line search alpha, max atom move = 7.62939e-06 8.66326e-08
  Iterations, force evaluations = 2 27

Pair  time (%) = 0.000504374 (84.4849)
Neigh time (%) = 0 (0)
Comm  time (%) = 3.31954e-05 (5.56037)
Outpt time (%) = 6.11844e-06 (1.02487)
Other time (%) = 5.33115e-05 (8.92991)

Nlocal:    82 ave 82 max 82 min
Histogram: 1 0 0 0 0 0 0 0 0 0
Nghost:    185 ave 185 max 185 min
Histogram: 1 0 0 0 0 0 0 0 0 0
Neighs:    718 ave 718 max 718 min
Histogram: 1 0 0 0 0 0 0 0 0 0

Total # of neighbors = 718
Ave neighs/atom = 8.7561
Neighbor list builds = 0
Dangerous builds = 0
        # write_dump all atom ${dumpfile}
        next i
jump SELF loop1
        displace_atoms upper move ${xstep1} 0.0 0.0 units lattice
        displace_atoms upper move 0.00333333333333333 0.0 0.0 units lattice
        min_style ${style}
        min_style cg
        minimize ${etol} ${ftol} ${maxiter} ${maxeval}
        minimize 1e-12 ${ftol} ${maxiter} ${maxeval}
        minimize 1e-12 1e-08 ${maxiter} ${maxeval}
        minimize 1e-12 1e-08 10000 ${maxeval}
        minimize 1e-12 1e-08 10000 20000
WARNING: Resetting reneighboring criteria during minimization (../min.cpp:168)
Memory usage per processor = 3.35161 Mbytes
Step Temp PotEng Lx Ly Lz 
      52            0   -241.91364    2.0000005    34.647952    1.0000002 
      53            0   -241.91365    2.0000005    34.647952    1.0000002 
      54            0   -241.91367    2.0000005    34.647952    1.0000002 
      55            0   -241.91369    2.0000005    34.647952    1.0000002 
      56            0   -241.91371    2.0000005    34.647952    1.0000002 
      57            0   -241.91372    2.0000005    34.647952    1.0000002 
      58            0   -241.91372    2.0000005    34.647952    1.0000002 
Loop time of 0.00118305 on 1 procs for 6 steps with 82 atoms

Minimization stats:
  Stopping criterion = linesearch alpha is zero
  Energy initial, next-to-last, final = 
        -241.913643925     -241.913723599     -241.913723599
  Force two-norm initial, final = 0.0915329 0.0246906
  Force max component initial, final = 0.0441001 0.00825195
  Final line search alpha, max atom move = 7.62939e-06 6.29574e-08
  Iterations, force evaluations = 6 57

Pair  time (%) = 0.000989702 (83.6566)
Neigh time (%) = 0 (0)
Comm  time (%) = 5.89354e-05 (4.98163)
Outpt time (%) = 2.5036e-05 (2.11622)
Other time (%) = 0.00010938 (9.24559)

Nlocal:    82 ave 82 max 82 min
Histogram: 1 0 0 0 0 0 0 0 0 0
Nghost:    185 ave 185 max 185 min
Histogram: 1 0 0 0 0 0 0 0 0 0
Neighs:    718 ave 718 max 718 min
Histogram: 1 0 0 0 0 0 0 0 0 0

Total # of neighbors = 718
Ave neighs/atom = 8.7561
Neighbor list builds = 0
Dangerous builds = 0
        # write_dump all atom ${dumpfile}
        next i
jump SELF loop1
        displace_atoms upper move ${xstep1} 0.0 0.0 units lattice
        displace_atoms upper move 0.00333333333333333 0.0 0.0 units lattice
        min_style ${style}
        min_style cg
        minimize ${etol} ${ftol} ${maxiter} ${maxeval}
        minimize 1e-12 ${ftol} ${maxiter} ${maxeval}
        minimize 1e-12 1e-08 ${maxiter} ${maxeval}
        minimize 1e-12 1e-08 10000 ${maxeval}
        minimize 1e-12 1e-08 10000 20000
WARNING: Resetting reneighboring criteria during minimization (../min.cpp:168)
Memory usage per processor = 3.35161 Mbytes
Step Temp PotEng Lx Ly Lz 
      58            0   -241.90645    2.0000005    34.647952    1.0000002 
      59            0   -241.90646    2.0000005    34.647952    1.0000002 
      60            0   -241.90647    2.0000005    34.647952    1.0000002 
      61            0   -241.90648    2.0000005    34.647952    1.0000002 
      62            0   -241.90651    2.0000005    34.647952    1.0000002 
      63            0   -241.90651    2.0000005    34.647952    1.0000002 
Loop time of 0.00205291 on 1 procs for 5 steps with 82 atoms

Minimization stats:
  Stopping criterion = linesearch alpha is zero
  Energy initial, next-to-last, final = 
        -241.906453267     -241.906505191     -241.906505191
  Force two-norm initial, final = 0.0791239 0.0326925
  Force max component initial, final = 0.0378028 0.0103602
  Final line search alpha, max atom move = 7.62939e-06 7.90421e-08
  Iterations, force evaluations = 5 48

Pair  time (%) = 0.00184944 (90.0888)
Neigh time (%) = 0 (0)
Comm  time (%) = 6.95358e-05 (3.38718)
Outpt time (%) = 3.09101e-05 (1.50567)
Other time (%) = 0.000103023 (5.01838)

Nlocal:    82 ave 82 max 82 min
Histogram: 1 0 0 0 0 0 0 0 0 0
Nghost:    185 ave 185 max 185 min
Histogram: 1 0 0 0 0 0 0 0 0 0
Neighs:    718 ave 718 max 718 min
Histogram: 1 0 0 0 0 0 0 0 0 0

Total # of neighbors = 718
Ave neighs/atom = 8.7561
Neighbor list builds = 0
Dangerous builds = 0
        # write_dump all atom ${dumpfile}
        next i
jump SELF loop1
        displace_atoms upper move ${xstep1} 0.0 0.0 units lattice
        displace_atoms upper move 0.00333333333333333 0.0 0.0 units lattice
        min_style ${style}
        min_style cg
        minimize ${etol} ${ftol} ${maxiter} ${maxeval}
        minimize 1e-12 ${ftol} ${maxiter} ${maxeval}
        minimize 1e-12 1e-08 ${maxiter} ${maxeval}
        minimize 1e-12 1e-08 10000 ${maxeval}
        minimize 1e-12 1e-08 10000 20000
WARNING: Resetting reneighboring criteria during minimization (../min.cpp:168)
Memory usage per processor = 3.35161 Mbytes
Step Temp PotEng Lx Ly Lz 
      63            0   -241.89901    2.0000005    34.647956    1.0000002 
      64            0   -241.89901    2.0000005    34.647956    1.0000002 
      65            0   -241.89901    2.0000005    34.647956    1.0000002 
Loop time of 0.000579064 on 1 procs for 2 steps with 82 atoms

Minimization stats:
  Stopping criterion = linesearch alpha is zero
  Energy initial, next-to-last, final = 
        -241.899006226      -241.89900794      -241.89900794
  Force two-norm initial, final = 0.051123 0.0455904
  Force max component initial, final = 0.0222154 0.0192676
  Final line search alpha, max atom move = 3.8147e-06 7.35001e-08
  Iterations, force evaluations = 2 30

Pair  time (%) = 0.00047442 (81.9288)
Neigh time (%) = 0 (0)
Comm  time (%) = 4.27128e-05 (7.37617)
Outpt time (%) = 6.97689e-06 (1.20486)
Other time (%) = 5.49544e-05 (9.49021)

Nlocal:    82 ave 82 max 82 min
Histogram: 1 0 0 0 0 0 0 0 0 0
Nghost:    185 ave 185 max 185 min
Histogram: 1 0 0 0 0 0 0 0 0 0
Neighs:    718 ave 718 max 718 min
Histogram: 1 0 0 0 0 0 0 0 0 0

Total # of neighbors = 718
Ave neighs/atom = 8.7561
Neighbor list builds = 0
Dangerous builds = 0
        # write_dump all atom ${dumpfile}
        next i
jump SELF loop1
        displace_atoms upper move ${xstep1} 0.0 0.0 units lattice
        displace_atoms upper move 0.00333333333333333 0.0 0.0 units lattice
        min_style ${style}
        min_style cg
        minimize ${etol} ${ftol} ${maxiter} ${maxeval}
        minimize 1e-12 ${ftol} ${maxiter} ${maxeval}
        minimize 1e-12 1e-08 ${maxiter} ${maxeval}
        minimize 1e-12 1e-08 10000 ${maxeval}
        minimize 1e-12 1e-08 10000 20000
WARNING: Resetting reneighboring criteria during minimization (../min.cpp:168)
Memory usage per processor = 3.35161 Mbytes
Step Temp PotEng Lx Ly Lz 
      65            0   -241.89121    2.0000005    34.647956    1.0000002 
      66            0   -241.89124    2.0000005    34.647956    1.0000002 
      67            0   -241.89125    2.0000005    34.647956    1.0000002 
      68            0   -241.89127    2.0000005    34.647956    1.0000002 
      69            0    -241.8913    2.0000005    34.647956    1.0000002 
      70            0   -241.89132    2.0000005    34.647956    1.0000002 
      71            0   -241.89132    2.0000005    34.647956    1.0000002 
Loop time of 0.0012881 on 1 procs for 6 steps with 82 atoms

Minimization stats:
  Stopping criterion = linesearch alpha is zero
  Energy initial, next-to-last, final = 
        -241.891213864     -241.891319096     -241.891319096
  Force two-norm initial, final = 0.107343 0.0280327
  Force max component initial, final = 0.0522707 0.0100771
  Final line search alpha, max atom move = 7.62939e-06 7.68819e-08
  Iterations, force evaluations = 6 55

Pair  time (%) = 0.00107717 (83.6246)
Neigh time (%) = 0 (0)
Comm  time (%) = 6.66184e-05 (5.17183)
Outpt time (%) = 3.20502e-05 (2.48817)
Other time (%) = 0.000112263 (8.71536)

Nlocal:    82 ave 82 max 82 min
Histogram: 1 0 0 0 0 0 0 0 0 0
Nghost:    185 ave 185 max 185 min
Histogram: 1 0 0 0 0 0 0 0 0 0
Neighs:    718 ave 718 max 718 min
Histogram: 1 0 0 0 0 0 0 0 0 0

Total # of neighbors = 718
Ave neighs/atom = 8.7561
Neighbor list builds = 0
Dangerous builds = 0
        # write_dump all atom ${dumpfile}
        next i
jump SELF loop1
        displace_atoms upper move ${xstep1} 0.0 0.0 units lattice
        displace_atoms upper move 0.00333333333333333 0.0 0.0 units lattice
        min_style ${style}
        min_style cg
        minimize ${etol} ${ftol} ${maxiter} ${maxeval}
        minimize 1e-12 ${ftol} ${maxiter} ${maxeval}
        minimize 1e-12 1e-08 ${maxiter} ${maxeval}
        minimize 1e-12 1e-08 10000 ${maxeval}
        minimize 1e-12 1e-08 10000 20000
WARNING: Resetting reneighboring criteria during minimization (../min.cpp:168)
Memory usage per processor = 3.35161 Mbytes
Step Temp PotEng Lx Ly Lz 
      71            0   -241.88331    2.0000005    34.647978    1.0000002 
      72            0   -241.88333    2.0000005    34.647978    1.0000002 
      73            0   -241.88333    2.0000005    34.647978    1.0000002 
      74            0   -241.88333    2.0000005    34.647978    1.0000002 
Loop time of 0.000861974 on 1 procs for 3 steps with 82 atoms

Minimization stats:
  Stopping criterion = linesearch alpha is zero
  Energy initial, next-to-last, final = 
        -241.883313066     -241.883329888     -241.883329888
  Force two-norm initial, final = 0.063805 0.0286424
  Force max component initial, final = 0.0289786 0.00904226
  Final line search alpha, max atom move = 7.62939e-06 6.8987e-08
  Iterations, force evaluations = 3 37

Pair  time (%) = 0.000729312 (84.6094)
Neigh time (%) = 0 (0)
Comm  time (%) = 4.08255e-05 (4.73627)
Outpt time (%) = 1.29811e-05 (1.50598)
Other time (%) = 7.8856e-05 (9.1483)

Nlocal:    82 ave 82 max 82 min
Histogram: 1 0 0 0 0 0 0 0 0 0
Nghost:    185 ave 185 max 185 min
Histogram: 1 0 0 0 0 0 0 0 0 0
Neighs:    718 ave 718 max 718 min
Histogram: 1 0 0 0 0 0 0 0 0 0

Total # of neighbors = 718
Ave neighs/atom = 8.7561
Neighbor list builds = 0
Dangerous builds = 0
        # write_dump all atom ${dumpfile}
        next i
jump SELF loop1
        displace_atoms upper move ${xstep1} 0.0 0.0 units lattice
        displace_atoms upper move 0.00333333333333333 0.0 0.0 units lattice
        min_style ${style}
        min_style cg
        minimize ${etol} ${ftol} ${maxiter} ${maxeval}
        minimize 1e-12 ${ftol} ${maxiter} ${maxeval}
        minimize 1e-12 1e-08 ${maxiter} ${maxeval}
        minimize 1e-12 1e-08 10000 ${maxeval}
        minimize 1e-12 1e-08 10000 20000
WARNING: Resetting reneighboring criteria during minimization (../min.cpp:168)
Memory usage per processor = 3.35161 Mbytes
Step Temp PotEng Lx Ly Lz 
      74            0   -241.87505    2.0000005     34.64798    1.0000002 
      75            0   -241.87505    2.0000005     34.64798    1.0000002 
Loop time of 0.000476093 on 1 procs for 1 steps with 82 atoms

Minimization stats:
  Stopping criterion = linesearch alpha is zero
  Energy initial, next-to-last, final = 
        -241.875050251     -241.875050251     -241.875050251
  Force two-norm initial, final = 0.0889839 0.0889839
  Force max component initial, final = 0.0430836 0.0430836
  Final line search alpha, max atom move = 9.53674e-07 4.10877e-08
  Iterations, force evaluations = 1 21

Pair  time (%) = 0.000410538 (86.2307)
Neigh time (%) = 0 (0)
Comm  time (%) = 1.66852e-05 (3.50462)
Outpt time (%) = 0 (0)
Other time (%) = 4.88694e-05 (10.2647)

Nlocal:    82 ave 82 max 82 min
Histogram: 1 0 0 0 0 0 0 0 0 0
Nghost:    185 ave 185 max 185 min
Histogram: 1 0 0 0 0 0 0 0 0 0
Neighs:    718 ave 718 max 718 min
Histogram: 1 0 0 0 0 0 0 0 0 0

Total # of neighbors = 718
Ave neighs/atom = 8.7561
Neighbor list builds = 0
Dangerous builds = 0
        # write_dump all atom ${dumpfile}
        next i
jump SELF loop1
        displace_atoms upper move ${xstep1} 0.0 0.0 units lattice
        displace_atoms upper move 0.00333333333333333 0.0 0.0 units lattice
        min_style ${style}
        min_style cg
        minimize ${etol} ${ftol} ${maxiter} ${maxeval}
        minimize 1e-12 ${ftol} ${maxiter} ${maxeval}
        minimize 1e-12 1e-08 ${maxiter} ${maxeval}
        minimize 1e-12 1e-08 10000 ${maxeval}
        minimize 1e-12 1e-08 10000 20000
WARNING: Resetting reneighboring criteria during minimization (../min.cpp:168)
Memory usage per processor = 3.35161 Mbytes
Step Temp PotEng Lx Ly Lz 
      75            0   -241.86648    2.0000005     34.64798    1.0000002 
      76            0   -241.86654    2.0000005     34.64798    1.0000002 
      77            0   -241.86656    2.0000005     34.64798    1.0000002 
      78            0   -241.86657    2.0000005     34.64798    1.0000002 
      79            0   -241.86659    2.0000005     34.64798    1.0000002 
      80            0   -241.86663    2.0000005     34.64798    1.0000002 
      81            0   -241.86665    2.0000005     34.64798    1.0000002 
      82            0   -241.86666    2.0000005     34.64798    1.0000002 
      83            0   -241.86666    2.0000005     34.64798    1.0000002 
Loop time of 0.00184998 on 1 procs for 8 steps with 82 atoms

Minimization stats:
  Stopping criterion = linesearch alpha is zero
  Energy initial, next-to-last, final = 
        -241.866477455     -241.866664531     -241.866664531
  Force two-norm initial, final = 0.157654 0.0248635
  Force max component initial, final = 0.0780406 0.00773687
  Final line search alpha, max atom move = 1.52588e-05 1.18055e-07
  Iterations, force evaluations = 8 68

Pair  time (%) = 0.0015538 (83.9899)
Neigh time (%) = 0 (0)
Comm  time (%) = 8.47207e-05 (4.57955)
Outpt time (%) = 5.71391e-05 (3.08863)
Other time (%) = 0.000154323 (8.3419)

Nlocal:    82 ave 82 max 82 min
Histogram: 1 0 0 0 0 0 0 0 0 0
Nghost:    185 ave 185 max 185 min
Histogram: 1 0 0 0 0 0 0 0 0 0
Neighs:    718 ave 718 max 718 min
Histogram: 1 0 0 0 0 0 0 0 0 0

Total # of neighbors = 718
Ave neighs/atom = 8.7561
Neighbor list builds = 0
Dangerous builds = 0
        # write_dump all atom ${dumpfile}
        next i
jump SELF loop1
        displace_atoms upper move ${xstep1} 0.0 0.0 units lattice
        displace_atoms upper move 0.00333333333333333 0.0 0.0 units lattice
        min_style ${style}
        min_style cg
        minimize ${etol} ${ftol} ${maxiter} ${maxeval}
        minimize 1e-12 ${ftol} ${maxiter} ${maxeval}
        minimize 1e-12 1e-08 ${maxiter} ${maxeval}
        minimize 1e-12 1e-08 10000 ${maxeval}
        minimize 1e-12 1e-08 10000 20000
WARNING: Resetting reneighboring criteria during minimization (../min.cpp:168)
Memory usage per processor = 3.35161 Mbytes
Step Temp PotEng Lx Ly Lz 
      83            0   -241.85793    2.0000005    34.648121    1.0000002 
      84            0   -241.85795    2.0000005    34.648121    1.0000002 
      85            0   -241.85796    2.0000005    34.648121    1.0000002 
      86            0   -241.85796    2.0000005    34.648121    1.0000002 
Loop time of 0.000953062 on 1 procs for 3 steps with 82 atoms

Minimization stats:
  Stopping criterion = linesearch alpha is zero
  Energy initial, next-to-last, final = 
        -241.857929151     -241.857955272     -241.857955272
  Force two-norm initial, final = 0.0697328 0.0290793
  Force max component initial, final = 0.0326526 0.00927746
  Final line search alpha, max atom move = 7.62939e-06 7.07814e-08
  Iterations, force evaluations = 3 33

Pair  time (%) = 0.000806436 (84.6152)
Neigh time (%) = 0 (0)
Comm  time (%) = 4.83162e-05 (5.06957)
Outpt time (%) = 1.51255e-05 (1.58704)
Other time (%) = 8.31849e-05 (8.72817)

Nlocal:    82 ave 82 max 82 min
Histogram: 1 0 0 0 0 0 0 0 0 0
Nghost:    185 ave 185 max 185 min
Histogram: 1 0 0 0 0 0 0 0 0 0
Neighs:    718 ave 718 max 718 min
Histogram: 1 0 0 0 0 0 0 0 0 0

Total # of neighbors = 718
Ave neighs/atom = 8.7561
Neighbor list builds = 0
Dangerous builds = 0
        # write_dump all atom ${dumpfile}
        next i
jump SELF loop1
        displace_atoms upper move ${xstep1} 0.0 0.0 units lattice
        displace_atoms upper move 0.00333333333333333 0.0 0.0 units lattice
        min_style ${style}
        min_style cg
        minimize ${etol} ${ftol} ${maxiter} ${maxeval}
        minimize 1e-12 ${ftol} ${maxiter} ${maxeval}
        minimize 1e-12 1e-08 ${maxiter} ${maxeval}
        minimize 1e-12 1e-08 10000 ${maxeval}
        minimize 1e-12 1e-08 10000 20000
WARNING: Resetting reneighboring criteria during minimization (../min.cpp:168)
Memory usage per processor = 3.35161 Mbytes
Step Temp PotEng Lx Ly Lz 
      86            0   -241.84898    2.0000005    34.648155    1.0000002 
      87            0   -241.84899    2.0000005    34.648155    1.0000002 
      88            0   -241.84899    2.0000005    34.648155    1.0000002 
      89            0     -241.849    2.0000005    34.648155    1.0000002 
      90            0   -241.84901    2.0000005    34.648155    1.0000002 
      91            0   -241.84902    2.0000005    34.648155    1.0000002 
      92            0   -241.84903    2.0000005    34.648155    1.0000002 
      93            0   -241.84903    2.0000005    34.648155    1.0000002 
Loop time of 0.00299394 on 1 procs for 7 steps with 82 atoms

Minimization stats:
  Stopping criterion = linesearch alpha is zero
  Energy initial, next-to-last, final = 
        -241.848978356     -241.849027496     -241.849027496
  Force two-norm initial, final = 0.0569454 0.0295247
  Force max component initial, final = 0.0261795 0.00791187
  Final line search alpha, max atom move = 7.62939e-06 6.03628e-08
  Iterations, force evaluations = 7 61

Pair  time (%) = 0.00188999 (63.1271)
Neigh time (%) = 0 (0)
Comm  time (%) = 0.000111118 (3.71144)
Outpt time (%) = 0.000808047 (26.9894)
Other time (%) = 0.000184787 (6.17203)

Nlocal:    82 ave 82 max 82 min
Histogram: 1 0 0 0 0 0 0 0 0 0
Nghost:    185 ave 185 max 185 min
Histogram: 1 0 0 0 0 0 0 0 0 0
Neighs:    718 ave 718 max 718 min
Histogram: 1 0 0 0 0 0 0 0 0 0

Total # of neighbors = 718
Ave neighs/atom = 8.7561
Neighbor list builds = 0
Dangerous builds = 0
        # write_dump all atom ${dumpfile}
        next i
jump SELF loop1
        displace_atoms upper move ${xstep1} 0.0 0.0 units lattice
        displace_atoms upper move 0.00333333333333333 0.0 0.0 units lattice
        min_style ${style}
        min_style cg
        minimize ${etol} ${ftol} ${maxiter} ${maxeval}
        minimize 1e-12 ${ftol} ${maxiter} ${maxeval}
        minimize 1e-12 1e-08 ${maxiter} ${maxeval}
        minimize 1e-12 1e-08 10000 ${maxeval}
        minimize 1e-12 1e-08 10000 20000
WARNING: Resetting reneighboring criteria during minimization (../min.cpp:168)
Memory usage per processor = 3.35161 Mbytes
Step Temp PotEng Lx Ly Lz 
      93            0    -241.8398    2.0000005    34.648363    1.0000002 
      94            0   -241.83981    2.0000005    34.648363    1.0000002 
      95            0   -241.83981    2.0000005    34.648363    1.0000002 
Loop time of 0.019284 on 1 procs for 2 steps with 82 atoms

Minimization stats:
  Stopping criterion = linesearch alpha is zero
  Energy initial, next-to-last, final = 
        -241.839799634     -241.839810051     -241.839810051
  Force two-norm initial, final = 0.0868736 0.0624747
  Force max component initial, final = 0.0411659 0.0291524
  Final line search alpha, max atom move = 1.90735e-06 5.56039e-08
  Iterations, force evaluations = 2 30

Pair  time (%) = 0.000588656 (3.05257)
Neigh time (%) = 0 (0)
Comm  time (%) = 3.49821e-05 (0.181405)
Outpt time (%) = 0.0186039 (96.4734)
Other time (%) = 5.64302e-05 (0.292628)

Nlocal:    82 ave 82 max 82 min
Histogram: 1 0 0 0 0 0 0 0 0 0
Nghost:    185 ave 185 max 185 min
Histogram: 1 0 0 0 0 0 0 0 0 0
Neighs:    718 ave 718 max 718 min
Histogram: 1 0 0 0 0 0 0 0 0 0

Total # of neighbors = 718
Ave neighs/atom = 8.7561
Neighbor list builds = 0
Dangerous builds = 0
        # write_dump all atom ${dumpfile}
        next i
jump SELF loop1
        displace_atoms upper move ${xstep1} 0.0 0.0 units lattice
        displace_atoms upper move 0.00333333333333333 0.0 0.0 units lattice
        min_style ${style}
        min_style cg
        minimize ${etol} ${ftol} ${maxiter} ${maxeval}
        minimize 1e-12 ${ftol} ${maxiter} ${maxeval}
        minimize 1e-12 1e-08 ${maxiter} ${maxeval}
        minimize 1e-12 1e-08 10000 ${maxeval}
        minimize 1e-12 1e-08 10000 20000
WARNING: Resetting reneighboring criteria during minimization (../min.cpp:168)
Memory usage per processor = 3.35161 Mbytes
Step Temp PotEng Lx Ly Lz 
      95            0   -241.83031    2.0000005    34.648366    1.0000002 
      96            0   -241.83035    2.0000005    34.648366    1.0000002 
      97            0   -241.83036    2.0000005    34.648366    1.0000002 
      98            0   -241.83036    2.0000005    34.648366    1.0000002 
Loop time of 0.00132005 on 1 procs for 3 steps with 82 atoms

Minimization stats:
  Stopping criterion = linesearch alpha is zero
  Energy initial, next-to-last, final = 
        -241.830310954     -241.830359608     -241.830359608
  Force two-norm initial, final = 0.133944 0.053842
  Force max component initial, final = 0.0660255 0.0213242
  Final line search alpha, max atom move = 3.8147e-06 8.13455e-08
  Iterations, force evaluations = 3 38

Pair  time (%) = 0.00118127 (89.4869)
Neigh time (%) = 0 (0)
Comm  time (%) = 4.8892e-05 (3.7038)
Outpt time (%) = 1.69676e-05 (1.28538)
Other time (%) = 7.29189e-05 (5.52396)

Nlocal:    82 ave 82 max 82 min
Histogram: 1 0 0 0 0 0 0 0 0 0
Nghost:    185 ave 185 max 185 min
Histogram: 1 0 0 0 0 0 0 0 0 0
Neighs:    718 ave 718 max 718 min
Histogram: 1 0 0 0 0 0 0 0 0 0

Total # of neighbors = 718
Ave neighs/atom = 8.7561
Neighbor list builds = 0
Dangerous builds = 0
        # write_dump all atom ${dumpfile}
        next i
jump SELF loop1
        displace_atoms upper move ${xstep1} 0.0 0.0 units lattice
        displace_atoms upper move 0.00333333333333333 0.0 0.0 units lattice
        min_style ${style}
        min_style cg
        minimize ${etol} ${ftol} ${maxiter} ${maxeval}
        minimize 1e-12 ${ftol} ${maxiter} ${maxeval}
        minimize 1e-12 1e-08 ${maxiter} ${maxeval}
        minimize 1e-12 1e-08 10000 ${maxeval}
        minimize 1e-12 1e-08 10000 20000
WARNING: Resetting reneighboring criteria during minimization (../min.cpp:168)
Memory usage per processor = 3.35161 Mbytes
Step Temp PotEng Lx Ly Lz 
      98            0   -241.82063    2.0000005    34.648376    1.0000002 
      99            0   -241.82069    2.0000005    34.648376    1.0000002 
     100            0   -241.82069    2.0000005    34.648376    1.0000002 
Loop time of 0.000702956 on 1 procs for 2 steps with 82 atoms

Minimization stats:
  Stopping criterion = linesearch alpha is zero
  Energy initial, next-to-last, final = 
        -241.820625321     -241.820685498     -241.820685498
  Force two-norm initial, final = 0.12197 0.0576942
  Force max component initial, final = 0.0587297 0.0265475
  Final line search alpha, max atom move = 1.90735e-06 5.06354e-08
  Iterations, force evaluations = 2 28

Pair  time (%) = 0.000609911 (86.7637)
Neigh time (%) = 0 (0)
Comm  time (%) = 3.59812e-05 (5.11855)
Outpt time (%) = 6.07583e-06 (0.864326)
Other time (%) = 5.09885e-05 (7.25344)

Nlocal:    82 ave 82 max 82 min
Histogram: 1 0 0 0 0 0 0 0 0 0
Nghost:    185 ave 185 max 185 min
Histogram: 1 0 0 0 0 0 0 0 0 0
Neighs:    718 ave 718 max 718 min
Histogram: 1 0 0 0 0 0 0 0 0 0

Total # of neighbors = 718
Ave neighs/atom = 8.7561
Neighbor list builds = 0
Dangerous builds = 0
        # write_dump all atom ${dumpfile}
        next i
jump SELF loop1
        displace_atoms upper move ${xstep1} 0.0 0.0 units lattice
        displace_atoms upper move 0.00333333333333333 0.0 0.0 units lattice
        min_style ${style}
        min_style cg
        minimize ${etol} ${ftol} ${maxiter} ${maxeval}
        minimize 1e-12 ${ftol} ${maxiter} ${maxeval}
        minimize 1e-12 1e-08 ${maxiter} ${maxeval}
        minimize 1e-12 1e-08 10000 ${maxeval}
        minimize 1e-12 1e-08 10000 20000
WARNING: Resetting reneighboring criteria during minimization (../min.cpp:168)
Memory usage per processor = 3.35161 Mbytes
Step Temp PotEng Lx Ly Lz 
     100            0   -241.81074    2.0000005     34.64839    1.0000002 
     101            0    -241.8108    2.0000005     34.64839    1.0000002 
     102            0    -241.8108    2.0000005     34.64839    1.0000002 
Loop time of 0.000768957 on 1 procs for 2 steps with 82 atoms

Minimization stats:
  Stopping criterion = linesearch alpha is zero
  Energy initial, next-to-last, final = 
        -241.810742737     -241.810803953     -241.810803953
  Force two-norm initial, final = 0.0881989 0.0728624
  Force max component initial, final = 0.0336128 0.024934
  Final line search alpha, max atom move = 1.90735e-06 4.75578e-08
  Iterations, force evaluations = 2 27

Pair  time (%) = 0.000675124 (87.7973)
Neigh time (%) = 0 (0)
Comm  time (%) = 3.29408e-05 (4.28382)
Outpt time (%) = 7.02485e-06 (0.913555)
Other time (%) = 5.38682e-05 (7.00535)

Nlocal:    82 ave 82 max 82 min
Histogram: 1 0 0 0 0 0 0 0 0 0
Nghost:    185 ave 185 max 185 min
Histogram: 1 0 0 0 0 0 0 0 0 0
Neighs:    718 ave 718 max 718 min
Histogram: 1 0 0 0 0 0 0 0 0 0

Total # of neighbors = 718
Ave neighs/atom = 8.7561
Neighbor list builds = 0
Dangerous builds = 0
        # write_dump all atom ${dumpfile}
        next i
jump SELF loop1
        displace_atoms upper move ${xstep1} 0.0 0.0 units lattice
        displace_atoms upper move 0.00333333333333333 0.0 0.0 units lattice
        min_style ${style}
        min_style cg
        minimize ${etol} ${ftol} ${maxiter} ${maxeval}
        minimize 1e-12 ${ftol} ${maxiter} ${maxeval}
        minimize 1e-12 1e-08 ${maxiter} ${maxeval}
        minimize 1e-12 1e-08 10000 ${maxeval}
        minimize 1e-12 1e-08 10000 20000
WARNING: Resetting reneighboring criteria during minimization (../min.cpp:168)
Memory usage per processor = 3.35161 Mbytes
Step Temp PotEng Lx Ly Lz 
     102            0   -241.80067    2.0000005    34.648418    1.0000002 
     103            0   -241.80069    2.0000005    34.648418    1.0000002 
     104            0   -241.80072    2.0000005    34.648418    1.0000002 
     105            0   -241.80073    2.0000005    34.648418    1.0000002 
     106            0   -241.80075    2.0000005    34.648418    1.0000002 
     107            0   -241.80077    2.0000005    34.648418    1.0000002 
     108            0   -241.80079    2.0000005    34.648418    1.0000002 
     109            0   -241.80084    2.0000005    34.648418    1.0000002 
     110            0   -241.80087    2.0000005    34.648418    1.0000002 
     111            0   -241.80087    2.0000005    34.648418    1.0000002 
     112            0   -241.80088    2.0000005    34.648418    1.0000002 
     113            0   -241.80089    2.0000005    34.648418    1.0000002 
     114            0    -241.8009    2.0000005    34.648418    1.0000002 
     115            0   -241.80092    2.0000005    34.648418    1.0000002 
     116            0   -241.80092    2.0000005    34.648418    1.0000002 
     117            0   -241.80093    2.0000005    34.648418    1.0000002 
     118            0   -241.80093    2.0000005    34.648418    1.0000002 
     119            0   -241.80094    2.0000005    34.648418    1.0000002 
     120            0   -241.80096    2.0000005    34.648418    1.0000002 
     121            0   -241.80096    2.0000005    34.648418    1.0000002 
Loop time of 0.00415096 on 1 procs for 19 steps with 82 atoms

Minimization stats:
  Stopping criterion = linesearch alpha is zero
  Energy initial, next-to-last, final = 
        -241.800668212     -241.800962437     -241.800962437
  Force two-norm initial, final = 0.0592219 0.0293251
  Force max component initial, final = 0.017686 0.00639672
  Final line search alpha, max atom move = 3.8147e-06 2.44016e-08
  Iterations, force evaluations = 19 150

Pair  time (%) = 0.00353908 (85.2593)
Neigh time (%) = 0 (0)
Comm  time (%) = 0.000190802 (4.59657)
Outpt time (%) = 0.000111923 (2.69631)
Other time (%) = 0.000309155 (7.44779)

Nlocal:    82 ave 82 max 82 min
Histogram: 1 0 0 0 0 0 0 0 0 0
Nghost:    185 ave 185 max 185 min
Histogram: 1 0 0 0 0 0 0 0 0 0
Neighs:    718 ave 718 max 718 min
Histogram: 1 0 0 0 0 0 0 0 0 0

Total # of neighbors = 718
Ave neighs/atom = 8.7561
Neighbor list builds = 0
Dangerous builds = 0
        # write_dump all atom ${dumpfile}
        next i
jump SELF loop1
        displace_atoms upper move ${xstep1} 0.0 0.0 units lattice
        displace_atoms upper move 0.00333333333333333 0.0 0.0 units lattice
        min_style ${style}
        min_style cg
        minimize ${etol} ${ftol} ${maxiter} ${maxeval}
        minimize 1e-12 ${ftol} ${maxiter} ${maxeval}
        minimize 1e-12 1e-08 ${maxiter} ${maxeval}
        minimize 1e-12 1e-08 10000 ${maxeval}
        minimize 1e-12 1e-08 10000 20000
WARNING: Resetting reneighboring criteria during minimization (../min.cpp:168)
Memory usage per processor = 3.35161 Mbytes
Step Temp PotEng Lx Ly Lz 
     121            0   -241.79063    2.0000005    34.650062    1.0000002 
     122            0   -241.79065    2.0000005    34.650062    1.0000002 
     123            0   -241.79066    2.0000005    34.650062    1.0000002 
     124            0   -241.79067    2.0000005    34.650062    1.0000002 
     125            0   -241.79068    2.0000005    34.650062    1.0000002 
     126            0    -241.7907    2.0000005    34.650062    1.0000002 
     127            0    -241.7907    2.0000005    34.650062    1.0000002 
     128            0    -241.7907    2.0000005    34.650062    1.0000002 
Loop time of 0.0025851 on 1 procs for 7 steps with 82 atoms

Minimization stats:
  Stopping criterion = linesearch alpha is zero
  Energy initial, next-to-last, final = 
        -241.790632796     -241.790698352     -241.790698352
  Force two-norm initial, final = 0.0740455 0.0177301
  Force max component initial, final = 0.0342438 0.00371897
  Final line search alpha, max atom move = 3.05176e-05 1.13494e-07
  Iterations, force evaluations = 7 61

Pair  time (%) = 0.00140841 (54.4816)
Neigh time (%) = 0 (0)
Comm  time (%) = 7.38417e-05 (2.85643)
Outpt time (%) = 4.489e-05 (1.73649)
Other time (%) = 0.00105797 (40.9255)

Nlocal:    82 ave 82 max 82 min
Histogram: 1 0 0 0 0 0 0 0 0 0
Nghost:    185 ave 185 max 185 min
Histogram: 1 0 0 0 0 0 0 0 0 0
Neighs:    718 ave 718 max 718 min
Histogram: 1 0 0 0 0 0 0 0 0 0

Total # of neighbors = 718
Ave neighs/atom = 8.7561
Neighbor list builds = 0
Dangerous builds = 0
        # write_dump all atom ${dumpfile}
        next i
jump SELF loop1
        displace_atoms upper move ${xstep1} 0.0 0.0 units lattice
        displace_atoms upper move 0.00333333333333333 0.0 0.0 units lattice
        min_style ${style}
        min_style cg
        minimize ${etol} ${ftol} ${maxiter} ${maxeval}
        minimize 1e-12 ${ftol} ${maxiter} ${maxeval}
        minimize 1e-12 1e-08 ${maxiter} ${maxeval}
        minimize 1e-12 1e-08 10000 ${maxeval}
        minimize 1e-12 1e-08 10000 20000
WARNING: Resetting reneighboring criteria during minimization (../min.cpp:168)
Memory usage per processor = 3.35161 Mbytes
Step Temp PotEng Lx Ly Lz 
     128            0   -241.78016    2.0000005    34.650609    1.0000002 
     129            0   -241.78019    2.0000005    34.650609    1.0000002 
     130            0   -241.78019    2.0000005    34.650609    1.0000002 
Loop time of 0.000807912 on 1 procs for 2 steps with 82 atoms

Minimization stats:
  Stopping criterion = linesearch alpha is zero
  Energy initial, next-to-last, final = 
        -241.780159877     -241.780185494     -241.780185494
  Force two-norm initial, final = 0.0783816 0.0362106
  Force max component initial, final = 0.0381881 0.0154255
  Final line search alpha, max atom move = 7.62939e-06 1.17687e-07
  Iterations, force evaluations = 2 27

Pair  time (%) = 0.000707972 (87.6298)
Neigh time (%) = 0 (0)
Comm  time (%) = 3.52133e-05 (4.35856)
Outpt time (%) = 9.02661e-06 (1.11728)
Other time (%) = 5.57001e-05 (6.89432)

Nlocal:    82 ave 82 max 82 min
Histogram: 1 0 0 0 0 0 0 0 0 0
Nghost:    185 ave 185 max 185 min
Histogram: 1 0 0 0 0 0 0 0 0 0
Neighs:    718 ave 718 max 718 min
Histogram: 1 0 0 0 0 0 0 0 0 0

Total # of neighbors = 718
Ave neighs/atom = 8.7561
Neighbor list builds = 0
Dangerous builds = 0
        # write_dump all atom ${dumpfile}
        next i
jump SELF loop1
        displace_atoms upper move ${xstep1} 0.0 0.0 units lattice
        displace_atoms upper move 0.00333333333333333 0.0 0.0 units lattice
        min_style ${style}
        min_style cg
        minimize ${etol} ${ftol} ${maxiter} ${maxeval}
        minimize 1e-12 ${ftol} ${maxiter} ${maxeval}
        minimize 1e-12 1e-08 ${maxiter} ${maxeval}
        minimize 1e-12 1e-08 10000 ${maxeval}
        minimize 1e-12 1e-08 10000 20000
WARNING: Resetting reneighboring criteria during minimization (../min.cpp:168)
Memory usage per processor = 3.35161 Mbytes
Step Temp PotEng Lx Ly Lz 
     130            0    -241.7694    2.0000005    34.650624    1.0000002 
     131            0   -241.76943    2.0000005    34.650624    1.0000002 
     132            0   -241.76944    2.0000005    34.650624    1.0000002 
     133            0   -241.76945    2.0000005    34.650624    1.0000002 
     134            0   -241.76946    2.0000005    34.650624    1.0000002 
     135            0   -241.76947    2.0000005    34.650624    1.0000002 
     136            0   -241.76948    2.0000005    34.650624    1.0000002 
     137            0   -241.76949    2.0000005    34.650624    1.0000002 
     138            0    -241.7695    2.0000005    34.650624    1.0000002 
     139            0   -241.76952    2.0000005    34.650624    1.0000002 
     140            0   -241.76953    2.0000005    34.650624    1.0000002 
     141            0   -241.76954    2.0000005    34.650624    1.0000002 
     142            0   -241.76954    2.0000005    34.650624    1.0000002 
     143            0   -241.76954    2.0000005    34.650624    1.0000002 
Loop time of 0.003015 on 1 procs for 13 steps with 82 atoms

Minimization stats:
  Stopping criterion = linesearch alpha is zero
  Energy initial, next-to-last, final = 
        -241.769400575      -241.76954203      -241.76954203
  Force two-norm initial, final = 0.111173 0.0167159
  Force max component initial, final = 0.0547792 0.00301505
  Final line search alpha, max atom move = 3.05176e-05 9.20122e-08
  Iterations, force evaluations = 13 110

Pair  time (%) = 0.00227618 (75.4952)
Neigh time (%) = 0 (0)
Comm  time (%) = 0.000121741 (4.03784)
Outpt time (%) = 0.000381675 (12.6592)
Other time (%) = 0.000235405 (7.80779)

Nlocal:    82 ave 82 max 82 min
Histogram: 1 0 0 0 0 0 0 0 0 0
Nghost:    185 ave 185 max 185 min
[...]

Total # of neighbors = 718
Ave neighs/atom = 8.7561
Neighbor list builds = 0
Dangerous builds = 0
        # write_dump all atom ${dumpfile}
        next i
jump SELF loop1
        displace_atoms upper move ${xstep1} 0.0 0.0 units lattice
        displace_atoms upper move 0.00333333333333333 0.0 0.0 units lattice
        min_style ${style}
        min_style cg
        minimize ${etol} ${ftol} ${maxiter} ${maxeval}
        minimize 1e-12 ${ftol} ${maxiter} ${maxeval}
        minimize 1e-12 1e-08 ${maxiter} ${maxeval}
        minimize 1e-12 1e-08 10000 ${maxeval}
        minimize 1e-12 1e-08 10000 20000
WARNING: Resetting reneighboring criteria during minimization (../min.cpp:168)
Memory usage per processor = 3.35161 Mbytes
Step Temp PotEng Lx Ly Lz 
    1117            0   -241.98257    2.0000005    34.662148    1.0000002 
    1118            0   -241.98257    2.0000005    34.662148    1.0000002 
Loop time of 0.000377003 on 1 procs for 1 steps with 82 atoms

Minimization stats:
  Stopping criterion = linesearch alpha is zero
  Energy initial, next-to-last, final = 
        -241.982571473     -241.982571473     -241.982571473
  Force two-norm initial, final = 0.0421352 0.0421352
  Force max component initial, final = 0.0114915 0.0114915
  Final line search alpha, max atom move = 3.8147e-06 4.38367e-08
  Iterations, force evaluations = 1 19

Pair  time (%) = 0.000311024 (82.4991)
Neigh time (%) = 0 (0)
Comm  time (%) = 1.57004e-05 (4.16452)
Outpt time (%) = 0 (0)
Other time (%) = 5.02787e-05 (13.3364)

Nlocal:    82 ave 82 max 82 min
Histogram: 1 0 0 0 0 0 0 0 0 0
Nghost:    185 ave 185 max 185 min
Histogram: 1 0 0 0 0 0 0 0 0 0
Neighs:    718 ave 718 max 718 min
Histogram: 1 0 0 0 0 0 0 0 0 0

Total # of neighbors = 718
Ave neighs/atom = 8.7561
Neighbor list builds = 0
Dangerous builds = 0
        # write_dump all atom ${dumpfile}
        next i
jump SELF loop1
        displace_atoms upper move ${xstep1} 0.0 0.0 units lattice
        displace_atoms upper move 0.00333333333333333 0.0 0.0 units lattice
        min_style ${style}
        min_style cg
        minimize ${etol} ${ftol} ${maxiter} ${maxeval}
        minimize 1e-12 ${ftol} ${maxiter} ${maxeval}
        minimize 1e-12 1e-08 ${maxiter} ${maxeval}
        minimize 1e-12 1e-08 10000 ${maxeval}
        minimize 1e-12 1e-08 10000 20000
WARNING: Resetting reneighboring criteria during minimization (../min.cpp:168)
Memory usage per processor = 3.35161 Mbytes
Step Temp PotEng Lx Ly Lz 
    1118            0   -241.98576    2.0000005    34.662148    1.0000002 
    1119            0   -241.98576    2.0000005    34.662148    1.0000002 
Loop time of 0.000357963 on 1 procs for 1 steps with 82 atoms

Minimization stats:
  Stopping criterion = linesearch alpha is zero
  Energy initial, next-to-last, final = 
        -241.985755215     -241.985755215     -241.985755215
  Force two-norm initial, final = 0.0360633 0.0360633
  Force max component initial, final = 0.0113012 0.0113012
  Final line search alpha, max atom move = 7.62939e-06 8.62216e-08
  Iterations, force evaluations = 1 18

Pair  time (%) = 0.000297933 (83.2302)
Neigh time (%) = 0 (0)
Comm  time (%) = 1.60093e-05 (4.47234)
Outpt time (%) = 0 (0)
Other time (%) = 4.40204e-05 (12.2975)

Nlocal:    82 ave 82 max 82 min
Histogram: 1 0 0 0 0 0 0 0 0 0
Nghost:    185 ave 185 max 185 min
Histogram: 1 0 0 0 0 0 0 0 0 0
Neighs:    718 ave 718 max 718 min
Histogram: 1 0 0 0 0 0 0 0 0 0

Total # of neighbors = 718
Ave neighs/atom = 8.7561
Neighbor list builds = 0
Dangerous builds = 0
        # write_dump all atom ${dumpfile}
        next i
jump SELF loop1
        displace_atoms upper move ${xstep1} 0.0 0.0 units lattice
        displace_atoms upper move 0.00333333333333333 0.0 0.0 units lattice
        min_style ${style}
        min_style cg
        minimize ${etol} ${ftol} ${maxiter} ${maxeval}
        minimize 1e-12 ${ftol} ${maxiter} ${maxeval}
        minimize 1e-12 1e-08 ${maxiter} ${maxeval}
        minimize 1e-12 1e-08 10000 ${maxeval}
        minimize 1e-12 1e-08 10000 20000
WARNING: Resetting reneighboring criteria during minimization (../min.cpp:168)
Memory usage per processor = 3.35161 Mbytes
Step Temp PotEng Lx Ly Lz 
    1119            0   -241.98861    2.0000005    34.662148    1.0000002 
    1120            0   -241.98861    2.0000005    34.662148    1.0000002 
    1121            0   -241.98861    2.0000005    34.662148    1.0000002 
Loop time of 0.00062592 on 1 procs for 2 steps with 82 atoms

Minimization stats:
  Stopping criterion = linesearch alpha is zero
  Energy initial, next-to-last, final = 
        -241.988608262     -241.988614132     -241.988614132
  Force two-norm initial, final = 0.0487418 0.0329518
  Force max component initial, final = 0.0168191 0.00832807
  Final line search alpha, max atom move = 7.62939e-06 6.35381e-08
  Iterations, force evaluations = 2 27

Pair  time (%) = 0.00053166 (84.9407)
Neigh time (%) = 0 (0)
Comm  time (%) = 2.20586e-05 (3.52419)
Outpt time (%) = 6.1125e-06 (0.976563)
Other time (%) = 6.60882e-05 (10.5586)

Nlocal:    82 ave 82 max 82 min
Histogram: 1 0 0 0 0 0 0 0 0 0
Nghost:    185 ave 185 max 185 min
Histogram: 1 0 0 0 0 0 0 0 0 0
Neighs:    718 ave 718 max 718 min
Histogram: 1 0 0 0 0 0 0 0 0 0

Total # of neighbors = 718
Ave neighs/atom = 8.7561
Neighbor list builds = 0
Dangerous builds = 0
        # write_dump all atom ${dumpfile}
        next i
jump SELF loop1
        displace_atoms upper move ${xstep1} 0.0 0.0 units lattice
        displace_atoms upper move 0.00333333333333333 0.0 0.0 units lattice
        min_style ${style}
        min_style cg
        minimize ${etol} ${ftol} ${maxiter} ${maxeval}
        minimize 1e-12 ${ftol} ${maxiter} ${maxeval}
        minimize 1e-12 1e-08 ${maxiter} ${maxeval}
        minimize 1e-12 1e-08 10000 ${maxeval}
        minimize 1e-12 1e-08 10000 20000
WARNING: Resetting reneighboring criteria during minimization (../min.cpp:168)
Memory usage per processor = 3.35161 Mbytes
Step Temp PotEng Lx Ly Lz 
    1121            0   -241.99113    2.0000005    34.662135    1.0000002 
    1122            0   -241.99115    2.0000005    34.662135    1.0000002 
    1123            0   -241.99115    2.0000005    34.662135    1.0000002 
Loop time of 0.00061304 on 1 procs for 2 steps with 82 atoms

Minimization stats:
  Stopping criterion = linesearch alpha is zero
  Energy initial, next-to-last, final = 
         -241.99113035     -241.991147171     -241.991147171
  Force two-norm initial, final = 0.0485583 0.0239373
  Force max component initial, final = 0.0194855 0.00650734
  Final line search alpha, max atom move = 1.52588e-05 9.92941e-08
  Iterations, force evaluations = 2 25

Pair  time (%) = 0.000518801 (84.6277)
Neigh time (%) = 0 (0)
Comm  time (%) = 3.25998e-05 (5.31773)
Outpt time (%) = 6.06757e-06 (0.989751)
Other time (%) = 5.55709e-05 (9.06481)

Nlocal:    82 ave 82 max 82 min
Histogram: 1 0 0 0 0 0 0 0 0 0
Nghost:    185 ave 185 max 185 min
Histogram: 1 0 0 0 0 0 0 0 0 0
Neighs:    718 ave 718 max 718 min
Histogram: 1 0 0 0 0 0 0 0 0 0

Total # of neighbors = 718
Ave neighs/atom = 8.7561
Neighbor list builds = 0
Dangerous builds = 0
        # write_dump all atom ${dumpfile}
        next i
jump SELF loop1
        displace_atoms upper move ${xstep1} 0.0 0.0 units lattice
        displace_atoms upper move 0.00333333333333333 0.0 0.0 units lattice
        min_style ${style}
        min_style cg
        minimize ${etol} ${ftol} ${maxiter} ${maxeval}
        minimize 1e-12 ${ftol} ${maxiter} ${maxeval}
        minimize 1e-12 1e-08 ${maxiter} ${maxeval}
        minimize 1e-12 1e-08 10000 ${maxeval}
        minimize 1e-12 1e-08 10000 20000
WARNING: Resetting reneighboring criteria during minimization (../min.cpp:168)
Memory usage per processor = 3.35161 Mbytes
Step Temp PotEng Lx Ly Lz 
    1123            0   -241.99334    2.0000005     34.66211    1.0000002 
    1124            0   -241.99335    2.0000005     34.66211    1.0000002 
    1125            0   -241.99335    2.0000005     34.66211    1.0000002 
    1126            0   -241.99335    2.0000005     34.66211    1.0000002 
Loop time of 0.0205491 on 1 procs for 3 steps with 82 atoms

Minimization stats:
  Stopping criterion = linesearch alpha is zero
  Energy initial, next-to-last, final = 
        -241.993335644     -241.993351155     -241.993351155
  Force two-norm initial, final = 0.0301831 0.0211806
  Force max component initial, final = 0.00931027 0.00513947
  Final line search alpha, max atom move = 1.52588e-05 7.8422e-08
  Iterations, force evaluations = 3 33

Pair  time (%) = 0.000565225 (2.75061)
Neigh time (%) = 0 (0)
Comm  time (%) = 6.30424e-05 (0.306789)
Outpt time (%) = 0.01936 (94.2137)
Other time (%) = 0.000560773 (2.72894)

Nlocal:    82 ave 82 max 82 min
Histogram: 1 0 0 0 0 0 0 0 0 0
Nghost:    185 ave 185 max 185 min
Histogram: 1 0 0 0 0 0 0 0 0 0
Neighs:    718 ave 718 max 718 min
Histogram: 1 0 0 0 0 0 0 0 0 0

Total # of neighbors = 718
Ave neighs/atom = 8.7561
Neighbor list builds = 0
Dangerous builds = 0
        # write_dump all atom ${dumpfile}
        next i
jump SELF loop1
        displace_atoms upper move ${xstep1} 0.0 0.0 units lattice
        displace_atoms upper move 0.00333333333333333 0.0 0.0 units lattice
        min_style ${style}
        min_style cg
        minimize ${etol} ${ftol} ${maxiter} ${maxeval}
        minimize 1e-12 ${ftol} ${maxiter} ${maxeval}
        minimize 1e-12 1e-08 ${maxiter} ${maxeval}
        minimize 1e-12 1e-08 10000 ${maxeval}
        minimize 1e-12 1e-08 10000 20000
WARNING: Resetting reneighboring criteria during minimization (../min.cpp:168)
Memory usage per processor = 3.35161 Mbytes
Step Temp PotEng Lx Ly Lz 
    1126            0   -241.99521    2.0000005    34.662049    1.0000002 
    1127            0   -241.99522    2.0000005    34.662049    1.0000002 
    1128            0   -241.99523    2.0000005    34.662049    1.0000002 
    1129            0   -241.99523    2.0000005    34.662049    1.0000002 
Loop time of 0.000648099 on 1 procs for 3 steps with 82 atoms

Minimization stats:
  Stopping criterion = linesearch alpha is zero
  Energy initial, next-to-last, final = 
        -241.995207043     -241.995227181     -241.995227181
  Force two-norm initial, final = 0.0207262 0.0189491
  Force max component initial, final = 0.00513947 0.00568782
  Final line search alpha, max atom move = 1.52588e-05 8.67893e-08
  Iterations, force evaluations = 3 30

Pair  time (%) = 0.000530108 (81.7943)
Neigh time (%) = 0 (0)
Comm  time (%) = 3.90142e-05 (6.01978)
Outpt time (%) = 1.30272e-05 (2.01007)
Other time (%) = 6.59499e-05 (10.1759)

Nlocal:    82 ave 82 max 82 min
Histogram: 1 0 0 0 0 0 0 0 0 0
Nghost:    185 ave 185 max 185 min
Histogram: 1 0 0 0 0 0 0 0 0 0
Neighs:    718 ave 718 max 718 min
Histogram: 1 0 0 0 0 0 0 0 0 0

Total # of neighbors = 718
Ave neighs/atom = 8.7561
Neighbor list builds = 0
Dangerous builds = 0
        # write_dump all atom ${dumpfile}
        next i
jump SELF loop1
        displace_atoms upper move ${xstep1} 0.0 0.0 units lattice
        displace_atoms upper move 0.00333333333333333 0.0 0.0 units lattice
        min_style ${style}
        min_style cg
        minimize ${etol} ${ftol} ${maxiter} ${maxeval}
        minimize 1e-12 ${ftol} ${maxiter} ${maxeval}
        minimize 1e-12 1e-08 ${maxiter} ${maxeval}
        minimize 1e-12 1e-08 10000 ${maxeval}
        minimize 1e-12 1e-08 10000 20000
WARNING: Resetting reneighboring criteria during minimization (../min.cpp:168)
Memory usage per processor = 3.35161 Mbytes
Step Temp PotEng Lx Ly Lz 
    1129            0   -241.99675    2.0000005     34.66184    1.0000002 
    1130            0   -241.99676    2.0000005     34.66184    1.0000002 
    1131            0   -241.99677    2.0000005     34.66184    1.0000002 
    1132            0   -241.99679    2.0000005     34.66184    1.0000002 
    1133            0   -241.99679    2.0000005     34.66184    1.0000002 
    1134            0   -241.99679    2.0000005     34.66184    1.0000002 
    1135            0   -241.99679    2.0000005     34.66184    1.0000002 
Loop time of 0.00135607 on 1 procs for 6 steps with 82 atoms

Minimization stats:
  Stopping criterion = linesearch alpha is zero
  Energy initial, next-to-last, final = 
         -241.99674765      -241.99678734      -241.99678734
  Force two-norm initial, final = 0.0225583 0.0848415
  Force max component initial, final = 0.00624211 0.020884
  Final line search alpha, max atom move = 9.53674e-07 1.99165e-08
  Iterations, force evaluations = 6 71

Pair  time (%) = 0.00111125 (81.946)
Neigh time (%) = 0 (0)
Comm  time (%) = 8.45984e-05 (6.23849)
Outpt time (%) = 3.08411e-05 (2.2743)
Other time (%) = 0.000129386 (9.5412)

Nlocal:    82 ave 82 max 82 min
Histogram: 1 0 0 0 0 0 0 0 0 0
Nghost:    185 ave 185 max 185 min
Histogram: 1 0 0 0 0 0 0 0 0 0
Neighs:    718 ave 718 max 718 min
Histogram: 1 0 0 0 0 0 0 0 0 0

Total # of neighbors = 718
Ave neighs/atom = 8.7561
Neighbor list builds = 0
Dangerous builds = 0
        # write_dump all atom ${dumpfile}
        next i
jump SELF loop1
        displace_atoms upper move ${xstep1} 0.0 0.0 units lattice
        displace_atoms upper move 0.00333333333333333 0.0 0.0 units lattice
        min_style ${style}
        min_style cg
        minimize ${etol} ${ftol} ${maxiter} ${maxeval}
        minimize 1e-12 ${ftol} ${maxiter} ${maxeval}
        minimize 1e-12 1e-08 ${maxiter} ${maxeval}
        minimize 1e-12 1e-08 10000 ${maxeval}
        minimize 1e-12 1e-08 10000 20000
WARNING: Resetting reneighboring criteria during minimization (../min.cpp:168)
Memory usage per processor = 3.35161 Mbytes
Step Temp PotEng Lx Ly Lz 
    1135            0   -241.99797    2.0000005    34.661214    1.0000002 
    1136            0   -241.99797    2.0000005    34.661214    1.0000002 
Loop time of 0.00045811 on 1 procs for 1 steps with 82 atoms

Minimization stats:
  Stopping criterion = linesearch alpha is zero
  Energy initial, next-to-last, final = 
        -241.997972557     -241.997972557     -241.997972557
  Force two-norm initial, final = 0.0841418 0.0841418
  Force max component initial, final = 0.020884 0.020884
  Final line search alpha, max atom move = 9.53674e-07 1.99165e-08
  Iterations, force evaluations = 1 21

Pair  time (%) = 0.000355402 (77.5802)
Neigh time (%) = 0 (0)
Comm  time (%) = 2.90645e-05 (6.34444)
Outpt time (%) = 0 (0)
Other time (%) = 7.36429e-05 (16.0754)

Nlocal:    82 ave 82 max 82 min
Histogram: 1 0 0 0 0 0 0 0 0 0
Nghost:    185 ave 185 max 185 min
Histogram: 1 0 0 0 0 0 0 0 0 0
Neighs:    718 ave 718 max 718 min
Histogram: 1 0 0 0 0 0 0 0 0 0

Total # of neighbors = 718
Ave neighs/atom = 8.7561
Neighbor list builds = 0
Dangerous builds = 0
        # write_dump all atom ${dumpfile}
        next i
jump SELF loop1
        displace_atoms upper move ${xstep1} 0.0 0.0 units lattice
        displace_atoms upper move 0.00333333333333333 0.0 0.0 units lattice
        min_style ${style}
        min_style cg
        minimize ${etol} ${ftol} ${maxiter} ${maxeval}
        minimize 1e-12 ${ftol} ${maxiter} ${maxeval}
        minimize 1e-12 1e-08 ${maxiter} ${maxeval}
        minimize 1e-12 1e-08 10000 ${maxeval}
        minimize 1e-12 1e-08 10000 20000
WARNING: Resetting reneighboring criteria during minimization (../min.cpp:168)
Memory usage per processor = 3.35161 Mbytes
Step Temp PotEng Lx Ly Lz 
    1136            0   -241.99883    2.0000005    34.661214    1.0000002 
    1137            0   -241.99883    2.0000005    34.661214    1.0000002 
Loop time of 0.000410069 on 1 procs for 1 steps with 82 atoms

Minimization stats:
  Stopping criterion = linesearch alpha is zero
  Energy initial, next-to-last, final = 
        -241.998828569     -241.998828569     -241.998828569
  Force two-norm initial, final = 0.0845384 0.0845384
  Force max component initial, final = 0.020884 0.020884
  Final line search alpha, max atom move = 9.53674e-07 1.99165e-08
  Iterations, force evaluations = 1 21

Pair  time (%) = 0.000342466 (83.5141)
Neigh time (%) = 0 (0)
Comm  time (%) = 2.77819e-05 (6.77494)
Outpt time (%) = 0 (0)
Other time (%) = 3.98216e-05 (9.71094)

Nlocal:    82 ave 82 max 82 min
Histogram: 1 0 0 0 0 0 0 0 0 0
Nghost:    185 ave 185 max 185 min
Histogram: 1 0 0 0 0 0 0 0 0 0
Neighs:    718 ave 718 max 718 min
Histogram: 1 0 0 0 0 0 0 0 0 0

Total # of neighbors = 718
Ave neighs/atom = 8.7561
Neighbor list builds = 0
Dangerous builds = 0
        # write_dump all atom ${dumpfile}
        next i
jump SELF loop1
        displace_atoms upper move ${xstep1} 0.0 0.0 units lattice
        displace_atoms upper move 0.00333333333333333 0.0 0.0 units lattice
        min_style ${style}
        min_style cg
        minimize ${etol} ${ftol} ${maxiter} ${maxeval}
        minimize 1e-12 ${ftol} ${maxiter} ${maxeval}
        minimize 1e-12 1e-08 ${maxiter} ${maxeval}
        minimize 1e-12 1e-08 10000 ${maxeval}
        minimize 1e-12 1e-08 10000 20000
WARNING: Resetting reneighboring criteria during minimization (../min.cpp:168)
Memory usage per processor = 3.35161 Mbytes
Step Temp PotEng Lx Ly Lz 
    1137            0   -241.99934    2.0000005    34.661214    1.0000002 
    1138            0   -241.99934    2.0000005    34.661214    1.0000002 
Loop time of 0.000408943 on 1 procs for 1 steps with 82 atoms

Minimization stats:
  Stopping criterion = linesearch alpha is zero
  Energy initial, next-to-last, final = 
        -241.999335184     -241.999335184     -241.999335184
  Force two-norm initial, final = 0.0851242 0.0851242
  Force max component initial, final = 0.020884 0.020884
  Final line search alpha, max atom move = 9.53674e-07 1.99165e-08
  Iterations, force evaluations = 1 21

Pair  time (%) = 0.000340953 (83.3742)
Neigh time (%) = 0 (0)
Comm  time (%) = 2.47571e-05 (6.05392)
Outpt time (%) = 0 (0)
Other time (%) = 4.32328e-05 (10.5718)

Nlocal:    82 ave 82 max 82 min
Histogram: 1 0 0 0 0 0 0 0 0 0
Nghost:    185 ave 185 max 185 min
Histogram: 1 0 0 0 0 0 0 0 0 0
Neighs:    718 ave 718 max 718 min
Histogram: 1 0 0 0 0 0 0 0 0 0

Total # of neighbors = 718
Ave neighs/atom = 8.7561
Neighbor list builds = 0
Dangerous builds = 0
        # write_dump all atom ${dumpfile}
        next i
jump SELF loop1
        displace_atoms upper move ${xstep1} 0.0 0.0 units lattice
        displace_atoms upper move 0.00333333333333333 0.0 0.0 units lattice
        min_style ${style}
        min_style cg
        minimize ${etol} ${ftol} ${maxiter} ${maxeval}
        minimize 1e-12 ${ftol} ${maxiter} ${maxeval}
        minimize 1e-12 1e-08 ${maxiter} ${maxeval}
        minimize 1e-12 1e-08 10000 ${maxeval}
        minimize 1e-12 1e-08 10000 20000
WARNING: Resetting reneighboring criteria during minimization (../min.cpp:168)
Memory usage per processor = 3.35161 Mbytes
Step Temp PotEng Lx Ly Lz 
    1138            0   -241.99951    2.0000005    34.661214    1.0000002 
    1139            0   -241.99951    2.0000005    34.661214    1.0000002 
Loop time of 0.000410061 on 1 procs for 1 steps with 82 atoms

Minimization stats:
  Stopping criterion = linesearch alpha is zero
  Energy initial, next-to-last, final = 
        -241.999509115     -241.999509115     -241.999509115
  Force two-norm initial, final = 0.0853875 0.0853875
  Force max component initial, final = 0.020884 0.020884
  Final line search alpha, max atom move = 9.53674e-07 1.99165e-08
  Iterations, force evaluations = 1 21

Pair  time (%) = 0.000343371 (83.7364)
Neigh time (%) = 0 (0)
Comm  time (%) = 2.21612e-05 (5.40435)
Outpt time (%) = 0 (0)
Other time (%) = 4.45296e-05 (10.8592)

Nlocal:    82 ave 82 max 82 min
Histogram: 1 0 0 0 0 0 0 0 0 0
Nghost:    185 ave 185 max 185 min
Histogram: 1 0 0 0 0 0 0 0 0 0
Neighs:    718 ave 718 max 718 min
Histogram: 1 0 0 0 0 0 0 0 0 0

Total # of neighbors = 718
Ave neighs/atom = 8.7561
Neighbor list builds = 0
Dangerous builds = 0
        # write_dump all atom ${dumpfile}
        next i
jump SELF loop1


