LAMMPS (28 Jun 2014)
# attempt at getting generalized stacking fault (GSF) energy curve

#file prefix
variable prefix string gsf_V_inter3new
variable dumpfile string ${prefix}.*.dump
variable dumpfile string gsf_V_inter3new.*.dump
variable restartfile string ${prefix}.*.equil
variable restartfile string gsf_V_inter3new.*.equil

#Mass (g/mol)
variable m equal 1

# lattice constant (in Angstroms) and orientation of axes (given by lattice vectors)
variable rho equal 0.9165
variable x1 equal 1
variable x2 equal 0
variable x3 equal 0
variable y1 equal 0
variable y2 equal 1
variable y3 equal 0
# length of lattice in different directions (using orientation of lattice vectors)
variable ax equal sqrt(${x1}*${x1}+${x2}*${x2}+${x3}*${x3})
variable ax equal sqrt(1*${x1}+${x2}*${x2}+${x3}*${x3})
variable ax equal sqrt(1*1+${x2}*${x2}+${x3}*${x3})
variable ax equal sqrt(1*1+0*${x2}+${x3}*${x3})
variable ax equal sqrt(1*1+0*0+${x3}*${x3})
variable ax equal sqrt(1*1+0*0+0*${x3})
variable ax equal sqrt(1*1+0*0+0*0)
variable ay equal sqrt(${y1}*${y1}+${y2}*${y2}+${y3}*${y3})
variable ay equal sqrt(0*${y1}+${y2}*${y2}+${y3}*${y3})
variable ay equal sqrt(0*0+${y2}*${y2}+${y3}*${y3})
variable ay equal sqrt(0*0+1*${y2}+${y3}*${y3})
variable ay equal sqrt(0*0+1*1+${y3}*${y3})
variable ay equal sqrt(0*0+1*1+0*${y3})
variable ay equal sqrt(0*0+1*1+0*0)
variable az equal 1

# size of box in lattice units
variable lxpos equal 1
variable lxneg equal -1*${lxpos}
variable lxneg equal -1*1
variable lypos equal 10
variable lyneg equal -1*${lypos}
variable lyneg equal -1*10
variable lzpos equal 0
variable lzneg equal -1

# Define minimization parameters and damping
variable etol equal 1.0e-12
variable ftol equal 1.0e-8
variable maxiter equal 10000
variable maxeval equal 20000
variable style string cg

# boundary conditions
dimension	2
boundary	p s p
atom_style	atomic

# create geometry
units		lj
lattice         hex ${rho}
lattice         hex 0.9165
Lattice spacing in x,y,z = 1.12245 1.94415 1.12245
region		myregion block ${lxneg} ${lxpos} ${lyneg} ${lypos} ${lzneg} ${lzpos} units lattice
region		myregion block -1 ${lxpos} ${lyneg} ${lypos} ${lzneg} ${lzpos} units lattice
region		myregion block -1 1 ${lyneg} ${lypos} ${lzneg} ${lzpos} units lattice
region		myregion block -1 1 -10 ${lypos} ${lzneg} ${lzpos} units lattice
region		myregion block -1 1 -10 10 ${lzneg} ${lzpos} units lattice
region		myregion block -1 1 -10 10 -1 ${lzpos} units lattice
region		myregion block -1 1 -10 10 -1 0 units lattice
create_box	3 myregion
Created orthogonal box = (-1.12245 -19.4415 -1.12245) to (1.12245 19.4415 0)
  1 by 1 by 1 MPI processor grid
create_atoms	1 box
Created 82 atoms

# define masses
mass * $m
mass * 1

# my fake/morse potential
pair_style      table linear 3001
pair_coeff      * * vpotential_inter3new dummy
neighbor	0.3 bin
neigh_modify	delay 5

# define groups
region	    upper block INF INF 0.01 ${lypos} INF INF units lattice
region	    upper block INF INF 0.01 10 INF INF units lattice
group		upper region upper
40 atoms in group upper

# Setup output
thermo 1
thermo_style custom step temp pe lx ly lz
thermo_modify norm no

# Compute initial state by relaxing box
min_style ${style}
min_style cg
minimize ${etol} ${ftol} ${maxiter} ${maxeval}
minimize 1e-12 ${ftol} ${maxiter} ${maxeval}
minimize 1e-12 1e-08 ${maxiter} ${maxeval}
minimize 1e-12 1e-08 10000 ${maxeval}
minimize 1e-12 1e-08 10000 20000
WARNING: Resetting reneighboring criteria during minimization (../min.cpp:168)
Memory usage per processor = 3.35169 Mbytes
Step Temp PotEng Lx Ly Lz 
       0            0   -241.99993    2.2449075    38.890715    1.1224537 
       1            0   -241.99993    2.2449075    38.890715    1.1224537 
       2            0   -241.99993    2.2449075    38.890715    1.1224537 
Loop time of 0.000321894 on 1 procs for 2 steps with 82 atoms

Minimization stats:
  Stopping criterion = linesearch alpha is zero
  Energy initial, next-to-last, final = 
        -241.999927696     -241.999929863     -241.999929863
  Force two-norm initial, final = 0.000778805 0.00455994
  Force max component initial, final = 0.000389403 0.00179508
  Final line search alpha, max atom move = 0.000488281 8.76506e-07
  Iterations, force evaluations = 2 16

Pair  time (%) = 0.00025179 (78.2213)
Neigh time (%) = 0 (0)
Comm  time (%) = 2.39756e-05 (7.4483)
Outpt time (%) = 1.10836e-05 (3.44323)
Other time (%) = 3.5045e-05 (10.8871)

Nlocal:    82 ave 82 max 82 min
Histogram: 1 0 0 0 0 0 0 0 0 0
Nghost:    185 ave 185 max 185 min
Histogram: 1 0 0 0 0 0 0 0 0 0
Neighs:    718 ave 718 max 718 min
Histogram: 1 0 0 0 0 0 0 0 0 0

Total # of neighbors = 718
Ave neighs/atom = 8.7561
Neighbor list builds = 0
Dangerous builds = 0

# don't allow atoms to relax in x-direction
fix 2 all setforce 0.0 NULL 0.0

# GSF energy curve will have 100*2 steps
variable nsteps equal 300
variable sstep1 equal 1.
variable xstep1 equal ${sstep1}/(${ax}*${nsteps})
variable xstep1 equal 1/(${ax}*${nsteps})
variable xstep1 equal 1/(1*${nsteps})
variable xstep1 equal 1/(1*300)

variable i loop ${nsteps}
variable i loop 300
label loop1
        displace_atoms upper move ${xstep1} 0.0 0.0 units lattice
        displace_atoms upper move 0.00333333333333333 0.0 0.0 units lattice
        min_style ${style}
        min_style cg
        minimize ${etol} ${ftol} ${maxiter} ${maxeval}
        minimize 1e-12 ${ftol} ${maxiter} ${maxeval}
        minimize 1e-12 1e-08 ${maxiter} ${maxeval}
        minimize 1e-12 1e-08 10000 ${maxeval}
        minimize 1e-12 1e-08 10000 20000
WARNING: Resetting reneighboring criteria during minimization (../min.cpp:168)
Memory usage per processor = 3.35169 Mbytes
Step Temp PotEng Lx Ly Lz 
       2            0   -241.99976    2.2449075    38.890812    1.1224537 
       3            0   -241.99976    2.2449075    38.890812    1.1224537 
Loop time of 0.000206942 on 1 procs for 1 steps with 82 atoms

Minimization stats:
  Stopping criterion = linesearch alpha is zero
  Energy initial, next-to-last, final = 
        -241.999757399     -241.999757399     -241.999757399
  Force two-norm initial, final = 0.00478129 0.00478129
  Force max component initial, final = 0.00179508 0.00179508
  Final line search alpha, max atom move = 0.000488281 8.76506e-07
  Iterations, force evaluations = 1 12

Pair  time (%) = 0.000161001 (77.8001)
Neigh time (%) = 0 (0)
Comm  time (%) = 1.31301e-05 (6.34482)
Outpt time (%) = 0 (0)
Other time (%) = 3.2811e-05 (15.8551)

Nlocal:    82 ave 82 max 82 min
Histogram: 1 0 0 0 0 0 0 0 0 0
Nghost:    185 ave 185 max 185 min
Histogram: 1 0 0 0 0 0 0 0 0 0
Neighs:    718 ave 718 max 718 min
Histogram: 1 0 0 0 0 0 0 0 0 0

Total # of neighbors = 718
Ave neighs/atom = 8.7561
Neighbor list builds = 0
Dangerous builds = 0
        # write_dump all atom ${dumpfile}
        next i
jump SELF loop1
        displace_atoms upper move ${xstep1} 0.0 0.0 units lattice
        displace_atoms upper move 0.00333333333333333 0.0 0.0 units lattice
        min_style ${style}
        min_style cg
        minimize ${etol} ${ftol} ${maxiter} ${maxeval}
        minimize 1e-12 ${ftol} ${maxiter} ${maxeval}
        minimize 1e-12 1e-08 ${maxiter} ${maxeval}
        minimize 1e-12 1e-08 10000 ${maxeval}
        minimize 1e-12 1e-08 10000 20000
WARNING: Resetting reneighboring criteria during minimization (../min.cpp:168)
Memory usage per processor = 3.35169 Mbytes
Step Temp PotEng Lx Ly Lz 
       3            0   -241.99924    2.2449075    38.890812    1.1224537 
       4            0   -241.99924    2.2449075    38.890812    1.1224537 
Loop time of 0.000243072 on 1 procs for 1 steps with 82 atoms

Minimization stats:
  Stopping criterion = linesearch alpha is zero
  Energy initial, next-to-last, final = 
        -241.999241512     -241.999241512     -241.999241512
  Force two-norm initial, final = 0.00732734 0.00732734
  Force max component initial, final = 0.00286779 0.00286779
  Final line search alpha, max atom move = 0.00012207 3.50072e-07
  Iterations, force evaluations = 1 14

Pair  time (%) = 0.000195225 (80.3159)
Neigh time (%) = 0 (0)
Comm  time (%) = 1.34377e-05 (5.52829)
Outpt time (%) = 0 (0)
Other time (%) = 3.44089e-05 (14.1558)

Nlocal:    82 ave 82 max 82 min
Histogram: 1 0 0 0 0 0 0 0 0 0
Nghost:    185 ave 185 max 185 min
Histogram: 1 0 0 0 0 0 0 0 0 0
Neighs:    718 ave 718 max 718 min
Histogram: 1 0 0 0 0 0 0 0 0 0

Total # of neighbors = 718
Ave neighs/atom = 8.7561
Neighbor list builds = 0
Dangerous builds = 0
        # write_dump all atom ${dumpfile}
        next i
jump SELF loop1
        displace_atoms upper move ${xstep1} 0.0 0.0 units lattice
        displace_atoms upper move 0.00333333333333333 0.0 0.0 units lattice
        min_style ${style}
        min_style cg
        minimize ${etol} ${ftol} ${maxiter} ${maxeval}
        minimize 1e-12 ${ftol} ${maxiter} ${maxeval}
        minimize 1e-12 1e-08 ${maxiter} ${maxeval}
        minimize 1e-12 1e-08 10000 ${maxeval}
        minimize 1e-12 1e-08 10000 20000
WARNING: Resetting reneighboring criteria during minimization (../min.cpp:168)
Memory usage per processor = 3.35169 Mbytes
Step Temp PotEng Lx Ly Lz 
       4            0   -241.99838    2.2449075    38.890812    1.1224537 
       5            0   -241.99838    2.2449075    38.890812    1.1224537 
Loop time of 0.000302904 on 1 procs for 1 steps with 82 atoms

Minimization stats:
  Stopping criterion = linesearch alpha is zero
  Energy initial, next-to-last, final = 
        -241.998383655     -241.998383655     -241.998383655
  Force two-norm initial, final = 0.01366 0.01366
  Force max component initial, final = 0.00643821 0.00643821
  Final line search alpha, max atom move = 6.10352e-05 3.92957e-07
  Iterations, force evaluations = 1 15

Pair  time (%) = 0.000248181 (81.9337)
Neigh time (%) = 0 (0)
Comm  time (%) = 2.20952e-05 (7.29444)
Outpt time (%) = 0 (0)
Other time (%) = 3.26285e-05 (10.7719)

Nlocal:    82 ave 82 max 82 min
Histogram: 1 0 0 0 0 0 0 0 0 0
Nghost:    185 ave 185 max 185 min
Histogram: 1 0 0 0 0 0 0 0 0 0
Neighs:    718 ave 718 max 718 min
Histogram: 1 0 0 0 0 0 0 0 0 0

Total # of neighbors = 718
Ave neighs/atom = 8.7561
Neighbor list builds = 0
Dangerous builds = 0
        # write_dump all atom ${dumpfile}
        next i
jump SELF loop1
        displace_atoms upper move ${xstep1} 0.0 0.0 units lattice
        displace_atoms upper move 0.00333333333333333 0.0 0.0 units lattice
        min_style ${style}
        min_style cg
        minimize ${etol} ${ftol} ${maxiter} ${maxeval}
        minimize 1e-12 ${ftol} ${maxiter} ${maxeval}
        minimize 1e-12 1e-08 ${maxiter} ${maxeval}
        minimize 1e-12 1e-08 10000 ${maxeval}
        minimize 1e-12 1e-08 10000 20000
WARNING: Resetting reneighboring criteria during minimization (../min.cpp:168)
Memory usage per processor = 3.35169 Mbytes
Step Temp PotEng Lx Ly Lz 
       5            0   -241.99718    2.2449075    38.890812    1.1224537 
       6            0   -241.99718    2.2449075    38.890812    1.1224537 
Loop time of 0.000338914 on 1 procs for 1 steps with 82 atoms

Minimization stats:
  Stopping criterion = linesearch alpha is zero
  Energy initial, next-to-last, final = 
        -241.997184208     -241.997184208     -241.997184208
  Force two-norm initial, final = 0.0233072 0.0233072
  Force max component initial, final = 0.0114284 0.0114284
  Final line search alpha, max atom move = 1.52588e-05 1.74383e-07
  Iterations, force evaluations = 1 17

Pair  time (%) = 0.000281146 (82.9549)
Neigh time (%) = 0 (0)
Comm  time (%) = 2.32697e-05 (6.86595)
Outpt time (%) = 0 (0)
Other time (%) = 3.44986e-05 (10.1792)

Nlocal:    82 ave 82 max 82 min
Histogram: 1 0 0 0 0 0 0 0 0 0
Nghost:    185 ave 185 max 185 min
Histogram: 1 0 0 0 0 0 0 0 0 0
Neighs:    718 ave 718 max 718 min
Histogram: 1 0 0 0 0 0 0 0 0 0

Total # of neighbors = 718
Ave neighs/atom = 8.7561
Neighbor list builds = 0
Dangerous builds = 0
        # write_dump all atom ${dumpfile}
        next i
jump SELF loop1
        displace_atoms upper move ${xstep1} 0.0 0.0 units lattice
        displace_atoms upper move 0.00333333333333333 0.0 0.0 units lattice
        min_style ${style}
        min_style cg
        minimize ${etol} ${ftol} ${maxiter} ${maxeval}
        minimize 1e-12 ${ftol} ${maxiter} ${maxeval}
        minimize 1e-12 1e-08 ${maxiter} ${maxeval}
        minimize 1e-12 1e-08 10000 ${maxeval}
        minimize 1e-12 1e-08 10000 20000
WARNING: Resetting reneighboring criteria during minimization (../min.cpp:168)
Memory usage per processor = 3.35169 Mbytes
Step Temp PotEng Lx Ly Lz 
       6            0   -241.99564    2.2449075    38.890812    1.1224537 
       7            0   -241.99564    2.2449075    38.890812    1.1224537 
       8            0   -241.99564    2.2449075    38.890812    1.1224537 
       9            0   -241.99564    2.2449075    38.890812    1.1224537 
Loop time of 0.000650931 on 1 procs for 3 steps with 82 atoms

Minimization stats:
  Stopping criterion = linesearch alpha is zero
  Energy initial, next-to-last, final = 
        -241.995643567     -241.995644433     -241.995644433
  Force two-norm initial, final = 0.0359625 0.0312651
  Force max component initial, final = 0.0178361 0.015482
  Final line search alpha, max atom move = 7.62939e-06 1.18118e-07
  Iterations, force evaluations = 3 42

Pair  time (%) = 0.000534767 (82.1542)
Neigh time (%) = 0 (0)
Comm  time (%) = 4.75697e-05 (7.30796)
Outpt time (%) = 6.07874e-06 (0.933854)
Other time (%) = 6.25156e-05 (9.60403)

Nlocal:    82 ave 82 max 82 min
Histogram: 1 0 0 0 0 0 0 0 0 0
Nghost:    185 ave 185 max 185 min
Histogram: 1 0 0 0 0 0 0 0 0 0
Neighs:    718 ave 718 max 718 min
Histogram: 1 0 0 0 0 0 0 0 0 0

Total # of neighbors = 718
Ave neighs/atom = 8.7561
Neighbor list builds = 0
Dangerous builds = 0
        # write_dump all atom ${dumpfile}
        next i
jump SELF loop1
        displace_atoms upper move ${xstep1} 0.0 0.0 units lattice
        displace_atoms upper move 0.00333333333333333 0.0 0.0 units lattice
        min_style ${style}
        min_style cg
        minimize ${etol} ${ftol} ${maxiter} ${maxeval}
        minimize 1e-12 ${ftol} ${maxiter} ${maxeval}
        minimize 1e-12 1e-08 ${maxiter} ${maxeval}
        minimize 1e-12 1e-08 10000 ${maxeval}
        minimize 1e-12 1e-08 10000 20000
WARNING: Resetting reneighboring criteria during minimization (../min.cpp:168)
Memory usage per processor = 3.35169 Mbytes
Step Temp PotEng Lx Ly Lz 
       9            0   -241.99376    2.2449075    38.890809    1.1224537 
      10            0   -241.99377    2.2449075    38.890809    1.1224537 
      11            0   -241.99377    2.2449075    38.890809    1.1224537 
Loop time of 0.000476116 on 1 procs for 2 steps with 82 atoms

Minimization stats:
  Stopping criterion = linesearch alpha is zero
  Energy initial, next-to-last, final = 
        -241.993760152     -241.993767243     -241.993767243
  Force two-norm initial, final = 0.046848 0.0156938
  Force max component initial, final = 0.0233238 0.00704691
  Final line search alpha, max atom move = 3.05176e-05 2.15055e-07
  Iterations, force evaluations = 2 24

Pair  time (%) = 0.000385667 (81.0026)
Neigh time (%) = 0 (0)
Comm  time (%) = 3.23678e-05 (6.79829)
Outpt time (%) = 6.00528e-06 (1.26131)
Other time (%) = 5.20765e-05 (10.9378)

Nlocal:    82 ave 82 max 82 min
Histogram: 1 0 0 0 0 0 0 0 0 0
Nghost:    185 ave 185 max 185 min
Histogram: 1 0 0 0 0 0 0 0 0 0
Neighs:    718 ave 718 max 718 min
Histogram: 1 0 0 0 0 0 0 0 0 0

Total # of neighbors = 718
Ave neighs/atom = 8.7561
Neighbor list builds = 0
Dangerous builds = 0
        # write_dump all atom ${dumpfile}
        next i
jump SELF loop1
        displace_atoms upper move ${xstep1} 0.0 0.0 units lattice
        displace_atoms upper move 0.00333333333333333 0.0 0.0 units lattice
        min_style ${style}
        min_style cg
        minimize ${etol} ${ftol} ${maxiter} ${maxeval}
        minimize 1e-12 ${ftol} ${maxiter} ${maxeval}
        minimize 1e-12 1e-08 ${maxiter} ${maxeval}
        minimize 1e-12 1e-08 10000 ${maxeval}
        minimize 1e-12 1e-08 10000 20000
WARNING: Resetting reneighboring criteria during minimization (../min.cpp:168)
Memory usage per processor = 3.35169 Mbytes
Step Temp PotEng Lx Ly Lz 
      11            0   -241.99155    2.2449075    38.890789    1.1224537 
      12            0   -241.99155    2.2449075    38.890789    1.1224537 
      13            0   -241.99155    2.2449075    38.890789    1.1224537 
Loop time of 0.000536024 on 1 procs for 2 steps with 82 atoms

Minimization stats:
  Stopping criterion = linesearch alpha is zero
  Energy initial, next-to-last, final = 
        -241.991550751     -241.991550944     -241.991550944
  Force two-norm initial, final = 0.0288861 0.0279066
  Force max component initial, final = 0.0125837 0.0120304
  Final line search alpha, max atom move = 1.52588e-05 1.83569e-07
  Iterations, force evaluations = 2 29

Pair  time (%) = 0.000442315 (82.5177)
Neigh time (%) = 0 (0)
Comm  time (%) = 3.5828e-05 (6.68402)
Outpt time (%) = 5.9515e-06 (1.1103)
Other time (%) = 5.19297e-05 (9.68795)

Nlocal:    82 ave 82 max 82 min
Histogram: 1 0 0 0 0 0 0 0 0 0
Nghost:    185 ave 185 max 185 min
Histogram: 1 0 0 0 0 0 0 0 0 0
Neighs:    718 ave 718 max 718 min
Histogram: 1 0 0 0 0 0 0 0 0 0

Total # of neighbors = 718
Ave neighs/atom = 8.7561
Neighbor list builds = 0
Dangerous builds = 0
        # write_dump all atom ${dumpfile}
        next i
jump SELF loop1
        displace_atoms upper move ${xstep1} 0.0 0.0 units lattice
        displace_atoms upper move 0.00333333333333333 0.0 0.0 units lattice
        min_style ${style}
        min_style cg
        minimize ${etol} ${ftol} ${maxiter} ${maxeval}
        minimize 1e-12 ${ftol} ${maxiter} ${maxeval}
        minimize 1e-12 1e-08 ${maxiter} ${maxeval}
        minimize 1e-12 1e-08 10000 ${maxeval}
        minimize 1e-12 1e-08 10000 20000
WARNING: Resetting reneighboring criteria during minimization (../min.cpp:168)
Memory usage per processor = 3.35169 Mbytes
Step Temp PotEng Lx Ly Lz 
      13            0   -241.98899    2.2449075    38.890788    1.1224537 
      14            0     -241.989    2.2449075    38.890788    1.1224537 
      15            0     -241.989    2.2449075    38.890788    1.1224537 
      16            0     -241.989    2.2449075    38.890788    1.1224537 
      17            0     -241.989    2.2449075    38.890788    1.1224537 
      18            0     -241.989    2.2449075    38.890788    1.1224537 
Loop time of 0.00113498 on 1 procs for 5 steps with 82 atoms

Minimization stats:
  Stopping criterion = linesearch alpha is zero
  Energy initial, next-to-last, final = 
        -241.988993908     -241.989002581     -241.989002581
  Force two-norm initial, final = 0.0474892 0.0179964
  Force max component initial, final = 0.0226681 0.00742927
  Final line search alpha, max atom move = 3.05176e-05 2.26723e-07
  Iterations, force evaluations = 5 56

Pair  time (%) = 0.000926835 (81.6608)
Neigh time (%) = 0 (0)
Comm  time (%) = 7.27269e-05 (6.40776)
Outpt time (%) = 2.31108e-05 (2.03622)
Other time (%) = 0.000112309 (9.89524)

Nlocal:    82 ave 82 max 82 min
Histogram: 1 0 0 0 0 0 0 0 0 0
Nghost:    185 ave 185 max 185 min
Histogram: 1 0 0 0 0 0 0 0 0 0
Neighs:    718 ave 718 max 718 min
Histogram: 1 0 0 0 0 0 0 0 0 0

Total # of neighbors = 718
Ave neighs/atom = 8.7561
Neighbor list builds = 0
Dangerous builds = 0
        # write_dump all atom ${dumpfile}
        next i
jump SELF loop1
        displace_atoms upper move ${xstep1} 0.0 0.0 units lattice
        displace_atoms upper move 0.00333333333333333 0.0 0.0 units lattice
        min_style ${style}
        min_style cg
        minimize ${etol} ${ftol} ${maxiter} ${maxeval}
        minimize 1e-12 ${ftol} ${maxiter} ${maxeval}
        minimize 1e-12 1e-08 ${maxiter} ${maxeval}
        minimize 1e-12 1e-08 10000 ${maxeval}
        minimize 1e-12 1e-08 10000 20000
WARNING: Resetting reneighboring criteria during minimization (../min.cpp:168)
Memory usage per processor = 3.35169 Mbytes
Step Temp PotEng Lx Ly Lz 
      18            0   -241.98612    2.2449075    38.890779    1.1224537 
      19            0   -241.98612    2.2449075    38.890779    1.1224537 
      20            0   -241.98612    2.2449075    38.890779    1.1224537 
Loop time of 0.000467111 on 1 procs for 2 steps with 82 atoms

Minimization stats:
  Stopping criterion = linesearch alpha is zero
  Energy initial, next-to-last, final = 
        -241.986116539     -241.986124655     -241.986124655
  Force two-norm initial, final = 0.0357139 0.0260205
  Force max component initial, final = 0.0159347 0.00981051
  Final line search alpha, max atom move = 1.52588e-05 1.49697e-07
  Iterations, force evaluations = 2 24

Pair  time (%) = 0.000376956 (80.6995)
Neigh time (%) = 0 (0)
Comm  time (%) = 3.2814e-05 (7.02488)
Outpt time (%) = 5.88119e-06 (1.25906)
Other time (%) = 5.14596e-05 (11.0166)

Nlocal:    82 ave 82 max 82 min
Histogram: 1 0 0 0 0 0 0 0 0 0
Nghost:    185 ave 185 max 185 min
Histogram: 1 0 0 0 0 0 0 0 0 0
Neighs:    718 ave 718 max 718 min
Histogram: 1 0 0 0 0 0 0 0 0 0

Total # of neighbors = 718
Ave neighs/atom = 8.7561
Neighbor list builds = 0
Dangerous builds = 0
        # write_dump all atom ${dumpfile}
        next i
jump SELF loop1
        displace_atoms upper move ${xstep1} 0.0 0.0 units lattice
        displace_atoms upper move 0.00333333333333333 0.0 0.0 units lattice
        min_style ${style}
        min_style cg
        minimize ${etol} ${ftol} ${maxiter} ${maxeval}
        minimize 1e-12 ${ftol} ${maxiter} ${maxeval}
        minimize 1e-12 1e-08 ${maxiter} ${maxeval}
        minimize 1e-12 1e-08 10000 ${maxeval}
        minimize 1e-12 1e-08 10000 20000
WARNING: Resetting reneighboring criteria during minimization (../min.cpp:168)
Memory usage per processor = 3.35169 Mbytes
Step Temp PotEng Lx Ly Lz 
      20            0   -241.98295    2.2449075    38.890775    1.1224537 
      21            0   -241.98295    2.2449075    38.890775    1.1224537 
Loop time of 0.000388887 on 1 procs for 1 steps with 82 atoms

Minimization stats:
  Stopping criterion = linesearch alpha is zero
  Energy initial, next-to-last, final = 
        -241.982947755     -241.982947755     -241.982947755
  Force two-norm initial, final = 0.0215655 0.0215655
  Force max component initial, final = 0.00981051 0.00981051
  Final line search alpha, max atom move = 1.52588e-05 1.49697e-07
  Iterations, force evaluations = 1 17

Pair  time (%) = 0.000281061 (72.2731)
Neigh time (%) = 0 (0)
Comm  time (%) = 2.18617e-05 (5.62162)
Outpt time (%) = 0 (0)
Other time (%) = 8.59644e-05 (22.1052)

Nlocal:    82 ave 82 max 82 min
Histogram: 1 0 0 0 0 0 0 0 0 0
Nghost:    185 ave 185 max 185 min
Histogram: 1 0 0 0 0 0 0 0 0 0
Neighs:    718 ave 718 max 718 min
Histogram: 1 0 0 0 0 0 0 0 0 0

Total # of neighbors = 718
Ave neighs/atom = 8.7561
Neighbor list builds = 0
Dangerous builds = 0
        # write_dump all atom ${dumpfile}
        next i
jump SELF loop1
        displace_atoms upper move ${xstep1} 0.0 0.0 units lattice
        displace_atoms upper move 0.00333333333333333 0.0 0.0 units lattice
        min_style ${style}
        min_style cg
        minimize ${etol} ${ftol} ${maxiter} ${maxeval}
        minimize 1e-12 ${ftol} ${maxiter} ${maxeval}
        minimize 1e-12 1e-08 ${maxiter} ${maxeval}
        minimize 1e-12 1e-08 10000 ${maxeval}
        minimize 1e-12 1e-08 10000 20000
WARNING: Resetting reneighboring criteria during minimization (../min.cpp:168)
Memory usage per processor = 3.35169 Mbytes
Step Temp PotEng Lx Ly Lz 
      21            0   -241.97954    2.2449075    38.890775    1.1224537 
      22            0   -241.97954    2.2449075    38.890775    1.1224537 
      23            0   -241.97954    2.2449075    38.890775    1.1224537 
Loop time of 0.000466913 on 1 procs for 2 steps with 82 atoms

Minimization stats:
  Stopping criterion = linesearch alpha is zero
  Energy initial, next-to-last, final = 
        -241.979540328     -241.979544924     -241.979544924
  Force two-norm initial, final = 0.0247301 0.015921
  Force max component initial, final = 0.00981051 0.00601085
  Final line search alpha, max atom move = 3.05176e-05 1.83437e-07
  Iterations, force evaluations = 2 23

Pair  time (%) = 0.000378605 (81.0869)
Neigh time (%) = 0 (0)
Comm  time (%) = 2.91588e-05 (6.24502)
Outpt time (%) = 5.92123e-06 (1.26817)
Other time (%) = 5.32274e-05 (11.3999)

Nlocal:    82 ave 82 max 82 min
Histogram: 1 0 0 0 0 0 0 0 0 0
Nghost:    185 ave 185 max 185 min
Histogram: 1 0 0 0 0 0 0 0 0 0
Neighs:    718 ave 718 max 718 min
Histogram: 1 0 0 0 0 0 0 0 0 0

Total # of neighbors = 718
Ave neighs/atom = 8.7561
Neighbor list builds = 0
Dangerous builds = 0
        # write_dump all atom ${dumpfile}
        next i
jump SELF loop1
        displace_atoms upper move ${xstep1} 0.0 0.0 units lattice
        displace_atoms upper move 0.00333333333333333 0.0 0.0 units lattice
        min_style ${style}
        min_style cg
        minimize ${etol} ${ftol} ${maxiter} ${maxeval}
        minimize 1e-12 ${ftol} ${maxiter} ${maxeval}
        minimize 1e-12 1e-08 ${maxiter} ${maxeval}
        minimize 1e-12 1e-08 10000 ${maxeval}
        minimize 1e-12 1e-08 10000 20000
WARNING: Resetting reneighboring criteria during minimization (../min.cpp:168)
Memory usage per processor = 3.35169 Mbytes
Step Temp PotEng Lx Ly Lz 
      23            0   -241.97591    2.2449075    38.890775    1.1224537 
      24            0   -241.97592    2.2449075    38.890775    1.1224537 
      25            0   -241.97592    2.2449075    38.890775    1.1224537 
Loop time of 0.000475892 on 1 procs for 2 steps with 82 atoms

Minimization stats:
  Stopping criterion = linesearch alpha is zero
  Energy initial, next-to-last, final = 
        -241.975910848     -241.975915059     -241.975915059
  Force two-norm initial, final = 0.0242056 0.0204733
  Force max component initial, final = 0.00922864 0.00811099
  Final line search alpha, max atom move = 1.52588e-05 1.23764e-07
  Iterations, force evaluations = 2 24

Pair  time (%) = 0.000385697 (81.0474)
Neigh time (%) = 0 (0)
Comm  time (%) = 3.41444e-05 (7.17482)
Outpt time (%) = 5.90028e-06 (1.23984)
Other time (%) = 5.01494e-05 (10.538)

Nlocal:    82 ave 82 max 82 min
Histogram: 1 0 0 0 0 0 0 0 0 0
Nghost:    185 ave 185 max 185 min
Histogram: 1 0 0 0 0 0 0 0 0 0
Neighs:    718 ave 718 max 718 min
Histogram: 1 0 0 0 0 0 0 0 0 0

Total # of neighbors = 718
Ave neighs/atom = 8.7561
Neighbor list builds = 0
Dangerous builds = 0
        # write_dump all atom ${dumpfile}
        next i
jump SELF loop1
        displace_atoms upper move ${xstep1} 0.0 0.0 units lattice
        displace_atoms upper move 0.00333333333333333 0.0 0.0 units lattice
        min_style ${style}
        min_style cg
        minimize ${etol} ${ftol} ${maxiter} ${maxeval}
        minimize 1e-12 ${ftol} ${maxiter} ${maxeval}
        minimize 1e-12 1e-08 ${maxiter} ${maxeval}
        minimize 1e-12 1e-08 10000 ${maxeval}
        minimize 1e-12 1e-08 10000 20000
WARNING: Resetting reneighboring criteria during minimization (../min.cpp:168)
Memory usage per processor = 3.35169 Mbytes
Step Temp PotEng Lx Ly Lz 
      25            0   -241.97206    2.2449075    38.890775    1.1224537 
      26            0   -241.97206    2.2449075    38.890775    1.1224537 
Loop time of 0.000338891 on 1 procs for 1 steps with 82 atoms

Minimization stats:
  Stopping criterion = linesearch alpha is zero
  Energy initial, next-to-last, final = 
        -241.972058778     -241.972058778     -241.972058778
  Force two-norm initial, final = 0.0216055 0.0216055
  Force max component initial, final = 0.00811099 0.00811099
  Final line search alpha, max atom move = 1.52588e-05 1.23764e-07
  Iterations, force evaluations = 1 17

Pair  time (%) = 0.000276882 (81.7023)
Neigh time (%) = 0 (0)
Comm  time (%) = 2.38408e-05 (7.03495)
Outpt time (%) = 0 (0)
Other time (%) = 3.81685e-05 (11.2628)

Nlocal:    82 ave 82 max 82 min
Histogram: 1 0 0 0 0 0 0 0 0 0
Nghost:    185 ave 185 max 185 min
Histogram: 1 0 0 0 0 0 0 0 0 0
Neighs:    718 ave 718 max 718 min
Histogram: 1 0 0 0 0 0 0 0 0 0

Total # of neighbors = 718
Ave neighs/atom = 8.7561
Neighbor list builds = 0
Dangerous builds = 0
        # write_dump all atom ${dumpfile}
        next i
jump SELF loop1
        displace_atoms upper move ${xstep1} 0.0 0.0 units lattice
        displace_atoms upper move 0.00333333333333333 0.0 0.0 units lattice
        min_style ${style}
        min_style cg
        minimize ${etol} ${ftol} ${maxiter} ${maxeval}
        minimize 1e-12 ${ftol} ${maxiter} ${maxeval}
        minimize 1e-12 1e-08 ${maxiter} ${maxeval}
        minimize 1e-12 1e-08 10000 ${maxeval}
        minimize 1e-12 1e-08 10000 20000
WARNING: Resetting reneighboring criteria during minimization (../min.cpp:168)
Memory usage per processor = 3.35169 Mbytes
Step Temp PotEng Lx Ly Lz 
      26            0   -241.96798    2.2449075    38.890775    1.1224537 
      27            0   -241.96799    2.2449075    38.890775    1.1224537 
      28            0   -241.96799    2.2449075    38.890775    1.1224537 
Loop time of 0.000483053 on 1 procs for 2 steps with 82 atoms

Minimization stats:
  Stopping criterion = linesearch alpha is zero
  Energy initial, next-to-last, final = 
         -241.96797787     -241.967990854     -241.967990854
  Force two-norm initial, final = 0.0365941 0.0267156
  Force max component initial, final = 0.015659 0.00945814
  Final line search alpha, max atom move = 1.52588e-05 1.4432e-07
  Iterations, force evaluations = 2 24

Pair  time (%) = 0.000389064 (80.5427)
Neigh time (%) = 0 (0)
Comm  time (%) = 3.08707e-05 (6.39074)
Outpt time (%) = 8.9627e-06 (1.85543)
Other time (%) = 5.41559e-05 (11.2112)

Nlocal:    82 ave 82 max 82 min
Histogram: 1 0 0 0 0 0 0 0 0 0
Nghost:    185 ave 185 max 185 min
Histogram: 1 0 0 0 0 0 0 0 0 0
Neighs:    718 ave 718 max 718 min
Histogram: 1 0 0 0 0 0 0 0 0 0

Total # of neighbors = 718
Ave neighs/atom = 8.7561
Neighbor list builds = 0
Dangerous builds = 0
        # write_dump all atom ${dumpfile}
        next i
jump SELF loop1
        displace_atoms upper move ${xstep1} 0.0 0.0 units lattice
        displace_atoms upper move 0.00333333333333333 0.0 0.0 units lattice
        min_style ${style}
        min_style cg
        minimize ${etol} ${ftol} ${maxiter} ${maxeval}
        minimize 1e-12 ${ftol} ${maxiter} ${maxeval}
        minimize 1e-12 1e-08 ${maxiter} ${maxeval}
        minimize 1e-12 1e-08 10000 ${maxeval}
        minimize 1e-12 1e-08 10000 20000
WARNING: Resetting reneighboring criteria during minimization (../min.cpp:168)
Memory usage per processor = 3.35169 Mbytes
Step Temp PotEng Lx Ly Lz 
      28            0    -241.9637    2.2449075    38.890777    1.1224537 
      29            0    -241.9637    2.2449075    38.890777    1.1224537 
      30            0    -241.9637    2.2449075    38.890777    1.1224537 
Loop time of 0.000523906 on 1 procs for 2 steps with 82 atoms

Minimization stats:
  Stopping criterion = linesearch alpha is zero
  Energy initial, next-to-last, final = 
        -241.963697653     -241.963700416     -241.963700416
  Force two-norm initial, final = 0.0258981 0.0216196
  Force max component initial, final = 0.00945814 0.00739158
  Final line search alpha, max atom move = 1.52588e-05 1.12787e-07
  Iterations, force evaluations = 2 25

Pair  time (%) = 0.000416009 (79.4052)
Neigh time (%) = 0 (0)
Comm  time (%) = 3.89576e-05 (7.43598)
Outpt time (%) = 9.06328e-06 (1.72994)
Other time (%) = 5.98768e-05 (11.4289)

Nlocal:    82 ave 82 max 82 min
Histogram: 1 0 0 0 0 0 0 0 0 0
Nghost:    175 ave 175 max 175 min
Histogram: 1 0 0 0 0 0 0 0 0 0
Neighs:    718 ave 718 max 718 min
Histogram: 1 0 0 0 0 0 0 0 0 0

Total # of neighbors = 718
Ave neighs/atom = 8.7561
Neighbor list builds = 0
Dangerous builds = 0
        # write_dump all atom ${dumpfile}
        next i
jump SELF loop1
        displace_atoms upper move ${xstep1} 0.0 0.0 units lattice
        displace_atoms upper move 0.00333333333333333 0.0 0.0 units lattice
        min_style ${style}
        min_style cg
        minimize ${etol} ${ftol} ${maxiter} ${maxeval}
        minimize 1e-12 ${ftol} ${maxiter} ${maxeval}
        minimize 1e-12 1e-08 ${maxiter} ${maxeval}
        minimize 1e-12 1e-08 10000 ${maxeval}
        minimize 1e-12 1e-08 10000 20000
WARNING: Resetting reneighboring criteria during minimization (../min.cpp:168)
Memory usage per processor = 3.35169 Mbytes
Step Temp PotEng Lx Ly Lz 
      30            0   -241.95919    2.2449075    38.890777    1.1224537 
      31            0    -241.9592    2.2449075    38.890777    1.1224537 
      32            0    -241.9592    2.2449075    38.890777    1.1224537 
      33            0    -241.9592    2.2449075    38.890777    1.1224537 
Loop time of 0.000830917 on 1 procs for 3 steps with 82 atoms

Minimization stats:
  Stopping criterion = linesearch alpha is zero
  Energy initial, next-to-last, final = 
        -241.959186721     -241.959203843     -241.959203843
  Force two-norm initial, final = 0.0388891 0.0223292
  Force max component initial, final = 0.0165411 0.00652327
  Final line search alpha, max atom move = 1.52588e-05 9.95372e-08
  Iterations, force evaluations = 3 32

Pair  time (%) = 0.000702007 (84.4858)
Neigh time (%) = 0 (0)
Comm  time (%) = 3.98197e-05 (4.79227)
Outpt time (%) = 1.68529e-05 (2.02822)
Other time (%) = 7.22372e-05 (8.69368)

Nlocal:    82 ave 82 max 82 min
Histogram: 1 0 0 0 0 0 0 0 0 0
Nghost:    175 ave 175 max 175 min
Histogram: 1 0 0 0 0 0 0 0 0 0
Neighs:    718 ave 718 max 718 min
Histogram: 1 0 0 0 0 0 0 0 0 0

Total # of neighbors = 718
Ave neighs/atom = 8.7561
Neighbor list builds = 0
Dangerous builds = 0
        # write_dump all atom ${dumpfile}
        next i
jump SELF loop1
        displace_atoms upper move ${xstep1} 0.0 0.0 units lattice
        displace_atoms upper move 0.00333333333333333 0.0 0.0 units lattice
        min_style ${style}
        min_style cg
        minimize ${etol} ${ftol} ${maxiter} ${maxeval}
        minimize 1e-12 ${ftol} ${maxiter} ${maxeval}
        minimize 1e-12 1e-08 ${maxiter} ${maxeval}
        minimize 1e-12 1e-08 10000 ${maxeval}
        minimize 1e-12 1e-08 10000 20000
WARNING: Resetting reneighboring criteria during minimization (../min.cpp:168)
Memory usage per processor = 3.35169 Mbytes
Step Temp PotEng Lx Ly Lz 
      33            0   -241.95449    2.2449075     38.89078    1.1224537 
      34            0    -241.9545    2.2449075     38.89078    1.1224537 
      35            0    -241.9545    2.2449075     38.89078    1.1224537 
Loop time of 0.000483043 on 1 procs for 2 steps with 82 atoms

Minimization stats:
  Stopping criterion = linesearch alpha is zero
  Energy initial, next-to-last, final = 
         -241.95448772     -241.954497182     -241.954497182
  Force two-norm initial, final = 0.027181 0.0228389
  Force max component initial, final = 0.00922275 0.00819537
  Final line search alpha, max atom move = 1.52588e-05 1.25051e-07
  Iterations, force evaluations = 2 24

Pair  time (%) = 0.000391158 (80.9778)
Neigh time (%) = 0 (0)
Comm  time (%) = 2.93893e-05 (6.08419)
Outpt time (%) = 6.00575e-06 (1.24332)
Other time (%) = 5.64905e-05 (11.6947)

Nlocal:    82 ave 82 max 82 min
Histogram: 1 0 0 0 0 0 0 0 0 0
Nghost:    175 ave 175 max 175 min
Histogram: 1 0 0 0 0 0 0 0 0 0
Neighs:    718 ave 718 max 718 min
Histogram: 1 0 0 0 0 0 0 0 0 0

Total # of neighbors = 718
Ave neighs/atom = 8.7561
Neighbor list builds = 0
Dangerous builds = 0
        # write_dump all atom ${dumpfile}
        next i
jump SELF loop1
        displace_atoms upper move ${xstep1} 0.0 0.0 units lattice
        displace_atoms upper move 0.00333333333333333 0.0 0.0 units lattice
        min_style ${style}
        min_style cg
        minimize ${etol} ${ftol} ${maxiter} ${maxeval}
        minimize 1e-12 ${ftol} ${maxiter} ${maxeval}
        minimize 1e-12 1e-08 ${maxiter} ${maxeval}
        minimize 1e-12 1e-08 10000 ${maxeval}
        minimize 1e-12 1e-08 10000 20000
WARNING: Resetting reneighboring criteria during minimization (../min.cpp:168)
Memory usage per processor = 3.35169 Mbytes
Step Temp PotEng Lx Ly Lz 
      35            0   -241.94957    2.2449075    38.890782    1.1224537 
      36            0   -241.94958    2.2449075    38.890782    1.1224537 
      37            0   -241.94959    2.2449075    38.890782    1.1224537 
      38            0   -241.94959    2.2449075    38.890782    1.1224537 
      39            0   -241.94959    2.2449075    38.890782    1.1224537 
Loop time of 0.000748062 on 1 procs for 4 steps with 82 atoms

Minimization stats:
  Stopping criterion = linesearch alpha is zero
  Energy initial, next-to-last, final = 
        -241.949570627     -241.949588136     -241.949588136
  Force two-norm initial, final = 0.0328474 0.0160173
  Force max component initial, final = 0.0122409 0.00472654
  Final line search alpha, max atom move = 3.05176e-05 1.44243e-07
  Iterations, force evaluations = 4 37

Pair  time (%) = 0.000589793 (78.8428)
Neigh time (%) = 0 (0)
Comm  time (%) = 5.85935e-05 (7.8327)
Outpt time (%) = 2.08529e-05 (2.78759)
Other time (%) = 7.88228e-05 (10.5369)

Nlocal:    82 ave 82 max 82 min
Histogram: 1 0 0 0 0 0 0 0 0 0
Nghost:    175 ave 175 max 175 min
Histogram: 1 0 0 0 0 0 0 0 0 0
Neighs:    718 ave 718 max 718 min
Histogram: 1 0 0 0 0 0 0 0 0 0

Total # of neighbors = 718
Ave neighs/atom = 8.7561
Neighbor list builds = 0
Dangerous builds = 0
        # write_dump all atom ${dumpfile}
        next i
jump SELF loop1
        displace_atoms upper move ${xstep1} 0.0 0.0 units lattice
        displace_atoms upper move 0.00333333333333333 0.0 0.0 units lattice
        min_style ${style}
        min_style cg
        minimize ${etol} ${ftol} ${maxiter} ${maxeval}
        minimize 1e-12 ${ftol} ${maxiter} ${maxeval}
        minimize 1e-12 1e-08 ${maxiter} ${maxeval}
        minimize 1e-12 1e-08 10000 ${maxeval}
        minimize 1e-12 1e-08 10000 20000
WARNING: Resetting reneighboring criteria during minimization (../min.cpp:168)
Memory usage per processor = 3.35169 Mbytes
Step Temp PotEng Lx Ly Lz 
      39            0   -241.94446    2.2449075    38.890788    1.1224537 
      40            0   -241.94447    2.2449075    38.890788    1.1224537 
      41            0   -241.94448    2.2449075    38.890788    1.1224537 
      42            0   -241.94448    2.2449075    38.890788    1.1224537 
Loop time of 0.000798885 on 1 procs for 3 steps with 82 atoms

Minimization stats:
  Stopping criterion = linesearch alpha is zero
  Energy initial, next-to-last, final = 
        -241.944462484     -241.944479137     -241.944479137
  Force two-norm initial, final = 0.035338 0.0286488
  Force max component initial, final = 0.0157753 0.0101758
  Final line search alpha, max atom move = 7.62939e-06 7.76351e-08
  Iterations, force evaluations = 3 32

Pair  time (%) = 0.000674136 (84.3845)
Neigh time (%) = 0 (0)
Comm  time (%) = 4.09714e-05 (5.12858)
Outpt time (%) = 1.20219e-05 (1.50483)
Other time (%) = 7.17564e-05 (8.98207)

Nlocal:    82 ave 82 max 82 min
Histogram: 1 0 0 0 0 0 0 0 0 0
Nghost:    175 ave 175 max 175 min
Histogram: 1 0 0 0 0 0 0 0 0 0
Neighs:    718 ave 718 max 718 min
Histogram: 1 0 0 0 0 0 0 0 0 0

Total # of neighbors = 718
Ave neighs/atom = 8.7561
Neighbor list builds = 0
Dangerous builds = 0
        # write_dump all atom ${dumpfile}
        next i
jump SELF loop1
        displace_atoms upper move ${xstep1} 0.0 0.0 units lattice
        displace_atoms upper move 0.00333333333333333 0.0 0.0 units lattice
        min_style ${style}
        min_style cg
        minimize ${etol} ${ftol} ${maxiter} ${maxeval}
        minimize 1e-12 ${ftol} ${maxiter} ${maxeval}
        minimize 1e-12 1e-08 ${maxiter} ${maxeval}
        minimize 1e-12 1e-08 10000 ${maxeval}
        minimize 1e-12 1e-08 10000 20000
WARNING: Resetting reneighboring criteria during minimization (../min.cpp:168)
Memory usage per processor = 3.35169 Mbytes
Step Temp PotEng Lx Ly Lz 
      42            0   -241.93916    2.2449075    38.890794    1.1224537 
      43            0   -241.93917    2.2449075    38.890794    1.1224537 
      44            0   -241.93917    2.2449075    38.890794    1.1224537 
Loop time of 0.000430012 on 1 procs for 2 steps with 82 atoms

Minimization stats:
  Stopping criterion = linesearch alpha is zero
  Energy initial, next-to-last, final = 
        -241.939164456     -241.939168707     -241.939168707
  Force two-norm initial, final = 0.0252883 0.0184173
  Force max component initial, final = 0.00878358 0.00516318
  Final line search alpha, max atom move = 3.05176e-05 1.57568e-07
  Iterations, force evaluations = 2 24

Pair  time (%) = 0.000347399 (80.7883)
Neigh time (%) = 0 (0)
Comm  time (%) = 2.58336e-05 (6.00765)
Outpt time (%) = 5.90074e-06 (1.37223)
Other time (%) = 5.08784e-05 (11.8319)

Nlocal:    82 ave 82 max 82 min
Histogram: 1 0 0 0 0 0 0 0 0 0
Nghost:    175 ave 175 max 175 min
Histogram: 1 0 0 0 0 0 0 0 0 0
Neighs:    718 ave 718 max 718 min
Histogram: 1 0 0 0 0 0 0 0 0 0

Total # of neighbors = 718
Ave neighs/atom = 8.7561
Neighbor list builds = 0
Dangerous builds = 0
        # write_dump all atom ${dumpfile}
        next i
jump SELF loop1
        displace_atoms upper move ${xstep1} 0.0 0.0 units lattice
        displace_atoms upper move 0.00333333333333333 0.0 0.0 units lattice
        min_style ${style}
        min_style cg
        minimize ${etol} ${ftol} ${maxiter} ${maxeval}
        minimize 1e-12 ${ftol} ${maxiter} ${maxeval}
        minimize 1e-12 1e-08 ${maxiter} ${maxeval}
        minimize 1e-12 1e-08 10000 ${maxeval}
        minimize 1e-12 1e-08 10000 20000
WARNING: Resetting reneighboring criteria during minimization (../min.cpp:168)
Memory usage per processor = 3.35169 Mbytes
Step Temp PotEng Lx Ly Lz 
      44            0   -241.93365    2.2449075    38.890794    1.1224537 
      45            0   -241.93366    2.2449075    38.890794    1.1224537 
      46            0   -241.93366    2.2449075    38.890794    1.1224537 
Loop time of 0.000404899 on 1 procs for 2 steps with 82 atoms

Minimization stats:
  Stopping criterion = linesearch alpha is zero
  Energy initial, next-to-last, final = 
        -241.933654275      -241.93365641      -241.93365641
  Force two-norm initial, final = 0.0446822 0.0381
  Force max component initial, final = 0.020402 0.0163739
  Final line search alpha, max atom move = 7.62939e-06 1.24923e-07
  Iterations, force evaluations = 2 28

Pair  time (%) = 0.000316797 (78.2409)
Neigh time (%) = 0 (0)
Comm  time (%) = 3.11474e-05 (7.69262)
Outpt time (%) = 9.89821e-06 (2.44461)
Other time (%) = 4.70567e-05 (11.6218)

Nlocal:    82 ave 82 max 82 min
Histogram: 1 0 0 0 0 0 0 0 0 0
Nghost:    175 ave 175 max 175 min
Histogram: 1 0 0 0 0 0 0 0 0 0
Neighs:    718 ave 718 max 718 min
Histogram: 1 0 0 0 0 0 0 0 0 0

Total # of neighbors = 718
Ave neighs/atom = 8.7561
Neighbor list builds = 0
Dangerous builds = 0
        # write_dump all atom ${dumpfile}
        next i
jump SELF loop1
        displace_atoms upper move ${xstep1} 0.0 0.0 units lattice
        displace_atoms upper move 0.00333333333333333 0.0 0.0 units lattice
        min_style ${style}
        min_style cg
        minimize ${etol} ${ftol} ${maxiter} ${maxeval}
        minimize 1e-12 ${ftol} ${maxiter} ${maxeval}
        minimize 1e-12 1e-08 ${maxiter} ${maxeval}
        minimize 1e-12 1e-08 10000 ${maxeval}
        minimize 1e-12 1e-08 10000 20000
WARNING: Resetting reneighboring criteria during minimization (../min.cpp:168)
Memory usage per processor = 3.35169 Mbytes
Step Temp PotEng Lx Ly Lz 
      46            0   -241.92793    2.2449075    38.890795    1.1224537 
      47            0   -241.92796    2.2449075    38.890795    1.1224537 
      48            0   -241.92798    2.2449075    38.890795    1.1224537 
      49            0   -241.92801    2.2449075    38.890795    1.1224537 
      50            0   -241.92801    2.2449075    38.890795    1.1224537 
      51            0   -241.92801    2.2449075    38.890795    1.1224537 
Loop time of 0.000901066 on 1 procs for 5 steps with 82 atoms

Minimization stats:
  Stopping criterion = linesearch alpha is zero
  Energy initial, next-to-last, final = 
        -241.927934684     -241.928006842     -241.928006842
  Force two-norm initial, final = 0.075837 0.0213959
  Force max component initial, final = 0.0366472 0.00809352
  Final line search alpha, max atom move = 1.52588e-05 1.23497e-07
  Iterations, force evaluations = 5 47

Pair  time (%) = 0.00072483 (80.4413)
Neigh time (%) = 0 (0)
Comm  time (%) = 5.71664e-05 (6.34431)
Outpt time (%) = 2.20267e-05 (2.44452)
Other time (%) = 9.70433e-05 (10.7698)

Nlocal:    82 ave 82 max 82 min
Histogram: 1 0 0 0 0 0 0 0 0 0
Nghost:    175 ave 175 max 175 min
Histogram: 1 0 0 0 0 0 0 0 0 0
Neighs:    718 ave 718 max 718 min
Histogram: 1 0 0 0 0 0 0 0 0 0

Total # of neighbors = 718
Ave neighs/atom = 8.7561
Neighbor list builds = 0
Dangerous builds = 0
        # write_dump all atom ${dumpfile}
        next i
jump SELF loop1
        displace_atoms upper move ${xstep1} 0.0 0.0 units lattice
        displace_atoms upper move 0.00333333333333333 0.0 0.0 units lattice
        min_style ${style}
        min_style cg
        minimize ${etol} ${ftol} ${maxiter} ${maxeval}
        minimize 1e-12 ${ftol} ${maxiter} ${maxeval}
        minimize 1e-12 1e-08 ${maxiter} ${maxeval}
        minimize 1e-12 1e-08 10000 ${maxeval}
        minimize 1e-12 1e-08 10000 20000
WARNING: Resetting reneighboring criteria during minimization (../min.cpp:168)
Memory usage per processor = 3.35169 Mbytes
Step Temp PotEng Lx Ly Lz 
      51            0   -241.92213    2.2449075    38.890803    1.1224537 
      52            0   -241.92213    2.2449075    38.890803    1.1224537 
      53            0   -241.92213    2.2449075    38.890803    1.1224537 
Loop time of 0.000546899 on 1 procs for 2 steps with 82 atoms

Minimization stats:
  Stopping criterion = linesearch alpha is zero
  Energy initial, next-to-last, final = 
        -241.922129066     -241.922130677     -241.922130677
  Force two-norm initial, final = 0.0400537 0.0335205
  Force max component initial, final = 0.0173641 0.0136723
  Final line search alpha, max atom move = 7.62939e-06 1.04312e-07
  Iterations, force evaluations = 2 28

Pair  time (%) = 0.000444439 (81.2653)
Neigh time (%) = 0 (0)
Comm  time (%) = 2.94532e-05 (5.38549)
Outpt time (%) = 1.00723e-05 (1.8417)
Other time (%) = 6.29342e-05 (11.5075)

Nlocal:    82 ave 82 max 82 min
Histogram: 1 0 0 0 0 0 0 0 0 0
Nghost:    175 ave 175 max 175 min
Histogram: 1 0 0 0 0 0 0 0 0 0
Neighs:    718 ave 718 max 718 min
Histogram: 1 0 0 0 0 0 0 0 0 0

Total # of neighbors = 718
Ave neighs/atom = 8.7561
Neighbor list builds = 0
Dangerous builds = 0
        # write_dump all atom ${dumpfile}
        next i
jump SELF loop1
        displace_atoms upper move ${xstep1} 0.0 0.0 units lattice
        displace_atoms upper move 0.00333333333333333 0.0 0.0 units lattice
        min_style ${style}
        min_style cg
        minimize ${etol} ${ftol} ${maxiter} ${maxeval}
        minimize 1e-12 ${ftol} ${maxiter} ${maxeval}
        minimize 1e-12 1e-08 ${maxiter} ${maxeval}
        minimize 1e-12 1e-08 10000 ${maxeval}
        minimize 1e-12 1e-08 10000 20000
WARNING: Resetting reneighboring criteria during minimization (../min.cpp:168)
Memory usage per processor = 3.35169 Mbytes
Step Temp PotEng Lx Ly Lz 
      53            0   -241.91606    2.2449075    38.890803    1.1224537 
      54            0   -241.91607    2.2449075    38.890803    1.1224537 
      55            0   -241.91608    2.2449075    38.890803    1.1224537 
      56            0    -241.9161    2.2449075    38.890803    1.1224537 
      57            0   -241.91611    2.2449075    38.890803    1.1224537 
      58            0   -241.91612    2.2449075    38.890803    1.1224537 
      59            0   -241.91612    2.2449075    38.890803    1.1224537 
Loop time of 0.000963067 on 1 procs for 6 steps with 82 atoms

Minimization stats:
  Stopping criterion = linesearch alpha is zero
  Energy initial, next-to-last, final = 
        -241.916060924     -241.916123021     -241.916123021
  Force two-norm initial, final = 0.074701 0.0229029
  Force max component initial, final = 0.0360706 0.00739163
  Final line search alpha, max atom move = 1.52588e-05 1.12787e-07
  Iterations, force evaluations = 6 53

Pair  time (%) = 0.0007654 (79.4752)
Neigh time (%) = 0 (0)
Comm  time (%) = 5.7683e-05 (5.98951)
Outpt time (%) = 3.0773e-05 (3.19531)
Other time (%) = 0.000109211 (11.3399)

Nlocal:    82 ave 82 max 82 min
Histogram: 1 0 0 0 0 0 0 0 0 0
Nghost:    175 ave 175 max 175 min
Histogram: 1 0 0 0 0 0 0 0 0 0
Neighs:    718 ave 718 max 718 min
Histogram: 1 0 0 0 0 0 0 0 0 0

Total # of neighbors = 718
Ave neighs/atom = 8.7561
Neighbor list builds = 0
Dangerous builds = 0
        # write_dump all atom ${dumpfile}
        next i
jump SELF loop1
        displace_atoms upper move ${xstep1} 0.0 0.0 units lattice
        displace_atoms upper move 0.00333333333333333 0.0 0.0 units lattice
        min_style ${style}
        min_style cg
        minimize ${etol} ${ftol} ${maxiter} ${maxeval}
        minimize 1e-12 ${ftol} ${maxiter} ${maxeval}
        minimize 1e-12 1e-08 ${maxiter} ${maxeval}
        minimize 1e-12 1e-08 10000 ${maxeval}
        minimize 1e-12 1e-08 10000 20000
WARNING: Resetting reneighboring criteria during minimization (../min.cpp:168)
Memory usage per processor = 3.35169 Mbytes
Step Temp PotEng Lx Ly Lz 
      59            0    -241.9099    2.2449075    38.890817    1.1224537 
      60            0   -241.90992    2.2449075    38.890817    1.1224537 
      61            0   -241.90993    2.2449075    38.890817    1.1224537 
      62            0   -241.90993    2.2449075    38.890817    1.1224537 
      63            0   -241.90993    2.2449075    38.890817    1.1224537 
      64            0   -241.90993    2.2449075    38.890817    1.1224537 
Loop time of 0.00148594 on 1 procs for 5 steps with 82 atoms

Minimization stats:
  Stopping criterion = linesearch alpha is zero
  Energy initial, next-to-last, final = 
        -241.909899444     -241.909933011     -241.909933011
  Force two-norm initial, final = 0.0606843 0.0147467
  Force max component initial, final = 0.02858 0.00434173
  Final line search alpha, max atom move = 3.05176e-05 1.32499e-07
  Iterations, force evaluations = 5 45

Pair  time (%) = 0.0013055 (87.8573)
Neigh time (%) = 0 (0)
Comm  time (%) = 5.54393e-05 (3.73094)
Outpt time (%) = 2.61826e-05 (1.76203)
Other time (%) = 9.8811e-05 (6.64975)

Nlocal:    82 ave 82 max 82 min
Histogram: 1 0 0 0 0 0 0 0 0 0
Nghost:    175 ave 175 max 175 min
Histogram: 1 0 0 0 0 0 0 0 0 0
Neighs:    718 ave 718 max 718 min
Histogram: 1 0 0 0 0 0 0 0 0 0

Total # of neighbors = 718
Ave neighs/atom = 8.7561
Neighbor list builds = 0
Dangerous builds = 0
        # write_dump all atom ${dumpfile}
        next i
jump SELF loop1
        displace_atoms upper move ${xstep1} 0.0 0.0 units lattice
        displace_atoms upper move 0.00333333333333333 0.0 0.0 units lattice
        min_style ${style}
        min_style cg
        minimize ${etol} ${ftol} ${maxiter} ${maxeval}
        minimize 1e-12 ${ftol} ${maxiter} ${maxeval}
        minimize 1e-12 1e-08 ${maxiter} ${maxeval}
        minimize 1e-12 1e-08 10000 ${maxeval}
        minimize 1e-12 1e-08 10000 20000
WARNING: Resetting reneighboring criteria during minimization (../min.cpp:168)
Memory usage per processor = 3.35169 Mbytes
Step Temp PotEng Lx Ly Lz 
      64            0   -241.90357    2.2449075    38.890825    1.1224537 
      65            0   -241.90358    2.2449075    38.890825    1.1224537 
      66            0   -241.90358    2.2449075    38.890825    1.1224537 
      67            0   -241.90359    2.2449075    38.890825    1.1224537 
      68            0   -241.90361    2.2449075    38.890825    1.1224537 
      69            0   -241.90362    2.2449075    38.890825    1.1224537 
      70            0   -241.90362    2.2449075    38.890825    1.1224537 
Loop time of 0.0221829 on 1 procs for 6 steps with 82 atoms

Minimization stats:
  Stopping criterion = linesearch alpha is zero
  Energy initial, next-to-last, final = 
        -241.903569841     -241.903618006     -241.903618006
  Force two-norm initial, final = 0.0642517 0.0176561
  Force max component initial, final = 0.0312712 0.00621106
  Final line search alpha, max atom move = 3.05176e-05 1.89546e-07
  Iterations, force evaluations = 6 52

Pair  time (%) = 0.000822277 (3.7068)
Neigh time (%) = 0 (0)
Comm  time (%) = 6.04542e-05 (0.272526)
Outpt time (%) = 3.36238e-05 (0.151575)
Other time (%) = 0.0212666 (95.8691)

Nlocal:    82 ave 82 max 82 min
Histogram: 1 0 0 0 0 0 0 0 0 0
Nghost:    175 ave 175 max 175 min
Histogram: 1 0 0 0 0 0 0 0 0 0
Neighs:    714 ave 714 max 714 min
Histogram: 1 0 0 0 0 0 0 0 0 0

Total # of neighbors = 714
Ave neighs/atom = 8.70732
Neighbor list builds = 0
Dangerous builds = 0
        # write_dump all atom ${dumpfile}
        next i
jump SELF loop1
        displace_atoms upper move ${xstep1} 0.0 0.0 units lattice
        displace_atoms upper move 0.00333333333333333 0.0 0.0 units lattice
        min_style ${style}
        min_style cg
        minimize ${etol} ${ftol} ${maxiter} ${maxeval}
        minimize 1e-12 ${ftol} ${maxiter} ${maxeval}
        minimize 1e-12 1e-08 ${maxiter} ${maxeval}
        minimize 1e-12 1e-08 10000 ${maxeval}
        minimize 1e-12 1e-08 10000 20000
WARNING: Resetting reneighboring criteria during minimization (../min.cpp:168)
Memory usage per processor = 3.35169 Mbytes
Step Temp PotEng Lx Ly Lz 
      70            0   -241.89717    2.2449075    38.890845    1.1224537 
      71            0   -241.89719    2.2449075    38.890845    1.1224537 
      72            0    -241.8972    2.2449075    38.890845    1.1224537 
      73            0   -241.89721    2.2449075    38.890845    1.1224537 
      74            0   -241.89723    2.2449075    38.890845    1.1224537 
      75            0   -241.89723    2.2449075    38.890845    1.1224537 
      76            0   -241.89723    2.2449075    38.890845    1.1224537 
      77            0   -241.89723    2.2449075    38.890845    1.1224537 
Loop time of 0.00151403 on 1 procs for 7 steps with 82 atoms

Minimization stats:
  Stopping criterion = linesearch alpha is zero
  Energy initial, next-to-last, final = 
        -241.897170189     -241.897231415     -241.897231415
  Force two-norm initial, final = 0.0767625 0.0131167
  Force max component initial, final = 0.0375227 0.00293515
  Final line search alpha, max atom move = 6.10352e-05 1.79147e-07
  Iterations, force evaluations = 7 58

Pair  time (%) = 0.00091526 (60.4518)
Neigh time (%) = 0 (0)
Comm  time (%) = 7.28827e-05 (4.81381)
Outpt time (%) = 0.000395897 (26.1485)
Other time (%) = 0.000129994 (8.58594)

Nlocal:    82 ave 82 max 82 min
Histogram: 1 0 0 0 0 0 0 0 0 0
Nghost:    175 ave 175 max 175 min
Histogram: 1 0 0 0 0 0 0 0 0 0
Neighs:    714 ave 714 max 714 min
Histogram: 1 0 0 0 0 0 0 0 0 0

Total # of neighbors = 714
Ave neighs/atom = 8.70732
Neighbor list builds = 0
Dangerous builds = 0
        # write_dump all atom ${dumpfile}
        next i
jump SELF loop1
        displace_atoms upper move ${xstep1} 0.0 0.0 units lattice
        displace_atoms upper move 0.00333333333333333 0.0 0.0 units lattice
        min_style ${style}
        min_style cg
        minimize ${etol} ${ftol} ${maxiter} ${maxeval}
        minimize 1e-12 ${ftol} ${maxiter} ${maxeval}
        minimize 1e-12 1e-08 ${maxiter} ${maxeval}
        minimize 1e-12 1e-08 10000 ${maxeval}
        minimize 1e-12 1e-08 10000 20000
WARNING: Resetting reneighboring criteria during minimization (../min.cpp:168)
Memory usage per processor = 3.35169 Mbytes
Step Temp PotEng Lx Ly Lz 
      77            0   -241.89071    2.2449075    38.890882    1.1224537 
      78            0   -241.89072    2.2449075    38.890882    1.1224537 
      79            0   -241.89073    2.2449075    38.890882    1.1224537 
      80            0   -241.89073    2.2449075    38.890882    1.1224537 
      81            0   -241.89073    2.2449075    38.890882    1.1224537 
      82            0   -241.89074    2.2449075    38.890882    1.1224537 
      83            0   -241.89075    2.2449075    38.890882    1.1224537 
      84            0   -241.89077    2.2449075    38.890882    1.1224537 
      85            0   -241.89078    2.2449075    38.890882    1.1224537 
      86            0   -241.89078    2.2449075    38.890882    1.1224537 
Loop time of 0.00133894 on 1 procs for 9 steps with 82 atoms

Minimization stats:
  Stopping criterion = linesearch alpha is zero
  Energy initial, next-to-last, final = 
        -241.890712707     -241.890777643     -241.890777643
  Force two-norm initial, final = 0.0692329 0.0151691
  Force max component initial, final = 0.0339904 0.0045502
  Final line search alpha, max atom move = 3.05176e-05 1.38861e-07
  Iterations, force evaluations = 9 78

Pair  time (%) = 0.00106268 (79.3675)
Neigh time (%) = 0 (0)
Comm  time (%) = 8.38725e-05 (6.26411)
Outpt time (%) = 4.41006e-05 (3.2937)
Other time (%) = 0.000148283 (11.0747)

Nlocal:    82 ave 82 max 82 min
Histogram: 1 0 0 0 0 0 0 0 0 0
Nghost:    175 ave 175 max 175 min
Histogram: 1 0 0 0 0 0 0 0 0 0
Neighs:    714 ave 714 max 714 min
Histogram: 1 0 0 0 0 0 0 0 0 0

Total # of neighbors = 714
Ave neighs/atom = 8.70732
Neighbor list builds = 0
Dangerous builds = 0
        # write_dump all atom ${dumpfile}
        next i
jump SELF loop1
        displace_atoms upper move ${xstep1} 0.0 0.0 units lattice
        displace_atoms upper move 0.00333333333333333 0.0 0.0 units lattice
        min_style ${style}
        min_style cg
        minimize ${etol} ${ftol} ${maxiter} ${maxeval}
        minimize 1e-12 ${ftol} ${maxiter} ${maxeval}
        minimize 1e-12 1e-08 ${maxiter} ${maxeval}
        minimize 1e-12 1e-08 10000 ${maxeval}
        minimize 1e-12 1e-08 10000 20000
WARNING: Resetting reneighboring criteria during minimization (../min.cpp:168)
Memory usage per processor = 3.35169 Mbytes
Step Temp PotEng Lx Ly Lz 
      86            0    -241.8842    2.2449075       38.891    1.1224537 
      87            0   -241.88422    2.2449075       38.891    1.1224537 
      88            0   -241.88422    2.2449075       38.891    1.1224537 
      89            0   -241.88423    2.2449075       38.891    1.1224537 
      90            0   -241.88424    2.2449075       38.891    1.1224537 
      91            0   -241.88426    2.2449075       38.891    1.1224537 
      92            0   -241.88426    2.2449075       38.891    1.1224537 
      93            0   -241.88426    2.2449075       38.891    1.1224537 
Loop time of 0.00213605 on 1 procs for 7 steps with 82 atoms

Minimization stats:
  Stopping criterion = linesearch alpha is zero
  Energy initial, next-to-last, final = 
        -241.884202552     -241.884258918     -241.884258918
  Force two-norm initial, final = 0.0638662 0.0189877
  Force max component initial, final = 0.0311723 0.00440713
  Final line search alpha, max atom move = 3.05176e-05 1.34495e-07
  Iterations, force evaluations = 7 57

Pair  time (%) = 0.00190197 (89.0412)
Neigh time (%) = 0 (0)
Comm  time (%) = 7.1859e-05 (3.3641)
Outpt time (%) = 3.7991e-05 (1.77856)
Other time (%) = 0.000124236 (5.81613)

Nlocal:    82 ave 82 max 82 min
Histogram: 1 0 0 0 0 0 0 0 0 0
Nghost:    175 ave 175 max 175 min
Histogram: 1 0 0 0 0 0 0 0 0 0
Neighs:    714 ave 714 max 714 min
Histogram: 1 0 0 0 0 0 0 0 0 0

Total # of neighbors = 714
Ave neighs/atom = 8.70732
Neighbor list builds = 0
Dangerous builds = 0
        # write_dump all atom ${dumpfile}
        next i
jump SELF loop1
        displace_atoms upper move ${xstep1} 0.0 0.0 units lattice
        displace_atoms upper move 0.00333333333333333 0.0 0.0 units lattice
        min_style ${style}
        min_style cg
        minimize ${etol} ${ftol} ${maxiter} ${maxeval}
        minimize 1e-12 ${ftol} ${maxiter} ${maxeval}
        minimize 1e-12 1e-08 ${maxiter} ${maxeval}
        minimize 1e-12 1e-08 10000 ${maxeval}
        minimize 1e-12 1e-08 10000 20000
WARNING: Resetting reneighboring criteria during minimization (../min.cpp:168)
Memory usage per processor = 3.35169 Mbytes
Step Temp PotEng Lx Ly Lz 
      93            0   -241.87763    2.2449075    38.891339    1.1224537 
      94            0   -241.87765    2.2449075    38.891339    1.1224537 
      95            0   -241.87766    2.2449075    38.891339    1.1224537 
      96            0   -241.87766    2.2449075    38.891339    1.1224537 
      97            0   -241.87766    2.2449075    38.891339    1.1224537 
Loop time of 0.000773048 on 1 procs for 4 steps with 82 atoms

Minimization stats:
  Stopping criterion = linesearch alpha is zero
  Energy initial, next-to-last, final = 
        -241.877632604     -241.877663558     -241.877663558
  Force two-norm initial, final = 0.0631352 0.0119139
  Force max component initial, final = 0.0303655 0.00286052
  Final line search alpha, max atom move = 6.10352e-05 1.74592e-07
  Iterations, force evaluations = 4 39

Pair  time (%) = 0.00061703 (79.8177)
Neigh time (%) = 0 (0)
Comm  time (%) = 5.07481e-05 (6.56468)
Outpt time (%) = 1.70155e-05 (2.20109)
Other time (%) = 8.82552e-05 (11.4165)

Nlocal:    82 ave 82 max 82 min
Histogram: 1 0 0 0 0 0 0 0 0 0
Nghost:    175 ave 175 max 175 min
Histogram: 1 0 0 0 0 0 0 0 0 0
Neighs:    714 ave 714 max 714 min
Histogram: 1 0 0 0 0 0 0 0 0 0

Total # of neighbors = 714
Ave neighs/atom = 8.70732
Neighbor list builds = 0
Dangerous builds = 0
        # write_dump all atom ${dumpfile}
        next i
jump SELF loop1
        displace_atoms upper move ${xstep1} 0.0 0.0 units lattice
        displace_atoms upper move 0.00333333333333333 0.0 0.0 units lattice
        min_style ${style}
        min_style cg
        minimize ${etol} ${ftol} ${maxiter} ${maxeval}
        minimize 1e-12 ${ftol} ${maxiter} ${maxeval}
        minimize 1e-12 1e-08 ${maxiter} ${maxeval}
        minimize 1e-12 1e-08 10000 ${maxeval}
        minimize 1e-12 1e-08 10000 20000
WARNING: Resetting reneighboring criteria during minimization (../min.cpp:168)
Memory usage per processor = 3.35169 Mbytes
Step Temp PotEng Lx Ly Lz 
      97            0   -241.87094    2.2449075    38.891381    1.1224537 
      98            0   -241.87095    2.2449075    38.891381    1.1224537 
      99            0   -241.87096    2.2449075    38.891381    1.1224537 
     100            0   -241.87096    2.2449075    38.891381    1.1224537 
     101            0   -241.87096    2.2449075    38.891381    1.1224537 
Loop time of 0.00113212 on 1 procs for 4 steps with 82 atoms

Minimization stats:
  Stopping criterion = linesearch alpha is zero
  Energy initial, next-to-last, final = 
        -241.870940272     -241.870957804     -241.870957804
  Force two-norm initial, final = 0.0709834 0.0309705
  Force max component initial, final = 0.0349904 0.0123133
  Final line search alpha, max atom move = 7.62939e-06 9.39427e-08
  Iterations, force evaluations = 4 48

Pair  time (%) = 0.000913504 (80.6899)
Neigh time (%) = 0 (0)
Comm  time (%) = 8.2277e-05 (7.26754)
Outpt time (%) = 2.28876e-05 (2.02167)
Other time (%) = 0.000113448 (10.0209)

Nlocal:    82 ave 82 max 82 min
Histogram: 1 0 0 0 0 0 0 0 0 0
Nghost:    175 ave 175 max 175 min
Histogram: 1 0 0 0 0 0 0 0 0 0
Neighs:    714 ave 714 max 714 min
Histogram: 1 0 0 0 0 0 0 0 0 0

Total # of neighbors = 714
Ave neighs/atom = 8.70732
Neighbor list builds = 0
Dangerous builds = 0
        # write_dump all atom ${dumpfile}
        next i
jump SELF loop1
        displace_atoms upper move ${xstep1} 0.0 0.0 units lattice
        displace_atoms upper move 0.00333333333333333 0.0 0.0 units lattice
        min_style ${style}
        min_style cg
        minimize ${etol} ${ftol} ${maxiter} ${maxeval}
        minimize 1e-12 ${ftol} ${maxiter} ${maxeval}
        minimize 1e-12 1e-08 ${maxiter} ${maxeval}
        minimize 1e-12 1e-08 10000 ${maxeval}
        minimize 1e-12 1e-08 10000 20000
WARNING: Resetting reneighboring criteria during minimization (../min.cpp:168)
Memory usage per processor = 3.35169 Mbytes
Step Temp PotEng Lx Ly Lz 
     101            0   -241.86414    2.2449075    38.891393    1.1224537 
     102            0   -241.86418    2.2449075    38.891393    1.1224537 
     103            0    -241.8642    2.2449075    38.891393    1.1224537 
     104            0   -241.86421    2.2449075    38.891393    1.1224537 
     105            0   -241.86422    2.2449075    38.891393    1.1224537 
     106            0   -241.86424    2.2449075    38.891393    1.1224537 
     107            0   -241.86425    2.2449075    38.891393    1.1224537 
     108            0   -241.86427    2.2449075    38.891393    1.1224537 
     109            0   -241.86429    2.2449075    38.891393    1.1224537 
     110            0   -241.86429    2.2449075    38.891393    1.1224537 
     111            0    -241.8643    2.2449075    38.891393    1.1224537 
     112            0    -241.8643    2.2449075    38.891393    1.1224537 
     113            0    -241.8643    2.2449075    38.891393    1.1224537 
Loop time of 0.00197391 on 1 procs for 12 steps with 82 atoms

Minimization stats:
  Stopping criterion = linesearch alpha is zero
  Energy initial, next-to-last, final = 
          -241.8641359     -241.864303286     -241.864303286
  Force two-norm initial, final = 0.0967025 0.0122202
  Force max component initial, final = 0.0474314 0.00289005
  Final line search alpha, max atom move = 6.10352e-05 1.76395e-07
  Iterations, force evaluations = 12 91

Pair  time (%) = 0.0015949 (80.799)
Neigh time (%) = 0 (0)
Comm  time (%) = 0.000107809 (5.4617)
Outpt time (%) = 6.76679e-05 (3.42811)
Other time (%) = 0.000203534 (10.3112)

Nlocal:    82 ave 82 max 82 min
Histogram: 1 0 0 0 0 0 0 0 0 0
Nghost:    175 ave 175 max 175 min
Histogram: 1 0 0 0 0 0 0 0 0 0
Neighs:    714 ave 714 max 714 min
Histogram: 1 0 0 0 0 0 0 0 0 0

Total # of neighbors = 714
Ave neighs/atom = 8.70732
Neighbor list builds = 0
Dangerous builds = 0
        # write_dump all atom ${dumpfile}
        next i
jump SELF loop1
        displace_atoms upper move ${xstep1} 0.0 0.0 units lattice
        displace_atoms upper move 0.00333333333333333 0.0 0.0 units lattice
        min_style ${style}
        min_style cg
        minimize ${etol} ${ftol} ${maxiter} ${maxeval}
        minimize 1e-12 ${ftol} ${maxiter} ${maxeval}
        minimize 1e-12 1e-08 ${maxiter} ${maxeval}
        minimize 1e-12 1e-08 10000 ${maxeval}
        minimize 1e-12 1e-08 10000 20000
WARNING: Resetting reneighboring criteria during minimization (../min.cpp:168)
Memory usage per processor = 3.35169 Mbytes
Step Temp PotEng Lx Ly Lz 
     113            0   -241.85746    2.2449075    38.892175    1.1224537 
     114            0   -241.85748    2.2449075    38.892175    1.1224537 
     115            0   -241.85748    2.2449075    38.892175    1.1224537 
     116            0   -241.85748    2.2449075    38.892175    1.1224537 
     117            0   -241.85749    2.2449075    38.892175    1.1224537 
     118            0    -241.8575    2.2449075    38.892175    1.1224537 
     119            0   -241.85751    2.2449075    38.892175    1.1224537 
     120            0   -241.85752    2.2449075    38.892175    1.1224537 
     121            0   -241.85753    2.2449075    38.892175    1.1224537 
     122            0   -241.85753    2.2449075    38.892175    1.1224537 
     123            0   -241.85754    2.2449075    38.892175    1.1224537 
     124            0   -241.85754    2.2449075    38.892175    1.1224537 
     125            0   -241.85754    2.2449075    38.892175    1.1224537 
Loop time of 0.018823 on 1 procs for 12 steps with 82 atoms

Minimization stats:
  Stopping criterion = linesearch alpha is zero
  Energy initial, next-to-last, final = 
         -241.85746374     -241.857537923     -241.857537923
  Force two-norm initial, final = 0.0691791 0.0126117
  Force max component initial, final = 0.0340603 0.00273686
  Final line search alpha, max atom move = 6.10352e-05 1.67045e-07
  Iterations, force evaluations = 12 101

Pair  time (%) = 0.00159444 (8.47068)
Neigh time (%) = 0 (0)
Comm  time (%) = 0.000125082 (0.664519)
Outpt time (%) = 6.19944e-05 (0.329354)
Other time (%) = 0.0170415 (90.5354)

Nlocal:    82 ave 82 max 82 min
Histogram: 1 0 0 0 0 0 0 0 0 0
Nghost:    175 ave 175 max 175 min
Histogram: 1 0 0 0 0 0 0 0 0 0
Neighs:    714 ave 714 max 714 min
Histogram: 1 0 0 0 0 0 0 0 0 0

Total # of neighbors = 714
Ave neighs/atom = 8.70732
Neighbor list builds = 0
Dangerous builds = 0
        # write_dump all atom ${dumpfile}
        next i
jump SELF loop1
        displace_atoms upper move ${xstep1} 0.0 0.0 units lattice
        displace_atoms upper move 0.00333333333333333 0.0 0.0 units lattice
        min_style ${style}
        min_style cg
        minimize ${etol} ${ftol} ${maxiter} ${maxeval}
        minimize 1e-12 ${ftol} ${maxiter} ${maxeval}
        minimize 1e-12 1e-08 ${maxiter} ${maxeval}
        minimize 1e-12 1e-08 10000 ${maxeval}
        minimize 1e-12 1e-08 10000 20000
WARNING: Resetting reneighboring criteria during minimization (../min.cpp:168)
Memory usage per processor = 3.35169 Mbytes
Step Temp PotEng Lx Ly Lz 
     125            0   -241.85064    2.2449075    38.892815    1.1224537 
     126            0   -241.85066    2.2449075    38.892815    1.1224537 
     127            0   -241.85066    2.2449075    38.892815    1.1224537 
Loop time of 0.000619025 on 1 procs for 2 steps with 82 atoms

Minimization stats:
  Stopping criterion = linesearch alpha is zero
  Energy initial, next-to-last, final = 
         -241.85064301     -241.850657634     -241.850657634
  Force two-norm initial, final = 0.070379 0.042193
  Force max component initial, final = 0.0346285 0.0198719
  Final line search alpha, max atom move = 3.8147e-06 7.58052e-08
  Iterations, force evaluations = 2 28

Pair  time (%) = 0.000495079 (79.9772)
Neigh time (%) = 0 (0)
Comm  time (%) = 4.81548e-05 (7.77915)
Outpt time (%) = 7.06373e-06 (1.14111)
Other time (%) = 6.87275e-05 (11.1026)

Nlocal:    82 ave 82 max 82 min
Histogram: 1 0 0 0 0 0 0 0 0 0
Nghost:    175 ave 175 max 175 min
Histogram: 1 0 0 0 0 0 0 0 0 0
Neighs:    714 ave 714 max 714 min
Histogram: 1 0 0 0 0 0 0 0 0 0

Total # of neighbors = 714
Ave neighs/atom = 8.70732
Neighbor list builds = 0
Dangerous builds = 0
        # write_dump all atom ${dumpfile}
        next i
jump SELF loop1
        displace_atoms upper move ${xstep1} 0.0 0.0 units lattice
        displace_atoms upper move 0.00333333333333333 0.0 0.0 units lattice
        min_style ${style}
        min_style cg
        minimize ${etol} ${ftol} ${maxiter} ${maxeval}
        minimize 1e-12 ${ftol} ${maxiter} ${maxeval}
        minimize 1e-12 1e-08 ${maxiter} ${maxeval}
        minimize 1e-12 1e-08 10000 ${maxeval}
        minimize 1e-12 1e-08 10000 20000
WARNING: Resetting reneighboring criteria during minimization (../min.cpp:168)
Memory usage per processor = 3.35169 Mbytes
Step Temp PotEng Lx Ly Lz 
     127            0   -241.84366    2.2449075    38.892824    1.1224537 
     128            0   -241.84371    2.2449075    38.892824    1.1224537 
     129            0   -241.84372    2.2449075    38.892824    1.1224537 
     130            0   -241.84372    2.2449075    38.892824    1.1224537 
     131            0   -241.84373    2.2449075    38.892824    1.1224537 
     132            0   -241.84375    2.2449075    38.892824    1.1224537 
     133            0   -241.84377    2.2449075    38.892824    1.1224537 
     134            0   -241.84379    2.2449075    38.892824    1.1224537 
     135            0   -241.84381    2.2449075    38.892824    1.1224537 
     136            0   -241.84384    2.2449075    38.892824    1.1224537 
     137            0   -241.84384    2.2449075    38.892824    1.1224537 
     138            0   -241.84384    2.2449075    38.892824    1.1224537 
Loop time of 0.0017569 on 1 procs for 11 steps with 82 atoms

Minimization stats:
  Stopping criterion = linesearch alpha is zero
  Energy initial, next-to-last, final = 
         -241.84365574     -241.843844174     -241.843844174
  Force two-norm initial, final = 0.111758 0.0197477
  Force max component initial, final = 0.0554317 0.00621539
  Final line search alpha, max atom move = 1.52588e-05 9.48394e-08
  Iterations, force evaluations = 11 85

Pair  time (%) = 0.00142688 (81.2159)
Neigh time (%) = 0 (0)
Comm  time (%) = 9.99277e-05 (5.68772)
Outpt time (%) = 5.41449e-05 (3.08184)
Other time (%) = 0.000175945 (10.0145)

Nlocal:    82 ave 82 max 82 min
Histogram: 1 0 0 0 0 0 0 0 0 0
Nghost:    175 ave 175 max 175 min
Histogram: 1 0 0 0 0 0 0 0 0 0
Neighs:    714 ave 714 max 714 min
Histogram: 1 0 0 0 0 0 0 0 0 0

Total # of neighbors = 714
Ave neighs/atom = 8.70732
Neighbor list builds = 0
Dangerous builds = 0
        # write_dump all atom ${dumpfile}
        next i
jump SELF loop1
        displace_atoms upper move ${xstep1} 0.0 0.0 units lattice
        displace_atoms upper move 0.00333333333333333 0.0 0.0 units lattice
        min_style ${style}
        min_style cg
        minimize ${etol} ${ftol} ${maxiter} ${maxeval}
        minimize 1e-12 ${ftol} ${maxiter} ${maxeval}
        minimize 1e-12 1e-08 ${maxiter} ${maxeval}
        minimize 1e-12 1e-08 10000 ${maxeval}
        minimize 1e-12 1e-08 10000 20000
WARNING: Resetting reneighboring criteria during minimization (../min.cpp:168)
Memory usage per processor = 3.35169 Mbytes
Step Temp PotEng Lx Ly Lz 
     138            0   -241.83685    2.2449075    38.894437    1.1224537 
     139            0   -241.83686    2.2449075    38.894437    1.1224537 
     140            0   -241.83688    2.2449075    38.894437    1.1224537 
     141            0   -241.83688    2.2449075    38.894437    1.1224537 
     142            0    -241.8369    2.2449075    38.894437    1.1224537 
     143            0    -241.8369    2.2449075    38.894437    1.1224537 
     144            0   -241.83691    2.2449075    38.894437    1.1224537 
     145            0   -241.83692    2.2449075    38.894437    1.1224537 
     146            0   -241.83693    2.2449075    38.894437    1.1224537 
     147            0   -241.83693    2.2449075    38.894437    1.1224537 
     148            0   -241.83693    2.2449075    38.894437    1.1224537 
Loop time of 0.00209899 on 1 procs for 10 steps with 82 atoms

Minimization stats:
  Stopping criterion = linesearch alpha is zero
  Energy initial, next-to-last, final = 
         -241.83684609     -241.836928583     -241.836928583
  Force two-norm initial, final = 0.0715136 0.0159501
  Force max component initial, final = 0.0343922 0.0041626
  Final line search alpha, max atom move = 3.05176e-05 1.27032e-07
  Iterations, force evaluations = 10 78

Pair  time (%) = 0.00129074 (61.4934)
Neigh time (%) = 0 (0)
Comm  time (%) = 0.000102228 (4.87031)
Outpt time (%) = 6.67891e-05 (3.18196)
Other time (%) = 0.000639233 (30.4543)

Nlocal:    82 ave 82 max 82 min
Histogram: 1 0 0 0 0 0 0 0 0 0
Nghost:    175 ave 175 max 175 min
Histogram: 1 0 0 0 0 0 0 0 0 0
Neighs:    714 ave 714 max 714 min
Histogram: 1 0 0 0 0 0 0 0 0 0

Total # of neighbors = 714
Ave neighs/atom = 8.70732
Neighbor list builds = 0
Dangerous builds = 0
        # write_dump all atom ${dumpfile}
        next i
jump SELF loop1
        displace_atoms upper move ${xstep1} 0.0 0.0 units lattice
        displace_atoms upper move 0.00333333333333333 0.0 0.0 units lattice
        min_style ${style}
        min_style cg
        minimize ${etol} ${ftol} ${maxiter} ${maxeval}
        minimize 1e-12 ${ftol} ${maxiter} ${maxeval}
        minimize 1e-12 1e-08 ${maxiter} ${maxeval}
        minimize 1e-12 1e-08 10000 ${maxeval}
        minimize 1e-12 1e-08 10000 20000
WARNING: Resetting reneighboring criteria during minimization (../min.cpp:168)
Memory usage per processor = 3.35169 Mbytes
Step Temp PotEng Lx Ly Lz 
     148            0   -241.82988    2.2449075    38.895759    1.1224537 
     149            0   -241.82989    2.2449075    38.895759    1.1224537 
     150            0    -241.8299    2.2449075    38.895759    1.1224537 
     151            0   -241.82991    2.2449075    38.895759    1.1224537 
     152            0   -241.82993    2.2449075    38.895759    1.1224537 
     153            0   -241.82993    2.2449075    38.895759    1.1224537 
     154            0   -241.82994    2.2449075    38.895759    1.1224537 
     155            0   -241.82994    2.2449075    38.895759    1.1224537 
     156            0   -241.82994    2.2449075    38.895759    1.1224537 
     157            0   -241.82995    2.2449075    38.895759    1.1224537 
     158            0   -241.82995    2.2449075    38.895759    1.1224537 
     159            0   -241.82995    2.2449075    38.895759    1.1224537 
     160            0   -241.82995    2.2449075    38.895759    1.1224537 
     161            0   -241.82996    2.2449075    38.895759    1.1224537 
     162            0   -241.83007    2.2449075    38.895759    1.1224537 
     163            0   -241.83012    2.2449075    38.895759    1.1224537 
     164            0   -241.83013    2.2449075    38.895759    1.1224537 
     165            0   -241.83014    2.2449075    38.895759    1.1224537 
     166            0   -241.83016    2.2449075    38.895759    1.1224537 
     167            0   -241.83016    2.2449075    38.895759    1.1224537 
Loop time of 0.00295505 on 1 procs for 19 steps with 82 atoms

Minimization stats:
  Stopping criterion = linesearch alpha is zero
  Energy initial, next-to-last, final = 
        -241.829879408     -241.830159296     -241.830159296
  Force two-norm initial, final = 0.0700175 0.0236564
  Force max component initial, final = 0.0341309 0.00474793
  Final line search alpha, max atom move = 1.52588e-05 7.24476e-08
  Iterations, force evaluations = 19 135

Pair  time (%) = 0.00221223 (74.8626)
Neigh time (%) = 0 (0)
Comm  time (%) = 0.000170901 (5.78334)
Outpt time (%) = 0.000108794 (3.68163)
Other time (%) = 0.000463127 (15.6724)

Nlocal:    82 ave 82 max 82 min
Histogram: 1 0 0 0 0 0 0 0 0 0
Nghost:    175 ave 175 max 175 min
Histogram: 1 0 0 0 0 0 0 0 0 0
Neighs:    714 ave 714 max 714 min
Histogram: 1 0 0 0 0 0 0 0 0 0

Total # of neighbors = 714
Ave neighs/atom = 8.70732
Neighbor list builds = 0
Dangerous builds = 0
        # write_dump all atom ${dumpfile}
        next i
jump SELF loop1
        displace_atoms upper move ${xstep1} 0.0 0.0 units lattice
        displace_atoms upper move 0.00333333333333333 0.0 0.0 units lattice
        min_style ${style}
        min_style cg
        minimize ${etol} ${ftol} ${maxiter} ${maxeval}
        minimize 1e-12 ${ftol} ${maxiter} ${maxeval}
        minimize 1e-12 1e-08 ${maxiter} ${maxeval}
        minimize 1e-12 1e-08 10000 ${maxeval}
        minimize 1e-12 1e-08 10000 20000
WARNING: Resetting reneighboring criteria during minimization (../min.cpp:168)
Memory usage per processor = 3.35169 Mbytes
Step Temp PotEng Lx Ly Lz 
     167            0    -241.8231    2.2449075     38.90575    1.1224537 
     168            0   -241.82311    2.2449075     38.90575    1.1224537 
     169            0   -241.82312    2.2449075     38.90575    1.1224537 
     170            0   -241.82312    2.2449075     38.90575    1.1224537 
     171            0   -241.82312    2.2449075     38.90575    1.1224537 
Loop time of 0.000848924 on 1 procs for 4 steps with 82 atoms

Minimization stats:
  Stopping criterion = linesearch alpha is zero
  Energy initial, next-to-last, final = 
[...]
Dangerous builds = 0
        # write_dump all atom ${dumpfile}
        next i
jump SELF loop1
        displace_atoms upper move ${xstep1} 0.0 0.0 units lattice
        displace_atoms upper move 0.00333333333333333 0.0 0.0 units lattice
        min_style ${style}
        min_style cg
        minimize ${etol} ${ftol} ${maxiter} ${maxeval}
        minimize 1e-12 ${ftol} ${maxiter} ${maxeval}
        minimize 1e-12 1e-08 ${maxiter} ${maxeval}
        minimize 1e-12 1e-08 10000 ${maxeval}
        minimize 1e-12 1e-08 10000 20000
WARNING: Resetting reneighboring criteria during minimization (../min.cpp:168)
Memory usage per processor = 3.35169 Mbytes
Step Temp PotEng Lx Ly Lz 
    1248            0   -241.98274    2.2449075    38.904782    1.1224537 
    1249            0   -241.98274    2.2449075    38.904782    1.1224537 
Loop time of 0.000252055 on 1 procs for 1 steps with 82 atoms

Minimization stats:
  Stopping criterion = linesearch alpha is zero
  Energy initial, next-to-last, final = 
        -241.982742567     -241.982742567     -241.982742567
  Force two-norm initial, final = 0.0290685 0.0290685
  Force max component initial, final = 0.0119586 0.0119586
  Final line search alpha, max atom move = 7.62939e-06 9.12371e-08
  Iterations, force evaluations = 1 18

Pair  time (%) = 0.000202329 (80.2718)
Neigh time (%) = 0 (0)
Comm  time (%) = 1.88304e-05 (7.47075)
Outpt time (%) = 0 (0)
Other time (%) = 3.08956e-05 (12.2575)

Nlocal:    82 ave 82 max 82 min
Histogram: 1 0 0 0 0 0 0 0 0 0
Nghost:    185 ave 185 max 185 min
Histogram: 1 0 0 0 0 0 0 0 0 0
Neighs:    718 ave 718 max 718 min
Histogram: 1 0 0 0 0 0 0 0 0 0

Total # of neighbors = 718
Ave neighs/atom = 8.7561
Neighbor list builds = 0
Dangerous builds = 0
        # write_dump all atom ${dumpfile}
        next i
jump SELF loop1
        displace_atoms upper move ${xstep1} 0.0 0.0 units lattice
        displace_atoms upper move 0.00333333333333333 0.0 0.0 units lattice
        min_style ${style}
        min_style cg
        minimize ${etol} ${ftol} ${maxiter} ${maxeval}
        minimize 1e-12 ${ftol} ${maxiter} ${maxeval}
        minimize 1e-12 1e-08 ${maxiter} ${maxeval}
        minimize 1e-12 1e-08 10000 ${maxeval}
        minimize 1e-12 1e-08 10000 20000
WARNING: Resetting reneighboring criteria during minimization (../min.cpp:168)
Memory usage per processor = 3.35169 Mbytes
Step Temp PotEng Lx Ly Lz 
    1249            0    -241.9859    2.2449075    38.904782    1.1224537 
    1250            0    -241.9859    2.2449075    38.904782    1.1224537 
Loop time of 0.00036907 on 1 procs for 1 steps with 82 atoms

Minimization stats:
  Stopping criterion = linesearch alpha is zero
  Energy initial, next-to-last, final = 
        -241.985901762     -241.985901762     -241.985901762
  Force two-norm initial, final = 0.0298145 0.0298145
  Force max component initial, final = 0.0119586 0.0119586
  Final line search alpha, max atom move = 7.62939e-06 9.12371e-08
  Iterations, force evaluations = 1 18

Pair  time (%) = 0.000304265 (82.4409)
Neigh time (%) = 0 (0)
Comm  time (%) = 1.91428e-05 (5.18675)
Outpt time (%) = 0 (0)
Other time (%) = 4.56626e-05 (12.3723)

Nlocal:    82 ave 82 max 82 min
Histogram: 1 0 0 0 0 0 0 0 0 0
Nghost:    185 ave 185 max 185 min
Histogram: 1 0 0 0 0 0 0 0 0 0
Neighs:    718 ave 718 max 718 min
Histogram: 1 0 0 0 0 0 0 0 0 0

Total # of neighbors = 718
Ave neighs/atom = 8.7561
Neighbor list builds = 0
Dangerous builds = 0
        # write_dump all atom ${dumpfile}
        next i
jump SELF loop1
        displace_atoms upper move ${xstep1} 0.0 0.0 units lattice
        displace_atoms upper move 0.00333333333333333 0.0 0.0 units lattice
        min_style ${style}
        min_style cg
        minimize ${etol} ${ftol} ${maxiter} ${maxeval}
        minimize 1e-12 ${ftol} ${maxiter} ${maxeval}
        minimize 1e-12 1e-08 ${maxiter} ${maxeval}
        minimize 1e-12 1e-08 10000 ${maxeval}
        minimize 1e-12 1e-08 10000 20000
WARNING: Resetting reneighboring criteria during minimization (../min.cpp:168)
Memory usage per processor = 3.35169 Mbytes
Step Temp PotEng Lx Ly Lz 
    1250            0   -241.98875    2.2449075    38.904782    1.1224537 
    1251            0   -241.98877    2.2449075    38.904782    1.1224537 
    1252            0   -241.98877    2.2449075    38.904782    1.1224537 
Loop time of 0.00306496 on 1 procs for 2 steps with 82 atoms

Minimization stats:
  Stopping criterion = linesearch alpha is zero
  Energy initial, next-to-last, final = 
        -241.988750901     -241.988769156     -241.988769156
  Force two-norm initial, final = 0.0435583 0.0273601
  Force max component initial, final = 0.0165825 0.00951369
  Final line search alpha, max atom move = 7.62939e-06 7.25837e-08
  Iterations, force evaluations = 2 25

Pair  time (%) = 0.000467838 (15.2641)
Neigh time (%) = 0 (0)
Comm  time (%) = 3.5032e-05 (1.14299)
Outpt time (%) = 0.002267 (73.9653)
Other time (%) = 0.000295082 (9.6276)

Nlocal:    82 ave 82 max 82 min
Histogram: 1 0 0 0 0 0 0 0 0 0
Nghost:    185 ave 185 max 185 min
Histogram: 1 0 0 0 0 0 0 0 0 0
Neighs:    718 ave 718 max 718 min
Histogram: 1 0 0 0 0 0 0 0 0 0

Total # of neighbors = 718
Ave neighs/atom = 8.7561
Neighbor list builds = 0
Dangerous builds = 0
        # write_dump all atom ${dumpfile}
        next i
jump SELF loop1
        displace_atoms upper move ${xstep1} 0.0 0.0 units lattice
        displace_atoms upper move 0.00333333333333333 0.0 0.0 units lattice
        min_style ${style}
        min_style cg
        minimize ${etol} ${ftol} ${maxiter} ${maxeval}
        minimize 1e-12 ${ftol} ${maxiter} ${maxeval}
        minimize 1e-12 1e-08 ${maxiter} ${maxeval}
        minimize 1e-12 1e-08 10000 ${maxeval}
        minimize 1e-12 1e-08 10000 20000
WARNING: Resetting reneighboring criteria during minimization (../min.cpp:168)
Memory usage per processor = 3.35169 Mbytes
Step Temp PotEng Lx Ly Lz 
    1252            0    -241.9913    2.2449075    38.904742    1.1224537 
    1253            0    -241.9913    2.2449075    38.904742    1.1224537 
    1254            0    -241.9913    2.2449075    38.904742    1.1224537 
    1255            0    -241.9913    2.2449075    38.904742    1.1224537 
    1256            0    -241.9913    2.2449075    38.904742    1.1224537 
Loop time of 0.00104991 on 1 procs for 4 steps with 82 atoms

Minimization stats:
  Stopping criterion = linesearch alpha is zero
  Energy initial, next-to-last, final = 
        -241.991296648     -241.991300293     -241.991300293
  Force two-norm initial, final = 0.0277782 0.0224126
  Force max component initial, final = 0.00951369 0.00729184
  Final line search alpha, max atom move = 1.52588e-05 1.11265e-07
  Iterations, force evaluations = 4 51

Pair  time (%) = 0.000860382 (81.948)
Neigh time (%) = 0 (0)
Comm  time (%) = 6.40939e-05 (6.10469)
Outpt time (%) = 2.0129e-05 (1.91721)
Other time (%) = 0.000105308 (10.0301)

Nlocal:    82 ave 82 max 82 min
Histogram: 1 0 0 0 0 0 0 0 0 0
Nghost:    185 ave 185 max 185 min
Histogram: 1 0 0 0 0 0 0 0 0 0
Neighs:    718 ave 718 max 718 min
Histogram: 1 0 0 0 0 0 0 0 0 0

Total # of neighbors = 718
Ave neighs/atom = 8.7561
Neighbor list builds = 0
Dangerous builds = 0
        # write_dump all atom ${dumpfile}
        next i
jump SELF loop1
        displace_atoms upper move ${xstep1} 0.0 0.0 units lattice
        displace_atoms upper move 0.00333333333333333 0.0 0.0 units lattice
        min_style ${style}
        min_style cg
        minimize ${etol} ${ftol} ${maxiter} ${maxeval}
        minimize 1e-12 ${ftol} ${maxiter} ${maxeval}
        minimize 1e-12 1e-08 ${maxiter} ${maxeval}
        minimize 1e-12 1e-08 10000 ${maxeval}
        minimize 1e-12 1e-08 10000 20000
WARNING: Resetting reneighboring criteria during minimization (../min.cpp:168)
Memory usage per processor = 3.35169 Mbytes
Step Temp PotEng Lx Ly Lz 
    1256            0   -241.99349    2.2449075    38.904722    1.1224537 
    1257            0    -241.9935    2.2449075    38.904722    1.1224537 
    1258            0   -241.99351    2.2449075    38.904722    1.1224537 
    1259            0   -241.99351    2.2449075    38.904722    1.1224537 
Loop time of 0.000627063 on 1 procs for 3 steps with 82 atoms

Minimization stats:
  Stopping criterion = linesearch alpha is zero
  Energy initial, next-to-last, final = 
        -241.993491845     -241.993505075     -241.993505075
  Force two-norm initial, final = 0.0329428 0.0165447
  Force max component initial, final = 0.012574 0.00484986
  Final line search alpha, max atom move = 3.05176e-05 1.48006e-07
  Iterations, force evaluations = 3 31

Pair  time (%) = 0.000510049 (81.3393)
Neigh time (%) = 0 (0)
Comm  time (%) = 3.75911e-05 (5.99479)
Outpt time (%) = 1.09653e-05 (1.74867)
Other time (%) = 6.84577e-05 (10.9172)

Nlocal:    82 ave 82 max 82 min
Histogram: 1 0 0 0 0 0 0 0 0 0
Nghost:    185 ave 185 max 185 min
Histogram: 1 0 0 0 0 0 0 0 0 0
Neighs:    718 ave 718 max 718 min
Histogram: 1 0 0 0 0 0 0 0 0 0

Total # of neighbors = 718
Ave neighs/atom = 8.7561
Neighbor list builds = 0
Dangerous builds = 0
        # write_dump all atom ${dumpfile}
        next i
jump SELF loop1
        displace_atoms upper move ${xstep1} 0.0 0.0 units lattice
        displace_atoms upper move 0.00333333333333333 0.0 0.0 units lattice
        min_style ${style}
        min_style cg
        minimize ${etol} ${ftol} ${maxiter} ${maxeval}
        minimize 1e-12 ${ftol} ${maxiter} ${maxeval}
        minimize 1e-12 1e-08 ${maxiter} ${maxeval}
        minimize 1e-12 1e-08 10000 ${maxeval}
        minimize 1e-12 1e-08 10000 20000
WARNING: Resetting reneighboring criteria during minimization (../min.cpp:168)
Memory usage per processor = 3.35169 Mbytes
Step Temp PotEng Lx Ly Lz 
    1259            0   -241.99537    2.2449075     38.90466    1.1224537 
    1260            0   -241.99538    2.2449075     38.90466    1.1224537 
    1261            0   -241.99538    2.2449075     38.90466    1.1224537 
    1262            0   -241.99538    2.2449075     38.90466    1.1224537 
Loop time of 0.0011369 on 1 procs for 3 steps with 82 atoms

Minimization stats:
  Stopping criterion = linesearch alpha is zero
  Energy initial, next-to-last, final = 
        -241.995367877     -241.995379229     -241.995379229
  Force two-norm initial, final = 0.0210893 0.021418
  Force max component initial, final = 0.00665571 0.00892998
  Final line search alpha, max atom move = 1.52588e-05 1.36261e-07
  Iterations, force evaluations = 3 31

Pair  time (%) = 0.000894001 (78.6347)
Neigh time (%) = 0 (0)
Comm  time (%) = 0.000102663 (9.03002)
Outpt time (%) = 1.58901e-05 (1.39767)
Other time (%) = 0.00012435 (10.9376)

Nlocal:    82 ave 82 max 82 min
Histogram: 1 0 0 0 0 0 0 0 0 0
Nghost:    185 ave 185 max 185 min
Histogram: 1 0 0 0 0 0 0 0 0 0
Neighs:    718 ave 718 max 718 min
Histogram: 1 0 0 0 0 0 0 0 0 0

Total # of neighbors = 718
Ave neighs/atom = 8.7561
Neighbor list builds = 0
Dangerous builds = 0
        # write_dump all atom ${dumpfile}
        next i
jump SELF loop1
        displace_atoms upper move ${xstep1} 0.0 0.0 units lattice
        displace_atoms upper move 0.00333333333333333 0.0 0.0 units lattice
        min_style ${style}
        min_style cg
        minimize ${etol} ${ftol} ${maxiter} ${maxeval}
        minimize 1e-12 ${ftol} ${maxiter} ${maxeval}
        minimize 1e-12 1e-08 ${maxiter} ${maxeval}
        minimize 1e-12 1e-08 10000 ${maxeval}
        minimize 1e-12 1e-08 10000 20000
WARNING: Resetting reneighboring criteria during minimization (../min.cpp:168)
Memory usage per processor = 3.35169 Mbytes
Step Temp PotEng Lx Ly Lz 
    1262            0   -241.99691    2.2449075    38.904528    1.1224537 
    1263            0   -241.99691    2.2449075    38.904528    1.1224537 
    1264            0   -241.99691    2.2449075    38.904528    1.1224537 
Loop time of 0.000485072 on 1 procs for 2 steps with 82 atoms

Minimization stats:
  Stopping criterion = linesearch alpha is zero
  Energy initial, next-to-last, final = 
        -241.996911225     -241.996911548     -241.996911548
  Force two-norm initial, final = 0.0129279 0.0115159
  Force max component initial, final = 0.00255543 0.00220889
  Final line search alpha, max atom move = 6.10352e-05 1.3482e-07
  Iterations, force evaluations = 2 24

Pair  time (%) = 0.000395536 (81.5416)
Neigh time (%) = 0 (0)
Comm  time (%) = 3.12846e-05 (6.44948)
Outpt time (%) = 5.98037e-06 (1.23288)
Other time (%) = 5.22715e-05 (10.776)

Nlocal:    82 ave 82 max 82 min
Histogram: 1 0 0 0 0 0 0 0 0 0
Nghost:    185 ave 185 max 185 min
Histogram: 1 0 0 0 0 0 0 0 0 0
Neighs:    718 ave 718 max 718 min
Histogram: 1 0 0 0 0 0 0 0 0 0

Total # of neighbors = 718
Ave neighs/atom = 8.7561
Neighbor list builds = 0
Dangerous builds = 0
        # write_dump all atom ${dumpfile}
        next i
jump SELF loop1
        displace_atoms upper move ${xstep1} 0.0 0.0 units lattice
        displace_atoms upper move 0.00333333333333333 0.0 0.0 units lattice
        min_style ${style}
        min_style cg
        minimize ${etol} ${ftol} ${maxiter} ${maxeval}
        minimize 1e-12 ${ftol} ${maxiter} ${maxeval}
        minimize 1e-12 1e-08 ${maxiter} ${maxeval}
        minimize 1e-12 1e-08 10000 ${maxeval}
        minimize 1e-12 1e-08 10000 20000
WARNING: Resetting reneighboring criteria during minimization (../min.cpp:168)
Memory usage per processor = 3.35169 Mbytes
Step Temp PotEng Lx Ly Lz 
    1264            0    -241.9981    2.2449075    38.904518    1.1224537 
    1265            0   -241.99811    2.2449075    38.904518    1.1224537 
    1266            0   -241.99811    2.2449075    38.904518    1.1224537 
    1267            0   -241.99811    2.2449075    38.904518    1.1224537 
    1268            0   -241.99811    2.2449075    38.904518    1.1224537 
Loop time of 0.000575009 on 1 procs for 4 steps with 82 atoms

Minimization stats:
  Stopping criterion = linesearch alpha is zero
  Energy initial, next-to-last, final = 
         -241.99810151     -241.998114282     -241.998114282
  Force two-norm initial, final = 0.013659 0.0317336
  Force max component initial, final = 0.00386194 0.0147529
  Final line search alpha, max atom move = 7.62939e-06 1.12555e-07
  Iterations, force evaluations = 4 41

Pair  time (%) = 0.000459473 (79.9071)
Neigh time (%) = 0 (0)
Comm  time (%) = 3.52156e-05 (6.12436)
Outpt time (%) = 1.48864e-05 (2.5889)
Other time (%) = 6.54341e-05 (11.3797)

Nlocal:    82 ave 82 max 82 min
Histogram: 1 0 0 0 0 0 0 0 0 0
Nghost:    185 ave 185 max 185 min
Histogram: 1 0 0 0 0 0 0 0 0 0
Neighs:    718 ave 718 max 718 min
Histogram: 1 0 0 0 0 0 0 0 0 0

Total # of neighbors = 718
Ave neighs/atom = 8.7561
Neighbor list builds = 0
Dangerous builds = 0
        # write_dump all atom ${dumpfile}
        next i
jump SELF loop1
        displace_atoms upper move ${xstep1} 0.0 0.0 units lattice
        displace_atoms upper move 0.00333333333333333 0.0 0.0 units lattice
        min_style ${style}
        min_style cg
        minimize ${etol} ${ftol} ${maxiter} ${maxeval}
        minimize 1e-12 ${ftol} ${maxiter} ${maxeval}
        minimize 1e-12 1e-08 ${maxiter} ${maxeval}
        minimize 1e-12 1e-08 10000 ${maxeval}
        minimize 1e-12 1e-08 10000 20000
WARNING: Resetting reneighboring criteria during minimization (../min.cpp:168)
Memory usage per processor = 3.35169 Mbytes
Step Temp PotEng Lx Ly Lz 
    1268            0   -241.99897    2.2449075    38.904205    1.1224537 
    1269            0   -241.99897    2.2449075    38.904205    1.1224537 
Loop time of 0.000384024 on 1 procs for 1 steps with 82 atoms

Minimization stats:
  Stopping criterion = linesearch alpha is zero
  Energy initial, next-to-last, final = 
        -241.998967552     -241.998967552     -241.998967552
  Force two-norm initial, final = 0.0252864 0.0252864
  Force max component initial, final = 0.0112046 0.0112046
  Final line search alpha, max atom move = 1.52588e-05 1.70968e-07
  Iterations, force evaluations = 1 17

Pair  time (%) = 0.00031195 (81.232)
Neigh time (%) = 0 (0)
Comm  time (%) = 2.14145e-05 (5.57634)
Outpt time (%) = 0 (0)
Other time (%) = 5.06589e-05 (13.1916)

Nlocal:    82 ave 82 max 82 min
Histogram: 1 0 0 0 0 0 0 0 0 0
Nghost:    185 ave 185 max 185 min
Histogram: 1 0 0 0 0 0 0 0 0 0
Neighs:    718 ave 718 max 718 min
Histogram: 1 0 0 0 0 0 0 0 0 0

Total # of neighbors = 718
Ave neighs/atom = 8.7561
Neighbor list builds = 0
Dangerous builds = 0
        # write_dump all atom ${dumpfile}
        next i
jump SELF loop1
        displace_atoms upper move ${xstep1} 0.0 0.0 units lattice
        displace_atoms upper move 0.00333333333333333 0.0 0.0 units lattice
        min_style ${style}
        min_style cg
        minimize ${etol} ${ftol} ${maxiter} ${maxeval}
        minimize 1e-12 ${ftol} ${maxiter} ${maxeval}
        minimize 1e-12 1e-08 ${maxiter} ${maxeval}
        minimize 1e-12 1e-08 10000 ${maxeval}
        minimize 1e-12 1e-08 10000 20000
WARNING: Resetting reneighboring criteria during minimization (../min.cpp:168)
Memory usage per processor = 3.35169 Mbytes
Step Temp PotEng Lx Ly Lz 
    1269            0   -241.99948    2.2449075    38.904205    1.1224537 
    1270            0   -241.99948    2.2449075    38.904205    1.1224537 
Loop time of 0.000345966 on 1 procs for 1 steps with 82 atoms

Minimization stats:
  Stopping criterion = linesearch alpha is zero
  Energy initial, next-to-last, final = 
        -241.999479071     -241.999479071     -241.999479071
  Force two-norm initial, final = 0.0216188 0.0216188
  Force max component initial, final = 0.00907837 0.00907837
  Final line search alpha, max atom move = 1.52588e-05 1.38525e-07
  Iterations, force evaluations = 1 17

Pair  time (%) = 0.000287237 (83.0248)
Neigh time (%) = 0 (0)
Comm  time (%) = 2.26314e-05 (6.54151)
Outpt time (%) = 0 (0)
Other time (%) = 3.6097e-05 (10.4337)

Nlocal:    82 ave 82 max 82 min
Histogram: 1 0 0 0 0 0 0 0 0 0
Nghost:    185 ave 185 max 185 min
Histogram: 1 0 0 0 0 0 0 0 0 0
Neighs:    718 ave 718 max 718 min
Histogram: 1 0 0 0 0 0 0 0 0 0

Total # of neighbors = 718
Ave neighs/atom = 8.7561
Neighbor list builds = 0
Dangerous builds = 0
        # write_dump all atom ${dumpfile}
        next i
jump SELF loop1
        displace_atoms upper move ${xstep1} 0.0 0.0 units lattice
        displace_atoms upper move 0.00333333333333333 0.0 0.0 units lattice
        min_style ${style}
        min_style cg
        minimize ${etol} ${ftol} ${maxiter} ${maxeval}
        minimize 1e-12 ${ftol} ${maxiter} ${maxeval}
        minimize 1e-12 1e-08 ${maxiter} ${maxeval}
        minimize 1e-12 1e-08 10000 ${maxeval}
        minimize 1e-12 1e-08 10000 20000
WARNING: Resetting reneighboring criteria during minimization (../min.cpp:168)
Memory usage per processor = 3.35169 Mbytes
Step Temp PotEng Lx Ly Lz 
    1270            0   -241.99965    2.2449075    38.904205    1.1224537 
    1271            0   -241.99965    2.2449075    38.904205    1.1224537 
Loop time of 0.001025 on 1 procs for 1 steps with 82 atoms

Minimization stats:
  Stopping criterion = linesearch alpha is zero
  Energy initial, next-to-last, final = 
        -241.999649603     -241.999649603     -241.999649603
  Force two-norm initial, final = 0.0204465 0.0204465
  Force max component initial, final = 0.0083695 0.0083695
  Final line search alpha, max atom move = 1.52588e-05 1.27708e-07
  Iterations, force evaluations = 1 17

Pair  time (%) = 0.00083045 (81.0194)
Neigh time (%) = 0 (0)
Comm  time (%) = 8.8974e-05 (8.68038)
Outpt time (%) = 0 (0)
Other time (%) = 0.000105577 (10.3002)

Nlocal:    82 ave 82 max 82 min
Histogram: 1 0 0 0 0 0 0 0 0 0
Nghost:    185 ave 185 max 185 min
Histogram: 1 0 0 0 0 0 0 0 0 0
Neighs:    718 ave 718 max 718 min
Histogram: 1 0 0 0 0 0 0 0 0 0

Total # of neighbors = 718
Ave neighs/atom = 8.7561
Neighbor list builds = 0
Dangerous builds = 0
        # write_dump all atom ${dumpfile}
        next i
jump SELF loop1


