LAMMPS (28 Jun 2014)
# attempt at getting generalized stacking fault (GSF) energy curve

#file prefix
variable prefix string gsf_V_ductilenew2
variable dumpfile string ${prefix}.*.dump
variable dumpfile string gsf_V_ductilenew2.*.dump
variable restartfile string ${prefix}.*.equil
variable restartfile string gsf_V_ductilenew2.*.equil

#Mass (g/mol)
variable m equal 1

# lattice constant (in Angstroms) and orientation of axes (given by lattice vectors)
variable rho equal 0.9165
variable x1 equal 1
variable x2 equal 0
variable x3 equal 0
variable y1 equal 0
variable y2 equal 1
variable y3 equal 0
# length of lattice in different directions (using orientation of lattice vectors)
variable ax equal sqrt(${x1}*${x1}+${x2}*${x2}+${x3}*${x3})
variable ax equal sqrt(1*${x1}+${x2}*${x2}+${x3}*${x3})
variable ax equal sqrt(1*1+${x2}*${x2}+${x3}*${x3})
variable ax equal sqrt(1*1+0*${x2}+${x3}*${x3})
variable ax equal sqrt(1*1+0*0+${x3}*${x3})
variable ax equal sqrt(1*1+0*0+0*${x3})
variable ax equal sqrt(1*1+0*0+0*0)
variable ay equal sqrt(${y1}*${y1}+${y2}*${y2}+${y3}*${y3})
variable ay equal sqrt(0*${y1}+${y2}*${y2}+${y3}*${y3})
variable ay equal sqrt(0*0+${y2}*${y2}+${y3}*${y3})
variable ay equal sqrt(0*0+1*${y2}+${y3}*${y3})
variable ay equal sqrt(0*0+1*1+${y3}*${y3})
variable ay equal sqrt(0*0+1*1+0*${y3})
variable ay equal sqrt(0*0+1*1+0*0)
variable az equal 1

# size of box in lattice units
variable lxpos equal 1
variable lxneg equal -1*${lxpos}
variable lxneg equal -1*1
variable lypos equal 10
variable lyneg equal -1*${lypos}
variable lyneg equal -1*10
variable lzpos equal 0
variable lzneg equal -1

# Define minimization parameters and damping
variable etol equal 1.0e-12
variable ftol equal 1.0e-8
variable maxiter equal 10000
variable maxeval equal 20000
variable style string cg

# boundary conditions
dimension	2
boundary	p s p
atom_style	atomic

# create geometry
units		lj
lattice         hex ${rho}
lattice         hex 0.9165
Lattice spacing in x,y,z = 1.12245 1.94415 1.12245
region		myregion block ${lxneg} ${lxpos} ${lyneg} ${lypos} ${lzneg} ${lzpos} units lattice
region		myregion block -1 ${lxpos} ${lyneg} ${lypos} ${lzneg} ${lzpos} units lattice
region		myregion block -1 1 ${lyneg} ${lypos} ${lzneg} ${lzpos} units lattice
region		myregion block -1 1 -10 ${lypos} ${lzneg} ${lzpos} units lattice
region		myregion block -1 1 -10 10 ${lzneg} ${lzpos} units lattice
region		myregion block -1 1 -10 10 -1 ${lzpos} units lattice
region		myregion block -1 1 -10 10 -1 0 units lattice
create_box	3 myregion
Created orthogonal box = (-1.12245 -19.4415 -1.12245) to (1.12245 19.4415 0)
  1 by 1 by 1 MPI processor grid
create_atoms	1 box
Created 82 atoms

# define masses
mass * $m
mass * 1

# my fake/morse potential
pair_style      table linear 3001
pair_coeff      * * vpotential_ductilenew2 dummy
neighbor	0.3 bin
neigh_modify	delay 5

# define groups
region	    upper block INF INF 0.01 ${lypos} INF INF units lattice
region	    upper block INF INF 0.01 10 INF INF units lattice
group		upper region upper
40 atoms in group upper

# Setup output
thermo 1
thermo_style custom step temp pe lx ly lz
thermo_modify norm no

# Compute initial state by relaxing box
min_style ${style}
min_style cg
minimize ${etol} ${ftol} ${maxiter} ${maxeval}
minimize 1e-12 ${ftol} ${maxiter} ${maxeval}
minimize 1e-12 1e-08 ${maxiter} ${maxeval}
minimize 1e-12 1e-08 10000 ${maxeval}
minimize 1e-12 1e-08 10000 20000
WARNING: Resetting reneighboring criteria during minimization (../min.cpp:168)
Memory usage per processor = 3.35169 Mbytes
Step Temp PotEng Lx Ly Lz 
       0            0   -241.99993    2.2449075    38.890715    1.1224537 
       1            0   -241.99993    2.2449075    38.890715    1.1224537 
       2            0   -241.99993    2.2449075    38.890715    1.1224537 
Loop time of 0.000391074 on 1 procs for 2 steps with 82 atoms

Minimization stats:
  Stopping criterion = linesearch alpha is zero
  Energy initial, next-to-last, final = 
        -241.999927696     -241.999929863     -241.999929863
  Force two-norm initial, final = 0.000778805 0.00455994
  Force max component initial, final = 0.000389403 0.00179508
  Final line search alpha, max atom move = 0.000488281 8.76506e-07
  Iterations, force evaluations = 2 16

Pair  time (%) = 0.000267525 (68.4077)
Neigh time (%) = 0 (0)
Comm  time (%) = 2.19952e-05 (5.6243)
Outpt time (%) = 3.90582e-05 (9.98741)
Other time (%) = 6.24958e-05 (15.9806)

Nlocal:    82 ave 82 max 82 min
Histogram: 1 0 0 0 0 0 0 0 0 0
Nghost:    185 ave 185 max 185 min
Histogram: 1 0 0 0 0 0 0 0 0 0
Neighs:    718 ave 718 max 718 min
Histogram: 1 0 0 0 0 0 0 0 0 0

Total # of neighbors = 718
Ave neighs/atom = 8.7561
Neighbor list builds = 0
Dangerous builds = 0

# don't allow atoms to relax in x-direction
fix 2 all setforce 0.0 NULL 0.0

# GSF energy curve will have 100*2 steps
variable nsteps equal 300
variable sstep1 equal 1.
variable xstep1 equal ${sstep1}/(${ax}*${nsteps})
variable xstep1 equal 1/(${ax}*${nsteps})
variable xstep1 equal 1/(1*${nsteps})
variable xstep1 equal 1/(1*300)

variable i loop ${nsteps}
variable i loop 300
label loop1
        displace_atoms upper move ${xstep1} 0.0 0.0 units lattice
        displace_atoms upper move 0.00333333333333333 0.0 0.0 units lattice
        min_style ${style}
        min_style cg
        minimize ${etol} ${ftol} ${maxiter} ${maxeval}
        minimize 1e-12 ${ftol} ${maxiter} ${maxeval}
        minimize 1e-12 1e-08 ${maxiter} ${maxeval}
        minimize 1e-12 1e-08 10000 ${maxeval}
        minimize 1e-12 1e-08 10000 20000
WARNING: Resetting reneighboring criteria during minimization (../min.cpp:168)
Memory usage per processor = 3.35169 Mbytes
Step Temp PotEng Lx Ly Lz 
       2            0   -241.99976    2.2449075    38.890812    1.1224537 
       3            0   -241.99976    2.2449075    38.890812    1.1224537 
Loop time of 0.000298975 on 1 procs for 1 steps with 82 atoms

Minimization stats:
  Stopping criterion = linesearch alpha is zero
  Energy initial, next-to-last, final = 
        -241.999757399     -241.999757399     -241.999757399
  Force two-norm initial, final = 0.00478129 0.00478129
  Force max component initial, final = 0.00179508 0.00179508
  Final line search alpha, max atom move = 0.000488281 8.76506e-07
  Iterations, force evaluations = 1 12

Pair  time (%) = 0.000218255 (73.0013)
Neigh time (%) = 0 (0)
Comm  time (%) = 1.97554e-05 (6.60773)
Outpt time (%) = 0 (0)
Other time (%) = 6.0964e-05 (20.391)

Nlocal:    82 ave 82 max 82 min
Histogram: 1 0 0 0 0 0 0 0 0 0
Nghost:    185 ave 185 max 185 min
Histogram: 1 0 0 0 0 0 0 0 0 0
Neighs:    718 ave 718 max 718 min
Histogram: 1 0 0 0 0 0 0 0 0 0

Total # of neighbors = 718
Ave neighs/atom = 8.7561
Neighbor list builds = 0
Dangerous builds = 0
        # write_dump all atom ${dumpfile}
        next i
jump SELF loop1
        displace_atoms upper move ${xstep1} 0.0 0.0 units lattice
        displace_atoms upper move 0.00333333333333333 0.0 0.0 units lattice
        min_style ${style}
        min_style cg
        minimize ${etol} ${ftol} ${maxiter} ${maxeval}
        minimize 1e-12 ${ftol} ${maxiter} ${maxeval}
        minimize 1e-12 1e-08 ${maxiter} ${maxeval}
        minimize 1e-12 1e-08 10000 ${maxeval}
        minimize 1e-12 1e-08 10000 20000
WARNING: Resetting reneighboring criteria during minimization (../min.cpp:168)
Memory usage per processor = 3.35169 Mbytes
Step Temp PotEng Lx Ly Lz 
       3            0   -241.99924    2.2449075    38.890812    1.1224537 
       4            0   -241.99924    2.2449075    38.890812    1.1224537 
Loop time of 0.00023007 on 1 procs for 1 steps with 82 atoms

Minimization stats:
  Stopping criterion = linesearch alpha is zero
  Energy initial, next-to-last, final = 
        -241.999241512     -241.999241512     -241.999241512
  Force two-norm initial, final = 0.00732734 0.00732734
  Force max component initial, final = 0.00286779 0.00286779
  Final line search alpha, max atom move = 0.00012207 3.50072e-07
  Iterations, force evaluations = 1 14

Pair  time (%) = 0.000158419 (68.8566)
Neigh time (%) = 0 (0)
Comm  time (%) = 1.23486e-05 (5.36734)
Outpt time (%) = 0 (0)
Other time (%) = 5.93029e-05 (25.776)

Nlocal:    82 ave 82 max 82 min
Histogram: 1 0 0 0 0 0 0 0 0 0
Nghost:    185 ave 185 max 185 min
Histogram: 1 0 0 0 0 0 0 0 0 0
Neighs:    718 ave 718 max 718 min
Histogram: 1 0 0 0 0 0 0 0 0 0

Total # of neighbors = 718
Ave neighs/atom = 8.7561
Neighbor list builds = 0
Dangerous builds = 0
        # write_dump all atom ${dumpfile}
        next i
jump SELF loop1
        displace_atoms upper move ${xstep1} 0.0 0.0 units lattice
        displace_atoms upper move 0.00333333333333333 0.0 0.0 units lattice
        min_style ${style}
        min_style cg
        minimize ${etol} ${ftol} ${maxiter} ${maxeval}
        minimize 1e-12 ${ftol} ${maxiter} ${maxeval}
        minimize 1e-12 1e-08 ${maxiter} ${maxeval}
        minimize 1e-12 1e-08 10000 ${maxeval}
        minimize 1e-12 1e-08 10000 20000
WARNING: Resetting reneighboring criteria during minimization (../min.cpp:168)
Memory usage per processor = 3.35169 Mbytes
Step Temp PotEng Lx Ly Lz 
       4            0   -241.99838    2.2449075    38.890812    1.1224537 
       5            0   -241.99838    2.2449075    38.890812    1.1224537 
Loop time of 0.000351943 on 1 procs for 1 steps with 82 atoms

Minimization stats:
  Stopping criterion = linesearch alpha is zero
  Energy initial, next-to-last, final = 
        -241.998383655     -241.998383655     -241.998383655
  Force two-norm initial, final = 0.01366 0.01366
  Force max component initial, final = 0.00643821 0.00643821
  Final line search alpha, max atom move = 6.10352e-05 3.92957e-07
  Iterations, force evaluations = 1 15

Pair  time (%) = 0.000291853 (82.9261)
Neigh time (%) = 0 (0)
Comm  time (%) = 2.03324e-05 (5.77718)
Outpt time (%) = 0 (0)
Other time (%) = 3.9758e-05 (11.2967)

Nlocal:    82 ave 82 max 82 min
Histogram: 1 0 0 0 0 0 0 0 0 0
Nghost:    185 ave 185 max 185 min
Histogram: 1 0 0 0 0 0 0 0 0 0
Neighs:    718 ave 718 max 718 min
Histogram: 1 0 0 0 0 0 0 0 0 0

Total # of neighbors = 718
Ave neighs/atom = 8.7561
Neighbor list builds = 0
Dangerous builds = 0
        # write_dump all atom ${dumpfile}
        next i
jump SELF loop1
        displace_atoms upper move ${xstep1} 0.0 0.0 units lattice
        displace_atoms upper move 0.00333333333333333 0.0 0.0 units lattice
        min_style ${style}
        min_style cg
        minimize ${etol} ${ftol} ${maxiter} ${maxeval}
        minimize 1e-12 ${ftol} ${maxiter} ${maxeval}
        minimize 1e-12 1e-08 ${maxiter} ${maxeval}
        minimize 1e-12 1e-08 10000 ${maxeval}
        minimize 1e-12 1e-08 10000 20000
WARNING: Resetting reneighboring criteria during minimization (../min.cpp:168)
Memory usage per processor = 3.35169 Mbytes
Step Temp PotEng Lx Ly Lz 
       5            0   -241.99718    2.2449075    38.890812    1.1224537 
       6            0   -241.99718    2.2449075    38.890812    1.1224537 
Loop time of 0.000361025 on 1 procs for 1 steps with 82 atoms

Minimization stats:
  Stopping criterion = linesearch alpha is zero
  Energy initial, next-to-last, final = 
        -241.997184208     -241.997184208     -241.997184208
  Force two-norm initial, final = 0.0233072 0.0233072
  Force max component initial, final = 0.0114284 0.0114284
  Final line search alpha, max atom move = 1.52588e-05 1.74383e-07
  Iterations, force evaluations = 1 17

Pair  time (%) = 0.000297183 (82.3163)
Neigh time (%) = 0 (0)
Comm  time (%) = 2.1416e-05 (5.93199)
Outpt time (%) = 0 (0)
Other time (%) = 4.24266e-05 (11.7517)

Nlocal:    82 ave 82 max 82 min
Histogram: 1 0 0 0 0 0 0 0 0 0
Nghost:    185 ave 185 max 185 min
Histogram: 1 0 0 0 0 0 0 0 0 0
Neighs:    718 ave 718 max 718 min
Histogram: 1 0 0 0 0 0 0 0 0 0

Total # of neighbors = 718
Ave neighs/atom = 8.7561
Neighbor list builds = 0
Dangerous builds = 0
        # write_dump all atom ${dumpfile}
        next i
jump SELF loop1
        displace_atoms upper move ${xstep1} 0.0 0.0 units lattice
        displace_atoms upper move 0.00333333333333333 0.0 0.0 units lattice
        min_style ${style}
        min_style cg
        minimize ${etol} ${ftol} ${maxiter} ${maxeval}
        minimize 1e-12 ${ftol} ${maxiter} ${maxeval}
        minimize 1e-12 1e-08 ${maxiter} ${maxeval}
        minimize 1e-12 1e-08 10000 ${maxeval}
        minimize 1e-12 1e-08 10000 20000
WARNING: Resetting reneighboring criteria during minimization (../min.cpp:168)
Memory usage per processor = 3.35169 Mbytes
Step Temp PotEng Lx Ly Lz 
       6            0   -241.99564    2.2449075    38.890812    1.1224537 
       7            0   -241.99564    2.2449075    38.890812    1.1224537 
       8            0   -241.99564    2.2449075    38.890812    1.1224537 
       9            0   -241.99564    2.2449075    38.890812    1.1224537 
Loop time of 0.000840108 on 1 procs for 3 steps with 82 atoms

Minimization stats:
  Stopping criterion = linesearch alpha is zero
  Energy initial, next-to-last, final = 
        -241.995643567     -241.995644433     -241.995644433
  Force two-norm initial, final = 0.0359625 0.0312651
  Force max component initial, final = 0.0178361 0.015482
  Final line search alpha, max atom move = 7.62939e-06 1.18118e-07
  Iterations, force evaluations = 3 42

Pair  time (%) = 0.000673209 (80.1337)
Neigh time (%) = 0 (0)
Comm  time (%) = 5.22e-05 (6.2135)
Outpt time (%) = 1.20734e-05 (1.43713)
Other time (%) = 0.000102625 (12.2157)

Nlocal:    82 ave 82 max 82 min
Histogram: 1 0 0 0 0 0 0 0 0 0
Nghost:    185 ave 185 max 185 min
Histogram: 1 0 0 0 0 0 0 0 0 0
Neighs:    718 ave 718 max 718 min
Histogram: 1 0 0 0 0 0 0 0 0 0

Total # of neighbors = 718
Ave neighs/atom = 8.7561
Neighbor list builds = 0
Dangerous builds = 0
        # write_dump all atom ${dumpfile}
        next i
jump SELF loop1
        displace_atoms upper move ${xstep1} 0.0 0.0 units lattice
        displace_atoms upper move 0.00333333333333333 0.0 0.0 units lattice
        min_style ${style}
        min_style cg
        minimize ${etol} ${ftol} ${maxiter} ${maxeval}
        minimize 1e-12 ${ftol} ${maxiter} ${maxeval}
        minimize 1e-12 1e-08 ${maxiter} ${maxeval}
        minimize 1e-12 1e-08 10000 ${maxeval}
        minimize 1e-12 1e-08 10000 20000
WARNING: Resetting reneighboring criteria during minimization (../min.cpp:168)
Memory usage per processor = 3.35169 Mbytes
Step Temp PotEng Lx Ly Lz 
       9            0   -241.99376    2.2449075    38.890809    1.1224537 
      10            0   -241.99377    2.2449075    38.890809    1.1224537 
      11            0   -241.99377    2.2449075    38.890809    1.1224537 
Loop time of 0.00120296 on 1 procs for 2 steps with 82 atoms

Minimization stats:
  Stopping criterion = linesearch alpha is zero
  Energy initial, next-to-last, final = 
        -241.993760152     -241.993767243     -241.993767243
  Force two-norm initial, final = 0.046848 0.0156938
  Force max component initial, final = 0.0233238 0.00704691
  Final line search alpha, max atom move = 3.05176e-05 2.15055e-07
  Iterations, force evaluations = 2 24

Pair  time (%) = 0.000901951 (74.9776)
Neigh time (%) = 0 (0)
Comm  time (%) = 0.000132836 (11.0424)
Outpt time (%) = 5.94184e-06 (0.493935)
Other time (%) = 0.000162231 (13.486)

Nlocal:    82 ave 82 max 82 min
Histogram: 1 0 0 0 0 0 0 0 0 0
Nghost:    185 ave 185 max 185 min
Histogram: 1 0 0 0 0 0 0 0 0 0
Neighs:    718 ave 718 max 718 min
Histogram: 1 0 0 0 0 0 0 0 0 0

Total # of neighbors = 718
Ave neighs/atom = 8.7561
Neighbor list builds = 0
Dangerous builds = 0
        # write_dump all atom ${dumpfile}
        next i
jump SELF loop1
        displace_atoms upper move ${xstep1} 0.0 0.0 units lattice
        displace_atoms upper move 0.00333333333333333 0.0 0.0 units lattice
        min_style ${style}
        min_style cg
        minimize ${etol} ${ftol} ${maxiter} ${maxeval}
        minimize 1e-12 ${ftol} ${maxiter} ${maxeval}
        minimize 1e-12 1e-08 ${maxiter} ${maxeval}
        minimize 1e-12 1e-08 10000 ${maxeval}
        minimize 1e-12 1e-08 10000 20000
WARNING: Resetting reneighboring criteria during minimization (../min.cpp:168)
Memory usage per processor = 3.35169 Mbytes
Step Temp PotEng Lx Ly Lz 
      11            0   -241.99155    2.2449075    38.890789    1.1224537 
      12            0   -241.99155    2.2449075    38.890789    1.1224537 
      13            0   -241.99155    2.2449075    38.890789    1.1224537 
Loop time of 0.000573034 on 1 procs for 2 steps with 82 atoms

Minimization stats:
  Stopping criterion = linesearch alpha is zero
  Energy initial, next-to-last, final = 
        -241.991550751     -241.991550944     -241.991550944
  Force two-norm initial, final = 0.0288861 0.0279066
  Force max component initial, final = 0.0125837 0.0120304
  Final line search alpha, max atom move = 1.52588e-05 1.83569e-07
  Iterations, force evaluations = 2 29

Pair  time (%) = 0.000469357 (81.9074)
Neigh time (%) = 0 (0)
Comm  time (%) = 3.45479e-05 (6.02894)
Outpt time (%) = 5.10574e-06 (0.891002)
Other time (%) = 6.40228e-05 (11.1726)

Nlocal:    82 ave 82 max 82 min
Histogram: 1 0 0 0 0 0 0 0 0 0
Nghost:    185 ave 185 max 185 min
Histogram: 1 0 0 0 0 0 0 0 0 0
Neighs:    718 ave 718 max 718 min
Histogram: 1 0 0 0 0 0 0 0 0 0

Total # of neighbors = 718
Ave neighs/atom = 8.7561
Neighbor list builds = 0
Dangerous builds = 0
        # write_dump all atom ${dumpfile}
        next i
jump SELF loop1
        displace_atoms upper move ${xstep1} 0.0 0.0 units lattice
        displace_atoms upper move 0.00333333333333333 0.0 0.0 units lattice
        min_style ${style}
        min_style cg
        minimize ${etol} ${ftol} ${maxiter} ${maxeval}
        minimize 1e-12 ${ftol} ${maxiter} ${maxeval}
        minimize 1e-12 1e-08 ${maxiter} ${maxeval}
        minimize 1e-12 1e-08 10000 ${maxeval}
        minimize 1e-12 1e-08 10000 20000
WARNING: Resetting reneighboring criteria during minimization (../min.cpp:168)
Memory usage per processor = 3.35169 Mbytes
Step Temp PotEng Lx Ly Lz 
      13            0   -241.98899    2.2449075    38.890788    1.1224537 
      14            0     -241.989    2.2449075    38.890788    1.1224537 
      15            0     -241.989    2.2449075    38.890788    1.1224537 
      16            0     -241.989    2.2449075    38.890788    1.1224537 
      17            0     -241.989    2.2449075    38.890788    1.1224537 
      18            0     -241.989    2.2449075    38.890788    1.1224537 
Loop time of 0.00121005 on 1 procs for 5 steps with 82 atoms

Minimization stats:
  Stopping criterion = linesearch alpha is zero
  Energy initial, next-to-last, final = 
        -241.988993908     -241.989002581     -241.989002581
  Force two-norm initial, final = 0.0474891 0.0179964
  Force max component initial, final = 0.022668 0.00742926
  Final line search alpha, max atom move = 3.05176e-05 2.26723e-07
  Iterations, force evaluations = 5 56

Pair  time (%) = 0.000856069 (70.7467)
Neigh time (%) = 0 (0)
Comm  time (%) = 6.89053e-05 (5.69443)
Outpt time (%) = 0.000142106 (11.7439)
Other time (%) = 0.000142967 (11.815)

Nlocal:    82 ave 82 max 82 min
Histogram: 1 0 0 0 0 0 0 0 0 0
Nghost:    185 ave 185 max 185 min
Histogram: 1 0 0 0 0 0 0 0 0 0
Neighs:    718 ave 718 max 718 min
Histogram: 1 0 0 0 0 0 0 0 0 0

Total # of neighbors = 718
Ave neighs/atom = 8.7561
Neighbor list builds = 0
Dangerous builds = 0
        # write_dump all atom ${dumpfile}
        next i
jump SELF loop1
        displace_atoms upper move ${xstep1} 0.0 0.0 units lattice
        displace_atoms upper move 0.00333333333333333 0.0 0.0 units lattice
        min_style ${style}
        min_style cg
        minimize ${etol} ${ftol} ${maxiter} ${maxeval}
        minimize 1e-12 ${ftol} ${maxiter} ${maxeval}
        minimize 1e-12 1e-08 ${maxiter} ${maxeval}
        minimize 1e-12 1e-08 10000 ${maxeval}
        minimize 1e-12 1e-08 10000 20000
WARNING: Resetting reneighboring criteria during minimization (../min.cpp:168)
Memory usage per processor = 3.35169 Mbytes
Step Temp PotEng Lx Ly Lz 
      18            0   -241.98612    2.2449075    38.890779    1.1224537 
      19            0   -241.98612    2.2449075    38.890779    1.1224537 
      20            0   -241.98612    2.2449075    38.890779    1.1224537 
Loop time of 0.000471996 on 1 procs for 2 steps with 82 atoms

Minimization stats:
  Stopping criterion = linesearch alpha is zero
  Energy initial, next-to-last, final = 
        -241.986116575     -241.986124626     -241.986124626
  Force two-norm initial, final = 0.0358409 0.026208
  Force max component initial, final = 0.0160058 0.00985142
  Final line search alpha, max atom move = 1.52588e-05 1.50321e-07
  Iterations, force evaluations = 2 24

Pair  time (%) = 0.000372159 (78.8479)
Neigh time (%) = 0 (0)
Comm  time (%) = 3.29413e-05 (6.97916)
Outpt time (%) = 8.9719e-06 (1.90084)
Other time (%) = 5.7924e-05 (12.2721)

Nlocal:    82 ave 82 max 82 min
Histogram: 1 0 0 0 0 0 0 0 0 0
Nghost:    185 ave 185 max 185 min
Histogram: 1 0 0 0 0 0 0 0 0 0
Neighs:    718 ave 718 max 718 min
Histogram: 1 0 0 0 0 0 0 0 0 0

Total # of neighbors = 718
Ave neighs/atom = 8.7561
Neighbor list builds = 0
Dangerous builds = 0
        # write_dump all atom ${dumpfile}
        next i
jump SELF loop1
        displace_atoms upper move ${xstep1} 0.0 0.0 units lattice
        displace_atoms upper move 0.00333333333333333 0.0 0.0 units lattice
        min_style ${style}
        min_style cg
        minimize ${etol} ${ftol} ${maxiter} ${maxeval}
        minimize 1e-12 ${ftol} ${maxiter} ${maxeval}
        minimize 1e-12 1e-08 ${maxiter} ${maxeval}
        minimize 1e-12 1e-08 10000 ${maxeval}
        minimize 1e-12 1e-08 10000 20000
WARNING: Resetting reneighboring criteria during minimization (../min.cpp:168)
Memory usage per processor = 3.35169 Mbytes
Step Temp PotEng Lx Ly Lz 
      20            0   -241.98292    2.2449075    38.890775    1.1224537 
      21            0   -241.98292    2.2449075    38.890775    1.1224537 
Loop time of 0.000354956 on 1 procs for 1 steps with 82 atoms

Minimization stats:
  Stopping criterion = linesearch alpha is zero
  Energy initial, next-to-last, final = 
        -241.982915772     -241.982915772     -241.982915772
  Force two-norm initial, final = 0.0246763 0.0246763
  Force max component initial, final = 0.00985142 0.00985142
  Final line search alpha, max atom move = 1.52588e-05 1.50321e-07
  Iterations, force evaluations = 1 17

Pair  time (%) = 0.00029106 (81.999)
Neigh time (%) = 0 (0)
Comm  time (%) = 2.38932e-05 (6.73131)
Outpt time (%) = 0 (0)
Other time (%) = 4.00025e-05 (11.2697)

Nlocal:    82 ave 82 max 82 min
Histogram: 1 0 0 0 0 0 0 0 0 0
Nghost:    185 ave 185 max 185 min
Histogram: 1 0 0 0 0 0 0 0 0 0
Neighs:    718 ave 718 max 718 min
Histogram: 1 0 0 0 0 0 0 0 0 0

Total # of neighbors = 718
Ave neighs/atom = 8.7561
Neighbor list builds = 0
Dangerous builds = 0
        # write_dump all atom ${dumpfile}
        next i
jump SELF loop1
        displace_atoms upper move ${xstep1} 0.0 0.0 units lattice
        displace_atoms upper move 0.00333333333333333 0.0 0.0 units lattice
        min_style ${style}
        min_style cg
        minimize ${etol} ${ftol} ${maxiter} ${maxeval}
        minimize 1e-12 ${ftol} ${maxiter} ${maxeval}
        minimize 1e-12 1e-08 ${maxiter} ${maxeval}
        minimize 1e-12 1e-08 10000 ${maxeval}
        minimize 1e-12 1e-08 10000 20000
WARNING: Resetting reneighboring criteria during minimization (../min.cpp:168)
Memory usage per processor = 3.35169 Mbytes
Step Temp PotEng Lx Ly Lz 
      21            0   -241.97937    2.2449075    38.890775    1.1224537 
      22            0   -241.97939    2.2449075    38.890775    1.1224537 
      23            0   -241.97939    2.2449075    38.890775    1.1224537 
Loop time of 0.000467992 on 1 procs for 2 steps with 82 atoms

Minimization stats:
  Stopping criterion = linesearch alpha is zero
  Energy initial, next-to-last, final = 
        -241.979374756      -241.97939259      -241.97939259
  Force two-norm initial, final = 0.0466418 0.034314
  Force max component initial, final = 0.0206625 0.0127603
  Final line search alpha, max atom move = 7.62939e-06 9.73532e-08
  Iterations, force evaluations = 2 25

Pair  time (%) = 0.000375733 (80.2862)
Neigh time (%) = 0 (0)
Comm  time (%) = 3.28441e-05 (7.0181)
Outpt time (%) = 6.04708e-06 (1.29213)
Other time (%) = 5.33679e-05 (11.4036)

Nlocal:    82 ave 82 max 82 min
Histogram: 1 0 0 0 0 0 0 0 0 0
Nghost:    185 ave 185 max 185 min
Histogram: 1 0 0 0 0 0 0 0 0 0
Neighs:    718 ave 718 max 718 min
Histogram: 1 0 0 0 0 0 0 0 0 0

Total # of neighbors = 718
Ave neighs/atom = 8.7561
Neighbor list builds = 0
Dangerous builds = 0
        # write_dump all atom ${dumpfile}
        next i
jump SELF loop1
        displace_atoms upper move ${xstep1} 0.0 0.0 units lattice
        displace_atoms upper move 0.00333333333333333 0.0 0.0 units lattice
        min_style ${style}
        min_style cg
        minimize ${etol} ${ftol} ${maxiter} ${maxeval}
        minimize 1e-12 ${ftol} ${maxiter} ${maxeval}
        minimize 1e-12 1e-08 ${maxiter} ${maxeval}
        minimize 1e-12 1e-08 10000 ${maxeval}
        minimize 1e-12 1e-08 10000 20000
WARNING: Resetting reneighboring criteria during minimization (../min.cpp:168)
Memory usage per processor = 3.35169 Mbytes
Step Temp PotEng Lx Ly Lz 
      23            0   -241.97554    2.2449075    38.890775    1.1224537 
      24            0   -241.97554    2.2449075    38.890775    1.1224537 
Loop time of 0.000345117 on 1 procs for 1 steps with 82 atoms

Minimization stats:
  Stopping criterion = linesearch alpha is zero
  Energy initial, next-to-last, final = 
        -241.975539704     -241.975539704     -241.975539704
  Force two-norm initial, final = 0.031534 0.031534
  Force max component initial, final = 0.0127603 0.0127603
  Final line search alpha, max atom move = 7.62939e-06 9.73532e-08
  Iterations, force evaluations = 1 18

Pair  time (%) = 0.000289945 (84.0136)
Neigh time (%) = 0 (0)
Comm  time (%) = 2.45691e-05 (7.11907)
Outpt time (%) = 0 (0)
Other time (%) = 3.06028e-05 (8.86737)

Nlocal:    82 ave 82 max 82 min
Histogram: 1 0 0 0 0 0 0 0 0 0
Nghost:    185 ave 185 max 185 min
Histogram: 1 0 0 0 0 0 0 0 0 0
Neighs:    718 ave 718 max 718 min
Histogram: 1 0 0 0 0 0 0 0 0 0

Total # of neighbors = 718
Ave neighs/atom = 8.7561
Neighbor list builds = 0
Dangerous builds = 0
        # write_dump all atom ${dumpfile}
        next i
jump SELF loop1
        displace_atoms upper move ${xstep1} 0.0 0.0 units lattice
        displace_atoms upper move 0.00333333333333333 0.0 0.0 units lattice
        min_style ${style}
        min_style cg
        minimize ${etol} ${ftol} ${maxiter} ${maxeval}
        minimize 1e-12 ${ftol} ${maxiter} ${maxeval}
        minimize 1e-12 1e-08 ${maxiter} ${maxeval}
        minimize 1e-12 1e-08 10000 ${maxeval}
        minimize 1e-12 1e-08 10000 20000
WARNING: Resetting reneighboring criteria during minimization (../min.cpp:168)
Memory usage per processor = 3.35169 Mbytes
Step Temp PotEng Lx Ly Lz 
      24            0   -241.97136    2.2449075    38.890775    1.1224537 
      25            0   -241.97137    2.2449075    38.890775    1.1224537 
      26            0   -241.97139    2.2449075    38.890775    1.1224537 
      27            0   -241.97139    2.2449075    38.890775    1.1224537 
Loop time of 0.000603008 on 1 procs for 3 steps with 82 atoms

Minimization stats:
  Stopping criterion = linesearch alpha is zero
  Energy initial, next-to-last, final = 
        -241.971355746     -241.971389728     -241.971389728
  Force two-norm initial, final = 0.0558468 0.0248973
  Force max component initial, final = 0.0239662 0.0106393
  Final line search alpha, max atom move = 1.52588e-05 1.62343e-07
  Iterations, force evaluations = 3 31

Pair  time (%) = 0.000489111 (81.1118)
Neigh time (%) = 0 (0)
Comm  time (%) = 4.06962e-05 (6.74887)
Outpt time (%) = 1.11135e-05 (1.84301)
Other time (%) = 6.20877e-05 (10.2963)

Nlocal:    82 ave 82 max 82 min
Histogram: 1 0 0 0 0 0 0 0 0 0
Nghost:    185 ave 185 max 185 min
Histogram: 1 0 0 0 0 0 0 0 0 0
Neighs:    718 ave 718 max 718 min
Histogram: 1 0 0 0 0 0 0 0 0 0

Total # of neighbors = 718
Ave neighs/atom = 8.7561
Neighbor list builds = 0
Dangerous builds = 0
        # write_dump all atom ${dumpfile}
        next i
jump SELF loop1
        displace_atoms upper move ${xstep1} 0.0 0.0 units lattice
        displace_atoms upper move 0.00333333333333333 0.0 0.0 units lattice
        min_style ${style}
        min_style cg
        minimize ${etol} ${ftol} ${maxiter} ${maxeval}
        minimize 1e-12 ${ftol} ${maxiter} ${maxeval}
        minimize 1e-12 1e-08 ${maxiter} ${maxeval}
        minimize 1e-12 1e-08 10000 ${maxeval}
        minimize 1e-12 1e-08 10000 20000
WARNING: Resetting reneighboring criteria during minimization (../min.cpp:168)
Memory usage per processor = 3.35169 Mbytes
Step Temp PotEng Lx Ly Lz 
      27            0   -241.96691    2.2449075    38.890777    1.1224537 
      28            0   -241.96692    2.2449075    38.890777    1.1224537 
      29            0   -241.96692    2.2449075    38.890777    1.1224537 
Loop time of 0.000458102 on 1 procs for 2 steps with 82 atoms

Minimization stats:
  Stopping criterion = linesearch alpha is zero
  Energy initial, next-to-last, final = 
        -241.966909665     -241.966917741     -241.966917741
  Force two-norm initial, final = 0.0437816 0.0226178
  Force max component initial, final = 0.0180164 0.00716171
  Final line search alpha, max atom move = 1.52588e-05 1.09279e-07
  Iterations, force evaluations = 2 25

Pair  time (%) = 0.000369195 (80.5924)
Neigh time (%) = 0 (0)
Comm  time (%) = 2.96835e-05 (6.47966)
Outpt time (%) = 6.03742e-06 (1.31792)
Other time (%) = 5.31859e-05 (11.61)

Nlocal:    82 ave 82 max 82 min
Histogram: 1 0 0 0 0 0 0 0 0 0
Nghost:    185 ave 185 max 185 min
Histogram: 1 0 0 0 0 0 0 0 0 0
Neighs:    718 ave 718 max 718 min
Histogram: 1 0 0 0 0 0 0 0 0 0

Total # of neighbors = 718
Ave neighs/atom = 8.7561
Neighbor list builds = 0
Dangerous builds = 0
        # write_dump all atom ${dumpfile}
        next i
jump SELF loop1
        displace_atoms upper move ${xstep1} 0.0 0.0 units lattice
        displace_atoms upper move 0.00333333333333333 0.0 0.0 units lattice
        min_style ${style}
        min_style cg
        minimize ${etol} ${ftol} ${maxiter} ${maxeval}
        minimize 1e-12 ${ftol} ${maxiter} ${maxeval}
        minimize 1e-12 1e-08 ${maxiter} ${maxeval}
        minimize 1e-12 1e-08 10000 ${maxeval}
        minimize 1e-12 1e-08 10000 20000
WARNING: Resetting reneighboring criteria during minimization (../min.cpp:168)
Memory usage per processor = 3.35169 Mbytes
Step Temp PotEng Lx Ly Lz 
      29            0   -241.96212    2.2449075    38.890778    1.1224537 
      30            0   -241.96213    2.2449075    38.890778    1.1224537 
      31            0   -241.96215    2.2449075    38.890778    1.1224537 
      32            0   -241.96215    2.2449075    38.890778    1.1224537 
Loop time of 0.000605063 on 1 procs for 3 steps with 82 atoms

Minimization stats:
  Stopping criterion = linesearch alpha is zero
  Energy initial, next-to-last, final = 
        -241.962123359      -241.96215136      -241.96215136
  Force two-norm initial, final = 0.0486507 0.0238469
  Force max component initial, final = 0.0216031 0.0101916
  Final line search alpha, max atom move = 1.52588e-05 1.55512e-07
  Iterations, force evaluations = 3 31

Pair  time (%) = 0.000488432 (80.7242)
Neigh time (%) = 0 (0)
Comm  time (%) = 3.61013e-05 (5.96654)
Outpt time (%) = 9.92673e-06 (1.64061)
Other time (%) = 7.06026e-05 (11.6686)

Nlocal:    82 ave 82 max 82 min
Histogram: 1 0 0 0 0 0 0 0 0 0
Nghost:    175 ave 175 max 175 min
Histogram: 1 0 0 0 0 0 0 0 0 0
Neighs:    718 ave 718 max 718 min
Histogram: 1 0 0 0 0 0 0 0 0 0

Total # of neighbors = 718
Ave neighs/atom = 8.7561
Neighbor list builds = 0
Dangerous builds = 0
        # write_dump all atom ${dumpfile}
        next i
jump SELF loop1
        displace_atoms upper move ${xstep1} 0.0 0.0 units lattice
        displace_atoms upper move 0.00333333333333333 0.0 0.0 units lattice
        min_style ${style}
        min_style cg
        minimize ${etol} ${ftol} ${maxiter} ${maxeval}
        minimize 1e-12 ${ftol} ${maxiter} ${maxeval}
        minimize 1e-12 1e-08 ${maxiter} ${maxeval}
        minimize 1e-12 1e-08 10000 ${maxeval}
        minimize 1e-12 1e-08 10000 20000
WARNING: Resetting reneighboring criteria during minimization (../min.cpp:168)
Memory usage per processor = 3.35169 Mbytes
Step Temp PotEng Lx Ly Lz 
      32            0   -241.95706    2.2449075    38.890782    1.1224537 
      33            0   -241.95707    2.2449075    38.890782    1.1224537 
      34            0   -241.95708    2.2449075    38.890782    1.1224537 
      35            0   -241.95708    2.2449075    38.890782    1.1224537 
Loop time of 0.00125506 on 1 procs for 3 steps with 82 atoms

Minimization stats:
  Stopping criterion = linesearch alpha is zero
  Energy initial, next-to-last, final = 
        -241.957059624     -241.957082829     -241.957082829
  Force two-norm initial, final = 0.0492978 0.0219874
  Force max component initial, final = 0.0215775 0.00888963
  Final line search alpha, max atom move = 1.52588e-05 1.35645e-07
  Iterations, force evaluations = 3 31

Pair  time (%) = 0.00113799 (90.6719)
Neigh time (%) = 0 (0)
Comm  time (%) = 4.29467e-05 (3.42189)
Outpt time (%) = 1.11542e-05 (0.888741)
Other time (%) = 6.29717e-05 (5.01744)

Nlocal:    82 ave 82 max 82 min
Histogram: 1 0 0 0 0 0 0 0 0 0
Nghost:    175 ave 175 max 175 min
Histogram: 1 0 0 0 0 0 0 0 0 0
Neighs:    718 ave 718 max 718 min
Histogram: 1 0 0 0 0 0 0 0 0 0

Total # of neighbors = 718
Ave neighs/atom = 8.7561
Neighbor list builds = 0
Dangerous builds = 0
        # write_dump all atom ${dumpfile}
        next i
jump SELF loop1
        displace_atoms upper move ${xstep1} 0.0 0.0 units lattice
        displace_atoms upper move 0.00333333333333333 0.0 0.0 units lattice
        min_style ${style}
        min_style cg
        minimize ${etol} ${ftol} ${maxiter} ${maxeval}
        minimize 1e-12 ${ftol} ${maxiter} ${maxeval}
        minimize 1e-12 1e-08 ${maxiter} ${maxeval}
        minimize 1e-12 1e-08 10000 ${maxeval}
        minimize 1e-12 1e-08 10000 20000
WARNING: Resetting reneighboring criteria during minimization (../min.cpp:168)
Memory usage per processor = 3.35169 Mbytes
Step Temp PotEng Lx Ly Lz 
      35            0    -241.9517    2.2449075    38.890787    1.1224537 
      36            0   -241.95171    2.2449075    38.890787    1.1224537 
      37            0   -241.95172    2.2449075    38.890787    1.1224537 
      38            0   -241.95172    2.2449075    38.890787    1.1224537 
      39            0   -241.95172    2.2449075    38.890787    1.1224537 
Loop time of 0.000797007 on 1 procs for 4 steps with 82 atoms

Minimization stats:
  Stopping criterion = linesearch alpha is zero
  Energy initial, next-to-last, final = 
        -241.951696313     -241.951723973     -241.951723973
  Force two-norm initial, final = 0.0520035 0.0175776
  Force max component initial, final = 0.0235958 0.0050841
  Final line search alpha, max atom move = 3.05176e-05 1.55155e-07
  Iterations, force evaluations = 4 38

Pair  time (%) = 0.000642152 (80.5704)
Neigh time (%) = 0 (0)
Comm  time (%) = 4.81037e-05 (6.03555)
Outpt time (%) = 1.81003e-05 (2.27103)
Other time (%) = 8.8651e-05 (11.123)

Nlocal:    82 ave 82 max 82 min
Histogram: 1 0 0 0 0 0 0 0 0 0
Nghost:    175 ave 175 max 175 min
Histogram: 1 0 0 0 0 0 0 0 0 0
Neighs:    718 ave 718 max 718 min
Histogram: 1 0 0 0 0 0 0 0 0 0

Total # of neighbors = 718
Ave neighs/atom = 8.7561
Neighbor list builds = 0
Dangerous builds = 0
        # write_dump all atom ${dumpfile}
        next i
jump SELF loop1
        displace_atoms upper move ${xstep1} 0.0 0.0 units lattice
        displace_atoms upper move 0.00333333333333333 0.0 0.0 units lattice
        min_style ${style}
        min_style cg
        minimize ${etol} ${ftol} ${maxiter} ${maxeval}
        minimize 1e-12 ${ftol} ${maxiter} ${maxeval}
        minimize 1e-12 1e-08 ${maxiter} ${maxeval}
        minimize 1e-12 1e-08 10000 ${maxeval}
        minimize 1e-12 1e-08 10000 20000
WARNING: Resetting reneighboring criteria during minimization (../min.cpp:168)
Memory usage per processor = 3.35169 Mbytes
Step Temp PotEng Lx Ly Lz 
      39            0   -241.94605    2.2449075    38.890793    1.1224537 
      40            0   -241.94606    2.2449075    38.890793    1.1224537 
      41            0   -241.94606    2.2449075    38.890793    1.1224537 
Loop time of 0.000397893 on 1 procs for 2 steps with 82 atoms

Minimization stats:
  Stopping criterion = linesearch alpha is zero
  Energy initial, next-to-last, final = 
        -241.946052715     -241.946060828     -241.946060828
  Force two-norm initial, final = 0.0486619 0.0319735
  Force max component initial, final = 0.0227032 0.0129171
  Final line search alpha, max atom move = 7.62939e-06 9.85497e-08
  Iterations, force evaluations = 2 27

Pair  time (%) = 0.000313317 (78.7442)
Neigh time (%) = 0 (0)
Comm  time (%) = 2.25789e-05 (5.67461)
Outpt time (%) = 7.10378e-06 (1.78535)
Other time (%) = 5.48925e-05 (13.7958)

Nlocal:    82 ave 82 max 82 min
Histogram: 1 0 0 0 0 0 0 0 0 0
Nghost:    175 ave 175 max 175 min
Histogram: 1 0 0 0 0 0 0 0 0 0
Neighs:    718 ave 718 max 718 min
Histogram: 1 0 0 0 0 0 0 0 0 0

Total # of neighbors = 718
Ave neighs/atom = 8.7561
Neighbor list builds = 0
Dangerous builds = 0
        # write_dump all atom ${dumpfile}
        next i
jump SELF loop1
        displace_atoms upper move ${xstep1} 0.0 0.0 units lattice
        displace_atoms upper move 0.00333333333333333 0.0 0.0 units lattice
        min_style ${style}
        min_style cg
        minimize ${etol} ${ftol} ${maxiter} ${maxeval}
        minimize 1e-12 ${ftol} ${maxiter} ${maxeval}
        minimize 1e-12 1e-08 ${maxiter} ${maxeval}
        minimize 1e-12 1e-08 10000 ${maxeval}
        minimize 1e-12 1e-08 10000 20000
WARNING: Resetting reneighboring criteria during minimization (../min.cpp:168)
Memory usage per processor = 3.35169 Mbytes
Step Temp PotEng Lx Ly Lz 
      41            0   -241.94008    2.2449075    38.890794    1.1224537 
      42            0   -241.94011    2.2449075    38.890794    1.1224537 
      43            0   -241.94012    2.2449075    38.890794    1.1224537 
      44            0   -241.94015    2.2449075    38.890794    1.1224537 
      45            0   -241.94016    2.2449075    38.890794    1.1224537 
      46            0   -241.94016    2.2449075    38.890794    1.1224537 
Loop time of 0.00108293 on 1 procs for 5 steps with 82 atoms

Minimization stats:
  Stopping criterion = linesearch alpha is zero
  Energy initial, next-to-last, final = 
        -241.940082943     -241.940157367     -241.940157367
  Force two-norm initial, final = 0.0777496 0.0192696
  Force max component initial, final = 0.0377164 0.00654925
  Final line search alpha, max atom move = 3.05176e-05 1.99867e-07
  Iterations, force evaluations = 5 45

Pair  time (%) = 0.000899904 (83.0993)
Neigh time (%) = 0 (0)
Comm  time (%) = 5.52154e-05 (5.09873)
Outpt time (%) = 2.89413e-05 (2.67251)
Other time (%) = 9.88655e-05 (9.12948)

Nlocal:    82 ave 82 max 82 min
Histogram: 1 0 0 0 0 0 0 0 0 0
Nghost:    175 ave 175 max 175 min
Histogram: 1 0 0 0 0 0 0 0 0 0
Neighs:    718 ave 718 max 718 min
Histogram: 1 0 0 0 0 0 0 0 0 0

Total # of neighbors = 718
Ave neighs/atom = 8.7561
Neighbor list builds = 0
Dangerous builds = 0
        # write_dump all atom ${dumpfile}
        next i
jump SELF loop1
        displace_atoms upper move ${xstep1} 0.0 0.0 units lattice
        displace_atoms upper move 0.00333333333333333 0.0 0.0 units lattice
        min_style ${style}
        min_style cg
        minimize ${etol} ${ftol} ${maxiter} ${maxeval}
        minimize 1e-12 ${ftol} ${maxiter} ${maxeval}
        minimize 1e-12 1e-08 ${maxiter} ${maxeval}
        minimize 1e-12 1e-08 10000 ${maxeval}
        minimize 1e-12 1e-08 10000 20000
WARNING: Resetting reneighboring criteria during minimization (../min.cpp:168)
Memory usage per processor = 3.35169 Mbytes
Step Temp PotEng Lx Ly Lz 
      46            0   -241.93393    2.2449075    38.890802    1.1224537 
      47            0   -241.93393    2.2449075    38.890802    1.1224537 
      48            0   -241.93393    2.2449075    38.890802    1.1224537 
Loop time of 0.000608977 on 1 procs for 2 steps with 82 atoms

Minimization stats:
  Stopping criterion = linesearch alpha is zero
  Energy initial, next-to-last, final = 
        -241.933928927     -241.933929753     -241.933929753
  Force two-norm initial, final = 0.0514618 0.049012
  Force max component initial, final = 0.0239336 0.0226353
  Final line search alpha, max atom move = 3.8147e-06 8.63469e-08
  Iterations, force evaluations = 2 31

Pair  time (%) = 0.000502705 (82.5491)
Neigh time (%) = 0 (0)
Comm  time (%) = 3.87718e-05 (6.3667)
Outpt time (%) = 6.00261e-06 (0.985687)
Other time (%) = 6.14977e-05 (10.0985)

Nlocal:    82 ave 82 max 82 min
Histogram: 1 0 0 0 0 0 0 0 0 0
Nghost:    175 ave 175 max 175 min
Histogram: 1 0 0 0 0 0 0 0 0 0
Neighs:    718 ave 718 max 718 min
Histogram: 1 0 0 0 0 0 0 0 0 0

Total # of neighbors = 718
Ave neighs/atom = 8.7561
Neighbor list builds = 0
Dangerous builds = 0
        # write_dump all atom ${dumpfile}
        next i
jump SELF loop1
        displace_atoms upper move ${xstep1} 0.0 0.0 units lattice
        displace_atoms upper move 0.00333333333333333 0.0 0.0 units lattice
        min_style ${style}
        min_style cg
        minimize ${etol} ${ftol} ${maxiter} ${maxeval}
        minimize 1e-12 ${ftol} ${maxiter} ${maxeval}
        minimize 1e-12 1e-08 ${maxiter} ${maxeval}
        minimize 1e-12 1e-08 10000 ${maxeval}
        minimize 1e-12 1e-08 10000 20000
WARNING: Resetting reneighboring criteria during minimization (../min.cpp:168)
Memory usage per processor = 3.35169 Mbytes
Step Temp PotEng Lx Ly Lz 
      48            0    -241.9274    2.2449075    38.890802    1.1224537 
      49            0   -241.92743    2.2449075    38.890802    1.1224537 
      50            0   -241.92744    2.2449075    38.890802    1.1224537 
      51            0   -241.92746    2.2449075    38.890802    1.1224537 
      52            0   -241.92749    2.2449075    38.890802    1.1224537 
      53            0   -241.92749    2.2449075    38.890802    1.1224537 
      54            0    -241.9275    2.2449075    38.890802    1.1224537 
      55            0    -241.9275    2.2449075    38.890802    1.1224537 
Loop time of 0.00198702 on 1 procs for 7 steps with 82 atoms

Minimization stats:
  Stopping criterion = linesearch alpha is zero
  Energy initial, next-to-last, final = 
        -241.927395669     -241.927496522     -241.927496522
  Force two-norm initial, final = 0.10064 0.015577
  Force max component initial, final = 0.049436 0.00399291
  Final line search alpha, max atom move = 3.05176e-05 1.21854e-07
  Iterations, force evaluations = 7 59

Pair  time (%) = 0.00100435 (50.5455)
Neigh time (%) = 0 (0)
Comm  time (%) = 0.000816705 (41.1019)
Outpt time (%) = 3.80793e-05 (1.9164)
Other time (%) = 0.000127888 (6.43616)

Nlocal:    82 ave 82 max 82 min
Histogram: 1 0 0 0 0 0 0 0 0 0
Nghost:    175 ave 175 max 175 min
Histogram: 1 0 0 0 0 0 0 0 0 0
Neighs:    718 ave 718 max 718 min
Histogram: 1 0 0 0 0 0 0 0 0 0

Total # of neighbors = 718
Ave neighs/atom = 8.7561
Neighbor list builds = 0
Dangerous builds = 0
        # write_dump all atom ${dumpfile}
        next i
jump SELF loop1
        displace_atoms upper move ${xstep1} 0.0 0.0 units lattice
        displace_atoms upper move 0.00333333333333333 0.0 0.0 units lattice
        min_style ${style}
        min_style cg
        minimize ${etol} ${ftol} ${maxiter} ${maxeval}
        minimize 1e-12 ${ftol} ${maxiter} ${maxeval}
        minimize 1e-12 1e-08 ${maxiter} ${maxeval}
        minimize 1e-12 1e-08 10000 ${maxeval}
        minimize 1e-12 1e-08 10000 20000
WARNING: Resetting reneighboring criteria during minimization (../min.cpp:168)
Memory usage per processor = 3.35169 Mbytes
Step Temp PotEng Lx Ly Lz 
      55            0   -241.92074    2.2449075    38.890816    1.1224537 
      56            0   -241.92075    2.2449075    38.890816    1.1224537 
      57            0   -241.92075    2.2449075    38.890816    1.1224537 
Loop time of 0.000568099 on 1 procs for 2 steps with 82 atoms

Minimization stats:
  Stopping criterion = linesearch alpha is zero
  Energy initial, next-to-last, final = 
        -241.920743171     -241.920749609     -241.920749609
  Force two-norm initial, final = 0.0555203 0.0349607
  Force max component initial, final = 0.0266467 0.0151168
  Final line search alpha, max atom move = 7.62939e-06 1.15332e-07
  Iterations, force evaluations = 2 27

Pair  time (%) = 0.000452376 (79.6298)
Neigh time (%) = 0 (0)
Comm  time (%) = 4.08506e-05 (7.19075)
Outpt time (%) = 5.96081e-06 (1.04926)
Other time (%) = 6.89117e-05 (12.1302)

Nlocal:    82 ave 82 max 82 min
Histogram: 1 0 0 0 0 0 0 0 0 0
Nghost:    175 ave 175 max 175 min
Histogram: 1 0 0 0 0 0 0 0 0 0
Neighs:    718 ave 718 max 718 min
Histogram: 1 0 0 0 0 0 0 0 0 0

Total # of neighbors = 718
Ave neighs/atom = 8.7561
Neighbor list builds = 0
Dangerous builds = 0
        # write_dump all atom ${dumpfile}
        next i
jump SELF loop1
        displace_atoms upper move ${xstep1} 0.0 0.0 units lattice
        displace_atoms upper move 0.00333333333333333 0.0 0.0 units lattice
        min_style ${style}
        min_style cg
        minimize ${etol} ${ftol} ${maxiter} ${maxeval}
        minimize 1e-12 ${ftol} ${maxiter} ${maxeval}
        minimize 1e-12 1e-08 ${maxiter} ${maxeval}
        minimize 1e-12 1e-08 10000 ${maxeval}
        minimize 1e-12 1e-08 10000 20000
WARNING: Resetting reneighboring criteria during minimization (../min.cpp:168)
Memory usage per processor = 3.35169 Mbytes
Step Temp PotEng Lx Ly Lz 
      57            0   -241.91373    2.2449075    38.890816    1.1224537 
      58            0   -241.91376    2.2449075    38.890816    1.1224537 
      59            0   -241.91376    2.2449075    38.890816    1.1224537 
Loop time of 0.000511956 on 1 procs for 2 steps with 82 atoms

Minimization stats:
  Stopping criterion = linesearch alpha is zero
  Energy initial, next-to-last, final = 
        -241.913726498     -241.913757171     -241.913757171
  Force two-norm initial, final = 0.0862078 0.0356687
  Force max component initial, final = 0.0422008 0.0145102
  Final line search alpha, max atom move = 7.62939e-06 1.10704e-07
  Iterations, force evaluations = 2 26

Pair  time (%) = 0.000416723 (81.3983)
Neigh time (%) = 0 (0)
Comm  time (%) = 3.03475e-05 (5.92776)
Outpt time (%) = 5.93753e-06 (1.15977)
Other time (%) = 5.89476e-05 (11.5142)

Nlocal:    82 ave 82 max 82 min
Histogram: 1 0 0 0 0 0 0 0 0 0
Nghost:    175 ave 175 max 175 min
Histogram: 1 0 0 0 0 0 0 0 0 0
Neighs:    718 ave 718 max 718 min
Histogram: 1 0 0 0 0 0 0 0 0 0

Total # of neighbors = 718
Ave neighs/atom = 8.7561
Neighbor list builds = 0
Dangerous builds = 0
        # write_dump all atom ${dumpfile}
        next i
jump SELF loop1
        displace_atoms upper move ${xstep1} 0.0 0.0 units lattice
        displace_atoms upper move 0.00333333333333333 0.0 0.0 units lattice
        min_style ${style}
        min_style cg
        minimize ${etol} ${ftol} ${maxiter} ${maxeval}
        minimize 1e-12 ${ftol} ${maxiter} ${maxeval}
        minimize 1e-12 1e-08 ${maxiter} ${maxeval}
        minimize 1e-12 1e-08 10000 ${maxeval}
        minimize 1e-12 1e-08 10000 20000
WARNING: Resetting reneighboring criteria during minimization (../min.cpp:168)
Memory usage per processor = 3.35169 Mbytes
Step Temp PotEng Lx Ly Lz 
      59            0   -241.90651    2.2449075    38.890817    1.1224537 
      60            0   -241.90655    2.2449075    38.890817    1.1224537 
      61            0   -241.90656    2.2449075    38.890817    1.1224537 
      62            0   -241.90657    2.2449075    38.890817    1.1224537 
      63            0   -241.90659    2.2449075    38.890817    1.1224537 
      64            0   -241.90662    2.2449075    38.890817    1.1224537 
      65            0   -241.90664    2.2449075    38.890817    1.1224537 
      66            0   -241.90665    2.2449075    38.890817    1.1224537 
      67            0   -241.90666    2.2449075    38.890817    1.1224537 
      68            0   -241.90666    2.2449075    38.890817    1.1224537 
Loop time of 0.0253749 on 1 procs for 9 steps with 82 atoms

Minimization stats:
  Stopping criterion = linesearch alpha is zero
  Energy initial, next-to-last, final = 
        -241.906509215     -241.906656806     -241.906656806
  Force two-norm initial, final = 0.0756612 0.019228
  Force max component initial, final = 0.0340655 0.00540784
  Final line search alpha, max atom move = 3.05176e-05 1.65034e-07
  Iterations, force evaluations = 9 72

Pair  time (%) = 0.00104819 (4.13081)
Neigh time (%) = 0 (0)
Comm  time (%) = 9.06271e-05 (0.357153)
Outpt time (%) = 0.0240602 (94.8188)
Other time (%) = 0.000175911 (0.693248)

Nlocal:    82 ave 82 max 82 min
Histogram: 1 0 0 0 0 0 0 0 0 0
Nghost:    175 ave 175 max 175 min
Histogram: 1 0 0 0 0 0 0 0 0 0
Neighs:    718 ave 718 max 718 min
Histogram: 1 0 0 0 0 0 0 0 0 0

Total # of neighbors = 718
Ave neighs/atom = 8.7561
Neighbor list builds = 0
Dangerous builds = 0
        # write_dump all atom ${dumpfile}
        next i
jump SELF loop1
        displace_atoms upper move ${xstep1} 0.0 0.0 units lattice
        displace_atoms upper move 0.00333333333333333 0.0 0.0 units lattice
        min_style ${style}
        min_style cg
        minimize ${etol} ${ftol} ${maxiter} ${maxeval}
        minimize 1e-12 ${ftol} ${maxiter} ${maxeval}
        minimize 1e-12 1e-08 ${maxiter} ${maxeval}
        minimize 1e-12 1e-08 10000 ${maxeval}
        minimize 1e-12 1e-08 10000 20000
WARNING: Resetting reneighboring criteria during minimization (../min.cpp:168)
Memory usage per processor = 3.35169 Mbytes
Step Temp PotEng Lx Ly Lz 
      68            0   -241.89928    2.2449075    38.890868    1.1224537 
      69            0   -241.89933    2.2449075    38.890868    1.1224537 
      70            0   -241.89934    2.2449075    38.890868    1.1224537 
      71            0   -241.89935    2.2449075    38.890868    1.1224537 
      72            0   -241.89935    2.2449075    38.890868    1.1224537 
      73            0   -241.89935    2.2449075    38.890868    1.1224537 
      74            0   -241.89936    2.2449075    38.890868    1.1224537 
      75            0   -241.89937    2.2449075    38.890868    1.1224537 
      76            0   -241.89937    2.2449075    38.890868    1.1224537 
      77            0   -241.89937    2.2449075    38.890868    1.1224537 
Loop time of 0.00109207 on 1 procs for 9 steps with 82 atoms

Minimization stats:
  Stopping criterion = linesearch alpha is zero
  Energy initial, next-to-last, final = 
        -241.899282713     -241.899372393     -241.899372393
  Force two-norm initial, final = 0.0945638 0.013345
  Force max component initial, final = 0.046299 0.00310967
  Final line search alpha, max atom move = 3.05176e-05 9.48997e-08
  Iterations, force evaluations = 9 71

Pair  time (%) = 0.000868286 (79.5085)
Neigh time (%) = 0 (0)
Comm  time (%) = 6.95179e-05 (6.36572)
Outpt time (%) = 4.24461e-05 (3.88677)
Other time (%) = 0.000111816 (10.239)

Nlocal:    82 ave 82 max 82 min
Histogram: 1 0 0 0 0 0 0 0 0 0
Nghost:    175 ave 175 max 175 min
Histogram: 1 0 0 0 0 0 0 0 0 0
Neighs:    714 ave 714 max 714 min
Histogram: 1 0 0 0 0 0 0 0 0 0

Total # of neighbors = 714
Ave neighs/atom = 8.70732
Neighbor list builds = 0
Dangerous builds = 0
        # write_dump all atom ${dumpfile}
        next i
jump SELF loop1
        displace_atoms upper move ${xstep1} 0.0 0.0 units lattice
        displace_atoms upper move 0.00333333333333333 0.0 0.0 units lattice
        min_style ${style}
        min_style cg
        minimize ${etol} ${ftol} ${maxiter} ${maxeval}
        minimize 1e-12 ${ftol} ${maxiter} ${maxeval}
        minimize 1e-12 1e-08 ${maxiter} ${maxeval}
        minimize 1e-12 1e-08 10000 ${maxeval}
        minimize 1e-12 1e-08 10000 20000
WARNING: Resetting reneighboring criteria during minimization (../min.cpp:168)
Memory usage per processor = 3.35169 Mbytes
Step Temp PotEng Lx Ly Lz 
      77            0   -241.89202    2.2449075    38.890984    1.1224537 
      78            0   -241.89206    2.2449075    38.890984    1.1224537 
      79            0   -241.89207    2.2449075    38.890984    1.1224537 
      80            0   -241.89208    2.2449075    38.890984    1.1224537 
      81            0    -241.8921    2.2449075    38.890984    1.1224537 
      82            0   -241.89211    2.2449075    38.890984    1.1224537 
      83            0   -241.89214    2.2449075    38.890984    1.1224537 
      84            0   -241.89215    2.2449075    38.890984    1.1224537 
      85            0   -241.89216    2.2449075    38.890984    1.1224537 
      86            0   -241.89216    2.2449075    38.890984    1.1224537 
      87            0   -241.89216    2.2449075    38.890984    1.1224537 
      88            0   -241.89216    2.2449075    38.890984    1.1224537 
      89            0   -241.89216    2.2449075    38.890984    1.1224537 
Loop time of 0.00238097 on 1 procs for 12 steps with 82 atoms

Minimization stats:
  Stopping criterion = linesearch alpha is zero
  Energy initial, next-to-last, final = 
         -241.89201634     -241.892163015     -241.892163015
  Force two-norm initial, final = 0.10175 0.0138488
  Force max component initial, final = 0.0504485 0.00320208
  Final line search alpha, max atom move = 3.05176e-05 9.77198e-08
  Iterations, force evaluations = 12 90

Pair  time (%) = 0.00184759 (77.5982)
Neigh time (%) = 0 (0)
Comm  time (%) = 0.000173592 (7.29081)
Outpt time (%) = 8.47621e-05 (3.55998)
Other time (%) = 0.000275026 (11.551)

Nlocal:    82 ave 82 max 82 min
Histogram: 1 0 0 0 0 0 0 0 0 0
Nghost:    175 ave 175 max 175 min
Histogram: 1 0 0 0 0 0 0 0 0 0
Neighs:    714 ave 714 max 714 min
Histogram: 1 0 0 0 0 0 0 0 0 0

Total # of neighbors = 714
Ave neighs/atom = 8.70732
Neighbor list builds = 0
Dangerous builds = 0
        # write_dump all atom ${dumpfile}
        next i
jump SELF loop1
        displace_atoms upper move ${xstep1} 0.0 0.0 units lattice
        displace_atoms upper move 0.00333333333333333 0.0 0.0 units lattice
        min_style ${style}
        min_style cg
        minimize ${etol} ${ftol} ${maxiter} ${maxeval}
        minimize 1e-12 ${ftol} ${maxiter} ${maxeval}
        minimize 1e-12 1e-08 ${maxiter} ${maxeval}
        minimize 1e-12 1e-08 10000 ${maxeval}
        minimize 1e-12 1e-08 10000 20000
WARNING: Resetting reneighboring criteria during minimization (../min.cpp:168)
Memory usage per processor = 3.35169 Mbytes
Step Temp PotEng Lx Ly Lz 
      89            0   -241.88488    2.2449075    38.891476    1.1224537 
      90            0   -241.88492    2.2449075    38.891476    1.1224537 
      91            0   -241.88492    2.2449075    38.891476    1.1224537 
      92            0   -241.88494    2.2449075    38.891476    1.1224537 
      93            0   -241.88495    2.2449075    38.891476    1.1224537 
      94            0   -241.88496    2.2449075    38.891476    1.1224537 
      95            0   -241.88498    2.2449075    38.891476    1.1224537 
      96            0   -241.88499    2.2449075    38.891476    1.1224537 
      97            0     -241.885    2.2449075    38.891476    1.1224537 
      98            0     -241.885    2.2449075    38.891476    1.1224537 
      99            0   -241.88502    2.2449075    38.891476    1.1224537 
     100            0   -241.88502    2.2449075    38.891476    1.1224537 
     101            0   -241.88503    2.2449075    38.891476    1.1224537 
     102            0   -241.88504    2.2449075    38.891476    1.1224537 
     103            0   -241.88504    2.2449075    38.891476    1.1224537 
Loop time of 0.00202792 on 1 procs for 14 steps with 82 atoms

Minimization stats:
  Stopping criterion = linesearch alpha is zero
  Energy initial, next-to-last, final = 
        -241.884877768     -241.885037044     -241.885037044
  Force two-norm initial, final = 0.0982895 0.0226609
  Force max component initial, final = 0.0486581 0.00694003
  Final line search alpha, max atom move = 7.62939e-06 5.29482e-08
  Iterations, force evaluations = 14 104

Pair  time (%) = 0.0016092 (79.3525)
Neigh time (%) = 0 (0)
Comm  time (%) = 0.000131497 (6.48433)
Outpt time (%) = 7.25874e-05 (3.57941)
Other time (%) = 0.00021463 (10.5838)

Nlocal:    82 ave 82 max 82 min
Histogram: 1 0 0 0 0 0 0 0 0 0
Nghost:    175 ave 175 max 175 min
Histogram: 1 0 0 0 0 0 0 0 0 0
Neighs:    714 ave 714 max 714 min
Histogram: 1 0 0 0 0 0 0 0 0 0

Total # of neighbors = 714
Ave neighs/atom = 8.70732
Neighbor list builds = 0
Dangerous builds = 0
        # write_dump all atom ${dumpfile}
        next i
jump SELF loop1
        displace_atoms upper move ${xstep1} 0.0 0.0 units lattice
        displace_atoms upper move 0.00333333333333333 0.0 0.0 units lattice
        min_style ${style}
        min_style cg
        minimize ${etol} ${ftol} ${maxiter} ${maxeval}
        minimize 1e-12 ${ftol} ${maxiter} ${maxeval}
        minimize 1e-12 1e-08 ${maxiter} ${maxeval}
        minimize 1e-12 1e-08 10000 ${maxeval}
        minimize 1e-12 1e-08 10000 20000
WARNING: Resetting reneighboring criteria during minimization (../min.cpp:168)
Memory usage per processor = 3.35169 Mbytes
Step Temp PotEng Lx Ly Lz 
     103            0   -241.87783    2.2449075    38.892837    1.1224537 
     104            0   -241.87787    2.2449075    38.892837    1.1224537 
     105            0   -241.87788    2.2449075    38.892837    1.1224537 
     106            0    -241.8779    2.2449075    38.892837    1.1224537 
     107            0   -241.87791    2.2449075    38.892837    1.1224537 
     108            0   -241.87792    2.2449075    38.892837    1.1224537 
     109            0   -241.87793    2.2449075    38.892837    1.1224537 
     110            0   -241.87795    2.2449075    38.892837    1.1224537 
     111            0   -241.87796    2.2449075    38.892837    1.1224537 
     112            0   -241.87796    2.2449075    38.892837    1.1224537 
     113            0   -241.87797    2.2449075    38.892837    1.1224537 
     114            0   -241.87797    2.2449075    38.892837    1.1224537 
Loop time of 0.00166209 on 1 procs for 11 steps with 82 atoms

Minimization stats:
  Stopping criterion = linesearch alpha is zero
  Energy initial, next-to-last, final = 
        -241.877832511     -241.877965222     -241.877965222
  Force two-norm initial, final = 0.0937683 0.0133051
  Force max component initial, final = 0.0455222 0.00351059
  Final line search alpha, max atom move = 3.05176e-05 1.07135e-07
  Iterations, force evaluations = 11 85

Pair  time (%) = 0.00131721 (79.2506)
Neigh time (%) = 0 (0)
Comm  time (%) = 0.000105805 (6.36579)
Outpt time (%) = 5.79815e-05 (3.48847)
Other time (%) = 0.000181086 (10.8951)

Nlocal:    82 ave 82 max 82 min
Histogram: 1 0 0 0 0 0 0 0 0 0
Nghost:    175 ave 175 max 175 min
Histogram: 1 0 0 0 0 0 0 0 0 0
Neighs:    714 ave 714 max 714 min
Histogram: 1 0 0 0 0 0 0 0 0 0

Total # of neighbors = 714
Ave neighs/atom = 8.70732
Neighbor list builds = 0
Dangerous builds = 0
        # write_dump all atom ${dumpfile}
        next i
jump SELF loop1
        displace_atoms upper move ${xstep1} 0.0 0.0 units lattice
        displace_atoms upper move 0.00333333333333333 0.0 0.0 units lattice
        min_style ${style}
        min_style cg
        minimize ${etol} ${ftol} ${maxiter} ${maxeval}
        minimize 1e-12 ${ftol} ${maxiter} ${maxeval}
        minimize 1e-12 1e-08 ${maxiter} ${maxeval}
        minimize 1e-12 1e-08 10000 ${maxeval}
        minimize 1e-12 1e-08 10000 20000
WARNING: Resetting reneighboring criteria during minimization (../min.cpp:168)
Memory usage per processor = 3.35169 Mbytes
Step Temp PotEng Lx Ly Lz 
     114            0   -241.87083    2.2449075    38.893895    1.1224537 
     115            0   -241.87086    2.2449075    38.893895    1.1224537 
     116            0   -241.87087    2.2449075    38.893895    1.1224537 
     117            0   -241.87089    2.2449075    38.893895    1.1224537 
     118            0   -241.87089    2.2449075    38.893895    1.1224537 
     119            0   -241.87089    2.2449075    38.893895    1.1224537 
     120            0   -241.87089    2.2449075    38.893895    1.1224537 
     121            0   -241.87089    2.2449075    38.893895    1.1224537 
Loop time of 0.00183203 on 1 procs for 7 steps with 82 atoms

Minimization stats:
  Stopping criterion = linesearch alpha is zero
  Energy initial, next-to-last, final = 
        -241.870830404      -241.87089487      -241.87089487
  Force two-norm initial, final = 0.0893581 0.0394983
  Force max component initial, final = 0.0442224 0.0137865
  Final line search alpha, max atom move = 7.62939e-06 1.05183e-07
  Iterations, force evaluations = 7 76

Pair  time (%) = 0.0015343 (83.7483)
Neigh time (%) = 0 (0)
Comm  time (%) = 9.22258e-05 (5.03407)
Outpt time (%) = 4.59779e-05 (2.50966)
Other time (%) = 0.000159533 (8.70799)

Nlocal:    82 ave 82 max 82 min
Histogram: 1 0 0 0 0 0 0 0 0 0
Nghost:    175 ave 175 max 175 min
Histogram: 1 0 0 0 0 0 0 0 0 0
Neighs:    714 ave 714 max 714 min
Histogram: 1 0 0 0 0 0 0 0 0 0

Total # of neighbors = 714
Ave neighs/atom = 8.70732
Neighbor list builds = 0
Dangerous builds = 0
        # write_dump all atom ${dumpfile}
        next i
jump SELF loop1
        displace_atoms upper move ${xstep1} 0.0 0.0 units lattice
        displace_atoms upper move 0.00333333333333333 0.0 0.0 units lattice
        min_style ${style}
        min_style cg
        minimize ${etol} ${ftol} ${maxiter} ${maxeval}
        minimize 1e-12 ${ftol} ${maxiter} ${maxeval}
        minimize 1e-12 1e-08 ${maxiter} ${maxeval}
        minimize 1e-12 1e-08 10000 ${maxeval}
        minimize 1e-12 1e-08 10000 20000
WARNING: Resetting reneighboring criteria during minimization (../min.cpp:168)
Memory usage per processor = 3.35169 Mbytes
Step Temp PotEng Lx Ly Lz 
     121            0   -241.86381    2.2449075    38.894172    1.1224537 
     122            0   -241.86385    2.2449075    38.894172    1.1224537 
     123            0   -241.86388    2.2449075    38.894172    1.1224537 
     124            0   -241.86388    2.2449075    38.894172    1.1224537 
     125            0   -241.86388    2.2449075    38.894172    1.1224537 
     126            0   -241.86388    2.2449075    38.894172    1.1224537 
Loop time of 0.00110096 on 1 procs for 5 steps with 82 atoms

Minimization stats:
  Stopping criterion = linesearch alpha is zero
  Energy initial, next-to-last, final = 
        -241.863810847     -241.863883122     -241.863883122
  Force two-norm initial, final = 0.10188 0.0344923
  Force max component initial, final = 0.0470178 0.0120968
  Final line search alpha, max atom move = 7.62939e-06 9.22912e-08
  Iterations, force evaluations = 5 50

Pair  time (%) = 0.000815112 (74.0364)
Neigh time (%) = 0 (0)
Comm  time (%) = 9.28494e-05 (8.43348)
Outpt time (%) = 3.71275e-05 (3.37228)
Other time (%) = 0.000155872 (14.1578)

Nlocal:    82 ave 82 max 82 min
Histogram: 1 0 0 0 0 0 0 0 0 0
Nghost:    175 ave 175 max 175 min
Histogram: 1 0 0 0 0 0 0 0 0 0
Neighs:    714 ave 714 max 714 min
Histogram: 1 0 0 0 0 0 0 0 0 0

Total # of neighbors = 714
Ave neighs/atom = 8.70732
Neighbor list builds = 0
Dangerous builds = 0
        # write_dump all atom ${dumpfile}
        next i
jump SELF loop1
        displace_atoms upper move ${xstep1} 0.0 0.0 units lattice
        displace_atoms upper move 0.00333333333333333 0.0 0.0 units lattice
        min_style ${style}
        min_style cg
        minimize ${etol} ${ftol} ${maxiter} ${maxeval}
        minimize 1e-12 ${ftol} ${maxiter} ${maxeval}
        minimize 1e-12 1e-08 ${maxiter} ${maxeval}
        minimize 1e-12 1e-08 10000 ${maxeval}
        minimize 1e-12 1e-08 10000 20000
WARNING: Resetting reneighboring criteria during minimization (../min.cpp:168)
Memory usage per processor = 3.35169 Mbytes
Step Temp PotEng Lx Ly Lz 
     126            0   -241.85687    2.2449075    38.894314    1.1224537 
     127            0    -241.8569    2.2449075    38.894314    1.1224537 
     128            0   -241.85693    2.2449075    38.894314    1.1224537 
     129            0   -241.85693    2.2449075    38.894314    1.1224537 
     130            0   -241.85697    2.2449075    38.894314    1.1224537 
     131            0   -241.85697    2.2449075    38.894314    1.1224537 
     132            0   -241.85698    2.2449075    38.894314    1.1224537 
     133            0   -241.85698    2.2449075    38.894314    1.1224537 
Loop time of 0.00175901 on 1 procs for 7 steps with 82 atoms

Minimization stats:
  Stopping criterion = linesearch alpha is zero
  Energy initial, next-to-last, final = 
        -241.856866006     -241.856980804     -241.856980804
  Force two-norm initial, final = 0.0741793 0.0605102
  Force max component initial, final = 0.034223 0.0190623
  Final line search alpha, max atom move = 1.90735e-06 3.63584e-08
  Iterations, force evaluations = 7 65

Pair  time (%) = 0.00150226 (85.4038)
Neigh time (%) = 0 (0)
Comm  time (%) = 8.00428e-05 (4.55045)
Outpt time (%) = 3.81733e-05 (2.17016)
Other time (%) = 0.000138532 (7.87557)

Nlocal:    82 ave 82 max 82 min
Histogram: 1 0 0 0 0 0 0 0 0 0
Nghost:    175 ave 175 max 175 min
Histogram: 1 0 0 0 0 0 0 0 0 0
Neighs:    714 ave 714 max 714 min
Histogram: 1 0 0 0 0 0 0 0 0 0

Total # of neighbors = 714
Ave neighs/atom = 8.70732
Neighbor list builds = 0
Dangerous builds = 0
        # write_dump all atom ${dumpfile}
        next i
jump SELF loop1
        displace_atoms upper move ${xstep1} 0.0 0.0 units lattice
        displace_atoms upper move 0.00333333333333333 0.0 0.0 units lattice
        min_style ${style}
        min_style cg
        minimize ${etol} ${ftol} ${maxiter} ${maxeval}
        minimize 1e-12 ${ftol} ${maxiter} ${maxeval}
        minimize 1e-12 1e-08 ${maxiter} ${maxeval}
        minimize 1e-12 1e-08 10000 ${maxeval}
        minimize 1e-12 1e-08 10000 20000
WARNING: Resetting reneighboring criteria during minimization (../min.cpp:168)
Memory usage per processor = 3.35169 Mbytes
Step Temp PotEng Lx Ly Lz 
     133            0   -241.85001    2.2449075    38.894829    1.1224537 
     134            0   -241.85008    2.2449075    38.894829    1.1224537 
     135            0    -241.8501    2.2449075    38.894829    1.1224537 
     136            0   -241.85012    2.2449075    38.894829    1.1224537 
     137            0   -241.85015    2.2449075    38.894829    1.1224537 
     138            0    -241.8502    2.2449075    38.894829    1.1224537 
     139            0   -241.85023    2.2449075    38.894829    1.1224537 
     140            0   -241.85025    2.2449075    38.894829    1.1224537 
     141            0   -241.85028    2.2449075    38.894829    1.1224537 
     142            0   -241.85029    2.2449075    38.894829    1.1224537 
     143            0   -241.85031    2.2449075    38.894829    1.1224537 
     144            0   -241.85032    2.2449075    38.894829    1.1224537 
     145            0   -241.85032    2.2449075    38.894829    1.1224537 
     146            0   -241.85033    2.2449075    38.894829    1.1224537 
     147            0   -241.85034    2.2449075    38.894829    1.1224537 
     148            0   -241.85035    2.2449075    38.894829    1.1224537 
     149            0   -241.85035    2.2449075    38.894829    1.1224537 
     150            0   -241.85037    2.2449075    38.894829    1.1224537 
     151            0   -241.85044    2.2449075    38.894829    1.1224537 
     152            0   -241.85053    2.2449075    38.894829    1.1224537 
     153            0   -241.85062    2.2449075    38.894829    1.1224537 
     154            0   -241.85063    2.2449075    38.894829    1.1224537 
     155            0   -241.85063    2.2449075    38.894829    1.1224537 
Loop time of 0.00294994 on 1 procs for 22 steps with 82 atoms

Minimization stats:
  Stopping criterion = linesearch alpha is zero
  Energy initial, next-to-last, final = 
        -241.850014808     -241.850625829     -241.850625829
  Force two-norm initial, final = 0.123722 0.027029
  Force max component initial, final = 0.0554079 0.00837232
  Final line search alpha, max atom move = 1.52588e-05 1.27752e-07
  Iterations, force evaluations = 22 153

Pair  time (%) = 0.00230926 (78.2817)
Neigh time (%) = 0 (0)
Comm  time (%) = 0.000179204 (6.07484)
Outpt time (%) = 0.000127119 (4.3092)
Other time (%) = 0.000334353 (11.3343)

Nlocal:    82 ave 82 max 82 min
Histogram: 1 0 0 0 0 0 0 0 0 0
Nghost:    175 ave 175 max 175 min
Histogram: 1 0 0 0 0 0 0 0 0 0
Neighs:    714 ave 714 max 714 min
Histogram: 1 0 0 0 0 0 0 0 0 0

Total # of neighbors = 714
Ave neighs/atom = 8.70732
Neighbor list builds = 0
Dangerous builds = 0
        # write_dump all atom ${dumpfile}
        next i
jump SELF loop1
        displace_atoms upper move ${xstep1} 0.0 0.0 units lattice
        displace_atoms upper move 0.00333333333333333 0.0 0.0 units lattice
        min_style ${style}
        min_style cg
        minimize ${etol} ${ftol} ${maxiter} ${maxeval}
        minimize 1e-12 ${ftol} ${maxiter} ${maxeval}
        minimize 1e-12 1e-08 ${maxiter} ${maxeval}
        minimize 1e-12 1e-08 10000 ${maxeval}
        minimize 1e-12 1e-08 10000 20000
WARNING: Resetting reneighboring criteria during minimization (../min.cpp:168)
Memory usage per processor = 3.35169 Mbytes
Step Temp PotEng Lx Ly Lz 
     155            0   -241.84383    2.2449075    38.909268    1.1224537 
     156            0   -241.84387    2.2449075    38.909268    1.1224537 
     157            0    -241.8439    2.2449075    38.909268    1.1224537 
     158            0    -241.8439    2.2449075    38.909268    1.1224537 
Loop time of 0.000735032 on 1 procs for 3 steps with 82 atoms

Minimization stats:
  Stopping criterion = linesearch alpha is zero
  Energy initial, next-to-last, final = 
        -241.843832726     -241.843895416     -241.843895416
  Force two-norm initial, final = 0.0877703 0.0364336
  Force max component initial, final = 0.0418082 0.0154976
  Final line search alpha, max atom move = 7.62939e-06 1.18237e-07
  Iterations, force evaluations = 3 32

Pair  time (%) = 0.000605457 (82.3716)
Neigh time (%) = 0 (0)
Comm  time (%) = 3.72336e-05 (5.06557)
Outpt time (%) = 1.40762e-05 (1.91505)
Other time (%) = 7.82645e-05 (10.6478)

Nlocal:    82 ave 82 max 82 min
Histogram: 1 0 0 0 0 0 0 0 0 0
Nghost:    175 ave 175 max 175 min
Histogram: 1 0 0 0 0 0 0 0 0 0
Neighs:    714 ave 714 max 714 min
Histogram: 1 0 0 0 0 0 0 0 0 0

Total # of neighbors = 714
Ave neighs/atom = 8.70732
Neighbor list builds = 0
Dangerous builds = 0
        # write_dump all atom ${dumpfile}
        next i
jump SELF loop1
        displace_atoms upper move ${xstep1} 0.0 0.0 units lattice
        displace_atoms upper move 0.00333333333333333 0.0 0.0 units lattice
        min_style ${style}
        min_style cg
        minimize ${etol} ${ftol} ${maxiter} ${maxeval}
        minimize 1e-12 ${ftol} ${maxiter} ${maxeval}
        minimize 1e-12 1e-08 ${maxiter} ${maxeval}
        minimize 1e-12 1e-08 10000 ${maxeval}
        minimize 1e-12 1e-08 10000 20000
WARNING: Resetting reneighboring criteria during minimization (../min.cpp:168)
Memory usage per processor = 3.35169 Mbytes
Step Temp PotEng Lx Ly Lz 
     158            0   -241.83718    2.2449075     38.90946    1.1224537 
     159            0   -241.83719    2.2449075     38.90946    1.1224537 
     160            0   -241.83723    2.2449075     38.90946    1.1224537 
     161            0   -241.83724    2.2449075     38.90946    1.1224537 
     162            0   -241.83724    2.2449075     38.90946    1.1224537 
Loop time of 0.000846081 on 1 procs for 4 steps with 82 atoms

Minimization stats:
  Stopping criterion = linesearch alpha is zero
  Energy initial, next-to-last, final = 
         -241.83717566     -241.837243013     -241.837243013
  Force two-norm initial, final = 0.0740086 0.0240243
  Force max component initial, final = 0.0330887 0.00988665
  Final line search alpha, max atom move = 1.52588e-05 1.50858e-07
  Iterations, force evaluations = 4 38

Pair  time (%) = 0.000695583 (82.2123)
Neigh time (%) = 0 (0)
Comm  time (%) = 4.86085e-05 (5.74513)
Outpt time (%) = 2.00116e-05 (2.36521)
Other time (%) = 8.1878e-05 (9.67732)

Nlocal:    82 ave 82 max 82 min
Histogram: 1 0 0 0 0 0 0 0 0 0
Nghost:    175 ave 175 max 175 min
Histogram: 1 0 0 0 0 0 0 0 0 0
Neighs:    714 ave 714 max 714 min
Histogram: 1 0 0 0 0 0 0 0 0 0

Total # of neighbors = 714
Ave neighs/atom = 8.70732
Neighbor list builds = 0
Dangerous builds = 0
        # write_dump all atom ${dumpfile}
        next i
jump SELF loop1
        displace_atoms upper move ${xstep1} 0.0 0.0 units lattice
        displace_atoms upper move 0.00333333333333333 0.0 0.0 units lattice
        min_style ${style}
        min_style cg
        minimize ${etol} ${ftol} ${maxiter} ${maxeval}
        minimize 1e-12 ${ftol} ${maxiter} ${maxeval}
        minimize 1e-12 1e-08 ${maxiter} ${maxeval}
        minimize 1e-12 1e-08 10000 ${maxeval}
        minimize 1e-12 1e-08 10000 20000
WARNING: Resetting reneighboring criteria during minimization (../min.cpp:168)
Memory usage per processor = 3.35169 Mbytes
Step Temp PotEng Lx Ly Lz 
     162            0   -241.83059    2.2449075    38.909814    1.1224537 
     163            0   -241.83061    2.2449075    38.909814    1.1224537 
     164            0   -241.83064    2.2449075    38.909814    1.1224537 
     165            0   -241.83067    2.2449075    38.909814    1.1224537 
     166            0   -241.83068    2.2449075    38.909814    1.1224537 
     167            0   -241.83068    2.2449075    38.909814    1.1224537 
Loop time of 0.000876942 on 1 procs for 5 steps with 82 atoms

Minimization stats:
  Stopping criterion = linesearch alpha is zero
  Energy initial, next-to-last, final = 
        -241.830585011     -241.830682983     -241.830682983
  Force two-norm initial, final = 0.0808625 0.0217452
  Force max component initial, final = 0.0386638 0.00835427
  Final line search alpha, max atom move = 1.52588e-05 1.27476e-07
  Iterations, force evaluations = 5 44

Pair  time (%) = 0.000703333 (80.2029)
Neigh time (%) = 0 (0)
Comm  time (%) = 5.59611e-05 (6.38139)
Outpt time (%) = 2.42133e-05 (2.76111)
Other time (%) = 9.34351e-05 (10.6546)

Nlocal:    82 ave 82 max 82 min
Histogram: 1 0 0 0 0 0 0 0 0 0
Nghost:    175 ave 175 max 175 min
Histogram: 1 0 0 0 0 0 0 0 0 0
Neighs:    714 ave 714 max 714 min
Histogram: 1 0 0 0 0 0 0 0 0 0

Total # of neighbors = 714
Ave neighs/atom = 8.70732
Neighbor list builds = 0
Dangerous builds = 0
        # write_dump all atom ${dumpfile}
        next i
jump SELF loop1
        displace_atoms upper move ${xstep1} 0.0 0.0 units lattice
        displace_atoms upper move 0.00333333333333333 0.0 0.0 units lattice
        min_style ${style}
        min_style cg
        minimize ${etol} ${ftol} ${maxiter} ${maxeval}
        minimize 1e-12 ${ftol} ${maxiter} ${maxeval}
        minimize 1e-12 1e-08 ${maxiter} ${maxeval}
        minimize 1e-12 1e-08 10000 ${maxeval}
        minimize 1e-12 1e-08 10000 20000
WARNING: Resetting reneighboring criteria during minimization (../min.cpp:168)
Memory usage per processor = 3.35169 Mbytes
Step Temp PotEng Lx Ly Lz 
     167            0   -241.82412    2.2449075    38.910246    1.1224537 
     168            0   -241.82416    2.2449075    38.910246    1.1224537 
     169            0   -241.82416    2.2449075    38.910246    1.1224537 
     170            0   -241.82417    2.2449075    38.910246    1.1224537 
     171            0   -241.82419    2.2449075    38.910246    1.1224537 
     172            0   -241.82421    2.2449075    38.910246    1.1224537 
     173            0   -241.82421    2.2449075    38.910246    1.1224537 
Loop time of 0.00103297 on 1 procs for 6 steps with 82 atoms

Minimization stats:
  Stopping criterion = linesearch alpha is zero
  Energy initial, next-to-last, final = 
        -241.824123209     -241.824210621     -241.824210621
  Force two-norm initial, final = 0.0848041 0.0281024
  Force max component initial, final = 0.0411112 0.0092528
  Final line search alpha, max atom move = 7.62939e-06 7.05932e-08
  Iterations, force evaluations = 6 51

Pair  time (%) = 0.000824948 (79.862)
Neigh time (%) = 0 (0)
Comm  time (%) = 6.08909e-05 (5.89476)
Outpt time (%) = 2.81151e-05 (2.72178)
Other time (%) = 0.000119012 (11.5214)

Nlocal:    82 ave 82 max 82 min
Histogram: 1 0 0 0 0 0 0 0 0 0
Nghost:    175 ave 175 max 175 min
Histogram: 1 0 0 0 0 0 0 0 0 0
Neighs:    714 ave 714 max 714 min
Histogram: 1 0 0 0 0 0 0 0 0 0

Total # of neighbors = 714
Ave neighs/atom = 8.70732
Neighbor list builds = 0
Dangerous builds = 0
        # write_dump all atom ${dumpfile}
        next i
jump SELF loop1
        displace_atoms upper move ${xstep1} 0.0 0.0 units lattice
        displace_atoms upper move 0.00333333333333333 0.0 0.0 units lattice
        min_style ${style}
        min_style cg
        minimize ${etol} ${ftol} ${maxiter} ${maxeval}
        minimize 1e-12 ${ftol} ${maxiter} ${maxeval}
        minimize 1e-12 1e-08 ${maxiter} ${maxeval}
        minimize 1e-12 1e-08 10000 ${maxeval}
        minimize 1e-12 1e-08 10000 20000
WARNING: Resetting reneighboring criteria during minimization (../min.cpp:168)
Memory usage per processor = 3.35169 Mbytes
Step Temp PotEng Lx Ly Lz 
     173            0   -241.81776    2.2449075    38.910756    1.1224537 
     174            0   -241.81779    2.2449075    38.910756    1.1224537 
     175            0    -241.8178    2.2449075    38.910756    1.1224537 
     176            0   -241.81781    2.2449075    38.910756    1.1224537 
     177            0   -241.81781    2.2449075    38.910756    1.1224537 
     178            0   -241.81782    2.2449075    38.910756    1.1224537 
     179            0   -241.81782    2.2449075    38.910756    1.1224537 
Loop time of 0.0204209 on 1 procs for 6 steps with 82 atoms

Minimization stats:
  Stopping criterion = linesearch alpha is zero
  Energy initial, next-to-last, final = 
        -241.817756321      -241.81782002      -241.81782002
  Force two-norm initial, final = 0.0772987 0.0204381
  Force max component initial, final = 0.0360815 0.00547733
  Final line search alpha, max atom move = 1.52588e-05 8.35775e-08
  Iterations, force evaluations = 6 50

Pair  time (%) = 0.000688105 (3.36961)
Neigh time (%) = 0 (0)
Comm  time (%) = 5.43401e-05 (0.266101)
Outpt time (%) = 0.0195799 (95.8819)
Other time (%) = 9.85041e-05 (0.48237)

Nlocal:    82 ave 82 max 82 min
Histogram: 1 0 0 0 0 0 0 0 0 0
Nghost:    175 ave 175 max 175 min
Histogram: 1 0 0 0 0 0 0 0 0 0
Neighs:    714 ave 714 max 714 min
Histogram: 1 0 0 0 0 0 0 0 0 0

Total # of neighbors = 714
Ave neighs/atom = 8.70732
Neighbor list builds = 0
Dangerous builds = 0
        # write_dump all atom ${dumpfile}
        next i
jump SELF loop1
        displace_atoms upper move ${xstep1} 0.0 0.0 units lattice
        displace_atoms upper move 0.00333333333333333 0.0 0.0 units lattice
        min_style ${style}
        min_style cg
        minimize ${etol} ${ftol} ${maxiter} ${maxeval}
[...]
Histogram: 1 0 0 0 0 0 0 0 0 0

Total # of neighbors = 718
Ave neighs/atom = 8.7561
Neighbor list builds = 0
Dangerous builds = 0
        # write_dump all atom ${dumpfile}
        next i
jump SELF loop1
        displace_atoms upper move ${xstep1} 0.0 0.0 units lattice
        displace_atoms upper move 0.00333333333333333 0.0 0.0 units lattice
        min_style ${style}
        min_style cg
        minimize ${etol} ${ftol} ${maxiter} ${maxeval}
        minimize 1e-12 ${ftol} ${maxiter} ${maxeval}
        minimize 1e-12 1e-08 ${maxiter} ${maxeval}
        minimize 1e-12 1e-08 10000 ${maxeval}
        minimize 1e-12 1e-08 10000 20000
WARNING: Resetting reneighboring criteria during minimization (../min.cpp:168)
Memory usage per processor = 3.35169 Mbytes
Step Temp PotEng Lx Ly Lz 
    1167            0   -241.98291    2.2449075    38.897534    1.1224537 
    1168            0   -241.98292    2.2449075    38.897534    1.1224537 
    1169            0   -241.98292    2.2449075    38.897534    1.1224537 
    1170            0   -241.98292    2.2449075    38.897534    1.1224537 
Loop time of 0.000674015 on 1 procs for 3 steps with 82 atoms

Minimization stats:
  Stopping criterion = linesearch alpha is zero
  Energy initial, next-to-last, final = 
        -241.982905603     -241.982920767     -241.982920767
  Force two-norm initial, final = 0.0515186 0.015928
  Force max component initial, final = 0.0255125 0.00669436
  Final line search alpha, max atom move = 3.05176e-05 2.04296e-07
  Iterations, force evaluations = 3 33

Pair  time (%) = 0.00054501 (80.8602)
Neigh time (%) = 0 (0)
Comm  time (%) = 4.06592e-05 (6.03239)
Outpt time (%) = 1.37889e-05 (2.04579)
Other time (%) = 7.45568e-05 (11.0616)

Nlocal:    82 ave 82 max 82 min
Histogram: 1 0 0 0 0 0 0 0 0 0
Nghost:    185 ave 185 max 185 min
Histogram: 1 0 0 0 0 0 0 0 0 0
Neighs:    718 ave 718 max 718 min
Histogram: 1 0 0 0 0 0 0 0 0 0

Total # of neighbors = 718
Ave neighs/atom = 8.7561
Neighbor list builds = 0
Dangerous builds = 0
        # write_dump all atom ${dumpfile}
        next i
jump SELF loop1
        displace_atoms upper move ${xstep1} 0.0 0.0 units lattice
        displace_atoms upper move 0.00333333333333333 0.0 0.0 units lattice
        min_style ${style}
        min_style cg
        minimize ${etol} ${ftol} ${maxiter} ${maxeval}
        minimize 1e-12 ${ftol} ${maxiter} ${maxeval}
        minimize 1e-12 1e-08 ${maxiter} ${maxeval}
        minimize 1e-12 1e-08 10000 ${maxeval}
        minimize 1e-12 1e-08 10000 20000
WARNING: Resetting reneighboring criteria during minimization (../min.cpp:168)
Memory usage per processor = 3.35169 Mbytes
Step Temp PotEng Lx Ly Lz 
    1170            0    -241.9861    2.2449075    38.897527    1.1224537 
    1171            0    -241.9861    2.2449075    38.897527    1.1224537 
    1172            0   -241.98611    2.2449075    38.897527    1.1224537 
    1173            0   -241.98611    2.2449075    38.897527    1.1224537 
    1174            0   -241.98611    2.2449075    38.897527    1.1224537 
Loop time of 0.000768007 on 1 procs for 4 steps with 82 atoms

Minimization stats:
  Stopping criterion = linesearch alpha is zero
  Energy initial, next-to-last, final = 
        -241.986097656     -241.986105503     -241.986105503
  Force two-norm initial, final = 0.0365057 0.0101645
  Force max component initial, final = 0.0168423 0.0031554
  Final line search alpha, max atom move = 6.10352e-05 1.9259e-07
  Iterations, force evaluations = 4 38

Pair  time (%) = 0.000618705 (80.5598)
Neigh time (%) = 0 (0)
Comm  time (%) = 4.40535e-05 (5.73608)
Outpt time (%) = 1.99924e-05 (2.60315)
Other time (%) = 8.52563e-05 (11.101)

Nlocal:    82 ave 82 max 82 min
Histogram: 1 0 0 0 0 0 0 0 0 0
Nghost:    185 ave 185 max 185 min
Histogram: 1 0 0 0 0 0 0 0 0 0
Neighs:    718 ave 718 max 718 min
Histogram: 1 0 0 0 0 0 0 0 0 0

Total # of neighbors = 718
Ave neighs/atom = 8.7561
Neighbor list builds = 0
Dangerous builds = 0
        # write_dump all atom ${dumpfile}
        next i
jump SELF loop1
        displace_atoms upper move ${xstep1} 0.0 0.0 units lattice
        displace_atoms upper move 0.00333333333333333 0.0 0.0 units lattice
        min_style ${style}
        min_style cg
        minimize ${etol} ${ftol} ${maxiter} ${maxeval}
        minimize 1e-12 ${ftol} ${maxiter} ${maxeval}
        minimize 1e-12 1e-08 ${maxiter} ${maxeval}
        minimize 1e-12 1e-08 10000 ${maxeval}
        minimize 1e-12 1e-08 10000 20000
WARNING: Resetting reneighboring criteria during minimization (../min.cpp:168)
Memory usage per processor = 3.35169 Mbytes
Step Temp PotEng Lx Ly Lz 
    1174            0   -241.98896    2.2449075    38.897509    1.1224537 
    1175            0   -241.98897    2.2449075    38.897509    1.1224537 
    1176            0   -241.98897    2.2449075    38.897509    1.1224537 
Loop time of 0.000468917 on 1 procs for 2 steps with 82 atoms

Minimization stats:
  Stopping criterion = linesearch alpha is zero
  Energy initial, next-to-last, final = 
         -241.98896123     -241.988966714     -241.988966714
  Force two-norm initial, final = 0.0276265 0.0241946
  Force max component initial, final = 0.0129218 0.00877597
  Final line search alpha, max atom move = 3.05176e-05 2.67821e-07
  Iterations, force evaluations = 2 23

Pair  time (%) = 0.000386058 (82.3297)
Neigh time (%) = 0 (0)
Comm  time (%) = 3.21963e-05 (6.8661)
Outpt time (%) = 2.06474e-06 (0.440321)
Other time (%) = 4.85982e-05 (10.3639)

Nlocal:    82 ave 82 max 82 min
Histogram: 1 0 0 0 0 0 0 0 0 0
Nghost:    185 ave 185 max 185 min
Histogram: 1 0 0 0 0 0 0 0 0 0
Neighs:    718 ave 718 max 718 min
Histogram: 1 0 0 0 0 0 0 0 0 0

Total # of neighbors = 718
Ave neighs/atom = 8.7561
Neighbor list builds = 0
Dangerous builds = 0
        # write_dump all atom ${dumpfile}
        next i
jump SELF loop1
        displace_atoms upper move ${xstep1} 0.0 0.0 units lattice
        displace_atoms upper move 0.00333333333333333 0.0 0.0 units lattice
        min_style ${style}
        min_style cg
        minimize ${etol} ${ftol} ${maxiter} ${maxeval}
        minimize 1e-12 ${ftol} ${maxiter} ${maxeval}
        minimize 1e-12 1e-08 ${maxiter} ${maxeval}
        minimize 1e-12 1e-08 10000 ${maxeval}
        minimize 1e-12 1e-08 10000 20000
WARNING: Resetting reneighboring criteria during minimization (../min.cpp:168)
Memory usage per processor = 3.35169 Mbytes
Step Temp PotEng Lx Ly Lz 
    1176            0    -241.9915    2.2449075    38.897499    1.1224537 
    1177            0    -241.9915    2.2449075    38.897499    1.1224537 
Loop time of 0.000959055 on 1 procs for 1 steps with 82 atoms

Minimization stats:
  Stopping criterion = linesearch alpha is zero
  Energy initial, next-to-last, final = 
        -241.991497582     -241.991497582     -241.991497582
  Force two-norm initial, final = 0.0198113 0.0198113
  Force max component initial, final = 0.00877597 0.00877597
  Final line search alpha, max atom move = 3.05176e-05 2.67821e-07
  Iterations, force evaluations = 1 16

Pair  time (%) = 0.000616063 (64.2365)
Neigh time (%) = 0 (0)
Comm  time (%) = 0.00016615 (17.3244)
Outpt time (%) = 0 (0)
Other time (%) = 0.000176842 (18.4392)

Nlocal:    82 ave 82 max 82 min
Histogram: 1 0 0 0 0 0 0 0 0 0
Nghost:    185 ave 185 max 185 min
Histogram: 1 0 0 0 0 0 0 0 0 0
Neighs:    718 ave 718 max 718 min
Histogram: 1 0 0 0 0 0 0 0 0 0

Total # of neighbors = 718
Ave neighs/atom = 8.7561
Neighbor list builds = 0
Dangerous builds = 0
        # write_dump all atom ${dumpfile}
        next i
jump SELF loop1
        displace_atoms upper move ${xstep1} 0.0 0.0 units lattice
        displace_atoms upper move 0.00333333333333333 0.0 0.0 units lattice
        min_style ${style}
        min_style cg
        minimize ${etol} ${ftol} ${maxiter} ${maxeval}
        minimize 1e-12 ${ftol} ${maxiter} ${maxeval}
        minimize 1e-12 1e-08 ${maxiter} ${maxeval}
        minimize 1e-12 1e-08 10000 ${maxeval}
        minimize 1e-12 1e-08 10000 20000
WARNING: Resetting reneighboring criteria during minimization (../min.cpp:168)
Memory usage per processor = 3.35169 Mbytes
Step Temp PotEng Lx Ly Lz 
    1177            0   -241.99369    2.2449075    38.897499    1.1224537 
    1178            0    -241.9937    2.2449075    38.897499    1.1224537 
    1179            0    -241.9937    2.2449075    38.897499    1.1224537 
Loop time of 0.000492062 on 1 procs for 2 steps with 82 atoms

Minimization stats:
  Stopping criterion = linesearch alpha is zero
  Energy initial, next-to-last, final = 
        -241.993692484     -241.993703196     -241.993703196
  Force two-norm initial, final = 0.0306993 0.0202691
  Force max component initial, final = 0.0121339 0.00705135
  Final line search alpha, max atom move = 1.52588e-05 1.07595e-07
  Iterations, force evaluations = 2 24

Pair  time (%) = 0.00040192 (81.6807)
Neigh time (%) = 0 (0)
Comm  time (%) = 3.28532e-05 (6.67664)
Outpt time (%) = 6.01797e-06 (1.22301)
Other time (%) = 5.12714e-05 (10.4197)

Nlocal:    82 ave 82 max 82 min
Histogram: 1 0 0 0 0 0 0 0 0 0
Nghost:    185 ave 185 max 185 min
Histogram: 1 0 0 0 0 0 0 0 0 0
Neighs:    718 ave 718 max 718 min
Histogram: 1 0 0 0 0 0 0 0 0 0

Total # of neighbors = 718
Ave neighs/atom = 8.7561
Neighbor list builds = 0
Dangerous builds = 0
        # write_dump all atom ${dumpfile}
        next i
jump SELF loop1
        displace_atoms upper move ${xstep1} 0.0 0.0 units lattice
        displace_atoms upper move 0.00333333333333333 0.0 0.0 units lattice
        min_style ${style}
        min_style cg
        minimize ${etol} ${ftol} ${maxiter} ${maxeval}
        minimize 1e-12 ${ftol} ${maxiter} ${maxeval}
        minimize 1e-12 1e-08 ${maxiter} ${maxeval}
        minimize 1e-12 1e-08 10000 ${maxeval}
        minimize 1e-12 1e-08 10000 20000
WARNING: Resetting reneighboring criteria during minimization (../min.cpp:168)
Memory usage per processor = 3.35169 Mbytes
Step Temp PotEng Lx Ly Lz 
    1179            0   -241.99557    2.2449075    38.897488    1.1224537 
    1180            0   -241.99557    2.2449075    38.897488    1.1224537 
    1181            0   -241.99557    2.2449075    38.897488    1.1224537 
Loop time of 0.00120594 on 1 procs for 2 steps with 82 atoms

Minimization stats:
  Stopping criterion = linesearch alpha is zero
  Energy initial, next-to-last, final = 
        -241.995566422     -241.995570196     -241.995570196
  Force two-norm initial, final = 0.0206393 0.0153515
  Force max component initial, final = 0.00705135 0.00465803
  Final line search alpha, max atom move = 3.05176e-05 1.42152e-07
  Iterations, force evaluations = 2 23

Pair  time (%) = 0.00111324 (92.3135)
Neigh time (%) = 0 (0)
Comm  time (%) = 3.39613e-05 (2.81617)
Outpt time (%) = 6.03276e-06 (0.500254)
Other time (%) = 5.27003e-05 (4.37007)

Nlocal:    82 ave 82 max 82 min
Histogram: 1 0 0 0 0 0 0 0 0 0
Nghost:    185 ave 185 max 185 min
Histogram: 1 0 0 0 0 0 0 0 0 0
Neighs:    718 ave 718 max 718 min
Histogram: 1 0 0 0 0 0 0 0 0 0

Total # of neighbors = 718
Ave neighs/atom = 8.7561
Neighbor list builds = 0
Dangerous builds = 0
        # write_dump all atom ${dumpfile}
        next i
jump SELF loop1
        displace_atoms upper move ${xstep1} 0.0 0.0 units lattice
        displace_atoms upper move 0.00333333333333333 0.0 0.0 units lattice
        min_style ${style}
        min_style cg
        minimize ${etol} ${ftol} ${maxiter} ${maxeval}
        minimize 1e-12 ${ftol} ${maxiter} ${maxeval}
        minimize 1e-12 1e-08 ${maxiter} ${maxeval}
        minimize 1e-12 1e-08 10000 ${maxeval}
        minimize 1e-12 1e-08 10000 20000
WARNING: Resetting reneighboring criteria during minimization (../min.cpp:168)
Memory usage per processor = 3.35169 Mbytes
Step Temp PotEng Lx Ly Lz 
    1181            0    -241.9971    2.2449075    38.897477    1.1224537 
    1182            0    -241.9971    2.2449075    38.897477    1.1224537 
    1183            0    -241.9971    2.2449075    38.897477    1.1224537 
Loop time of 0.00050507 on 1 procs for 2 steps with 82 atoms

Minimization stats:
  Stopping criterion = linesearch alpha is zero
  Energy initial, next-to-last, final = 
        -241.997098212     -241.997102294     -241.997102294
  Force two-norm initial, final = 0.0212625 0.0175273
  Force max component initial, final = 0.00747157 0.00603942
  Final line search alpha, max atom move = 3.05176e-05 1.84308e-07
  Iterations, force evaluations = 2 23

Pair  time (%) = 0.000414545 (82.0766)
Neigh time (%) = 0 (0)
Comm  time (%) = 3.40833e-05 (6.74822)
Outpt time (%) = 6.02601e-06 (1.1931)
Other time (%) = 5.04163e-05 (9.98204)

Nlocal:    82 ave 82 max 82 min
Histogram: 1 0 0 0 0 0 0 0 0 0
Nghost:    185 ave 185 max 185 min
Histogram: 1 0 0 0 0 0 0 0 0 0
Neighs:    718 ave 718 max 718 min
Histogram: 1 0 0 0 0 0 0 0 0 0

Total # of neighbors = 718
Ave neighs/atom = 8.7561
Neighbor list builds = 0
Dangerous builds = 0
        # write_dump all atom ${dumpfile}
        next i
jump SELF loop1
        displace_atoms upper move ${xstep1} 0.0 0.0 units lattice
        displace_atoms upper move 0.00333333333333333 0.0 0.0 units lattice
        min_style ${style}
        min_style cg
        minimize ${etol} ${ftol} ${maxiter} ${maxeval}
        minimize 1e-12 ${ftol} ${maxiter} ${maxeval}
        minimize 1e-12 1e-08 ${maxiter} ${maxeval}
        minimize 1e-12 1e-08 10000 ${maxeval}
        minimize 1e-12 1e-08 10000 20000
WARNING: Resetting reneighboring criteria during minimization (../min.cpp:168)
Memory usage per processor = 3.35169 Mbytes
Step Temp PotEng Lx Ly Lz 
    1183            0   -241.99829    2.2449075    38.897467    1.1224537 
    1184            0   -241.99829    2.2449075    38.897467    1.1224537 
Loop time of 0.000361095 on 1 procs for 1 steps with 82 atoms

Minimization stats:
  Stopping criterion = linesearch alpha is zero
  Energy initial, next-to-last, final = 
        -241.998292924     -241.998292924     -241.998292924
  Force two-norm initial, final = 0.0173035 0.0173035
  Force max component initial, final = 0.00603942 0.00603942
  Final line search alpha, max atom move = 3.05176e-05 1.84308e-07
  Iterations, force evaluations = 1 16

Pair  time (%) = 0.00029928 (82.8814)
Neigh time (%) = 0 (0)
Comm  time (%) = 2.15112e-05 (5.95723)
Outpt time (%) = 0 (0)
Other time (%) = 4.03032e-05 (11.1614)

Nlocal:    82 ave 82 max 82 min
Histogram: 1 0 0 0 0 0 0 0 0 0
Nghost:    185 ave 185 max 185 min
Histogram: 1 0 0 0 0 0 0 0 0 0
Neighs:    718 ave 718 max 718 min
Histogram: 1 0 0 0 0 0 0 0 0 0

Total # of neighbors = 718
Ave neighs/atom = 8.7561
Neighbor list builds = 0
Dangerous builds = 0
        # write_dump all atom ${dumpfile}
        next i
jump SELF loop1
        displace_atoms upper move ${xstep1} 0.0 0.0 units lattice
        displace_atoms upper move 0.00333333333333333 0.0 0.0 units lattice
        min_style ${style}
        min_style cg
        minimize ${etol} ${ftol} ${maxiter} ${maxeval}
        minimize 1e-12 ${ftol} ${maxiter} ${maxeval}
        minimize 1e-12 1e-08 ${maxiter} ${maxeval}
        minimize 1e-12 1e-08 10000 ${maxeval}
        minimize 1e-12 1e-08 10000 20000
WARNING: Resetting reneighboring criteria during minimization (../min.cpp:168)
Memory usage per processor = 3.35169 Mbytes
Step Temp PotEng Lx Ly Lz 
    1184            0   -241.99914    2.2449075    38.897467    1.1224537 
    1185            0   -241.99915    2.2449075    38.897467    1.1224537 
    1186            0   -241.99915    2.2449075    38.897467    1.1224537 
Loop time of 0.000334932 on 1 procs for 2 steps with 82 atoms

Minimization stats:
  Stopping criterion = linesearch alpha is zero
  Energy initial, next-to-last, final = 
        -241.999144436     -241.999150372     -241.999150372
  Force two-norm initial, final = 0.0203519 0.0212674
  Force max component initial, final = 0.00603942 0.00731267
  Final line search alpha, max atom move = 1.52588e-05 1.11583e-07
  Iterations, force evaluations = 2 23

Pair  time (%) = 0.000272738 (81.431)
Neigh time (%) = 0 (0)
Comm  time (%) = 2.1653e-05 (6.46491)
Outpt time (%) = -2.58442e-08 (-0.00771626)
Other time (%) = 4.05662e-05 (12.1118)

Nlocal:    82 ave 82 max 82 min
Histogram: 1 0 0 0 0 0 0 0 0 0
Nghost:    185 ave 185 max 185 min
Histogram: 1 0 0 0 0 0 0 0 0 0
Neighs:    718 ave 718 max 718 min
Histogram: 1 0 0 0 0 0 0 0 0 0

Total # of neighbors = 718
Ave neighs/atom = 8.7561
Neighbor list builds = 0
Dangerous builds = 0
        # write_dump all atom ${dumpfile}
        next i
jump SELF loop1
        displace_atoms upper move ${xstep1} 0.0 0.0 units lattice
        displace_atoms upper move 0.00333333333333333 0.0 0.0 units lattice
        min_style ${style}
        min_style cg
        minimize ${etol} ${ftol} ${maxiter} ${maxeval}
        minimize 1e-12 ${ftol} ${maxiter} ${maxeval}
        minimize 1e-12 1e-08 ${maxiter} ${maxeval}
        minimize 1e-12 1e-08 10000 ${maxeval}
        minimize 1e-12 1e-08 10000 20000
WARNING: Resetting reneighboring criteria during minimization (../min.cpp:168)
Memory usage per processor = 3.35169 Mbytes
Step Temp PotEng Lx Ly Lz 
    1186            0   -241.99966    2.2449075    38.897447    1.1224537 
    1187            0   -241.99966    2.2449075    38.897447    1.1224537 
Loop time of 0.000330048 on 1 procs for 1 steps with 82 atoms

Minimization stats:
  Stopping criterion = linesearch alpha is zero
  Energy initial, next-to-last, final = 
        -241.999661491     -241.999661491     -241.999661491
  Force two-norm initial, final = 0.0186198 0.0186198
  Force max component initial, final = 0.00518832 0.00518832
  Final line search alpha, max atom move = 3.05176e-05 1.58335e-07
  Iterations, force evaluations = 1 16

Pair  time (%) = 0.000275011 (83.3246)
Neigh time (%) = 0 (0)
Comm  time (%) = 1.92913e-05 (5.84501)
Outpt time (%) = 0 (0)
Other time (%) = 3.57454e-05 (10.8304)

Nlocal:    82 ave 82 max 82 min
Histogram: 1 0 0 0 0 0 0 0 0 0
Nghost:    185 ave 185 max 185 min
Histogram: 1 0 0 0 0 0 0 0 0 0
Neighs:    718 ave 718 max 718 min
Histogram: 1 0 0 0 0 0 0 0 0 0

Total # of neighbors = 718
Ave neighs/atom = 8.7561
Neighbor list builds = 0
Dangerous builds = 0
        # write_dump all atom ${dumpfile}
        next i
jump SELF loop1
        displace_atoms upper move ${xstep1} 0.0 0.0 units lattice
        displace_atoms upper move 0.00333333333333333 0.0 0.0 units lattice
        min_style ${style}
        min_style cg
        minimize ${etol} ${ftol} ${maxiter} ${maxeval}
        minimize 1e-12 ${ftol} ${maxiter} ${maxeval}
        minimize 1e-12 1e-08 ${maxiter} ${maxeval}
        minimize 1e-12 1e-08 10000 ${maxeval}
        minimize 1e-12 1e-08 10000 20000
WARNING: Resetting reneighboring criteria during minimization (../min.cpp:168)
Memory usage per processor = 3.35169 Mbytes
Step Temp PotEng Lx Ly Lz 
    1187            0   -241.99983    2.2449075    38.897447    1.1224537 
    1188            0   -241.99983    2.2449075    38.897447    1.1224537 
Loop time of 0.000339012 on 1 procs for 1 steps with 82 atoms

Minimization stats:
  Stopping criterion = linesearch alpha is zero
  Energy initial, next-to-last, final = 
        -241.999831891     -241.999831891     -241.999831891
  Force two-norm initial, final = 0.017875 0.017875
  Force max component initial, final = 0.00458772 0.00458772
  Final line search alpha, max atom move = 3.05176e-05 1.40006e-07
  Iterations, force evaluations = 1 16

Pair  time (%) = 0.000281099 (82.9171)
Neigh time (%) = 0 (0)
Comm  time (%) = 2.1269e-05 (6.2738)
Outpt time (%) = 0 (0)
Other time (%) = 3.66441e-05 (10.8091)

Nlocal:    82 ave 82 max 82 min
Histogram: 1 0 0 0 0 0 0 0 0 0
Nghost:    185 ave 185 max 185 min
Histogram: 1 0 0 0 0 0 0 0 0 0
Neighs:    718 ave 718 max 718 min
Histogram: 1 0 0 0 0 0 0 0 0 0

Total # of neighbors = 718
Ave neighs/atom = 8.7561
Neighbor list builds = 0
Dangerous builds = 0
        # write_dump all atom ${dumpfile}
        next i
jump SELF loop1


