LAMMPS (28 Jun 2014)
# attempt at getting generalized stacking fault (GSF) energy curve

#file prefix
variable prefix string gsf_V_brittle
variable dumpfile string ${prefix}.*.dump
variable dumpfile string gsf_V_brittle.*.dump
variable restartfile string ${prefix}.*.equil
variable restartfile string gsf_V_brittle.*.equil

#Mass (g/mol)
variable m equal 1

# lattice constant (in Angstroms) and orientation of axes (given by lattice vectors)
variable rho equal 0.9165
variable x1 equal 1
variable x2 equal 0
variable x3 equal 0
variable y1 equal 0
variable y2 equal 1
variable y3 equal 0
# length of lattice in different directions (using orientation of lattice vectors)
variable ax equal sqrt(${x1}*${x1}+${x2}*${x2}+${x3}*${x3})
variable ax equal sqrt(1*${x1}+${x2}*${x2}+${x3}*${x3})
variable ax equal sqrt(1*1+${x2}*${x2}+${x3}*${x3})
variable ax equal sqrt(1*1+0*${x2}+${x3}*${x3})
variable ax equal sqrt(1*1+0*0+${x3}*${x3})
variable ax equal sqrt(1*1+0*0+0*${x3})
variable ax equal sqrt(1*1+0*0+0*0)
variable ay equal sqrt(${y1}*${y1}+${y2}*${y2}+${y3}*${y3})
variable ay equal sqrt(0*${y1}+${y2}*${y2}+${y3}*${y3})
variable ay equal sqrt(0*0+${y2}*${y2}+${y3}*${y3})
variable ay equal sqrt(0*0+1*${y2}+${y3}*${y3})
variable ay equal sqrt(0*0+1*1+${y3}*${y3})
variable ay equal sqrt(0*0+1*1+0*${y3})
variable ay equal sqrt(0*0+1*1+0*0)
variable az equal 1

# size of box in lattice units
variable lxpos equal 1
variable lxneg equal -1*${lxpos}
variable lxneg equal -1*1
variable lypos equal 10
variable lyneg equal -1*${lypos}
variable lyneg equal -1*10
variable lzpos equal 0
variable lzneg equal -1

# Define minimization parameters and damping
variable etol equal 1.0e-12
variable ftol equal 1.0e-8
variable maxiter equal 10000
variable maxeval equal 20000
variable style string hftn

# boundary conditions
dimension	2
boundary	p s p
atom_style	atomic

# create geometry
units		lj
lattice         hex ${rho}
lattice         hex 0.9165
Lattice spacing in x,y,z = 1.12245 1.94415 1.12245
region		myregion block ${lxneg} ${lxpos} ${lyneg} ${lypos} ${lzneg} ${lzpos} units lattice
region		myregion block -1 ${lxpos} ${lyneg} ${lypos} ${lzneg} ${lzpos} units lattice
region		myregion block -1 1 ${lyneg} ${lypos} ${lzneg} ${lzpos} units lattice
region		myregion block -1 1 -10 ${lypos} ${lzneg} ${lzpos} units lattice
region		myregion block -1 1 -10 10 ${lzneg} ${lzpos} units lattice
region		myregion block -1 1 -10 10 -1 ${lzpos} units lattice
region		myregion block -1 1 -10 10 -1 0 units lattice
create_box	3 myregion
Created orthogonal box = (-1.12245 -19.4415 -1.12245) to (1.12245 19.4415 0)
  1 by 1 by 1 MPI processor grid
create_atoms	1 box
Created 82 atoms

# define masses
mass * $m
mass * 1

# my fake/morse potential
pair_style      table linear 3001
pair_coeff      * * vpotential_brittle dummy
neighbor	0.3 bin
neigh_modify	delay 5

# define groups
region	    upper block INF INF 0.01 ${lypos} INF INF units lattice
region	    upper block INF INF 0.01 10 INF INF units lattice
group		upper region upper
40 atoms in group upper

# Setup output
thermo 1
thermo_style custom step temp pe lx ly lz
thermo_modify norm no

# Compute initial state by relaxing box
min_style ${style}
min_style hftn
minimize ${etol} ${ftol} ${maxiter} ${maxeval}
minimize 1e-12 ${ftol} ${maxiter} ${maxeval}
minimize 1e-12 1e-08 ${maxiter} ${maxeval}
minimize 1e-12 1e-08 10000 ${maxeval}
minimize 1e-12 1e-08 10000 20000
WARNING: Resetting reneighboring criteria during minimization (../min.cpp:168)
Memory usage per processor = 4.85169 Mbytes
Step Temp PotEng Lx Ly Lz 
       0            0   -241.99993    2.2449075    38.890715    1.1224537 
       1            0   -241.99994    2.2449075    38.890715    1.1224537 
       2            0   -241.99994    2.2449075    38.890715    1.1224537 
       3            0   -241.99994    2.2449075    38.890715    1.1224537 
       4            0   -241.99994    2.2449075    38.890715    1.1224537 
       5            0   -241.99994    2.2449075    38.890715    1.1224537 
Loop time of 0.00268601 on 1 procs for 4 steps with 82 atoms

Minimization stats:
  Stopping criterion = force tolerance
  Energy initial, next-to-last, final = 
        -241.999927696     -241.999927696     -241.999937101
  Force two-norm initial, final = 0.000778805 9.95685e-09
  Force max component initial, final = 0.000389403 4.80333e-09
  Final line search alpha, max atom move = 0 0
  Iterations, force evaluations = 4 103

Pair  time (%) = 0.00187335 (69.7446)
Neigh time (%) = 0 (0)
Comm  time (%) = 0.000162161 (6.03725)
Outpt time (%) = 0.000171868 (6.39866)
Other time (%) = 0.000478633 (17.8195)

Nlocal:    82 ave 82 max 82 min
Histogram: 1 0 0 0 0 0 0 0 0 0
Nghost:    185 ave 185 max 185 min
Histogram: 1 0 0 0 0 0 0 0 0 0
Neighs:    718 ave 718 max 718 min
Histogram: 1 0 0 0 0 0 0 0 0 0

Total # of neighbors = 718
Ave neighs/atom = 8.7561
Neighbor list builds = 0
Dangerous builds = 0

# don't allow atoms to relax in x-direction
fix 2 all setforce 0.0 NULL 0.0

# GSF energy curve will have 100*2 steps
variable nsteps equal 500
variable sstep1 equal 1.
variable xstep1 equal ${sstep1}/(${ax}*${nsteps})
variable xstep1 equal 1/(${ax}*${nsteps})
variable xstep1 equal 1/(1*${nsteps})
variable xstep1 equal 1/(1*500)

variable i loop ${nsteps}
variable i loop 500
label loop1
        displace_atoms upper move ${xstep1} 0.0 0.0 units lattice
        displace_atoms upper move 0.002 0.0 0.0 units lattice
        min_style ${style}
        min_style hftn
        minimize ${etol} ${ftol} ${maxiter} ${maxeval}
        minimize 1e-12 ${ftol} ${maxiter} ${maxeval}
        minimize 1e-12 1e-08 ${maxiter} ${maxeval}
        minimize 1e-12 1e-08 10000 ${maxeval}
        minimize 1e-12 1e-08 10000 20000
WARNING: Resetting reneighboring criteria during minimization (../min.cpp:168)
Memory usage per processor = 4.85169 Mbytes
Step Temp PotEng Lx Ly Lz 
       5            0   -241.99987    2.2449075    38.891137    1.1224537 
       6            0   -241.99987    2.2449075    38.891137    1.1224537 
Loop time of 0.00421599 on 1 procs for 0 steps with 82 atoms

Minimization stats:
  Stopping criterion = force tolerance
  Energy initial, next-to-last, final = 
        -241.999874687     -241.999874687     -241.999874668
  Force two-norm initial, final = 0.00052157 5.6173e-09
  Force max component initial, final = 0.000260785 1.91343e-09
  Final line search alpha, max atom move = 0 0
  Iterations, force evaluations = 0 83

Pair  time (%) = 0.00153224 (36.3436)
Neigh time (%) = 0 (0)
Comm  time (%) = 0.000168579 (3.99857)
Outpt time (%) = 0 (0)
Other time (%) = 0.00251517 (59.6578)

Nlocal:    82 ave 82 max 82 min
Histogram: 1 0 0 0 0 0 0 0 0 0
Nghost:    185 ave 185 max 185 min
Histogram: 1 0 0 0 0 0 0 0 0 0
Neighs:    718 ave 718 max 718 min
Histogram: 1 0 0 0 0 0 0 0 0 0

Total # of neighbors = 718
Ave neighs/atom = 8.7561
Neighbor list builds = 0
Dangerous builds = 0
        # write_dump all atom ${dumpfile}
        next i
jump SELF loop1
        displace_atoms upper move ${xstep1} 0.0 0.0 units lattice
        displace_atoms upper move 0.002 0.0 0.0 units lattice
        min_style ${style}
        min_style hftn
        minimize ${etol} ${ftol} ${maxiter} ${maxeval}
        minimize 1e-12 ${ftol} ${maxiter} ${maxeval}
        minimize 1e-12 1e-08 ${maxiter} ${maxeval}
        minimize 1e-12 1e-08 10000 ${maxeval}
        minimize 1e-12 1e-08 10000 20000
WARNING: Resetting reneighboring criteria during minimization (../min.cpp:168)
Memory usage per processor = 4.85169 Mbytes
Step Temp PotEng Lx Ly Lz 
       6            0   -241.99969    2.2449075    38.891144    1.1224537 
       7            0   -241.99969    2.2449075    38.891144    1.1224537 
       8            0   -241.99969    2.2449075    38.891144    1.1224537 
       9            0   -241.99969    2.2449075    38.891144    1.1224537 
      10            0   -241.99969    2.2449075    38.891144    1.1224537 
      11            0   -241.99969    2.2449075    38.891144    1.1224537 
      12            0   -241.99969    2.2449075    38.891144    1.1224537 
      13            0   -241.99969    2.2449075    38.891144    1.1224537 
Loop time of 0.00325896 on 1 procs for 6 steps with 82 atoms

Minimization stats:
  Stopping criterion = energy tolerance
  Energy initial, next-to-last, final = 
        -241.999688201     -241.999688201     -241.999688201
  Force two-norm initial, final = 0.00155566 0.00155481
  Force max component initial, final = 0.000777829 0.000777406
  Final line search alpha, max atom move = 0 0
  Iterations, force evaluations = 6 131

Pair  time (%) = 0.0022274 (68.347)
Neigh time (%) = 0 (0)
Comm  time (%) = 0.00017673 (5.42289)
Outpt time (%) = 0.000243045 (7.45773)
Other time (%) = 0.000611786 (18.7724)

Nlocal:    82 ave 82 max 82 min
Histogram: 1 0 0 0 0 0 0 0 0 0
Nghost:    185 ave 185 max 185 min
Histogram: 1 0 0 0 0 0 0 0 0 0
Neighs:    718 ave 718 max 718 min
Histogram: 1 0 0 0 0 0 0 0 0 0

Total # of neighbors = 718
Ave neighs/atom = 8.7561
Neighbor list builds = 0
Dangerous builds = 0
        # write_dump all atom ${dumpfile}
        next i
jump SELF loop1
        displace_atoms upper move ${xstep1} 0.0 0.0 units lattice
        displace_atoms upper move 0.002 0.0 0.0 units lattice
        min_style ${style}
        min_style hftn
        minimize ${etol} ${ftol} ${maxiter} ${maxeval}
        minimize 1e-12 ${ftol} ${maxiter} ${maxeval}
        minimize 1e-12 1e-08 ${maxiter} ${maxeval}
        minimize 1e-12 1e-08 10000 ${maxeval}
        minimize 1e-12 1e-08 10000 20000
WARNING: Resetting reneighboring criteria during minimization (../min.cpp:168)
Memory usage per processor = 4.85169 Mbytes
Step Temp PotEng Lx Ly Lz 
      13            0   -241.99938    2.2449075    38.891144    1.1224537 
      14            0   -241.99938    2.2449075    38.891144    1.1224537 
      15            0   -241.99938    2.2449075    38.891144    1.1224537 
Loop time of 0.005012 on 1 procs for 1 steps with 82 atoms

Minimization stats:
  Stopping criterion = force tolerance
  Energy initial, next-to-last, final = 
        -241.999378718     -241.999378718     -241.999378886
  Force two-norm initial, final = 0.0041327 6.12689e-09
  Force max component initial, final = 0.00206635 2.28717e-09
  Final line search alpha, max atom move = 0 0
  Iterations, force evaluations = 1 183

Pair  time (%) = 0.00374964 (74.8131)
Neigh time (%) = 0 (0)
Comm  time (%) = 0.00028022 (5.59097)
Outpt time (%) = 4.89841e-05 (0.977335)
Other time (%) = 0.000933165 (18.6186)

Nlocal:    82 ave 82 max 82 min
Histogram: 1 0 0 0 0 0 0 0 0 0
Nghost:    185 ave 185 max 185 min
Histogram: 1 0 0 0 0 0 0 0 0 0
Neighs:    718 ave 718 max 718 min
Histogram: 1 0 0 0 0 0 0 0 0 0

Total # of neighbors = 718
Ave neighs/atom = 8.7561
Neighbor list builds = 0
Dangerous builds = 0
        # write_dump all atom ${dumpfile}
        next i
jump SELF loop1
        displace_atoms upper move ${xstep1} 0.0 0.0 units lattice
        displace_atoms upper move 0.002 0.0 0.0 units lattice
        min_style ${style}
        min_style hftn
        minimize ${etol} ${ftol} ${maxiter} ${maxeval}
        minimize 1e-12 ${ftol} ${maxiter} ${maxeval}
        minimize 1e-12 1e-08 ${maxiter} ${maxeval}
        minimize 1e-12 1e-08 10000 ${maxeval}
        minimize 1e-12 1e-08 10000 20000
WARNING: Resetting reneighboring criteria during minimization (../min.cpp:168)
Memory usage per processor = 4.85169 Mbytes
Step Temp PotEng Lx Ly Lz 
      15            0   -241.99895    2.2449075      38.8912    1.1224537 
      16            0   -241.99895    2.2449075      38.8912    1.1224537 
      17            0   -241.99895    2.2449075      38.8912    1.1224537 
      18            0   -241.99895    2.2449075      38.8912    1.1224537 
      19            0   -241.99895    2.2449075      38.8912    1.1224537 
Loop time of 0.00756304 on 1 procs for 3 steps with 82 atoms

Minimization stats:
  Stopping criterion = force tolerance
  Energy initial, next-to-last, final = 
        -241.998946713     -241.998944743     -241.998947109
  Force two-norm initial, final = 0.00359763 6.21178e-09
  Force max component initial, final = 0.00179882 2.16162e-09
  Final line search alpha, max atom move = 0 0
  Iterations, force evaluations = 3 159

Pair  time (%) = 0.00643737 (85.1161)
Neigh time (%) = 0 (0)
Comm  time (%) = 0.000227892 (3.01323)
Outpt time (%) = 0.000134957 (1.78442)
Other time (%) = 0.000762826 (10.0862)

Nlocal:    82 ave 82 max 82 min
Histogram: 1 0 0 0 0 0 0 0 0 0
Nghost:    185 ave 185 max 185 min
Histogram: 1 0 0 0 0 0 0 0 0 0
Neighs:    718 ave 718 max 718 min
Histogram: 1 0 0 0 0 0 0 0 0 0

Total # of neighbors = 718
Ave neighs/atom = 8.7561
Neighbor list builds = 0
Dangerous builds = 0
        # write_dump all atom ${dumpfile}
        next i
jump SELF loop1
        displace_atoms upper move ${xstep1} 0.0 0.0 units lattice
        displace_atoms upper move 0.002 0.0 0.0 units lattice
        min_style ${style}
        min_style hftn
        minimize ${etol} ${ftol} ${maxiter} ${maxeval}
        minimize 1e-12 ${ftol} ${maxiter} ${maxeval}
        minimize 1e-12 1e-08 ${maxiter} ${maxeval}
        minimize 1e-12 1e-08 10000 ${maxeval}
        minimize 1e-12 1e-08 10000 20000
WARNING: Resetting reneighboring criteria during minimization (../min.cpp:168)
Memory usage per processor = 4.85169 Mbytes
Step Temp PotEng Lx Ly Lz 
      19            0   -241.99839    2.2449075    38.891249    1.1224537 
      20            0   -241.99839    2.2449075    38.891249    1.1224537 
      21            0   -241.99839    2.2449075    38.891249    1.1224537 
      22            0   -241.99839    2.2449075    38.891249    1.1224537 
Loop time of 0.0043849 on 1 procs for 2 steps with 82 atoms

Minimization stats:
  Stopping criterion = force tolerance
  Energy initial, next-to-last, final = 
        -241.998392479     -241.998375623     -241.998393408
  Force two-norm initial, final = 0.00461448 5.97652e-10
  Force max component initial, final = 0.00230724 2.84336e-10
  Final line search alpha, max atom move = 0 0
  Iterations, force evaluations = 2 201

Pair  time (%) = 0.00310399 (70.7882)
Neigh time (%) = 0 (0)
Comm  time (%) = 0.00027777 (6.33471)
Outpt time (%) = 8.41239e-05 (1.91849)
Other time (%) = 0.000919015 (20.9586)

Nlocal:    82 ave 82 max 82 min
Histogram: 1 0 0 0 0 0 0 0 0 0
Nghost:    185 ave 185 max 185 min
Histogram: 1 0 0 0 0 0 0 0 0 0
Neighs:    718 ave 718 max 718 min
Histogram: 1 0 0 0 0 0 0 0 0 0

Total # of neighbors = 718
Ave neighs/atom = 8.7561
Neighbor list builds = 0
Dangerous builds = 0
        # write_dump all atom ${dumpfile}
        next i
jump SELF loop1
        displace_atoms upper move ${xstep1} 0.0 0.0 units lattice
        displace_atoms upper move 0.002 0.0 0.0 units lattice
        min_style ${style}
        min_style hftn
        minimize ${etol} ${ftol} ${maxiter} ${maxeval}
        minimize 1e-12 ${ftol} ${maxiter} ${maxeval}
        minimize 1e-12 1e-08 ${maxiter} ${maxeval}
        minimize 1e-12 1e-08 10000 ${maxeval}
        minimize 1e-12 1e-08 10000 20000
WARNING: Resetting reneighboring criteria during minimization (../min.cpp:168)
Memory usage per processor = 4.85169 Mbytes
Step Temp PotEng Lx Ly Lz 
      22            0   -241.99772    2.2449075    38.891312    1.1224537 
      23            0   -241.99772    2.2449075    38.891312    1.1224537 
      24            0   -241.99772    2.2449075    38.891312    1.1224537 
      25            0   -241.99772    2.2449075    38.891312    1.1224537 
      26            0   -241.99772    2.2449075    38.891312    1.1224537 
      27            0   -241.99772    2.2449075    38.891312    1.1224537 
      28            0   -241.99772    2.2449075    38.891312    1.1224537 
      29            0   -241.99772    2.2449075    38.891312    1.1224537 
      30            0   -241.99772    2.2449075    38.891312    1.1224537 
      31            0   -241.99772    2.2449075    38.891312    1.1224537 
Loop time of 0.00311606 on 1 procs for 8 steps with 82 atoms

Minimization stats:
  Stopping criterion = energy tolerance
  Energy initial, next-to-last, final = 
        -241.997716697       -241.9977167       -241.9977167
  Force two-norm initial, final = 0.00562801 0.00519166
  Force max component initial, final = 0.00281401 0.00259482
  Final line search alpha, max atom move = 0 0
  Iterations, force evaluations = 8 129

Pair  time (%) = 0.00208485 (66.9067)
Neigh time (%) = 0 (0)
Comm  time (%) = 0.000160772 (5.15946)
Outpt time (%) = 0.000251196 (8.06132)
Other time (%) = 0.00061924 (19.8725)

Nlocal:    82 ave 82 max 82 min
Histogram: 1 0 0 0 0 0 0 0 0 0
Nghost:    185 ave 185 max 185 min
Histogram: 1 0 0 0 0 0 0 0 0 0
Neighs:    718 ave 718 max 718 min
Histogram: 1 0 0 0 0 0 0 0 0 0

Total # of neighbors = 718
Ave neighs/atom = 8.7561
Neighbor list builds = 0
Dangerous builds = 0
        # write_dump all atom ${dumpfile}
        next i
jump SELF loop1
        displace_atoms upper move ${xstep1} 0.0 0.0 units lattice
        displace_atoms upper move 0.002 0.0 0.0 units lattice
        min_style ${style}
        min_style hftn
        minimize ${etol} ${ftol} ${maxiter} ${maxeval}
        minimize 1e-12 ${ftol} ${maxiter} ${maxeval}
        minimize 1e-12 1e-08 ${maxiter} ${maxeval}
        minimize 1e-12 1e-08 10000 ${maxeval}
        minimize 1e-12 1e-08 10000 20000
WARNING: Resetting reneighboring criteria during minimization (../min.cpp:168)
Memory usage per processor = 4.85169 Mbytes
Step Temp PotEng Lx Ly Lz 
      31            0   -241.99691    2.2449075    38.891312    1.1224537 
      32            0   -241.99692    2.2449075    38.891312    1.1224537 
      33            0   -241.99692    2.2449075    38.891312    1.1224537 
Loop time of 0.00315599 on 1 procs for 1 steps with 82 atoms

Minimization stats:
  Stopping criterion = force tolerance
  Energy initial, next-to-last, final = 
        -241.996914621     -241.996914621     -241.996915538
  Force two-norm initial, final = 0.0118687 8.57561e-11
  Force max component initial, final = 0.00593392 3.33508e-11
  Final line search alpha, max atom move = 0 0
  Iterations, force evaluations = 1 148

Pair  time (%) = 0.00229835 (72.825)
Neigh time (%) = 0 (0)
Comm  time (%) = 0.000174765 (5.53757)
Outpt time (%) = 9.09076e-06 (0.288048)
Other time (%) = 0.000673784 (21.3494)

Nlocal:    82 ave 82 max 82 min
Histogram: 1 0 0 0 0 0 0 0 0 0
Nghost:    185 ave 185 max 185 min
Histogram: 1 0 0 0 0 0 0 0 0 0
Neighs:    718 ave 718 max 718 min
Histogram: 1 0 0 0 0 0 0 0 0 0

Total # of neighbors = 718
Ave neighs/atom = 8.7561
Neighbor list builds = 0
Dangerous builds = 0
        # write_dump all atom ${dumpfile}
        next i
jump SELF loop1
        displace_atoms upper move ${xstep1} 0.0 0.0 units lattice
        displace_atoms upper move 0.002 0.0 0.0 units lattice
        min_style ${style}
        min_style hftn
        minimize ${etol} ${ftol} ${maxiter} ${maxeval}
        minimize 1e-12 ${ftol} ${maxiter} ${maxeval}
        minimize 1e-12 1e-08 ${maxiter} ${maxeval}
        minimize 1e-12 1e-08 10000 ${maxeval}
        minimize 1e-12 1e-08 10000 20000
WARNING: Resetting reneighboring criteria during minimization (../min.cpp:168)
Memory usage per processor = 4.85169 Mbytes
Step Temp PotEng Lx Ly Lz 
      33            0   -241.99599    2.2449075    38.891479    1.1224537 
      34            0   -241.99599    2.2449075    38.891479    1.1224537 
      35            0   -241.99599    2.2449075    38.891479    1.1224537 
Loop time of 0.00408699 on 1 procs for 1 steps with 82 atoms

Minimization stats:
  Stopping criterion = force tolerance
  Energy initial, next-to-last, final = 
        -241.995992796     -241.995992796     -241.995994477
  Force two-norm initial, final = 0.00767822 3.08037e-11
  Force max component initial, final = 0.00383911 6.48822e-12
  Final line search alpha, max atom move = 0 0
  Iterations, force evaluations = 1 152

Pair  time (%) = 0.00299617 (73.3099)
Neigh time (%) = 0 (0)
Comm  time (%) = 0.000301269 (7.37142)
Outpt time (%) = 9.91032e-06 (0.242484)
Other time (%) = 0.000779641 (19.0762)

Nlocal:    82 ave 82 max 82 min
Histogram: 1 0 0 0 0 0 0 0 0 0
Nghost:    185 ave 185 max 185 min
Histogram: 1 0 0 0 0 0 0 0 0 0
Neighs:    718 ave 718 max 718 min
Histogram: 1 0 0 0 0 0 0 0 0 0

Total # of neighbors = 718
Ave neighs/atom = 8.7561
Neighbor list builds = 0
Dangerous builds = 0
        # write_dump all atom ${dumpfile}
        next i
jump SELF loop1
        displace_atoms upper move ${xstep1} 0.0 0.0 units lattice
        displace_atoms upper move 0.002 0.0 0.0 units lattice
        min_style ${style}
        min_style hftn
        minimize ${etol} ${ftol} ${maxiter} ${maxeval}
        minimize 1e-12 ${ftol} ${maxiter} ${maxeval}
        minimize 1e-12 1e-08 ${maxiter} ${maxeval}
        minimize 1e-12 1e-08 10000 ${maxeval}
        minimize 1e-12 1e-08 10000 20000
WARNING: Resetting reneighboring criteria during minimization (../min.cpp:168)
Memory usage per processor = 4.85169 Mbytes
Step Temp PotEng Lx Ly Lz 
      35            0   -241.99495    2.2449075    38.891583    1.1224537 
      36            0   -241.99495    2.2449075    38.891583    1.1224537 
      37            0   -241.99495    2.2449075    38.891583    1.1224537 
Loop time of 0.00349308 on 1 procs for 1 steps with 82 atoms

Minimization stats:
  Stopping criterion = force tolerance
  Energy initial, next-to-last, final = 
        -241.994951039     -241.994951039        -241.994952
  Force two-norm initial, final = 0.00867927 2.34494e-10
  Force max component initial, final = 0.00433963 4.79488e-11
  Final line search alpha, max atom move = 0 0
  Iterations, force evaluations = 1 152

Pair  time (%) = 0.00252481 (72.2803)
Neigh time (%) = 0 (0)
Comm  time (%) = 0.000211307 (6.0493)
Outpt time (%) = 1.09709e-05 (0.314074)
Other time (%) = 0.000745992 (21.3563)

Nlocal:    82 ave 82 max 82 min
Histogram: 1 0 0 0 0 0 0 0 0 0
Nghost:    185 ave 185 max 185 min
Histogram: 1 0 0 0 0 0 0 0 0 0
Neighs:    718 ave 718 max 718 min
Histogram: 1 0 0 0 0 0 0 0 0 0

Total # of neighbors = 718
Ave neighs/atom = 8.7561
Neighbor list builds = 0
Dangerous builds = 0
        # write_dump all atom ${dumpfile}
        next i
jump SELF loop1
        displace_atoms upper move ${xstep1} 0.0 0.0 units lattice
        displace_atoms upper move 0.002 0.0 0.0 units lattice
        min_style ${style}
        min_style hftn
        minimize ${etol} ${ftol} ${maxiter} ${maxeval}
        minimize 1e-12 ${ftol} ${maxiter} ${maxeval}
        minimize 1e-12 1e-08 ${maxiter} ${maxeval}
        minimize 1e-12 1e-08 10000 ${maxeval}
        minimize 1e-12 1e-08 10000 20000
WARNING: Resetting reneighboring criteria during minimization (../min.cpp:168)
Memory usage per processor = 4.85169 Mbytes
Step Temp PotEng Lx Ly Lz 
      37            0   -241.99379    2.2449075    38.891701    1.1224537 
      38            0   -241.99379    2.2449075    38.891701    1.1224537 
      39            0   -241.99379    2.2449075    38.891701    1.1224537 
      40            0   -241.99379    2.2449075    38.891701    1.1224537 
      41            0   -241.99379    2.2449075    38.891701    1.1224537 
      42            0   -241.99379    2.2449075    38.891701    1.1224537 
      43            0   -241.99379    2.2449075    38.891701    1.1224537 
      44            0   -241.99379    2.2449075    38.891701    1.1224537 
      45            0   -241.99379    2.2449075    38.891701    1.1224537 
Loop time of 0.00310409 on 1 procs for 7 steps with 82 atoms

Minimization stats:
  Stopping criterion = energy tolerance
  Energy initial, next-to-last, final = 
         -241.99378555      -241.99378555      -241.99378555
  Force two-norm initial, final = 0.00970694 0.0097061
  Force max component initial, final = 0.00485347 0.00485305
  Final line search alpha, max atom move = 0 0
  Iterations, force evaluations = 7 120

Pair  time (%) = 0.00247338 (79.6814)
Neigh time (%) = 0 (0)
Comm  time (%) = 0.000138796 (4.47139)
Outpt time (%) = 3.52697e-05 (1.13623)
Other time (%) = 0.000456641 (14.711)

Nlocal:    82 ave 82 max 82 min
Histogram: 1 0 0 0 0 0 0 0 0 0
Nghost:    185 ave 185 max 185 min
Histogram: 1 0 0 0 0 0 0 0 0 0
Neighs:    718 ave 718 max 718 min
Histogram: 1 0 0 0 0 0 0 0 0 0

Total # of neighbors = 718
Ave neighs/atom = 8.7561
Neighbor list builds = 0
Dangerous builds = 0
        # write_dump all atom ${dumpfile}
        next i
jump SELF loop1
        displace_atoms upper move ${xstep1} 0.0 0.0 units lattice
        displace_atoms upper move 0.002 0.0 0.0 units lattice
        min_style ${style}
        min_style hftn
        minimize ${etol} ${ftol} ${maxiter} ${maxeval}
        minimize 1e-12 ${ftol} ${maxiter} ${maxeval}
        minimize 1e-12 1e-08 ${maxiter} ${maxeval}
        minimize 1e-12 1e-08 10000 ${maxeval}
        minimize 1e-12 1e-08 10000 20000
WARNING: Resetting reneighboring criteria during minimization (../min.cpp:168)
Memory usage per processor = 4.85169 Mbytes
Step Temp PotEng Lx Ly Lz 
      45            0    -241.9925    2.2449075    38.891701    1.1224537 
      46            0    -241.9925    2.2449075    38.891701    1.1224537 
      47            0    -241.9925    2.2449075    38.891701    1.1224537 
Loop time of 0.00719201 on 1 procs for 1 steps with 82 atoms

Minimization stats:
  Stopping criterion = force tolerance
  Energy initial, next-to-last, final = 
        -241.992497465     -241.992497465     -241.992499711
  Force two-norm initial, final = 0.020423 6.78241e-10
  Force max component initial, final = 0.0102115 3.45074e-10
  Final line search alpha, max atom move = 0 0
  Iterations, force evaluations = 1 142

Pair  time (%) = 0.00627723 (87.2806)
Neigh time (%) = 0 (0)
Comm  time (%) = 0.000167915 (2.33474)
Outpt time (%) = 4.69155e-05 (0.652328)
Other time (%) = 0.000699948 (9.7323)

Nlocal:    82 ave 82 max 82 min
Histogram: 1 0 0 0 0 0 0 0 0 0
Nghost:    185 ave 185 max 185 min
Histogram: 1 0 0 0 0 0 0 0 0 0
Neighs:    718 ave 718 max 718 min
Histogram: 1 0 0 0 0 0 0 0 0 0

Total # of neighbors = 718
Ave neighs/atom = 8.7561
Neighbor list builds = 0
Dangerous builds = 0
        # write_dump all atom ${dumpfile}
        next i
jump SELF loop1
        displace_atoms upper move ${xstep1} 0.0 0.0 units lattice
        displace_atoms upper move 0.002 0.0 0.0 units lattice
        min_style ${style}
        min_style hftn
        minimize ${etol} ${ftol} ${maxiter} ${maxeval}
        minimize 1e-12 ${ftol} ${maxiter} ${maxeval}
        minimize 1e-12 1e-08 ${maxiter} ${maxeval}
        minimize 1e-12 1e-08 10000 ${maxeval}
        minimize 1e-12 1e-08 10000 20000
WARNING: Resetting reneighboring criteria during minimization (../min.cpp:168)
Memory usage per processor = 4.85169 Mbytes
Step Temp PotEng Lx Ly Lz 
      47            0   -241.99109    2.2449075    38.891979    1.1224537 
      48            0   -241.99109    2.2449075    38.891979    1.1224537 
      49            0   -241.99109    2.2449075    38.891979    1.1224537 
      50            0   -241.99109    2.2449075    38.891979    1.1224537 
      51            0   -241.99109    2.2449075    38.891979    1.1224537 
      52            0   -241.99109    2.2449075    38.891979    1.1224537 
      53            0   -241.99109    2.2449075    38.891979    1.1224537 
      54            0   -241.99109    2.2449075    38.891979    1.1224537 
      55            0   -241.99109    2.2449075    38.891979    1.1224537 
      56            0   -241.99109    2.2449075    38.891979    1.1224537 
Loop time of 0.00287292 on 1 procs for 8 steps with 82 atoms

Minimization stats:
  Stopping criterion = energy tolerance
  Energy initial, next-to-last, final = 
         -241.99109432      -241.99109432      -241.99109432
  Force two-norm initial, final = 0.0116871 0.0116869
  Force max component initial, final = 0.00584356 0.00584343
  Final line search alpha, max atom move = 0 0
  Iterations, force evaluations = 8 127

Pair  time (%) = 0.00207086 (72.0818)
Neigh time (%) = 0 (0)
Comm  time (%) = 0.000159178 (5.54061)
Outpt time (%) = 0.00011878 (4.13446)
Other time (%) = 0.000524111 (18.2431)

Nlocal:    82 ave 82 max 82 min
Histogram: 1 0 0 0 0 0 0 0 0 0
Nghost:    185 ave 185 max 185 min
Histogram: 1 0 0 0 0 0 0 0 0 0
Neighs:    718 ave 718 max 718 min
Histogram: 1 0 0 0 0 0 0 0 0 0

Total # of neighbors = 718
Ave neighs/atom = 8.7561
Neighbor list builds = 0
Dangerous builds = 0
        # write_dump all atom ${dumpfile}
        next i
jump SELF loop1
        displace_atoms upper move ${xstep1} 0.0 0.0 units lattice
        displace_atoms upper move 0.002 0.0 0.0 units lattice
        min_style ${style}
        min_style hftn
        minimize ${etol} ${ftol} ${maxiter} ${maxeval}
        minimize 1e-12 ${ftol} ${maxiter} ${maxeval}
        minimize 1e-12 1e-08 ${maxiter} ${maxeval}
        minimize 1e-12 1e-08 10000 ${maxeval}
        minimize 1e-12 1e-08 10000 20000
WARNING: Resetting reneighboring criteria during minimization (../min.cpp:168)
Memory usage per processor = 4.85169 Mbytes
Step Temp PotEng Lx Ly Lz 
      56            0   -241.98956    2.2449075    38.891979    1.1224537 
      57            0   -241.98957    2.2449075    38.891979    1.1224537 
      58            0   -241.98957    2.2449075    38.891979    1.1224537 
Loop time of 0.00446707 on 1 procs for 1 steps with 82 atoms

Minimization stats:
  Stopping criterion = force tolerance
  Energy initial, next-to-last, final = 
        -241.989564795     -241.989564795     -241.989569436
  Force two-norm initial, final = 0.0244134 1.50556e-09
  Force max component initial, final = 0.0122067 7.66941e-10
  Final line search alpha, max atom move = 0 0
  Iterations, force evaluations = 1 140

Pair  time (%) = 0.00365802 (81.8886)
Neigh time (%) = 0 (0)
Comm  time (%) = 0.000187606 (4.19976)
Outpt time (%) = 8.93837e-06 (0.200094)
Other time (%) = 0.000612505 (13.7116)

Nlocal:    82 ave 82 max 82 min
Histogram: 1 0 0 0 0 0 0 0 0 0
Nghost:    185 ave 185 max 185 min
Histogram: 1 0 0 0 0 0 0 0 0 0
Neighs:    718 ave 718 max 718 min
Histogram: 1 0 0 0 0 0 0 0 0 0

Total # of neighbors = 718
Ave neighs/atom = 8.7561
Neighbor list builds = 0
Dangerous builds = 0
        # write_dump all atom ${dumpfile}
        next i
jump SELF loop1
        displace_atoms upper move ${xstep1} 0.0 0.0 units lattice
        displace_atoms upper move 0.002 0.0 0.0 units lattice
        min_style ${style}
        min_style hftn
        minimize ${etol} ${ftol} ${maxiter} ${maxeval}
        minimize 1e-12 ${ftol} ${maxiter} ${maxeval}
        minimize 1e-12 1e-08 ${maxiter} ${maxeval}
        minimize 1e-12 1e-08 10000 ${maxeval}
        minimize 1e-12 1e-08 10000 20000
WARNING: Resetting reneighboring criteria during minimization (../min.cpp:168)
Memory usage per processor = 4.85169 Mbytes
Step Temp PotEng Lx Ly Lz 
      58            0   -241.98793    2.2449075     38.89231    1.1224537 
      59            0   -241.98793    2.2449075     38.89231    1.1224537 
      60            0   -241.98793    2.2449075     38.89231    1.1224537 
Loop time of 0.0033589 on 1 procs for 1 steps with 82 atoms

Minimization stats:
  Stopping criterion = force tolerance
  Energy initial, next-to-last, final = 
        -241.987925917     -241.987925917     -241.987926195
  Force two-norm initial, final = 0.0136647 1.5441e-10
  Force max component initial, final = 0.00683234 6.94625e-11
  Final line search alpha, max atom move = 0 0
  Iterations, force evaluations = 1 146

Pair  time (%) = 0.00244275 (72.7248)
Neigh time (%) = 0 (0)
Comm  time (%) = 0.000209725 (6.24385)
Outpt time (%) = 9.90252e-06 (0.294815)
Other time (%) = 0.000696519 (20.7365)

Nlocal:    82 ave 82 max 82 min
Histogram: 1 0 0 0 0 0 0 0 0 0
Nghost:    185 ave 185 max 185 min
Histogram: 1 0 0 0 0 0 0 0 0 0
Neighs:    718 ave 718 max 718 min
Histogram: 1 0 0 0 0 0 0 0 0 0

Total # of neighbors = 718
Ave neighs/atom = 8.7561
Neighbor list builds = 0
Dangerous builds = 0
        # write_dump all atom ${dumpfile}
        next i
jump SELF loop1
        displace_atoms upper move ${xstep1} 0.0 0.0 units lattice
        displace_atoms upper move 0.002 0.0 0.0 units lattice
        min_style ${style}
        min_style hftn
        minimize ${etol} ${ftol} ${maxiter} ${maxeval}
        minimize 1e-12 ${ftol} ${maxiter} ${maxeval}
        minimize 1e-12 1e-08 ${maxiter} ${maxeval}
        minimize 1e-12 1e-08 10000 ${maxeval}
        minimize 1e-12 1e-08 10000 20000
WARNING: Resetting reneighboring criteria during minimization (../min.cpp:168)
Memory usage per processor = 4.85169 Mbytes
Step Temp PotEng Lx Ly Lz 
      60            0   -241.98616    2.2449075    38.892496    1.1224537 
      61            0   -241.98616    2.2449075    38.892496    1.1224537 
      62            0   -241.98616    2.2449075    38.892496    1.1224537 
Loop time of 0.00326692 on 1 procs for 1 steps with 82 atoms

Minimization stats:
  Stopping criterion = force tolerance
  Energy initial, next-to-last, final = 
        -241.986162187     -241.986162187     -241.986163179
  Force two-norm initial, final = 0.0146716 1.6093e-10
  Force max component initial, final = 0.0073358 7.88126e-11
  Final line search alpha, max atom move = 0 0
  Iterations, force evaluations = 1 146

Pair  time (%) = 0.00237527 (72.7066)
Neigh time (%) = 0 (0)
Comm  time (%) = 0.000225099 (6.89025)
Outpt time (%) = 9.08785e-06 (0.278177)
Other time (%) = 0.000657468 (20.125)

Nlocal:    82 ave 82 max 82 min
Histogram: 1 0 0 0 0 0 0 0 0 0
Nghost:    185 ave 185 max 185 min
Histogram: 1 0 0 0 0 0 0 0 0 0
Neighs:    718 ave 718 max 718 min
Histogram: 1 0 0 0 0 0 0 0 0 0

Total # of neighbors = 718
Ave neighs/atom = 8.7561
Neighbor list builds = 0
Dangerous builds = 0
        # write_dump all atom ${dumpfile}
        next i
jump SELF loop1
        displace_atoms upper move ${xstep1} 0.0 0.0 units lattice
        displace_atoms upper move 0.002 0.0 0.0 units lattice
        min_style ${style}
        min_style hftn
        minimize ${etol} ${ftol} ${maxiter} ${maxeval}
        minimize 1e-12 ${ftol} ${maxiter} ${maxeval}
        minimize 1e-12 1e-08 ${maxiter} ${maxeval}
        minimize 1e-12 1e-08 10000 ${maxeval}
        minimize 1e-12 1e-08 10000 20000
WARNING: Resetting reneighboring criteria during minimization (../min.cpp:168)
Memory usage per processor = 4.85169 Mbytes
Step Temp PotEng Lx Ly Lz 
      62            0   -241.98428    2.2449075    38.892696    1.1224537 
      63            0   -241.98428    2.2449075    38.892696    1.1224537 
      64            0   -241.98428    2.2449075    38.892696    1.1224537 
Loop time of 0.00478011 on 1 procs for 1 steps with 82 atoms

Minimization stats:
  Stopping criterion = force tolerance
  Energy initial, next-to-last, final = 
         -241.98428425      -241.98428425     -241.984284718
  Force two-norm initial, final = 0.0156187 2.9684e-10
  Force max component initial, final = 0.00780937 1.44735e-10
  Final line search alpha, max atom move = 0 0
  Iterations, force evaluations = 1 144

Pair  time (%) = 0.00357945 (74.8823)
Neigh time (%) = 0 (0)
Comm  time (%) = 0.000338474 (7.08089)
Outpt time (%) = 1.80028e-05 (0.37662)
Other time (%) = 0.000844178 (17.6602)

Nlocal:    82 ave 82 max 82 min
Histogram: 1 0 0 0 0 0 0 0 0 0
Nghost:    185 ave 185 max 185 min
Histogram: 1 0 0 0 0 0 0 0 0 0
Neighs:    718 ave 718 max 718 min
Histogram: 1 0 0 0 0 0 0 0 0 0

Total # of neighbors = 718
Ave neighs/atom = 8.7561
Neighbor list builds = 0
Dangerous builds = 0
        # write_dump all atom ${dumpfile}
        next i
jump SELF loop1
        displace_atoms upper move ${xstep1} 0.0 0.0 units lattice
        displace_atoms upper move 0.002 0.0 0.0 units lattice
        min_style ${style}
        min_style hftn
        minimize ${etol} ${ftol} ${maxiter} ${maxeval}
        minimize 1e-12 ${ftol} ${maxiter} ${maxeval}
        minimize 1e-12 1e-08 ${maxiter} ${maxeval}
        minimize 1e-12 1e-08 10000 ${maxeval}
        minimize 1e-12 1e-08 10000 20000
WARNING: Resetting reneighboring criteria during minimization (../min.cpp:168)
Memory usage per processor = 4.85169 Mbytes
Step Temp PotEng Lx Ly Lz 
      64            0   -241.98229    2.2449075    38.892908    1.1224537 
      65            0   -241.98229    2.2449075    38.892908    1.1224537 
      66            0   -241.98229    2.2449075    38.892908    1.1224537 
Loop time of 0.00597706 on 1 procs for 1 steps with 82 atoms

Minimization stats:
  Stopping criterion = force tolerance
  Energy initial, next-to-last, final = 
        -241.982286994     -241.982286994     -241.982290734
  Force two-norm initial, final = 0.0166113 2.93133e-10
  Force max component initial, final = 0.00830567 1.42905e-10
  Final line search alpha, max atom move = 0 0
  Iterations, force evaluations = 1 144

Pair  time (%) = 0.00231954 (38.8073)
Neigh time (%) = 0 (0)
Comm  time (%) = 0.000249265 (4.17036)
Outpt time (%) = 1.08919e-05 (0.182229)
Other time (%) = 0.00339736 (56.8401)

Nlocal:    82 ave 82 max 82 min
Histogram: 1 0 0 0 0 0 0 0 0 0
Nghost:    185 ave 185 max 185 min
Histogram: 1 0 0 0 0 0 0 0 0 0
Neighs:    718 ave 718 max 718 min
Histogram: 1 0 0 0 0 0 0 0 0 0

Total # of neighbors = 718
Ave neighs/atom = 8.7561
Neighbor list builds = 0
Dangerous builds = 0
        # write_dump all atom ${dumpfile}
        next i
jump SELF loop1
        displace_atoms upper move ${xstep1} 0.0 0.0 units lattice
        displace_atoms upper move 0.002 0.0 0.0 units lattice
        min_style ${style}
        min_style hftn
        minimize ${etol} ${ftol} ${maxiter} ${maxeval}
        minimize 1e-12 ${ftol} ${maxiter} ${maxeval}
        minimize 1e-12 1e-08 ${maxiter} ${maxeval}
        minimize 1e-12 1e-08 10000 ${maxeval}
        minimize 1e-12 1e-08 10000 20000
WARNING: Resetting reneighboring criteria during minimization (../min.cpp:168)
Memory usage per processor = 4.85169 Mbytes
Step Temp PotEng Lx Ly Lz 
      66            0   -241.98018    2.2449075    38.893133    1.1224537 
      67            0   -241.98018    2.2449075    38.893133    1.1224537 
      68            0   -241.98018    2.2449075    38.893133    1.1224537 
      69            0   -241.98018    2.2449075    38.893133    1.1224537 
      70            0   -241.98018    2.2449075    38.893133    1.1224537 
      71            0   -241.98018    2.2449075    38.893133    1.1224537 
      72            0   -241.98018    2.2449075    38.893133    1.1224537 
      73            0   -241.98018    2.2449075    38.893133    1.1224537 
      74            0   -241.98018    2.2449075    38.893133    1.1224537 
      75            0   -241.98018    2.2449075    38.893133    1.1224537 
Loop time of 0.00267292 on 1 procs for 8 steps with 82 atoms

Minimization stats:
  Stopping criterion = energy tolerance
  Energy initial, next-to-last, final = 
        -241.980178715     -241.980178715     -241.980178715
  Force two-norm initial, final = 0.0175548 0.0175544
  Force max component initial, final = 0.00877739 0.0087772
  Final line search alpha, max atom move = 0 0
  Iterations, force evaluations = 8 123

Pair  time (%) = 0.00198303 (74.1895)
Neigh time (%) = 0 (0)
Comm  time (%) = 0.000162345 (6.07368)
Outpt time (%) = 5.29101e-05 (1.97948)
Other time (%) = 0.000474639 (17.7573)

Nlocal:    82 ave 82 max 82 min
Histogram: 1 0 0 0 0 0 0 0 0 0
Nghost:    185 ave 185 max 185 min
Histogram: 1 0 0 0 0 0 0 0 0 0
Neighs:    718 ave 718 max 718 min
Histogram: 1 0 0 0 0 0 0 0 0 0

Total # of neighbors = 718
Ave neighs/atom = 8.7561
Neighbor list builds = 0
Dangerous builds = 0
        # write_dump all atom ${dumpfile}
        next i
jump SELF loop1
        displace_atoms upper move ${xstep1} 0.0 0.0 units lattice
        displace_atoms upper move 0.002 0.0 0.0 units lattice
        min_style ${style}
        min_style hftn
        minimize ${etol} ${ftol} ${maxiter} ${maxeval}
        minimize 1e-12 ${ftol} ${maxiter} ${maxeval}
        minimize 1e-12 1e-08 ${maxiter} ${maxeval}
        minimize 1e-12 1e-08 10000 ${maxeval}
        minimize 1e-12 1e-08 10000 20000
WARNING: Resetting reneighboring criteria during minimization (../min.cpp:168)
Memory usage per processor = 4.85169 Mbytes
Step Temp PotEng Lx Ly Lz 
      75            0   -241.97794    2.2449075    38.893133    1.1224537 
      76            0   -241.97796    2.2449075    38.893133    1.1224537 
      77            0   -241.97796    2.2449075    38.893133    1.1224537 
Loop time of 0.00512295 on 1 procs for 1 steps with 82 atoms

Minimization stats:
  Stopping criterion = force tolerance
  Energy initial, next-to-last, final = 
        -241.977944792     -241.977944792     -241.977955532
  Force two-norm initial, final = 0.0361295 5.59688e-09
  Force max component initial, final = 0.0180648 2.93314e-09
  Final line search alpha, max atom move = 0 0
  Iterations, force evaluations = 1 138

Pair  time (%) = 0.00311636 (60.8313)
Neigh time (%) = 0 (0)
Comm  time (%) = 0.000223691 (4.36645)
Outpt time (%) = 9.95176e-06 (0.194258)
Other time (%) = 0.00177295 (34.608)

Nlocal:    82 ave 82 max 82 min
Histogram: 1 0 0 0 0 0 0 0 0 0
Nghost:    185 ave 185 max 185 min
Histogram: 1 0 0 0 0 0 0 0 0 0
Neighs:    718 ave 718 max 718 min
Histogram: 1 0 0 0 0 0 0 0 0 0

Total # of neighbors = 718
Ave neighs/atom = 8.7561
Neighbor list builds = 0
Dangerous builds = 0
        # write_dump all atom ${dumpfile}
        next i
jump SELF loop1
        displace_atoms upper move ${xstep1} 0.0 0.0 units lattice
        displace_atoms upper move 0.002 0.0 0.0 units lattice
        min_style ${style}
        min_style hftn
        minimize ${etol} ${ftol} ${maxiter} ${maxeval}
        minimize 1e-12 ${ftol} ${maxiter} ${maxeval}
        minimize 1e-12 1e-08 ${maxiter} ${maxeval}
        minimize 1e-12 1e-08 10000 ${maxeval}
        minimize 1e-12 1e-08 10000 20000
WARNING: Resetting reneighboring criteria during minimization (../min.cpp:168)
Memory usage per processor = 4.85169 Mbytes
Step Temp PotEng Lx Ly Lz 
      77            0   -241.97561    2.2449075    38.893623    1.1224537 
      78            0   -241.97561    2.2449075    38.893623    1.1224537 
      79            0   -241.97561    2.2449075    38.893623    1.1224537 
Loop time of 0.00311296 on 1 procs for 1 steps with 82 atoms

Minimization stats:
  Stopping criterion = force tolerance
  Energy initial, next-to-last, final = 
          -241.9756123       -241.9756123     -241.975614134
  Force two-norm initial, final = 0.0194795 6.52168e-10
  Force max component initial, final = 0.00973973 2.57427e-10
  Final line search alpha, max atom move = 0 0
  Iterations, force evaluations = 1 142

Pair  time (%) = 0.00225268 (72.3643)
Neigh time (%) = 0 (0)
Comm  time (%) = 0.000204056 (6.55504)
Outpt time (%) = 1.00593e-05 (0.323143)
Other time (%) = 0.000646173 (20.7575)

Nlocal:    82 ave 82 max 82 min
Histogram: 1 0 0 0 0 0 0 0 0 0
Nghost:    185 ave 185 max 185 min
Histogram: 1 0 0 0 0 0 0 0 0 0
Neighs:    718 ave 718 max 718 min
Histogram: 1 0 0 0 0 0 0 0 0 0

Total # of neighbors = 718
Ave neighs/atom = 8.7561
Neighbor list builds = 0
Dangerous builds = 0
        # write_dump all atom ${dumpfile}
        next i
jump SELF loop1
        displace_atoms upper move ${xstep1} 0.0 0.0 units lattice
        displace_atoms upper move 0.002 0.0 0.0 units lattice
        min_style ${style}
        min_style hftn
        minimize ${etol} ${ftol} ${maxiter} ${maxeval}
        minimize 1e-12 ${ftol} ${maxiter} ${maxeval}
        minimize 1e-12 1e-08 ${maxiter} ${maxeval}
        minimize 1e-12 1e-08 10000 ${maxeval}
        minimize 1e-12 1e-08 10000 20000
WARNING: Resetting reneighboring criteria during minimization (../min.cpp:168)
Memory usage per processor = 4.85169 Mbytes
Step Temp PotEng Lx Ly Lz 
      79            0   -241.97316    2.2449075    38.893888    1.1224537 
      80            0   -241.97316    2.2449075    38.893888    1.1224537 
      81            0   -241.97316    2.2449075    38.893888    1.1224537 
Loop time of 0.00406895 on 1 procs for 1 steps with 82 atoms

Minimization stats:
  Stopping criterion = force tolerance
  Energy initial, next-to-last, final = 
        -241.973161572     -241.973161572     -241.973162557
  Force two-norm initial, final = 0.0203754 7.58527e-10
  Force max component initial, final = 0.0101877 2.90279e-10
  Final line search alpha, max atom move = 0 0
  Iterations, force evaluations = 1 142

Pair  time (%) = 0.00235321 (57.8335)
Neigh time (%) = 0 (0)
Comm  time (%) = 0.000276423 (6.79348)
Outpt time (%) = 9.98634e-06 (0.245428)
Other time (%) = 0.00142932 (35.1276)

Nlocal:    82 ave 82 max 82 min
Histogram: 1 0 0 0 0 0 0 0 0 0
Nghost:    185 ave 185 max 185 min
Histogram: 1 0 0 0 0 0 0 0 0 0
Neighs:    718 ave 718 max 718 min
Histogram: 1 0 0 0 0 0 0 0 0 0

Total # of neighbors = 718
Ave neighs/atom = 8.7561
Neighbor list builds = 0
Dangerous builds = 0
        # write_dump all atom ${dumpfile}
        next i
jump SELF loop1
        displace_atoms upper move ${xstep1} 0.0 0.0 units lattice
        displace_atoms upper move 0.002 0.0 0.0 units lattice
        min_style ${style}
        min_style hftn
        minimize ${etol} ${ftol} ${maxiter} ${maxeval}
        minimize 1e-12 ${ftol} ${maxiter} ${maxeval}
        minimize 1e-12 1e-08 ${maxiter} ${maxeval}
        minimize 1e-12 1e-08 10000 ${maxeval}
        minimize 1e-12 1e-08 10000 20000
WARNING: Resetting reneighboring criteria during minimization (../min.cpp:168)
Memory usage per processor = 4.85169 Mbytes
Step Temp PotEng Lx Ly Lz 
      81            0    -241.9706    2.2449075    38.894165    1.1224537 
      82            0    -241.9706    2.2449075    38.894165    1.1224537 
      83            0    -241.9706    2.2449075    38.894165    1.1224537 
Loop time of 0.00322205 on 1 procs for 1 steps with 82 atoms

Minimization stats:
  Stopping criterion = force tolerance
  Energy initial, next-to-last, final = 
        -241.970596538     -241.970596538     -241.970601966
  Force two-norm initial, final = 0.0213197 7.33996e-10
  Force max component initial, final = 0.0106599 3.30105e-10
  Final line search alpha, max atom move = 0 0
  Iterations, force evaluations = 1 142

Pair  time (%) = 0.00238661 (74.0713)
Neigh time (%) = 0 (0)
Comm  time (%) = 0.000164558 (5.10725)
Outpt time (%) = 1.00493e-05 (0.311892)
Other time (%) = 0.000660826 (20.5095)

Nlocal:    82 ave 82 max 82 min
Histogram: 1 0 0 0 0 0 0 0 0 0
Nghost:    185 ave 185 max 185 min
Histogram: 1 0 0 0 0 0 0 0 0 0
Neighs:    718 ave 718 max 718 min
Histogram: 1 0 0 0 0 0 0 0 0 0

Total # of neighbors = 718
Ave neighs/atom = 8.7561
Neighbor list builds = 0
Dangerous builds = 0
        # write_dump all atom ${dumpfile}
        next i
jump SELF loop1
        displace_atoms upper move ${xstep1} 0.0 0.0 units lattice
        displace_atoms upper move 0.002 0.0 0.0 units lattice
        min_style ${style}
        min_style hftn
        minimize ${etol} ${ftol} ${maxiter} ${maxeval}
        minimize 1e-12 ${ftol} ${maxiter} ${maxeval}
        minimize 1e-12 1e-08 ${maxiter} ${maxeval}
        minimize 1e-12 1e-08 10000 ${maxeval}
        minimize 1e-12 1e-08 10000 20000
WARNING: Resetting reneighboring criteria during minimization (../min.cpp:168)
Memory usage per processor = 4.85169 Mbytes
Step Temp PotEng Lx Ly Lz 
      83            0   -241.96792    2.2449075    38.894454    1.1224537 
      84            0   -241.96793    2.2449075    38.894454    1.1224537 
      85            0   -241.96793    2.2449075    38.894454    1.1224537 
Loop time of 0.00341191 on 1 procs for 1 steps with 82 atoms

Minimization stats:
  Stopping criterion = force tolerance
  Energy initial, next-to-last, final = 
        -241.967923026     -241.967923026     -241.967926661
  Force two-norm initial, final = 0.0222608 8.08748e-10
  Force max component initial, final = 0.0111304 4.15035e-10
  Final line search alpha, max atom move = 0 0
  Iterations, force evaluations = 1 142

Pair  time (%) = 0.00251034 (73.5759)
Neigh time (%) = 0 (0)
Comm  time (%) = 0.000209067 (6.12756)
Outpt time (%) = 1.18931e-05 (0.348576)
Other time (%) = 0.000680607 (19.948)

Nlocal:    82 ave 82 max 82 min
Histogram: 1 0 0 0 0 0 0 0 0 0
Nghost:    185 ave 185 max 185 min
Histogram: 1 0 0 0 0 0 0 0 0 0
Neighs:    718 ave 718 max 718 min
Histogram: 1 0 0 0 0 0 0 0 0 0

Total # of neighbors = 718
Ave neighs/atom = 8.7561
Neighbor list builds = 0
Dangerous builds = 0
        # write_dump all atom ${dumpfile}
        next i
jump SELF loop1
        displace_atoms upper move ${xstep1} 0.0 0.0 units lattice
        displace_atoms upper move 0.002 0.0 0.0 units lattice
        min_style ${style}
        min_style hftn
        minimize ${etol} ${ftol} ${maxiter} ${maxeval}
        minimize 1e-12 ${ftol} ${maxiter} ${maxeval}
        minimize 1e-12 1e-08 ${maxiter} ${maxeval}
        minimize 1e-12 1e-08 10000 ${maxeval}
        minimize 1e-12 1e-08 10000 20000
WARNING: Resetting reneighboring criteria during minimization (../min.cpp:168)
Memory usage per processor = 4.85169 Mbytes
Step Temp PotEng Lx Ly Lz 
      85            0   -241.96514    2.2449075    38.894756    1.1224537 
      86            0   -241.96514    2.2449075    38.894756    1.1224537 
      87            0   -241.96514    2.2449075    38.894756    1.1224537 
Loop time of 0.00699492 on 1 procs for 1 steps with 82 atoms

Minimization stats:
  Stopping criterion = force tolerance
  Energy initial, next-to-last, final = 
        -241.965142126     -241.965142126     -241.965143445
  Force two-norm initial, final = 0.0231226 1.3777e-09
  Force max component initial, final = 0.0115613 7.16534e-10
  Final line search alpha, max atom move = 0 0
  Iterations, force evaluations = 1 140

Pair  time (%) = 0.00210213 (30.0522)
Neigh time (%) = 0 (0)
Comm  time (%) = 0.000162432 (2.32215)
Outpt time (%) = 8.99425e-06 (0.128583)
Other time (%) = 0.00472136 (67.4971)

Nlocal:    82 ave 82 max 82 min
Histogram: 1 0 0 0 0 0 0 0 0 0
Nghost:    185 ave 185 max 185 min
Histogram: 1 0 0 0 0 0 0 0 0 0
Neighs:    718 ave 718 max 718 min
Histogram: 1 0 0 0 0 0 0 0 0 0

Total # of neighbors = 718
Ave neighs/atom = 8.7561
Neighbor list builds = 0
Dangerous builds = 0
        # write_dump all atom ${dumpfile}
        next i
jump SELF loop1
        displace_atoms upper move ${xstep1} 0.0 0.0 units lattice
        displace_atoms upper move 0.002 0.0 0.0 units lattice
        min_style ${style}
        min_style hftn
        minimize ${etol} ${ftol} ${maxiter} ${maxeval}
        minimize 1e-12 ${ftol} ${maxiter} ${maxeval}
        minimize 1e-12 1e-08 ${maxiter} ${maxeval}
        minimize 1e-12 1e-08 10000 ${maxeval}
        minimize 1e-12 1e-08 10000 20000
WARNING: Resetting reneighboring criteria during minimization (../min.cpp:168)
Memory usage per processor = 4.85169 Mbytes
Step Temp PotEng Lx Ly Lz 
      87            0   -241.96225    2.2449075     38.89507    1.1224537 
      88            0   -241.96225    2.2449075     38.89507    1.1224537 
      89            0   -241.96225    2.2449075     38.89507    1.1224537 
Loop time of 0.00387706 on 1 procs for 1 steps with 82 atoms

Minimization stats:
  Stopping criterion = force tolerance
  Energy initial, next-to-last, final = 
        -241.962249726     -241.962249726     -241.962253276
  Force two-norm initial, final = 0.0240285 1.47549e-09
  Force max component initial, final = 0.0120142 7.67076e-10
  Final line search alpha, max atom move = 0 0
  Iterations, force evaluations = 1 140

Pair  time (%) = 0.00276305 (71.2667)
Neigh time (%) = 0 (0)
Comm  time (%) = 0.000299197 (7.71711)
Outpt time (%) = 9.08377e-06 (0.234295)
Other time (%) = 0.000805725 (20.7819)

Nlocal:    82 ave 82 max 82 min
Histogram: 1 0 0 0 0 0 0 0 0 0
Nghost:    175 ave 175 max 175 min
Histogram: 1 0 0 0 0 0 0 0 0 0
Neighs:    718 ave 718 max 718 min
Histogram: 1 0 0 0 0 0 0 0 0 0

Total # of neighbors = 718
Ave neighs/atom = 8.7561
Neighbor list builds = 0
Dangerous builds = 0
        # write_dump all atom ${dumpfile}
        next i
jump SELF loop1
        displace_atoms upper move ${xstep1} 0.0 0.0 units lattice
        displace_atoms upper move 0.002 0.0 0.0 units lattice
        min_style ${style}
        min_style hftn
        minimize ${etol} ${ftol} ${maxiter} ${maxeval}
        minimize 1e-12 ${ftol} ${maxiter} ${maxeval}
        minimize 1e-12 1e-08 ${maxiter} ${maxeval}
        minimize 1e-12 1e-08 10000 ${maxeval}
        minimize 1e-12 1e-08 10000 20000
WARNING: Resetting reneighboring criteria during minimization (../min.cpp:168)
Memory usage per processor = 4.85169 Mbytes
Step Temp PotEng Lx Ly Lz 
      89            0   -241.95925    2.2449075    38.895397    1.1224537 
      90            0   -241.95926    2.2449075    38.895397    1.1224537 
      91            0   -241.95926    2.2449075    38.895397    1.1224537 
Loop time of 0.00293211 on 1 procs for 1 steps with 82 atoms

Minimization stats:
  Stopping criterion = force tolerance
  Energy initial, next-to-last, final = 
        -241.959251328     -241.959251328     -241.959256922
  Force two-norm initial, final = 0.0249252 1.58302e-09
  Force max component initial, final = 0.0124626 8.38836e-10
  Final line search alpha, max atom move = 0 0
  Iterations, force evaluations = 1 140

Pair  time (%) = 0.00214174 (73.0443)
Neigh time (%) = 0 (0)
Comm  time (%) = 0.000163289 (5.56902)
Outpt time (%) = 1.00769e-05 (0.343675)
Other time (%) = 0.000617003 (21.043)

Nlocal:    82 ave 82 max 82 min
Histogram: 1 0 0 0 0 0 0 0 0 0
Nghost:    175 ave 175 max 175 min
Histogram: 1 0 0 0 0 0 0 0 0 0
Neighs:    718 ave 718 max 718 min
Histogram: 1 0 0 0 0 0 0 0 0 0

Total # of neighbors = 718
Ave neighs/atom = 8.7561
Neighbor list builds = 0
Dangerous builds = 0
        # write_dump all atom ${dumpfile}
        next i
jump SELF loop1
        displace_atoms upper move ${xstep1} 0.0 0.0 units lattice
        displace_atoms upper move 0.002 0.0 0.0 units lattice
        min_style ${style}
        min_style hftn
        minimize ${etol} ${ftol} ${maxiter} ${maxeval}
        minimize 1e-12 ${ftol} ${maxiter} ${maxeval}
        minimize 1e-12 1e-08 ${maxiter} ${maxeval}
        minimize 1e-12 1e-08 10000 ${maxeval}
        minimize 1e-12 1e-08 10000 20000
WARNING: Resetting reneighboring criteria during minimization (../min.cpp:168)
Memory usage per processor = 4.85169 Mbytes
Step Temp PotEng Lx Ly Lz 
      91            0   -241.95615    2.2449075    38.895735    1.1224537 
      92            0   -241.95615    2.2449075    38.895735    1.1224537 
      93            0   -241.95615    2.2449075    38.895735    1.1224537 
Loop time of 0.00354303 on 1 procs for 1 steps with 82 atoms

Minimization stats:
  Stopping criterion = force tolerance
  Energy initial, next-to-last, final = 
        -241.956147232     -241.956147232     -241.956154608
  Force two-norm initial, final = 0.02582 1.68073e-09
  Force max component initial, final = 0.01291 8.5898e-10
  Final line search alpha, max atom move = 0 0
  Iterations, force evaluations = 1 140

Pair  time (%) = 0.00215538 (60.8345)
Neigh time (%) = 0 (0)
Comm  time (%) = 0.000766688 (21.6393)
Outpt time (%) = 1.49399e-05 (0.421671)
Other time (%) = 0.000606017 (17.1045)

Nlocal:    82 ave 82 max 82 min
Histogram: 1 0 0 0 0 0 0 0 0 0
Nghost:    175 ave 175 max 175 min
Histogram: 1 0 0 0 0 0 0 0 0 0
Neighs:    718 ave 718 max 718 min
Histogram: 1 0 0 0 0 0 0 0 0 0

Total # of neighbors = 718
Ave neighs/atom = 8.7561
Neighbor list builds = 0
Dangerous builds = 0
        # write_dump all atom ${dumpfile}
        next i
jump SELF loop1
        displace_atoms upper move ${xstep1} 0.0 0.0 units lattice
        displace_atoms upper move 0.002 0.0 0.0 units lattice
        min_style ${style}
        min_style hftn
        minimize ${etol} ${ftol} ${maxiter} ${maxeval}
        minimize 1e-12 ${ftol} ${maxiter} ${maxeval}
        minimize 1e-12 1e-08 ${maxiter} ${maxeval}
        minimize 1e-12 1e-08 10000 ${maxeval}
        minimize 1e-12 1e-08 10000 20000
WARNING: Resetting reneighboring criteria during minimization (../min.cpp:168)
Memory usage per processor = 4.85169 Mbytes
Step Temp PotEng Lx Ly Lz 
      93            0   -241.95294    2.2449075    38.896085    1.1224537 
      94            0   -241.95294    2.2449075    38.896085    1.1224537 
      95            0   -241.95294    2.2449075    38.896085    1.1224537 
Loop time of 0.00292006 on 1 procs for 1 steps with 82 atoms

Minimization stats:
  Stopping criterion = force tolerance
  Energy initial, next-to-last, final = 
        -241.952941235     -241.952941235     -241.952944882
  Force two-norm initial, final = 0.0266727 1.80106e-09
  Force max component initial, final = 0.0133364 9.15275e-10
  Final line search alpha, max atom move = 0 0
  Iterations, force evaluations = 1 140

Pair  time (%) = 0.00214345 (73.4041)
Neigh time (%) = 0 (0)
Comm  time (%) = 0.000159487 (5.46177)
Outpt time (%) = 1.01026e-05 (0.345973)
Other time (%) = 0.000607027 (20.7882)

Nlocal:    82 ave 82 max 82 min
Histogram: 1 0 0 0 0 0 0 0 0 0
Nghost:    175 ave 175 max 175 min
Histogram: 1 0 0 0 0 0 0 0 0 0
Neighs:    718 ave 718 max 718 min
Histogram: 1 0 0 0 0 0 0 0 0 0

Total # of neighbors = 718
Ave neighs/atom = 8.7561
Neighbor list builds = 0
Dangerous builds = 0
        # write_dump all atom ${dumpfile}
        next i
jump SELF loop1
        displace_atoms upper move ${xstep1} 0.0 0.0 units lattice
        displace_atoms upper move 0.002 0.0 0.0 units lattice
        min_style ${style}
        min_style hftn
        minimize ${etol} ${ftol} ${maxiter} ${maxeval}
        minimize 1e-12 ${ftol} ${maxiter} ${maxeval}
        minimize 1e-12 1e-08 ${maxiter} ${maxeval}
        minimize 1e-12 1e-08 10000 ${maxeval}
        minimize 1e-12 1e-08 10000 20000
WARNING: Resetting reneighboring criteria during minimization (../min.cpp:168)
Memory usage per processor = 4.85169 Mbytes
Step Temp PotEng Lx Ly Lz 
      95            0   -241.94963    2.2449075    38.896447    1.1224537 
      96            0   -241.94963    2.2449075    38.896447    1.1224537 
      97            0   -241.94963    2.2449075    38.896447    1.1224537 
Loop time of 0.00329298 on 1 procs for 1 steps with 82 atoms

Minimization stats:
  Stopping criterion = force tolerance
  Energy initial, next-to-last, final = 
        -241.949630827     -241.949630827      -241.94963414
  Force two-norm initial, final = 0.027495 1.94254e-09
  Force max component initial, final = 0.0137475 1.01105e-09
  Final line search alpha, max atom move = 0 0
  Iterations, force evaluations = 1 140

Pair  time (%) = 0.00235049 (71.3787)
Neigh time (%) = 0 (0)
Comm  time (%) = 0.000227256 (6.90121)
Outpt time (%) = 1.20511e-05 (0.365962)
Other time (%) = 0.000703189 (21.3542)

Nlocal:    82 ave 82 max 82 min
Histogram: 1 0 0 0 0 0 0 0 0 0
Nghost:    175 ave 175 max 175 min
Histogram: 1 0 0 0 0 0 0 0 0 0
Neighs:    718 ave 718 max 718 min
Histogram: 1 0 0 0 0 0 0 0 0 0

Total # of neighbors = 718
Ave neighs/atom = 8.7561
Neighbor list builds = 0
Dangerous builds = 0
        # write_dump all atom ${dumpfile}
        next i
jump SELF loop1
        displace_atoms upper move ${xstep1} 0.0 0.0 units lattice
        displace_atoms upper move 0.002 0.0 0.0 units lattice
        min_style ${style}
        min_style hftn
        minimize ${etol} ${ftol} ${maxiter} ${maxeval}
        minimize 1e-12 ${ftol} ${maxiter} ${maxeval}
        minimize 1e-12 1e-08 ${maxiter} ${maxeval}
        minimize 1e-12 1e-08 10000 ${maxeval}
        minimize 1e-12 1e-08 10000 20000
WARNING: Resetting reneighboring criteria during minimization (../min.cpp:168)
Memory usage per processor = 4.85169 Mbytes
Step Temp PotEng Lx Ly Lz 
      97            0   -241.94622    2.2449075     38.89682    1.1224537 
      98            0   -241.94622    2.2449075     38.89682    1.1224537 
      99            0   -241.94622    2.2449075     38.89682    1.1224537 
Loop time of 0.00386106 on 1 procs for 1 steps with 82 atoms

Minimization stats:
  Stopping criterion = force tolerance
  Energy initial, next-to-last, final = 
        -241.946218748     -241.946218748     -241.946222342
  Force two-norm initial, final = 0.0283284 2.26822e-09
  Force max component initial, final = 0.0141642 1.01374e-09
  Final line search alpha, max atom move = 0 0
  Iterations, force evaluations = 1 140

Pair  time (%) = 0.0029421 (76.1991)
Neigh time (%) = 0 (0)
Comm  time (%) = 0.000205741 (5.32862)
Outpt time (%) = 1.00182e-05 (0.259468)
Other time (%) = 0.000703207 (18.2128)

Nlocal:    82 ave 82 max 82 min
Histogram: 1 0 0 0 0 0 0 0 0 0
Nghost:    175 ave 175 max 175 min
Histogram: 1 0 0 0 0 0 0 0 0 0
Neighs:    718 ave 718 max 718 min
Histogram: 1 0 0 0 0 0 0 0 0 0

Total # of neighbors = 718
Ave neighs/atom = 8.7561
Neighbor list builds = 0
Dangerous builds = 0
        # write_dump all atom ${dumpfile}
        next i
jump SELF loop1
        displace_atoms upper move ${xstep1} 0.0 0.0 units lattice
        displace_atoms upper move 0.002 0.0 0.0 units lattice
        min_style ${style}
        min_style hftn
        minimize ${etol} ${ftol} ${maxiter} ${maxeval}
        minimize 1e-12 ${ftol} ${maxiter} ${maxeval}
        minimize 1e-12 1e-08 ${maxiter} ${maxeval}
        minimize 1e-12 1e-08 10000 ${maxeval}
        minimize 1e-12 1e-08 10000 20000
WARNING: Resetting reneighboring criteria during minimization (../min.cpp:168)
Memory usage per processor = 4.85169 Mbytes
Step Temp PotEng Lx Ly Lz 
      99            0   -241.94271    2.2449075    38.897205    1.1224537 
     100            0   -241.94271    2.2449075    38.897205    1.1224537 
     101            0   -241.94271    2.2449075    38.897205    1.1224537 
Loop time of 0.006838 on 1 procs for 1 steps with 82 atoms

Minimization stats:
  Stopping criterion = force tolerance
  Energy initial, next-to-last, final = 
        -241.942706021     -241.942706021     -241.942709203
  Force two-norm initial, final = 0.0291591 2.27794e-09
  Force max component initial, final = 0.0145795 1.10283e-09
  Final line search alpha, max atom move = 0 0
  Iterations, force evaluations = 1 140

Pair  time (%) = 0.00598243 (87.4879)
Neigh time (%) = 0 (0)
Comm  time (%) = 0.000196406 (2.87227)
Outpt time (%) = 6.07618e-06 (0.088859)
Other time (%) = 0.000653095 (9.55097)

Nlocal:    82 ave 82 max 82 min
Histogram: 1 0 0 0 0 0 0 0 0 0
Nghost:    175 ave 175 max 175 min
Histogram: 1 0 0 0 0 0 0 0 0 0
Neighs:    718 ave 718 max 718 min
Histogram: 1 0 0 0 0 0 0 0 0 0

Total # of neighbors = 718
Ave neighs/atom = 8.7561
Neighbor list builds = 0
Dangerous builds = 0
        # write_dump all atom ${dumpfile}
        next i
jump SELF loop1
        displace_atoms upper move ${xstep1} 0.0 0.0 units lattice
        displace_atoms upper move 0.002 0.0 0.0 units lattice
        min_style ${style}
        min_style hftn
        minimize ${etol} ${ftol} ${maxiter} ${maxeval}
        minimize 1e-12 ${ftol} ${maxiter} ${maxeval}
        minimize 1e-12 1e-08 ${maxiter} ${maxeval}
        minimize 1e-12 1e-08 10000 ${maxeval}
        minimize 1e-12 1e-08 10000 20000
WARNING: Resetting reneighboring criteria during minimization (../min.cpp:168)
Memory usage per processor = 4.85169 Mbytes
Step Temp PotEng Lx Ly Lz 
     101            0   -241.93909    2.2449075      38.8976    1.1224537 
     102            0    -241.9391    2.2449075      38.8976    1.1224537 
     103            0    -241.9391    2.2449075      38.8976    1.1224537 
Loop time of 0.00317899 on 1 procs for 1 steps with 82 atoms

Minimization stats:
  Stopping criterion = force tolerance
  Energy initial, next-to-last, final = 
        -241.939093152     -241.939093152     -241.939098146
  Force two-norm initial, final = 0.029981 3.73339e-09
  Force max component initial, final = 0.0149905 1.82555e-09
  Final line search alpha, max atom move = 0 0
  Iterations, force evaluations = 1 138

Pair  time (%) = 0.00234074 (73.6316)
Neigh time (%) = 0 (0)
Comm  time (%) = 0.000174111 (5.47694)
Outpt time (%) = 1.00044e-05 (0.314704)
Other time (%) = 0.000654133 (20.5768)

Nlocal:    82 ave 82 max 82 min
Histogram: 1 0 0 0 0 0 0 0 0 0
Nghost:    175 ave 175 max 175 min
Histogram: 1 0 0 0 0 0 0 0 0 0
Neighs:    718 ave 718 max 718 min
Histogram: 1 0 0 0 0 0 0 0 0 0

Total # of neighbors = 718
Ave neighs/atom = 8.7561
Neighbor list builds = 0
Dangerous builds = 0
        # write_dump all atom ${dumpfile}
        next i
jump SELF loop1
        displace_atoms upper move ${xstep1} 0.0 0.0 units lattice
        displace_atoms upper move 0.002 0.0 0.0 units lattice
        min_style ${style}
        min_style hftn
        minimize ${etol} ${ftol} ${maxiter} ${maxeval}
        minimize 1e-12 ${ftol} ${maxiter} ${maxeval}
        minimize 1e-12 1e-08 ${maxiter} ${maxeval}
        minimize 1e-12 1e-08 10000 ${maxeval}
        minimize 1e-12 1e-08 10000 20000
WARNING: Resetting reneighboring criteria during minimization (../min.cpp:168)
Memory usage per processor = 4.85169 Mbytes
Step Temp PotEng Lx Ly Lz 
     103            0   -241.93538    2.2449075    38.898007    1.1224537 
     104            0   -241.93539    2.2449075    38.898007    1.1224537 
     105            0   -241.93539    2.2449075    38.898007    1.1224537 
Loop time of 0.0041541 on 1 procs for 1 steps with 82 atoms

Minimization stats:
  Stopping criterion = force tolerance
  Energy initial, next-to-last, final = 
        -241.935383586     -241.935383586     -241.935390255
  Force two-norm initial, final = 0.0307929 3.93261e-09
  Force max component initial, final = 0.0153964 1.9773e-09
  Final line search alpha, max atom move = 0 0
  Iterations, force evaluations = 1 138

Pair  time (%) = 0.00299797 (72.169)
Neigh time (%) = 0 (0)
Comm  time (%) = 0.000321295 (7.7344)
Outpt time (%) = 1.39723e-05 (0.336349)
Other time (%) = 0.000820861 (19.7603)

Nlocal:    82 ave 82 max 82 min
Histogram: 1 0 0 0 0 0 0 0 0 0
Nghost:    175 ave 175 max 175 min
Histogram: 1 0 0 0 0 0 0 0 0 0
Neighs:    718 ave 718 max 718 min
Histogram: 1 0 0 0 0 0 0 0 0 0

Total # of neighbors = 718
Ave neighs/atom = 8.7561
Neighbor list builds = 0
Dangerous builds = 0
        # write_dump all atom ${dumpfile}
        next i
jump SELF loop1
        displace_atoms upper move ${xstep1} 0.0 0.0 units lattice
        displace_atoms upper move 0.002 0.0 0.0 units lattice
        min_style ${style}
        min_style hftn
        minimize ${etol} ${ftol} ${maxiter} ${maxeval}
        minimize 1e-12 ${ftol} ${maxiter} ${maxeval}
        minimize 1e-12 1e-08 ${maxiter} ${maxeval}
        minimize 1e-12 1e-08 10000 ${maxeval}
        minimize 1e-12 1e-08 10000 20000
WARNING: Resetting reneighboring criteria during minimization (../min.cpp:168)
Memory usage per processor = 4.85169 Mbytes
Step Temp PotEng Lx Ly Lz 
     105            0   -241.93158    2.2449075    38.898425    1.1224537 
     106            0   -241.93159    2.2449075    38.898425    1.1224537 
     107            0   -241.93159    2.2449075    38.898425    1.1224537 
Loop time of 0.00414294 on 1 procs for 1 steps with 82 atoms

Minimization stats:
  Stopping criterion = force tolerance
  Energy initial, next-to-last, final = 
        -241.931578857     -241.931578857     -241.931585507
  Force two-norm initial, final = 0.0315896 4.15411e-09
  Force max component initial, final = 0.0157948 2.09779e-09
  Final line search alpha, max atom move = 0 0
  Iterations, force evaluations = 1 138

Pair  time (%) = 0.00295254 (71.2669)
Neigh time (%) = 0 (0)
Comm  time (%) = 0.000245908 (5.93559)
Outpt time (%) = 1.00766e-05 (0.243223)
Other time (%) = 0.000934412 (22.5543)

Nlocal:    82 ave 82 max 82 min
Histogram: 1 0 0 0 0 0 0 0 0 0
Nghost:    175 ave 175 max 175 min
Histogram: 1 0 0 0 0 0 0 0 0 0
Neighs:    718 ave 718 max 718 min
Histogram: 1 0 0 0 0 0 0 0 0 0

Total # of neighbors = 718
Ave neighs/atom = 8.7561
Neighbor list builds = 0
Dangerous builds = 0
        # write_dump all atom ${dumpfile}
        next i
jump SELF loop1
        displace_atoms upper move ${xstep1} 0.0 0.0 units lattice
        displace_atoms upper move 0.002 0.0 0.0 units lattice
        min_style ${style}
        min_style hftn
        minimize ${etol} ${ftol} ${maxiter} ${maxeval}
        minimize 1e-12 ${ftol} ${maxiter} ${maxeval}
        minimize 1e-12 1e-08 ${maxiter} ${maxeval}
        minimize 1e-12 1e-08 10000 ${maxeval}
        minimize 1e-12 1e-08 10000 20000
WARNING: Resetting reneighboring criteria during minimization (../min.cpp:168)
Memory usage per processor = 4.85169 Mbytes
Step Temp PotEng Lx Ly Lz 
     107            0   -241.92768    2.2449075    38.898853    1.1224537 
     108            0   -241.92769    2.2449075    38.898853    1.1224537 
     109            0   -241.92769    2.2449075    38.898853    1.1224537 
Loop time of 0.00318204 on 1 procs for 1 steps with 82 atoms

Minimization stats:
  Stopping criterion = force tolerance
  Energy initial, next-to-last, final = 
        -241.927680183     -241.927680183     -241.927685909
  Force two-norm initial, final = 0.0323555 4.36678e-09
  Force max component initial, final = 0.0161778 2.2092e-09
  Final line search alpha, max atom move = 0 0
  Iterations, force evaluations = 1 138

Pair  time (%) = 0.00233872 (73.4975)
Neigh time (%) = 0 (0)
Comm  time (%) = 0.000169401 (5.32365)
Outpt time (%) = 9.89751e-06 (0.311043)
Other time (%) = 0.000664022 (20.8678)

Nlocal:    82 ave 82 max 82 min
Histogram: 1 0 0 0 0 0 0 0 0 0
Nghost:    175 ave 175 max 175 min
Histogram: 1 0 0 0 0 0 0 0 0 0
Neighs:    718 ave 718 max 718 min
Histogram: 1 0 0 0 0 0 0 0 0 0

Total # of neighbors = 718
Ave neighs/atom = 8.7561
Neighbor list builds = 0
Dangerous builds = 0
        # write_dump all atom ${dumpfile}
        next i
jump SELF loop1
        displace_atoms upper move ${xstep1} 0.0 0.0 units lattice
        displace_atoms upper move 0.002 0.0 0.0 units lattice
        min_style ${style}
        min_style hftn
        minimize ${etol} ${ftol} ${maxiter} ${maxeval}
        minimize 1e-12 ${ftol} ${maxiter} ${maxeval}
        minimize 1e-12 1e-08 ${maxiter} ${maxeval}
        minimize 1e-12 1e-08 10000 ${maxeval}
        minimize 1e-12 1e-08 10000 20000
WARNING: Resetting reneighboring criteria during minimization (../min.cpp:168)
Memory usage per processor = 4.85169 Mbytes
Step Temp PotEng Lx Ly Lz 
     109            0   -241.92369    2.2449075    38.899292    1.1224537 
     110            0   -241.92369    2.2449075    38.899292    1.1224537 
     111            0   -241.92369    2.2449075    38.899292    1.1224537 
Loop time of 0.00316988 on 1 procs for 1 steps with 82 atoms

Minimization stats:
  Stopping criterion = force tolerance
  Energy initial, next-to-last, final = 
        -241.923687326     -241.923687326     -241.923693645
  Force two-norm initial, final = 0.0331191 4.55873e-09
  Force max component initial, final = 0.0165596 2.24702e-09
  Final line search alpha, max atom move = 0 0
  Iterations, force evaluations = 1 138

Pair  time (%) = 0.00229938 (72.5382)
Neigh time (%) = 0 (0)
Comm  time (%) = 0.000189875 (5.98998)
Outpt time (%) = 1.00674e-05 (0.317594)
Other time (%) = 0.000670564 (21.1542)

Nlocal:    82 ave 82 max 82 min
Histogram: 1 0 0 0 0 0 0 0 0 0
Nghost:    175 ave 175 max 175 min
Histogram: 1 0 0 0 0 0 0 0 0 0
Neighs:    718 ave 718 max 718 min
Histogram: 1 0 0 0 0 0 0 0 0 0

Total # of neighbors = 718
Ave neighs/atom = 8.7561
Neighbor list builds = 0
Dangerous builds = 0
        # write_dump all atom ${dumpfile}
        next i
jump SELF loop1
        displace_atoms upper move ${xstep1} 0.0 0.0 units lattice
        displace_atoms upper move 0.002 0.0 0.0 units lattice
        min_style ${style}
        min_style hftn
        minimize ${etol} ${ftol} ${maxiter} ${maxeval}
        minimize 1e-12 ${ftol} ${maxiter} ${maxeval}
        minimize 1e-12 1e-08 ${maxiter} ${maxeval}
        minimize 1e-12 1e-08 10000 ${maxeval}
        minimize 1e-12 1e-08 10000 20000
WARNING: Resetting reneighboring criteria during minimization (../min.cpp:168)
Memory usage per processor = 4.85169 Mbytes
Step Temp PotEng Lx Ly Lz 
     111            0    -241.9196    2.2449075    38.899741    1.1224537 
     112            0   -241.91961    2.2449075    38.899741    1.1224537 
     113            0   -241.91961    2.2449075    38.899741    1.1224537 
Loop time of 0.00321592 on 1 procs for 1 steps with 82 atoms

Minimization stats:
  Stopping criterion = force tolerance
  Energy initial, next-to-last, final = 
        -241.919603504     -241.919603504     -241.919610215
  Force two-norm initial, final = 0.0338675 4.76284e-09
  Force max component initial, final = 0.0169337 2.35202e-09
  Final line search alpha, max atom move = 0 0
  Iterations, force evaluations = 1 138

Pair  time (%) = 0.00228497 (71.0519)
Neigh time (%) = 0 (0)
Comm  time (%) = 0.000201088 (6.2529)
Outpt time (%) = 9.97633e-06 (0.310217)
Other time (%) = 0.000719883 (22.385)

Nlocal:    82 ave 82 max 82 min
Histogram: 1 0 0 0 0 0 0 0 0 0
Nghost:    175 ave 175 max 175 min
Histogram: 1 0 0 0 0 0 0 0 0 0
Neighs:    718 ave 718 max 718 min
Histogram: 1 0 0 0 0 0 0 0 0 0

Total # of neighbors = 718
Ave neighs/atom = 8.7561
Neighbor list builds = 0
Dangerous builds = 0
        # write_dump all atom ${dumpfile}
        next i
jump SELF loop1
        displace_atoms upper move ${xstep1} 0.0 0.0 units lattice
        displace_atoms upper move 0.002 0.0 0.0 units lattice
        min_style ${style}
        min_style hftn
        minimize ${etol} ${ftol} ${maxiter} ${maxeval}
        minimize 1e-12 ${ftol} ${maxiter} ${maxeval}
        minimize 1e-12 1e-08 ${maxiter} ${maxeval}
        minimize 1e-12 1e-08 10000 ${maxeval}
        minimize 1e-12 1e-08 10000 20000
WARNING: Resetting reneighboring criteria during minimization (../min.cpp:168)
Memory usage per processor = 4.85169 Mbytes
Step Temp PotEng Lx Ly Lz 
     113            0   -241.91543    2.2449075      38.9002    1.1224537 
     114            0   -241.91544    2.2449075      38.9002    1.1224537 
     115            0   -241.91544    2.2449075      38.9002    1.1224537 
Loop time of 0.0028989 on 1 procs for 1 steps with 82 atoms

Minimization stats:
  Stopping criterion = force tolerance
  Energy initial, next-to-last, final = 
        -241.915430321     -241.915430321     -241.915437148
  Force two-norm initial, final = 0.0345994 4.96963e-09
  Force max component initial, final = 0.0172997 2.45376e-09
  Final line search alpha, max atom move = 0 0
  Iterations, force evaluations = 1 138

Pair  time (%) = 0.00210216 (72.5156)
Neigh time (%) = 0 (0)
Comm  time (%) = 0.000174775 (6.029)
Outpt time (%) = 1.20188e-05 (0.414599)
Other time (%) = 0.000609953 (21.0408)

Nlocal:    82 ave 82 max 82 min
Histogram: 1 0 0 0 0 0 0 0 0 0
Nghost:    175 ave 175 max 175 min
Histogram: 1 0 0 0 0 0 0 0 0 0
Neighs:    718 ave 718 max 718 min
Histogram: 1 0 0 0 0 0 0 0 0 0

Total # of neighbors = 718
Ave neighs/atom = 8.7561
Neighbor list builds = 0
Dangerous builds = 0
        # write_dump all atom ${dumpfile}
        next i
jump SELF loop1
        displace_atoms upper move ${xstep1} 0.0 0.0 units lattice
        displace_atoms upper move 0.002 0.0 0.0 units lattice
        min_style ${style}
        min_style hftn
        minimize ${etol} ${ftol} ${maxiter} ${maxeval}
        minimize 1e-12 ${ftol} ${maxiter} ${maxeval}
        minimize 1e-12 1e-08 ${maxiter} ${maxeval}
        minimize 1e-12 1e-08 10000 ${maxeval}
        minimize 1e-12 1e-08 10000 20000
WARNING: Resetting reneighboring criteria during minimization (../min.cpp:168)
Memory usage per processor = 4.85169 Mbytes
Step Temp PotEng Lx Ly Lz 
     115            0   -241.91117    2.2449075    38.900669    1.1224537 
     116            0   -241.91118    2.2449075    38.900669    1.1224537 
     117            0   -241.91118    2.2449075    38.900669    1.1224537 
Loop time of 0.00408912 on 1 procs for 1 steps with 82 atoms

Minimization stats:
  Stopping criterion = force tolerance
  Energy initial, next-to-last, final = 
        -241.911169374     -241.911169374     -241.911176103
  Force two-norm initial, final = 0.0353145 5.19897e-09
  Force max component initial, final = 0.0176573 2.56169e-09
  Final line search alpha, max atom move = 0 0
  Iterations, force evaluations = 1 138

Pair  time (%) = 0.00279859 (68.4399)
Neigh time (%) = 0 (0)
Comm  time (%) = 0.000299396 (7.32178)
Outpt time (%) = 4.40093e-05 (1.07625)
Other time (%) = 0.000947125 (23.1621)

Nlocal:    82 ave 82 max 82 min
Histogram: 1 0 0 0 0 0 0 0 0 0
Nghost:    175 ave 175 max 175 min
Histogram: 1 0 0 0 0 0 0 0 0 0
Neighs:    718 ave 718 max 718 min
Histogram: 1 0 0 0 0 0 0 0 0 0

Total # of neighbors = 718
Ave neighs/atom = 8.7561
Neighbor list builds = 0
Dangerous builds = 0
        # write_dump all atom ${dumpfile}
        next i
jump SELF loop1
        displace_atoms upper move ${xstep1} 0.0 0.0 units lattice
        displace_atoms upper move 0.002 0.0 0.0 units lattice
        min_style ${style}
        min_style hftn
        minimize ${etol} ${ftol} ${maxiter} ${maxeval}
        minimize 1e-12 ${ftol} ${maxiter} ${maxeval}
        minimize 1e-12 1e-08 ${maxiter} ${maxeval}
        minimize 1e-12 1e-08 10000 ${maxeval}
        minimize 1e-12 1e-08 10000 20000
WARNING: Resetting reneighboring criteria during minimization (../min.cpp:168)
Memory usage per processor = 4.85169 Mbytes
Step Temp PotEng Lx Ly Lz 
     117            0   -241.90682    2.2449075    38.901148    1.1224537 
     118            0   -241.90683    2.2449075    38.901148    1.1224537 
     119            0   -241.90683    2.2449075    38.901148    1.1224537 
Loop time of 0.00339503 on 1 procs for 1 steps with 82 atoms

Minimization stats:
  Stopping criterion = force tolerance
  Energy initial, next-to-last, final = 
        -241.906820481     -241.906820481     -241.906828407
  Force two-norm initial, final = 0.0358661 5.42062e-09
  Force max component initial, final = 0.017933 2.84205e-09
  Final line search alpha, max atom move = 0 0
  Iterations, force evaluations = 1 138

Pair  time (%) = 0.00244821 (72.1115)
Neigh time (%) = 0 (0)
Comm  time (%) = 0.000215993 (6.36202)
Outpt time (%) = 4.00258e-05 (1.17895)
Other time (%) = 0.000690805 (20.3475)

Nlocal:    82 ave 82 max 82 min
Histogram: 1 0 0 0 0 0 0 0 0 0
Nghost:    175 ave 175 max 175 min
Histogram: 1 0 0 0 0 0 0 0 0 0
Neighs:    718 ave 718 max 718 min
Histogram: 1 0 0 0 0 0 0 0 0 0

Total # of neighbors = 718
Ave neighs/atom = 8.7561
Neighbor list builds = 0
Dangerous builds = 0
        # write_dump all atom ${dumpfile}
        next i
jump SELF loop1
        displace_atoms upper move ${xstep1} 0.0 0.0 units lattice
        displace_atoms upper move 0.002 0.0 0.0 units lattice
        min_style ${style}
        min_style hftn
        minimize ${etol} ${ftol} ${maxiter} ${maxeval}
        minimize 1e-12 ${ftol} ${maxiter} ${maxeval}
        minimize 1e-12 1e-08 ${maxiter} ${maxeval}
        minimize 1e-12 1e-08 10000 ${maxeval}
        minimize 1e-12 1e-08 10000 20000
WARNING: Resetting reneighboring criteria during minimization (../min.cpp:168)
Memory usage per processor = 4.85169 Mbytes
Step Temp PotEng Lx Ly Lz 
     119            0   -241.90238    2.2449075     38.90163    1.1224537 
     120            0   -241.90239    2.2449075     38.90163    1.1224537 
     121            0   -241.90239    2.2449075     38.90163    1.1224537 
Loop time of 0.00379203 on 1 procs for 1 steps with 82 atoms

Minimization stats:
  Stopping criterion = force tolerance
  Energy initial, next-to-last, final = 
        -241.902382592     -241.902382592     -241.902390476
  Force two-norm initial, final = 0.0339047 4.67223e-09
  Force max component initial, final = 0.0169524 2.45562e-09
  Final line search alpha, max atom move = 0 0
  Iterations, force evaluations = 1 138

[...]
        min_style ${style}
        min_style hftn
        minimize ${etol} ${ftol} ${maxiter} ${maxeval}
        minimize 1e-12 ${ftol} ${maxiter} ${maxeval}
        minimize 1e-12 1e-08 ${maxiter} ${maxeval}
        minimize 1e-12 1e-08 10000 ${maxeval}
        minimize 1e-12 1e-08 10000 20000
WARNING: Resetting reneighboring criteria during minimization (../min.cpp:168)
Memory usage per processor = 4.85169 Mbytes
Step Temp PotEng Lx Ly Lz 
    2471            0   -241.99693    2.2449075    38.892467    1.1224537 
    2472            0   -241.99693    2.2449075    38.892467    1.1224537 
    2473            0   -241.99693    2.2449075    38.892467    1.1224537 
    2474            0   -241.99693    2.2449075    38.892467    1.1224537 
    2475            0   -241.99693    2.2449075    38.892467    1.1224537 
    2476            0   -241.99693    2.2449075    38.892467    1.1224537 
    2477            0   -241.99693    2.2449075    38.892467    1.1224537 
    2478            0   -241.99693    2.2449075    38.892467    1.1224537 
    2479            0   -241.99693    2.2449075    38.892467    1.1224537 
    2480            0   -241.99693    2.2449075    38.892467    1.1224537 
    2481            0   -241.99693    2.2449075    38.892467    1.1224537 
Loop time of 0.00452009 on 1 procs for 9 steps with 82 atoms

Minimization stats:
  Stopping criterion = energy tolerance
  Energy initial, next-to-last, final = 
        -241.996934044     -241.996934044     -241.996934055
  Force two-norm initial, final = 0.00777848 0.00706989
  Force max component initial, final = 0.00386924 0.00350752
  Final line search alpha, max atom move = 0 0
  Iterations, force evaluations = 9 162

Pair  time (%) = 0.00272064 (60.19)
Neigh time (%) = 0 (0)
Comm  time (%) = 0.000932777 (20.6363)
Outpt time (%) = 6.36921e-05 (1.40909)
Other time (%) = 0.000802978 (17.7647)

Nlocal:    82 ave 82 max 82 min
Histogram: 1 0 0 0 0 0 0 0 0 0
Nghost:    185 ave 185 max 185 min
Histogram: 1 0 0 0 0 0 0 0 0 0
Neighs:    718 ave 718 max 718 min
Histogram: 1 0 0 0 0 0 0 0 0 0

Total # of neighbors = 718
Ave neighs/atom = 8.7561
Neighbor list builds = 0
Dangerous builds = 0
        # write_dump all atom ${dumpfile}
        next i
jump SELF loop1
        displace_atoms upper move ${xstep1} 0.0 0.0 units lattice
        displace_atoms upper move 0.002 0.0 0.0 units lattice
        min_style ${style}
        min_style hftn
        minimize ${etol} ${ftol} ${maxiter} ${maxeval}
        minimize 1e-12 ${ftol} ${maxiter} ${maxeval}
        minimize 1e-12 1e-08 ${maxiter} ${maxeval}
        minimize 1e-12 1e-08 10000 ${maxeval}
        minimize 1e-12 1e-08 10000 20000
WARNING: Resetting reneighboring criteria during minimization (../min.cpp:168)
Memory usage per processor = 4.85169 Mbytes
Step Temp PotEng Lx Ly Lz 
    2481            0   -241.99773    2.2449075    38.892467    1.1224537 
    2482            0   -241.99773    2.2449075    38.892467    1.1224537 
    2483            0   -241.99773    2.2449075    38.892467    1.1224537 
    2484            0   -241.99773    2.2449075    38.892467    1.1224537 
    2485            0   -241.99774    2.2449075    38.892467    1.1224537 
    2486            0   -241.99774    2.2449075    38.892467    1.1224537 
    2487            0   -241.99774    2.2449075    38.892467    1.1224537 
    2488            0   -241.99774    2.2449075    38.892467    1.1224537 
    2489            0   -241.99774    2.2449075    38.892467    1.1224537 
    2490            0   -241.99774    2.2449075    38.892467    1.1224537 
    2491            0   -241.99774    2.2449075    38.892467    1.1224537 
    2492            0   -241.99774    2.2449075    38.892467    1.1224537 
    2493            0   -241.99774    2.2449075    38.892467    1.1224537 
    2494            0   -241.99774    2.2449075    38.892467    1.1224537 
    2495            0   -241.99774    2.2449075    38.892467    1.1224537 
Loop time of 0.00662407 on 1 procs for 13 steps with 82 atoms

Minimization stats:
  Stopping criterion = energy tolerance
  Energy initial, next-to-last, final = 
        -241.997732332     -241.997735886     -241.997735886
  Force two-norm initial, final = 0.013682 0.000974245
  Force max component initial, final = 0.00682772 0.000216265
  Final line search alpha, max atom move = 0 0
  Iterations, force evaluations = 13 210

Pair  time (%) = 0.00409937 (61.886)
Neigh time (%) = 0 (0)
Comm  time (%) = 0.000256193 (3.86761)
Outpt time (%) = 0.000103539 (1.56307)
Other time (%) = 0.00216497 (32.6834)

Nlocal:    82 ave 82 max 82 min
Histogram: 1 0 0 0 0 0 0 0 0 0
Nghost:    185 ave 185 max 185 min
Histogram: 1 0 0 0 0 0 0 0 0 0
Neighs:    718 ave 718 max 718 min
Histogram: 1 0 0 0 0 0 0 0 0 0

Total # of neighbors = 718
Ave neighs/atom = 8.7561
Neighbor list builds = 0
Dangerous builds = 0
        # write_dump all atom ${dumpfile}
        next i
jump SELF loop1
        displace_atoms upper move ${xstep1} 0.0 0.0 units lattice
        displace_atoms upper move 0.002 0.0 0.0 units lattice
        min_style ${style}
        min_style hftn
        minimize ${etol} ${ftol} ${maxiter} ${maxeval}
        minimize 1e-12 ${ftol} ${maxiter} ${maxeval}
        minimize 1e-12 1e-08 ${maxiter} ${maxeval}
        minimize 1e-12 1e-08 10000 ${maxeval}
        minimize 1e-12 1e-08 10000 20000
WARNING: Resetting reneighboring criteria during minimization (../min.cpp:168)
Memory usage per processor = 4.85169 Mbytes
Step Temp PotEng Lx Ly Lz 
    2495            0   -241.99841    2.2449075    38.892306    1.1224537 
    2496            0   -241.99841    2.2449075    38.892306    1.1224537 
    2497            0   -241.99841    2.2449075    38.892306    1.1224537 
    2498            0   -241.99841    2.2449075    38.892306    1.1224537 
    2499            0   -241.99841    2.2449075    38.892306    1.1224537 
    2500            0   -241.99841    2.2449075    38.892306    1.1224537 
    2501            0   -241.99841    2.2449075    38.892306    1.1224537 
    2502            0   -241.99841    2.2449075    38.892306    1.1224537 
    2503            0   -241.99841    2.2449075    38.892306    1.1224537 
    2504            0   -241.99841    2.2449075    38.892306    1.1224537 
    2505            0   -241.99841    2.2449075    38.892306    1.1224537 
    2506            0   -241.99841    2.2449075    38.892306    1.1224537 
Loop time of 0.00517997 on 1 procs for 10 steps with 82 atoms

Minimization stats:
  Stopping criterion = energy tolerance
  Energy initial, next-to-last, final = 
        -241.998414505     -241.998414505     -241.998414545
  Force two-norm initial, final = 0.0057135 0.00514861
  Force max component initial, final = 0.00281675 0.00253194
  Final line search alpha, max atom move = 0 0
  Iterations, force evaluations = 10 173

Pair  time (%) = 0.00395454 (76.343)
Neigh time (%) = 0 (0)
Comm  time (%) = 0.000354223 (6.83832)
Outpt time (%) = 5.213e-05 (1.00638)
Other time (%) = 0.000819071 (15.8123)

Nlocal:    82 ave 82 max 82 min
Histogram: 1 0 0 0 0 0 0 0 0 0
Nghost:    185 ave 185 max 185 min
Histogram: 1 0 0 0 0 0 0 0 0 0
Neighs:    718 ave 718 max 718 min
Histogram: 1 0 0 0 0 0 0 0 0 0

Total # of neighbors = 718
Ave neighs/atom = 8.7561
Neighbor list builds = 0
Dangerous builds = 0
        # write_dump all atom ${dumpfile}
        next i
jump SELF loop1
        displace_atoms upper move ${xstep1} 0.0 0.0 units lattice
        displace_atoms upper move 0.002 0.0 0.0 units lattice
        min_style ${style}
        min_style hftn
        minimize ${etol} ${ftol} ${maxiter} ${maxeval}
        minimize 1e-12 ${ftol} ${maxiter} ${maxeval}
        minimize 1e-12 1e-08 ${maxiter} ${maxeval}
        minimize 1e-12 1e-08 10000 ${maxeval}
        minimize 1e-12 1e-08 10000 20000
WARNING: Resetting reneighboring criteria during minimization (../min.cpp:168)
Memory usage per processor = 4.85169 Mbytes
Step Temp PotEng Lx Ly Lz 
    2506            0   -241.99897    2.2449075    38.892306    1.1224537 
    2507            0   -241.99897    2.2449075    38.892306    1.1224537 
    2508            0   -241.99897    2.2449075    38.892306    1.1224537 
    2509            0   -241.99897    2.2449075    38.892306    1.1224537 
    2510            0   -241.99897    2.2449075    38.892306    1.1224537 
    2511            0   -241.99897    2.2449075    38.892306    1.1224537 
    2512            0   -241.99897    2.2449075    38.892306    1.1224537 
    2513            0   -241.99897    2.2449075    38.892306    1.1224537 
    2514            0   -241.99897    2.2449075    38.892306    1.1224537 
    2515            0   -241.99897    2.2449075    38.892306    1.1224537 
    2516            0   -241.99897    2.2449075    38.892306    1.1224537 
Loop time of 0.00359297 on 1 procs for 9 steps with 82 atoms

Minimization stats:
  Stopping criterion = energy tolerance
  Energy initial, next-to-last, final = 
         -241.99896806      -241.99896806      -241.99896806
  Force two-norm initial, final = 0.0097109 0.00971071
  Force max component initial, final = 0.00483398 0.00483389
  Final line search alpha, max atom move = 0 0
  Iterations, force evaluations = 9 158

Pair  time (%) = 0.00265103 (73.7837)
Neigh time (%) = 0 (0)
Comm  time (%) = 0.000222396 (6.18976)
Outpt time (%) = 5.64215e-05 (1.57033)
Other time (%) = 0.000663128 (18.4562)

Nlocal:    82 ave 82 max 82 min
Histogram: 1 0 0 0 0 0 0 0 0 0
Nghost:    185 ave 185 max 185 min
Histogram: 1 0 0 0 0 0 0 0 0 0
Neighs:    718 ave 718 max 718 min
Histogram: 1 0 0 0 0 0 0 0 0 0

Total # of neighbors = 718
Ave neighs/atom = 8.7561
Neighbor list builds = 0
Dangerous builds = 0
        # write_dump all atom ${dumpfile}
        next i
jump SELF loop1
        displace_atoms upper move ${xstep1} 0.0 0.0 units lattice
        displace_atoms upper move 0.002 0.0 0.0 units lattice
        min_style ${style}
        min_style hftn
        minimize ${etol} ${ftol} ${maxiter} ${maxeval}
        minimize 1e-12 ${ftol} ${maxiter} ${maxeval}
        minimize 1e-12 1e-08 ${maxiter} ${maxeval}
        minimize 1e-12 1e-08 10000 ${maxeval}
        minimize 1e-12 1e-08 10000 20000
WARNING: Resetting reneighboring criteria during minimization (../min.cpp:168)
Memory usage per processor = 4.85169 Mbytes
Step Temp PotEng Lx Ly Lz 
    2516            0    -241.9994    2.2449075    38.892306    1.1224537 
    2517            0    -241.9994    2.2449075    38.892306    1.1224537 
    2518            0    -241.9994    2.2449075    38.892306    1.1224537 
    2519            0    -241.9994    2.2449075    38.892306    1.1224537 
    2520            0    -241.9994    2.2449075    38.892306    1.1224537 
    2521            0    -241.9994    2.2449075    38.892306    1.1224537 
    2522            0    -241.9994    2.2449075    38.892306    1.1224537 
    2523            0    -241.9994    2.2449075    38.892306    1.1224537 
    2524            0    -241.9994    2.2449075    38.892306    1.1224537 
    2525            0    -241.9994    2.2449075    38.892306    1.1224537 
    2526            0    -241.9994    2.2449075    38.892306    1.1224537 
Loop time of 0.00742495 on 1 procs for 9 steps with 82 atoms

Minimization stats:
  Stopping criterion = energy tolerance
  Energy initial, next-to-last, final = 
        -241.999398099     -241.999398099     -241.999398099
  Force two-norm initial, final = 0.0132738 0.0132728
  Force max component initial, final = 0.00662171 0.00662121
  Final line search alpha, max atom move = 0 0
  Iterations, force evaluations = 9 150

Pair  time (%) = 0.00612628 (82.5094)
Neigh time (%) = 0 (0)
Comm  time (%) = 0.000235267 (3.16859)
Outpt time (%) = 6.80488e-05 (0.916488)
Other time (%) = 0.000995355 (13.4055)

Nlocal:    82 ave 82 max 82 min
Histogram: 1 0 0 0 0 0 0 0 0 0
Nghost:    185 ave 185 max 185 min
Histogram: 1 0 0 0 0 0 0 0 0 0
Neighs:    718 ave 718 max 718 min
Histogram: 1 0 0 0 0 0 0 0 0 0

Total # of neighbors = 718
Ave neighs/atom = 8.7561
Neighbor list builds = 0
Dangerous builds = 0
        # write_dump all atom ${dumpfile}
        next i
jump SELF loop1
        displace_atoms upper move ${xstep1} 0.0 0.0 units lattice
        displace_atoms upper move 0.002 0.0 0.0 units lattice
        min_style ${style}
        min_style hftn
        minimize ${etol} ${ftol} ${maxiter} ${maxeval}
        minimize 1e-12 ${ftol} ${maxiter} ${maxeval}
        minimize 1e-12 1e-08 ${maxiter} ${maxeval}
        minimize 1e-12 1e-08 10000 ${maxeval}
        minimize 1e-12 1e-08 10000 20000
WARNING: Resetting reneighboring criteria during minimization (../min.cpp:168)
Memory usage per processor = 4.85169 Mbytes
Step Temp PotEng Lx Ly Lz 
    2526            0   -241.99971    2.2449075    38.892306    1.1224537 
    2527            0   -241.99971    2.2449075    38.892306    1.1224537 
    2528            0   -241.99971    2.2449075    38.892306    1.1224537 
    2529            0   -241.99971    2.2449075    38.892306    1.1224537 
    2530            0   -241.99971    2.2449075    38.892306    1.1224537 
    2531            0   -241.99971    2.2449075    38.892306    1.1224537 
    2532            0   -241.99971    2.2449075    38.892306    1.1224537 
    2533            0   -241.99971    2.2449075    38.892306    1.1224537 
    2534            0   -241.99971    2.2449075    38.892306    1.1224537 
    2535            0   -241.99971    2.2449075    38.892306    1.1224537 
    2536            0   -241.99971    2.2449075    38.892306    1.1224537 
    2537            0   -241.99971    2.2449075    38.892306    1.1224537 
    2538            0   -241.99971    2.2449075    38.892306    1.1224537 
    2539            0   -241.99971    2.2449075    38.892306    1.1224537 
    2540            0   -241.99971    2.2449075    38.892306    1.1224537 
Loop time of 0.0048369 on 1 procs for 13 steps with 82 atoms

Minimization stats:
  Stopping criterion = energy tolerance
  Energy initial, next-to-last, final = 
        -241.999705054     -241.999708462     -241.999708503
  Force two-norm initial, final = 0.0158183 0.000870833
  Force max component initial, final = 0.00789668 0.000190533
  Final line search alpha, max atom move = 0 0
  Iterations, force evaluations = 13 204

Pair  time (%) = 0.0035645 (73.6939)
Neigh time (%) = 0 (0)
Comm  time (%) = 0.000308162 (6.37105)
Outpt time (%) = 0.000102991 (2.12928)
Other time (%) = 0.000861248 (17.8058)

Nlocal:    82 ave 82 max 82 min
Histogram: 1 0 0 0 0 0 0 0 0 0
Nghost:    185 ave 185 max 185 min
Histogram: 1 0 0 0 0 0 0 0 0 0
Neighs:    718 ave 718 max 718 min
Histogram: 1 0 0 0 0 0 0 0 0 0

Total # of neighbors = 718
Ave neighs/atom = 8.7561
Neighbor list builds = 0
Dangerous builds = 0
        # write_dump all atom ${dumpfile}
        next i
jump SELF loop1
        displace_atoms upper move ${xstep1} 0.0 0.0 units lattice
        displace_atoms upper move 0.002 0.0 0.0 units lattice
        min_style ${style}
        min_style hftn
        minimize ${etol} ${ftol} ${maxiter} ${maxeval}
        minimize 1e-12 ${ftol} ${maxiter} ${maxeval}
        minimize 1e-12 1e-08 ${maxiter} ${maxeval}
        minimize 1e-12 1e-08 10000 ${maxeval}
        minimize 1e-12 1e-08 10000 20000
WARNING: Resetting reneighboring criteria during minimization (../min.cpp:168)
Memory usage per processor = 4.85169 Mbytes
Step Temp PotEng Lx Ly Lz 
    2540            0   -241.99989    2.2449075    38.892116    1.1224537 
    2541            0   -241.99989    2.2449075    38.892116    1.1224537 
    2542            0   -241.99989    2.2449075    38.892116    1.1224537 
    2543            0   -241.99989    2.2449075    38.892116    1.1224537 
    2544            0   -241.99989    2.2449075    38.892116    1.1224537 
    2545            0   -241.99989    2.2449075    38.892116    1.1224537 
    2546            0   -241.99989    2.2449075    38.892116    1.1224537 
    2547            0   -241.99989    2.2449075    38.892116    1.1224537 
    2548            0   -241.99989    2.2449075    38.892116    1.1224537 
    2549            0   -241.99989    2.2449075    38.892116    1.1224537 
    2550            0   -241.99989    2.2449075    38.892116    1.1224537 
    2551            0   -241.99989    2.2449075    38.892116    1.1224537 
Loop time of 0.00337791 on 1 procs for 10 steps with 82 atoms

Minimization stats:
  Stopping criterion = energy tolerance
  Energy initial, next-to-last, final = 
        -241.999894853     -241.999894853      -241.99989489
  Force two-norm initial, final = 0.00174468 0.00139561
  Force max component initial, final = 0.000757922 0.000554022
  Final line search alpha, max atom move = 0 0
  Iterations, force evaluations = 10 109

Pair  time (%) = 0.00270761 (80.1562)
Neigh time (%) = 0 (0)
Comm  time (%) = 0.000173517 (5.13681)
Outpt time (%) = 6.60208e-05 (1.95448)
Other time (%) = 0.000430767 (12.7525)

Nlocal:    82 ave 82 max 82 min
Histogram: 1 0 0 0 0 0 0 0 0 0
Nghost:    185 ave 185 max 185 min
Histogram: 1 0 0 0 0 0 0 0 0 0
Neighs:    718 ave 718 max 718 min
Histogram: 1 0 0 0 0 0 0 0 0 0

Total # of neighbors = 718
Ave neighs/atom = 8.7561
Neighbor list builds = 0
Dangerous builds = 0
        # write_dump all atom ${dumpfile}
        next i
jump SELF loop1
        displace_atoms upper move ${xstep1} 0.0 0.0 units lattice
        displace_atoms upper move 0.002 0.0 0.0 units lattice
        min_style ${style}
        min_style hftn
        minimize ${etol} ${ftol} ${maxiter} ${maxeval}
        minimize 1e-12 ${ftol} ${maxiter} ${maxeval}
        minimize 1e-12 1e-08 ${maxiter} ${maxeval}
        minimize 1e-12 1e-08 10000 ${maxeval}
        minimize 1e-12 1e-08 10000 20000
WARNING: Resetting reneighboring criteria during minimization (../min.cpp:168)
Memory usage per processor = 4.85169 Mbytes
Step Temp PotEng Lx Ly Lz 
    2551            0   -241.99996    2.2449075    38.892116    1.1224537 
    2552            0   -241.99996    2.2449075    38.892116    1.1224537 
    2553            0   -241.99996    2.2449075    38.892116    1.1224537 
    2554            0   -241.99996    2.2449075    38.892116    1.1224537 
    2555            0   -241.99996    2.2449075    38.892116    1.1224537 
    2556            0   -241.99996    2.2449075    38.892116    1.1224537 
    2557            0   -241.99996    2.2449075    38.892116    1.1224537 
    2558            0   -241.99996    2.2449075    38.892116    1.1224537 
    2559            0   -241.99996    2.2449075    38.892116    1.1224537 
    2560            0   -241.99996    2.2449075    38.892116    1.1224537 
    2561            0   -241.99996    2.2449075    38.892116    1.1224537 
    2562            0   -241.99996    2.2449075    38.892116    1.1224537 
    2563            0   -241.99996    2.2449075    38.892116    1.1224537 
    2564            0   -241.99996    2.2449075    38.892116    1.1224537 
    2565            0   -241.99996    2.2449075    38.892116    1.1224537 
    2566            0   -241.99996    2.2449075    38.892116    1.1224537 
Loop time of 0.00402498 on 1 procs for 14 steps with 82 atoms

Minimization stats:
  Stopping criterion = energy tolerance
  Energy initial, next-to-last, final = 
        -241.999957706     -241.999958386     -241.999958398
  Force two-norm initial, final = 0.00184041 0.000693814
  Force max component initial, final = 0.000817121 0.000110041
  Final line search alpha, max atom move = 0 0
  Iterations, force evaluations = 14 139

Pair  time (%) = 0.00266728 (66.2683)
Neigh time (%) = 0 (0)
Comm  time (%) = 0.00026005 (6.46092)
Outpt time (%) = 0.000480847 (11.9466)
Other time (%) = 0.000616793 (15.3241)

Nlocal:    82 ave 82 max 82 min
Histogram: 1 0 0 0 0 0 0 0 0 0
Nghost:    185 ave 185 max 185 min
Histogram: 1 0 0 0 0 0 0 0 0 0
Neighs:    718 ave 718 max 718 min
Histogram: 1 0 0 0 0 0 0 0 0 0

Total # of neighbors = 718
Ave neighs/atom = 8.7561
Neighbor list builds = 0
Dangerous builds = 0
        # write_dump all atom ${dumpfile}
        next i
jump SELF loop1


