LAMMPS (28 Jun 2014)
# attempt at getting generalized stacking fault (GSF) energy curve

#file prefix
variable prefix string gsf_V_inter5newnorm
variable dumpfile string ${prefix}.*.dump
variable dumpfile string gsf_V_inter5newnorm.*.dump
variable restartfile string ${prefix}.*.equil
variable restartfile string gsf_V_inter5newnorm.*.equil

#Mass (g/mol)
variable m equal 1

# lattice constant (in Angstroms) and orientation of axes (given by lattice vectors)
variable rho equal 1.1547
variable x1 equal 1
variable x2 equal 0
variable x3 equal 0
variable y1 equal 0
variable y2 equal 1
variable y3 equal 0
# length of lattice in different directions (using orientation of lattice vectors)
variable ax equal sqrt(${x1}*${x1}+${x2}*${x2}+${x3}*${x3})
variable ax equal sqrt(1*${x1}+${x2}*${x2}+${x3}*${x3})
variable ax equal sqrt(1*1+${x2}*${x2}+${x3}*${x3})
variable ax equal sqrt(1*1+0*${x2}+${x3}*${x3})
variable ax equal sqrt(1*1+0*0+${x3}*${x3})
variable ax equal sqrt(1*1+0*0+0*${x3})
variable ax equal sqrt(1*1+0*0+0*0)
variable ay equal sqrt(${y1}*${y1}+${y2}*${y2}+${y3}*${y3})
variable ay equal sqrt(0*${y1}+${y2}*${y2}+${y3}*${y3})
variable ay equal sqrt(0*0+${y2}*${y2}+${y3}*${y3})
variable ay equal sqrt(0*0+1*${y2}+${y3}*${y3})
variable ay equal sqrt(0*0+1*1+${y3}*${y3})
variable ay equal sqrt(0*0+1*1+0*${y3})
variable ay equal sqrt(0*0+1*1+0*0)
variable az equal 1

# size of box in lattice units
variable lxpos equal 1
variable lxneg equal -1*${lxpos}
variable lxneg equal -1*1
variable lypos equal 10
variable lyneg equal -1*${lypos}
variable lyneg equal -1*10
variable lzpos equal 0
variable lzneg equal -1

# Define minimization parameters and damping
variable etol equal 1.0e-12
variable ftol equal 1.0e-8
variable maxiter equal 10000
variable maxeval equal 20000
variable style string cg

# boundary conditions
dimension	2
boundary	p s p
atom_style	atomic

# create geometry
units		lj
lattice         hex ${rho}
lattice         hex 1.1547
Lattice spacing in x,y,z = 1 1.73205 1
region		myregion block ${lxneg} ${lxpos} ${lyneg} ${lypos} ${lzneg} ${lzpos} units lattice
region		myregion block -1 ${lxpos} ${lyneg} ${lypos} ${lzneg} ${lzpos} units lattice
region		myregion block -1 1 ${lyneg} ${lypos} ${lzneg} ${lzpos} units lattice
region		myregion block -1 1 -10 ${lypos} ${lzneg} ${lzpos} units lattice
region		myregion block -1 1 -10 10 ${lzneg} ${lzpos} units lattice
region		myregion block -1 1 -10 10 -1 ${lzpos} units lattice
region		myregion block -1 1 -10 10 -1 0 units lattice
create_box	3 myregion
Created orthogonal box = (-1 -17.3205 -1) to (1 17.3205 0)
  1 by 1 by 1 MPI processor grid
create_atoms	1 box
Created 82 atoms

# define masses
mass * $m
mass * 1

# my fake/morse potential
pair_style      table linear 3001
pair_coeff      * * vpotential_inter5newnorm dummy
neighbor	0.3 bin
neigh_modify	delay 5

# define groups
region	    upper block INF INF 0.01 ${lypos} INF INF units lattice
region	    upper block INF INF 0.01 10 INF INF units lattice
group		upper region upper
40 atoms in group upper

# Setup output
thermo 1
thermo_style custom step temp pe lx ly lz
thermo_modify norm no

# Compute initial state by relaxing box
min_style ${style}
min_style cg
minimize ${etol} ${ftol} ${maxiter} ${maxeval}
minimize 1e-12 ${ftol} ${maxiter} ${maxeval}
minimize 1e-12 1e-08 ${maxiter} ${maxeval}
minimize 1e-12 1e-08 10000 ${maxeval}
minimize 1e-12 1e-08 10000 20000
WARNING: Resetting reneighboring criteria during minimization (../min.cpp:168)
Memory usage per processor = 3.35161 Mbytes
Step Temp PotEng Lx Ly Lz 
       0            0   -241.99991    2.0000005    34.647952    1.0000002 
       1            0   -241.99991    2.0000005    34.647952    1.0000002 
Loop time of 7.00663e-05 on 1 procs for 1 steps with 82 atoms

Minimization stats:
  Stopping criterion = linesearch alpha is zero
  Energy initial, next-to-last, final = 
        -241.999911808     -241.999911808     -241.999911808
  Force two-norm initial, final = 6.11446e-06 6.11446e-06
  Force max component initial, final = 3.05723e-06 3.05723e-06
  Final line search alpha, max atom move = 0.5 1.52862e-06
  Iterations, force evaluations = 1 2

Pair  time (%) = 4.58519e-05 (65.4408)
Neigh time (%) = 0 (0)
Comm  time (%) = 2.98058e-06 (4.25394)
Outpt time (%) = 0 (0)
Other time (%) = 2.12338e-05 (30.3053)

Nlocal:    82 ave 82 max 82 min
Histogram: 1 0 0 0 0 0 0 0 0 0
Nghost:    185 ave 185 max 185 min
Histogram: 1 0 0 0 0 0 0 0 0 0
Neighs:    718 ave 718 max 718 min
Histogram: 1 0 0 0 0 0 0 0 0 0

Total # of neighbors = 718
Ave neighs/atom = 8.7561
Neighbor list builds = 0
Dangerous builds = 0

# don't allow atoms to relax in x-direction
fix 2 all setforce 0.0 NULL 0.0

# GSF energy curve will have 100*2 steps
variable nsteps equal 300
variable sstep1 equal 1.
variable xstep1 equal ${sstep1}/(${ax}*${nsteps})
variable xstep1 equal 1/(${ax}*${nsteps})
variable xstep1 equal 1/(1*${nsteps})
variable xstep1 equal 1/(1*300)

variable i loop ${nsteps}
variable i loop 300
label loop1
        displace_atoms upper move ${xstep1} 0.0 0.0 units lattice
        displace_atoms upper move 0.00333333333333333 0.0 0.0 units lattice
        min_style ${style}
        min_style cg
        minimize ${etol} ${ftol} ${maxiter} ${maxeval}
        minimize 1e-12 ${ftol} ${maxiter} ${maxeval}
        minimize 1e-12 1e-08 ${maxiter} ${maxeval}
        minimize 1e-12 1e-08 10000 ${maxeval}
        minimize 1e-12 1e-08 10000 20000
WARNING: Resetting reneighboring criteria during minimization (../min.cpp:168)
Memory usage per processor = 3.35161 Mbytes
Step Temp PotEng Lx Ly Lz 
       1            0   -241.99973    2.0000005    34.647952    1.0000002 
       2            0   -241.99973    2.0000005    34.647952    1.0000002 
Loop time of 0.000220967 on 1 procs for 1 steps with 82 atoms

Minimization stats:
  Stopping criterion = linesearch alpha is zero
  Energy initial, next-to-last, final = 
        -241.999734982     -241.999734982     -241.999734982
  Force two-norm initial, final = 0.00166994 0.00166994
  Force max component initial, final = 0.000834963 0.000834963
  Final line search alpha, max atom move = 0.00390625 3.26157e-06
  Iterations, force evaluations = 1 9

Pair  time (%) = 0.000164091 (74.2606)
Neigh time (%) = 0 (0)
Comm  time (%) = 1.88927e-05 (8.55003)
Outpt time (%) = 0 (0)
Other time (%) = 3.79827e-05 (17.1894)

Nlocal:    82 ave 82 max 82 min
Histogram: 1 0 0 0 0 0 0 0 0 0
Nghost:    185 ave 185 max 185 min
Histogram: 1 0 0 0 0 0 0 0 0 0
Neighs:    718 ave 718 max 718 min
Histogram: 1 0 0 0 0 0 0 0 0 0

Total # of neighbors = 718
Ave neighs/atom = 8.7561
Neighbor list builds = 0
Dangerous builds = 0
        # write_dump all atom ${dumpfile}
        next i
jump SELF loop1
        displace_atoms upper move ${xstep1} 0.0 0.0 units lattice
        displace_atoms upper move 0.00333333333333333 0.0 0.0 units lattice
        min_style ${style}
        min_style cg
        minimize ${etol} ${ftol} ${maxiter} ${maxeval}
        minimize 1e-12 ${ftol} ${maxiter} ${maxeval}
        minimize 1e-12 1e-08 ${maxiter} ${maxeval}
        minimize 1e-12 1e-08 10000 ${maxeval}
        minimize 1e-12 1e-08 10000 20000
WARNING: Resetting reneighboring criteria during minimization (../min.cpp:168)
Memory usage per processor = 3.35161 Mbytes
Step Temp PotEng Lx Ly Lz 
       2            0   -241.99923    2.0000005    34.647952    1.0000002 
       3            0   -241.99923    2.0000005    34.647952    1.0000002 
       4            0   -241.99923    2.0000005    34.647952    1.0000002 
       5            0   -241.99923    2.0000005    34.647952    1.0000002 
Loop time of 0.000686908 on 1 procs for 3 steps with 82 atoms

Minimization stats:
  Stopping criterion = linesearch alpha is zero
  Energy initial, next-to-last, final = 
         -241.99922677     -241.999226919     -241.999226919
  Force two-norm initial, final = 0.00639572 0.00411107
  Force max component initial, final = 0.00319786 0.00202197
  Final line search alpha, max atom move = 0.000488281 9.87289e-07
  Iterations, force evaluations = 3 33

Pair  time (%) = 0.000568798 (82.8055)
Neigh time (%) = 0 (0)
Comm  time (%) = 3.81996e-05 (5.5611)
Outpt time (%) = 1.39722e-05 (2.03407)
Other time (%) = 6.59383e-05 (9.5993)

Nlocal:    82 ave 82 max 82 min
Histogram: 1 0 0 0 0 0 0 0 0 0
Nghost:    185 ave 185 max 185 min
Histogram: 1 0 0 0 0 0 0 0 0 0
Neighs:    718 ave 718 max 718 min
Histogram: 1 0 0 0 0 0 0 0 0 0

Total # of neighbors = 718
Ave neighs/atom = 8.7561
Neighbor list builds = 0
Dangerous builds = 0
        # write_dump all atom ${dumpfile}
        next i
jump SELF loop1
        displace_atoms upper move ${xstep1} 0.0 0.0 units lattice
        displace_atoms upper move 0.00333333333333333 0.0 0.0 units lattice
        min_style ${style}
        min_style cg
        minimize ${etol} ${ftol} ${maxiter} ${maxeval}
        minimize 1e-12 ${ftol} ${maxiter} ${maxeval}
        minimize 1e-12 1e-08 ${maxiter} ${maxeval}
        minimize 1e-12 1e-08 10000 ${maxeval}
        minimize 1e-12 1e-08 10000 20000
WARNING: Resetting reneighboring criteria during minimization (../min.cpp:168)
Memory usage per processor = 3.35161 Mbytes
Step Temp PotEng Lx Ly Lz 
       5            0   -241.99836    2.0000005    34.647952    1.0000002 
       6            0   -241.99836    2.0000005    34.647952    1.0000002 
Loop time of 0.000361039 on 1 procs for 1 steps with 82 atoms

Minimization stats:
  Stopping criterion = linesearch alpha is zero
  Energy initial, next-to-last, final = 
        -241.998363102     -241.998363102     -241.998363102
  Force two-norm initial, final = 0.0121585 0.0121585
  Force max component initial, final = 0.00606797 0.00606797
  Final line search alpha, max atom move = 6.10352e-05 3.7036e-07
  Iterations, force evaluations = 1 15

Pair  time (%) = 0.000304998 (84.4778)
Neigh time (%) = 0 (0)
Comm  time (%) = 2.20783e-05 (6.11521)
Outpt time (%) = 0 (0)
Other time (%) = 3.39629e-05 (9.40699)

Nlocal:    82 ave 82 max 82 min
Histogram: 1 0 0 0 0 0 0 0 0 0
Nghost:    185 ave 185 max 185 min
Histogram: 1 0 0 0 0 0 0 0 0 0
Neighs:    718 ave 718 max 718 min
Histogram: 1 0 0 0 0 0 0 0 0 0

Total # of neighbors = 718
Ave neighs/atom = 8.7561
Neighbor list builds = 0
Dangerous builds = 0
        # write_dump all atom ${dumpfile}
        next i
jump SELF loop1
        displace_atoms upper move ${xstep1} 0.0 0.0 units lattice
        displace_atoms upper move 0.00333333333333333 0.0 0.0 units lattice
        min_style ${style}
        min_style cg
        minimize ${etol} ${ftol} ${maxiter} ${maxeval}
        minimize 1e-12 ${ftol} ${maxiter} ${maxeval}
        minimize 1e-12 1e-08 ${maxiter} ${maxeval}
        minimize 1e-12 1e-08 10000 ${maxeval}
        minimize 1e-12 1e-08 10000 20000
WARNING: Resetting reneighboring criteria during minimization (../min.cpp:168)
Memory usage per processor = 3.35161 Mbytes
Step Temp PotEng Lx Ly Lz 
       6            0   -241.99717    2.0000005    34.647952    1.0000002 
       7            0   -241.99717    2.0000005    34.647952    1.0000002 
Loop time of 0.000387002 on 1 procs for 1 steps with 82 atoms

Minimization stats:
  Stopping criterion = linesearch alpha is zero
  Energy initial, next-to-last, final = 
        -241.997168015     -241.997168015     -241.997168015
  Force two-norm initial, final = 0.0232953 0.0232953
  Force max component initial, final = 0.0116418 0.0116418
  Final line search alpha, max atom move = 1.52588e-05 1.7764e-07
  Iterations, force evaluations = 1 17

Pair  time (%) = 0.000282084 (72.8896)
Neigh time (%) = 0 (0)
Comm  time (%) = 2.20474e-05 (5.69698)
Outpt time (%) = 0 (0)
Other time (%) = 8.28705e-05 (21.4134)

Nlocal:    82 ave 82 max 82 min
Histogram: 1 0 0 0 0 0 0 0 0 0
Nghost:    185 ave 185 max 185 min
Histogram: 1 0 0 0 0 0 0 0 0 0
Neighs:    718 ave 718 max 718 min
Histogram: 1 0 0 0 0 0 0 0 0 0

Total # of neighbors = 718
Ave neighs/atom = 8.7561
Neighbor list builds = 0
Dangerous builds = 0
        # write_dump all atom ${dumpfile}
        next i
jump SELF loop1
        displace_atoms upper move ${xstep1} 0.0 0.0 units lattice
        displace_atoms upper move 0.00333333333333333 0.0 0.0 units lattice
        min_style ${style}
        min_style cg
        minimize ${etol} ${ftol} ${maxiter} ${maxeval}
        minimize 1e-12 ${ftol} ${maxiter} ${maxeval}
        minimize 1e-12 1e-08 ${maxiter} ${maxeval}
        minimize 1e-12 1e-08 10000 ${maxeval}
        minimize 1e-12 1e-08 10000 20000
WARNING: Resetting reneighboring criteria during minimization (../min.cpp:168)
Memory usage per processor = 3.35161 Mbytes
Step Temp PotEng Lx Ly Lz 
       7            0   -241.99562    2.0000005    34.647952    1.0000002 
       8            0   -241.99563    2.0000005    34.647952    1.0000002 
       9            0   -241.99563    2.0000005    34.647952    1.0000002 
      10            0   -241.99563    2.0000005    34.647952    1.0000002 
      11            0   -241.99563    2.0000005    34.647952    1.0000002 
Loop time of 0.000849078 on 1 procs for 4 steps with 82 atoms

Minimization stats:
  Stopping criterion = linesearch alpha is zero
  Energy initial, next-to-last, final = 
        -241.995622928     -241.995627731     -241.995627731
  Force two-norm initial, final = 0.0377342 0.00919951
  Force max component initial, final = 0.0188635 0.00345684
  Final line search alpha, max atom move = 0.00012207 4.21977e-07
  Iterations, force evaluations = 4 41

Pair  time (%) = 0.000691828 (81.4799)
Neigh time (%) = 0 (0)
Comm  time (%) = 6.00507e-05 (7.07247)
Outpt time (%) = 1.38144e-05 (1.62699)
Other time (%) = 8.33846e-05 (9.82061)

Nlocal:    82 ave 82 max 82 min
Histogram: 1 0 0 0 0 0 0 0 0 0
Nghost:    185 ave 185 max 185 min
Histogram: 1 0 0 0 0 0 0 0 0 0
Neighs:    718 ave 718 max 718 min
Histogram: 1 0 0 0 0 0 0 0 0 0

Total # of neighbors = 718
Ave neighs/atom = 8.7561
Neighbor list builds = 0
Dangerous builds = 0
        # write_dump all atom ${dumpfile}
        next i
jump SELF loop1
        displace_atoms upper move ${xstep1} 0.0 0.0 units lattice
        displace_atoms upper move 0.00333333333333333 0.0 0.0 units lattice
        min_style ${style}
        min_style cg
        minimize ${etol} ${ftol} ${maxiter} ${maxeval}
        minimize 1e-12 ${ftol} ${maxiter} ${maxeval}
        minimize 1e-12 1e-08 ${maxiter} ${maxeval}
        minimize 1e-12 1e-08 10000 ${maxeval}
        minimize 1e-12 1e-08 10000 20000
WARNING: Resetting reneighboring criteria during minimization (../min.cpp:168)
Memory usage per processor = 3.35161 Mbytes
Step Temp PotEng Lx Ly Lz 
      11            0   -241.99374    2.0000005    34.647952    1.0000002 
      12            0   -241.99374    2.0000005    34.647952    1.0000002 
Loop time of 0.0127999 on 1 procs for 1 steps with 82 atoms

Minimization stats:
  Stopping criterion = linesearch alpha is zero
  Energy initial, next-to-last, final = 
         -241.99374242      -241.99374242      -241.99374242
  Force two-norm initial, final = 0.0243447 0.0243447
  Force max component initial, final = 0.0116117 0.0116117
  Final line search alpha, max atom move = 1.52588e-05 1.7718e-07
  Iterations, force evaluations = 1 17

Pair  time (%) = 0.00519886 (40.6164)
Neigh time (%) = 0 (0)
Comm  time (%) = 0.000146752 (1.14651)
Outpt time (%) = 0 (0)
Other time (%) = 0.00745428 (58.2371)

Nlocal:    82 ave 82 max 82 min
Histogram: 1 0 0 0 0 0 0 0 0 0
Nghost:    185 ave 185 max 185 min
Histogram: 1 0 0 0 0 0 0 0 0 0
Neighs:    718 ave 718 max 718 min
Histogram: 1 0 0 0 0 0 0 0 0 0

Total # of neighbors = 718
Ave neighs/atom = 8.7561
Neighbor list builds = 0
Dangerous builds = 0
        # write_dump all atom ${dumpfile}
        next i
jump SELF loop1
        displace_atoms upper move ${xstep1} 0.0 0.0 units lattice
        displace_atoms upper move 0.00333333333333333 0.0 0.0 units lattice
        min_style ${style}
        min_style cg
        minimize ${etol} ${ftol} ${maxiter} ${maxeval}
        minimize 1e-12 ${ftol} ${maxiter} ${maxeval}
        minimize 1e-12 1e-08 ${maxiter} ${maxeval}
        minimize 1e-12 1e-08 10000 ${maxeval}
        minimize 1e-12 1e-08 10000 20000
WARNING: Resetting reneighboring criteria during minimization (../min.cpp:168)
Memory usage per processor = 3.35161 Mbytes
Step Temp PotEng Lx Ly Lz 
      12            0   -241.99153    2.0000005    34.647952    1.0000002 
      13            0   -241.99153    2.0000005    34.647952    1.0000002 
Loop time of 0.000142048 on 1 procs for 1 steps with 82 atoms

Minimization stats:
  Stopping criterion = linesearch alpha is zero
  Energy initial, next-to-last, final = 
        -241.991525808     -241.991525808     -241.991525808
  Force two-norm initial, final = 0.0445182 0.0445182
  Force max component initial, final = 0.0219575 0.0219575
  Final line search alpha, max atom move = 3.8147e-06 8.37612e-08
  Iterations, force evaluations = 1 19

Pair  time (%) = 9.73018e-05 (68.4994)
Neigh time (%) = 0 (0)
Comm  time (%) = 4.67338e-06 (3.29001)
Outpt time (%) = 0 (0)
Other time (%) = 4.00725e-05 (28.2106)

Nlocal:    82 ave 82 max 82 min
Histogram: 1 0 0 0 0 0 0 0 0 0
Nghost:    185 ave 185 max 185 min
Histogram: 1 0 0 0 0 0 0 0 0 0
Neighs:    718 ave 718 max 718 min
Histogram: 1 0 0 0 0 0 0 0 0 0

Total # of neighbors = 718
Ave neighs/atom = 8.7561
Neighbor list builds = 0
Dangerous builds = 0
        # write_dump all atom ${dumpfile}
        next i
jump SELF loop1
        displace_atoms upper move ${xstep1} 0.0 0.0 units lattice
        displace_atoms upper move 0.00333333333333333 0.0 0.0 units lattice
        min_style ${style}
        min_style cg
        minimize ${etol} ${ftol} ${maxiter} ${maxeval}
        minimize 1e-12 ${ftol} ${maxiter} ${maxeval}
        minimize 1e-12 1e-08 ${maxiter} ${maxeval}
        minimize 1e-12 1e-08 10000 ${maxeval}
        minimize 1e-12 1e-08 10000 20000
WARNING: Resetting reneighboring criteria during minimization (../min.cpp:168)
Memory usage per processor = 3.35161 Mbytes
Step Temp PotEng Lx Ly Lz 
      13            0   -241.98897    2.0000005    34.647952    1.0000002 
      14            0   -241.98898    2.0000005    34.647952    1.0000002 
      15            0   -241.98898    2.0000005    34.647952    1.0000002 
Loop time of 0.00262195 on 1 procs for 2 steps with 82 atoms

Minimization stats:
  Stopping criterion = linesearch alpha is zero
  Energy initial, next-to-last, final = 
        -241.988967903     -241.988976818     -241.988976818
  Force two-norm initial, final = 0.0681913 0.0364551
  Force max component initial, final = 0.0338995 0.0160244
  Final line search alpha, max atom move = 7.62939e-06 1.22257e-07
  Iterations, force evaluations = 2 27

Pair  time (%) = 0.000490731 (18.7162)
Neigh time (%) = 0 (0)
Comm  time (%) = 2.99762e-05 (1.14328)
Outpt time (%) = 5.9061e-06 (0.225256)
Other time (%) = 0.00209534 (79.9152)

Nlocal:    82 ave 82 max 82 min
Histogram: 1 0 0 0 0 0 0 0 0 0
Nghost:    185 ave 185 max 185 min
Histogram: 1 0 0 0 0 0 0 0 0 0
Neighs:    718 ave 718 max 718 min
Histogram: 1 0 0 0 0 0 0 0 0 0

Total # of neighbors = 718
Ave neighs/atom = 8.7561
Neighbor list builds = 0
Dangerous builds = 0
        # write_dump all atom ${dumpfile}
        next i
jump SELF loop1
        displace_atoms upper move ${xstep1} 0.0 0.0 units lattice
        displace_atoms upper move 0.00333333333333333 0.0 0.0 units lattice
        min_style ${style}
        min_style cg
        minimize ${etol} ${ftol} ${maxiter} ${maxeval}
        minimize 1e-12 ${ftol} ${maxiter} ${maxeval}
        minimize 1e-12 1e-08 ${maxiter} ${maxeval}
        minimize 1e-12 1e-08 10000 ${maxeval}
        minimize 1e-12 1e-08 10000 20000
WARNING: Resetting reneighboring criteria during minimization (../min.cpp:168)
Memory usage per processor = 3.35161 Mbytes
Step Temp PotEng Lx Ly Lz 
      15            0   -241.98609    2.0000005    34.647952    1.0000002 
      16            0    -241.9861    2.0000005    34.647952    1.0000002 
      17            0    -241.9861    2.0000005    34.647952    1.0000002 
Loop time of 0.000547116 on 1 procs for 2 steps with 82 atoms

Minimization stats:
  Stopping criterion = linesearch alpha is zero
  Energy initial, next-to-last, final = 
        -241.986086589     -241.986096672     -241.986096672
  Force two-norm initial, final = 0.061538 0.0375469
  Force max component initial, final = 0.0295173 0.0149492
  Final line search alpha, max atom move = 7.62939e-06 1.14053e-07
  Iterations, force evaluations = 2 27

Pair  time (%) = 0.000451103 (82.451)
Neigh time (%) = 0 (0)
Comm  time (%) = 3.51048e-05 (6.41634)
Outpt time (%) = 6.92473e-06 (1.26568)
Other time (%) = 5.39839e-05 (9.86699)

Nlocal:    82 ave 82 max 82 min
Histogram: 1 0 0 0 0 0 0 0 0 0
Nghost:    185 ave 185 max 185 min
Histogram: 1 0 0 0 0 0 0 0 0 0
Neighs:    718 ave 718 max 718 min
Histogram: 1 0 0 0 0 0 0 0 0 0

Total # of neighbors = 718
Ave neighs/atom = 8.7561
Neighbor list builds = 0
Dangerous builds = 0
        # write_dump all atom ${dumpfile}
        next i
jump SELF loop1
        displace_atoms upper move ${xstep1} 0.0 0.0 units lattice
        displace_atoms upper move 0.00333333333333333 0.0 0.0 units lattice
        min_style ${style}
        min_style cg
        minimize ${etol} ${ftol} ${maxiter} ${maxeval}
        minimize 1e-12 ${ftol} ${maxiter} ${maxeval}
        minimize 1e-12 1e-08 ${maxiter} ${maxeval}
        minimize 1e-12 1e-08 10000 ${maxeval}
        minimize 1e-12 1e-08 10000 20000
WARNING: Resetting reneighboring criteria during minimization (../min.cpp:168)
Memory usage per processor = 3.35161 Mbytes
Step Temp PotEng Lx Ly Lz 
      17            0   -241.98287    2.0000005    34.647952    1.0000002 
      18            0   -241.98289    2.0000005    34.647952    1.0000002 
      19            0   -241.98289    2.0000005    34.647952    1.0000002 
Loop time of 0.00052992 on 1 procs for 2 steps with 82 atoms

Minimization stats:
  Stopping criterion = linesearch alpha is zero
  Energy initial, next-to-last, final = 
        -241.982874635     -241.982889262     -241.982889262
  Force two-norm initial, final = 0.0641398 0.031382
  Force max component initial, final = 0.0299919 0.0148229
  Final line search alpha, max atom move = 7.62939e-06 1.1309e-07
  Iterations, force evaluations = 2 26

Pair  time (%) = 0.000441646 (83.342)
Neigh time (%) = 0 (0)
Comm  time (%) = 2.67274e-05 (5.04368)
Outpt time (%) = 6.04033e-06 (1.13986)
Other time (%) = 5.55065e-05 (10.4745)

Nlocal:    82 ave 82 max 82 min
Histogram: 1 0 0 0 0 0 0 0 0 0
Nghost:    185 ave 185 max 185 min
Histogram: 1 0 0 0 0 0 0 0 0 0
Neighs:    718 ave 718 max 718 min
Histogram: 1 0 0 0 0 0 0 0 0 0

Total # of neighbors = 718
Ave neighs/atom = 8.7561
Neighbor list builds = 0
Dangerous builds = 0
        # write_dump all atom ${dumpfile}
        next i
jump SELF loop1
        displace_atoms upper move ${xstep1} 0.0 0.0 units lattice
        displace_atoms upper move 0.00333333333333333 0.0 0.0 units lattice
        min_style ${style}
        min_style cg
        minimize ${etol} ${ftol} ${maxiter} ${maxeval}
        minimize 1e-12 ${ftol} ${maxiter} ${maxeval}
        minimize 1e-12 1e-08 ${maxiter} ${maxeval}
        minimize 1e-12 1e-08 10000 ${maxeval}
        minimize 1e-12 1e-08 10000 20000
WARNING: Resetting reneighboring criteria during minimization (../min.cpp:168)
Memory usage per processor = 3.35161 Mbytes
Step Temp PotEng Lx Ly Lz 
      19            0   -241.97935    2.0000005    34.647952    1.0000002 
      20            0   -241.97935    2.0000005    34.647952    1.0000002 
Loop time of 0.000387993 on 1 procs for 1 steps with 82 atoms

Minimization stats:
  Stopping criterion = linesearch alpha is zero
  Energy initial, next-to-last, final = 
         -241.97935483      -241.97935483      -241.97935483
  Force two-norm initial, final = 0.0473357 0.0473357
  Force max component initial, final = 0.0177651 0.0177651
  Final line search alpha, max atom move = 3.8147e-06 6.77685e-08
  Iterations, force evaluations = 1 19

Pair  time (%) = 0.000323726 (83.4362)
Neigh time (%) = 0 (0)
Comm  time (%) = 2.18005e-05 (5.6188)
Outpt time (%) = 0 (0)
Other time (%) = 4.24656e-05 (10.945)

Nlocal:    82 ave 82 max 82 min
Histogram: 1 0 0 0 0 0 0 0 0 0
Nghost:    185 ave 185 max 185 min
Histogram: 1 0 0 0 0 0 0 0 0 0
Neighs:    718 ave 718 max 718 min
Histogram: 1 0 0 0 0 0 0 0 0 0

Total # of neighbors = 718
Ave neighs/atom = 8.7561
Neighbor list builds = 0
Dangerous builds = 0
        # write_dump all atom ${dumpfile}
        next i
jump SELF loop1
        displace_atoms upper move ${xstep1} 0.0 0.0 units lattice
        displace_atoms upper move 0.00333333333333333 0.0 0.0 units lattice
        min_style ${style}
        min_style cg
        minimize ${etol} ${ftol} ${maxiter} ${maxeval}
        minimize 1e-12 ${ftol} ${maxiter} ${maxeval}
        minimize 1e-12 1e-08 ${maxiter} ${maxeval}
        minimize 1e-12 1e-08 10000 ${maxeval}
        minimize 1e-12 1e-08 10000 20000
WARNING: Resetting reneighboring criteria during minimization (../min.cpp:168)
Memory usage per processor = 3.35161 Mbytes
Step Temp PotEng Lx Ly Lz 
      20            0   -241.97548    2.0000005    34.647952    1.0000002 
      21            0   -241.97551    2.0000005    34.647952    1.0000002 
      22            0   -241.97551    2.0000005    34.647952    1.0000002 
Loop time of 0.000549052 on 1 procs for 2 steps with 82 atoms

Minimization stats:
  Stopping criterion = linesearch alpha is zero
  Energy initial, next-to-last, final = 
         -241.97547888     -241.975508405     -241.975508405
  Force two-norm initial, final = 0.0781894 0.0406839
  Force max component initial, final = 0.0358306 0.0188265
  Final line search alpha, max atom move = 3.8147e-06 7.18175e-08
  Iterations, force evaluations = 2 27

Pair  time (%) = 0.000453763 (82.6449)
Neigh time (%) = 0 (0)
Comm  time (%) = 2.92346e-05 (5.32455)
Outpt time (%) = 4.98036e-06 (0.907084)
Other time (%) = 6.10736e-05 (11.1235)

Nlocal:    82 ave 82 max 82 min
Histogram: 1 0 0 0 0 0 0 0 0 0
Nghost:    185 ave 185 max 185 min
Histogram: 1 0 0 0 0 0 0 0 0 0
Neighs:    718 ave 718 max 718 min
Histogram: 1 0 0 0 0 0 0 0 0 0

Total # of neighbors = 718
Ave neighs/atom = 8.7561
Neighbor list builds = 0
Dangerous builds = 0
        # write_dump all atom ${dumpfile}
        next i
jump SELF loop1
        displace_atoms upper move ${xstep1} 0.0 0.0 units lattice
        displace_atoms upper move 0.00333333333333333 0.0 0.0 units lattice
        min_style ${style}
        min_style cg
        minimize ${etol} ${ftol} ${maxiter} ${maxeval}
        minimize 1e-12 ${ftol} ${maxiter} ${maxeval}
        minimize 1e-12 1e-08 ${maxiter} ${maxeval}
        minimize 1e-12 1e-08 10000 ${maxeval}
        minimize 1e-12 1e-08 10000 20000
WARNING: Resetting reneighboring criteria during minimization (../min.cpp:168)
Memory usage per processor = 3.35161 Mbytes
Step Temp PotEng Lx Ly Lz 
      22            0   -241.97133    2.0000005    34.647952    1.0000002 
      23            0   -241.97136    2.0000005    34.647952    1.0000002 
      24            0   -241.97136    2.0000005    34.647952    1.0000002 
Loop time of 0.0005349 on 1 procs for 2 steps with 82 atoms

Minimization stats:
  Stopping criterion = linesearch alpha is zero
  Energy initial, next-to-last, final = 
        -241.971330494     -241.971357958     -241.971357958
  Force two-norm initial, final = 0.058881 0.0424229
  Force max component initial, final = 0.0213821 0.0121663
  Final line search alpha, max atom move = 3.8147e-06 4.64109e-08
  Iterations, force evaluations = 2 26

Pair  time (%) = 0.00044597 (83.3746)
Neigh time (%) = 0 (0)
Comm  time (%) = 2.73244e-05 (5.10833)
Outpt time (%) = 5.94778e-06 (1.11194)
Other time (%) = 5.56569e-05 (10.4051)

Nlocal:    82 ave 82 max 82 min
Histogram: 1 0 0 0 0 0 0 0 0 0
Nghost:    185 ave 185 max 185 min
Histogram: 1 0 0 0 0 0 0 0 0 0
Neighs:    718 ave 718 max 718 min
Histogram: 1 0 0 0 0 0 0 0 0 0

Total # of neighbors = 718
Ave neighs/atom = 8.7561
Neighbor list builds = 0
Dangerous builds = 0
        # write_dump all atom ${dumpfile}
        next i
jump SELF loop1
        displace_atoms upper move ${xstep1} 0.0 0.0 units lattice
        displace_atoms upper move 0.00333333333333333 0.0 0.0 units lattice
        min_style ${style}
        min_style cg
        minimize ${etol} ${ftol} ${maxiter} ${maxeval}
        minimize 1e-12 ${ftol} ${maxiter} ${maxeval}
        minimize 1e-12 1e-08 ${maxiter} ${maxeval}
        minimize 1e-12 1e-08 10000 ${maxeval}
        minimize 1e-12 1e-08 10000 20000
WARNING: Resetting reneighboring criteria during minimization (../min.cpp:168)
Memory usage per processor = 3.35161 Mbytes
Step Temp PotEng Lx Ly Lz 
      24            0   -241.96688    2.0000005    34.647952    1.0000002 
      25            0   -241.96689    2.0000005    34.647952    1.0000002 
      26            0   -241.96689    2.0000005    34.647952    1.0000002 
Loop time of 0.00102891 on 1 procs for 2 steps with 82 atoms

Minimization stats:
  Stopping criterion = linesearch alpha is zero
  Energy initial, next-to-last, final = 
         -241.96687593     -241.966886872     -241.966886872
  Force two-norm initial, final = 0.0397365 0.0290157
  Force max component initial, final = 0.0121663 0.00972101
  Final line search alpha, max atom move = 7.62939e-06 7.41654e-08
  Iterations, force evaluations = 2 25

Pair  time (%) = 0.000857364 (83.3278)
Neigh time (%) = 0 (0)
Comm  time (%) = 6.10322e-05 (5.93177)
Outpt time (%) = 1.50155e-05 (1.45936)
Other time (%) = 9.54936e-05 (9.28109)

Nlocal:    82 ave 82 max 82 min
Histogram: 1 0 0 0 0 0 0 0 0 0
Nghost:    185 ave 185 max 185 min
Histogram: 1 0 0 0 0 0 0 0 0 0
Neighs:    718 ave 718 max 718 min
Histogram: 1 0 0 0 0 0 0 0 0 0

Total # of neighbors = 718
Ave neighs/atom = 8.7561
Neighbor list builds = 0
Dangerous builds = 0
        # write_dump all atom ${dumpfile}
        next i
jump SELF loop1
        displace_atoms upper move ${xstep1} 0.0 0.0 units lattice
        displace_atoms upper move 0.00333333333333333 0.0 0.0 units lattice
        min_style ${style}
        min_style cg
        minimize ${etol} ${ftol} ${maxiter} ${maxeval}
        minimize 1e-12 ${ftol} ${maxiter} ${maxeval}
        minimize 1e-12 1e-08 ${maxiter} ${maxeval}
        minimize 1e-12 1e-08 10000 ${maxeval}
        minimize 1e-12 1e-08 10000 20000
WARNING: Resetting reneighboring criteria during minimization (../min.cpp:168)
Memory usage per processor = 3.35161 Mbytes
Step Temp PotEng Lx Ly Lz 
      26            0    -241.9621    2.0000005    34.647952    1.0000002 
      27            0   -241.96211    2.0000005    34.647952    1.0000002 
      28            0   -241.96211    2.0000005    34.647952    1.0000002 
Loop time of 0.00224393 on 1 procs for 2 steps with 82 atoms

Minimization stats:
  Stopping criterion = linesearch alpha is zero
  Energy initial, next-to-last, final = 
        -241.962100649     -241.962113504     -241.962113504
  Force two-norm initial, final = 0.0494382 0.0329203
  Force max component initial, final = 0.020092 0.01238
  Final line search alpha, max atom move = 7.62939e-06 9.44523e-08
  Iterations, force evaluations = 2 26

Pair  time (%) = 0.000462854 (20.627)
Neigh time (%) = 0 (0)
Comm  time (%) = 2.88318e-05 (1.28488)
Outpt time (%) = 1.09426e-05 (0.487653)
Other time (%) = 0.0017413 (77.6005)

Nlocal:    82 ave 82 max 82 min
Histogram: 1 0 0 0 0 0 0 0 0 0
Nghost:    185 ave 185 max 185 min
Histogram: 1 0 0 0 0 0 0 0 0 0
Neighs:    718 ave 718 max 718 min
Histogram: 1 0 0 0 0 0 0 0 0 0

Total # of neighbors = 718
Ave neighs/atom = 8.7561
Neighbor list builds = 0
Dangerous builds = 0
        # write_dump all atom ${dumpfile}
        next i
jump SELF loop1
        displace_atoms upper move ${xstep1} 0.0 0.0 units lattice
        displace_atoms upper move 0.00333333333333333 0.0 0.0 units lattice
        min_style ${style}
        min_style cg
        minimize ${etol} ${ftol} ${maxiter} ${maxeval}
        minimize 1e-12 ${ftol} ${maxiter} ${maxeval}
        minimize 1e-12 1e-08 ${maxiter} ${maxeval}
        minimize 1e-12 1e-08 10000 ${maxeval}
        minimize 1e-12 1e-08 10000 20000
WARNING: Resetting reneighboring criteria during minimization (../min.cpp:168)
Memory usage per processor = 3.35161 Mbytes
Step Temp PotEng Lx Ly Lz 
      28            0   -241.95703    2.0000005    34.647952    1.0000002 
      29            0   -241.95704    2.0000005    34.647952    1.0000002 
      30            0   -241.95705    2.0000005    34.647952    1.0000002 
      31            0   -241.95707    2.0000005    34.647952    1.0000002 
      32            0   -241.95707    2.0000005    34.647952    1.0000002 
Loop time of 0.000847048 on 1 procs for 4 steps with 82 atoms

Minimization stats:
  Stopping criterion = linesearch alpha is zero
  Energy initial, next-to-last, final = 
        -241.957029498     -241.957065295     -241.957065295
  Force two-norm initial, final = 0.059447 0.0340462
  Force max component initial, final = 0.0248086 0.0110731
  Final line search alpha, max atom move = 7.62939e-06 8.44811e-08
  Iterations, force evaluations = 4 40

Pair  time (%) = 0.00070039 (82.6859)
Neigh time (%) = 0 (0)
Comm  time (%) = 4.66445e-05 (5.50671)
Outpt time (%) = 1.69676e-05 (2.00315)
Other time (%) = 8.30465e-05 (9.80422)

Nlocal:    82 ave 82 max 82 min
Histogram: 1 0 0 0 0 0 0 0 0 0
Nghost:    185 ave 185 max 185 min
Histogram: 1 0 0 0 0 0 0 0 0 0
Neighs:    718 ave 718 max 718 min
Histogram: 1 0 0 0 0 0 0 0 0 0

Total # of neighbors = 718
Ave neighs/atom = 8.7561
Neighbor list builds = 0
Dangerous builds = 0
        # write_dump all atom ${dumpfile}
        next i
jump SELF loop1
        displace_atoms upper move ${xstep1} 0.0 0.0 units lattice
        displace_atoms upper move 0.00333333333333333 0.0 0.0 units lattice
        min_style ${style}
        min_style cg
        minimize ${etol} ${ftol} ${maxiter} ${maxeval}
        minimize 1e-12 ${ftol} ${maxiter} ${maxeval}
        minimize 1e-12 1e-08 ${maxiter} ${maxeval}
        minimize 1e-12 1e-08 10000 ${maxeval}
        minimize 1e-12 1e-08 10000 20000
WARNING: Resetting reneighboring criteria during minimization (../min.cpp:168)
Memory usage per processor = 3.35161 Mbytes
Step Temp PotEng Lx Ly Lz 
      32            0    -241.9517    2.0000005    34.647952    1.0000002 
      33            0   -241.95171    2.0000005    34.647952    1.0000002 
      34            0   -241.95171    2.0000005    34.647952    1.0000002 
      35            0   -241.95171    2.0000005    34.647952    1.0000002 
Loop time of 0.00122107 on 1 procs for 3 steps with 82 atoms

Minimization stats:
  Stopping criterion = linesearch alpha is zero
  Energy initial, next-to-last, final = 
        -241.951696665     -241.951714016     -241.951714016
  Force two-norm initial, final = 0.0444944 0.0394013
  Force max component initial, final = 0.0163752 0.0136683
  Final line search alpha, max atom move = 7.62939e-06 1.04281e-07
  Iterations, force evaluations = 3 35

Pair  time (%) = 0.00107771 (88.259)
Neigh time (%) = 0 (0)
Comm  time (%) = 5.33316e-05 (4.3676)
Outpt time (%) = 1.49601e-05 (1.22516)
Other time (%) = 7.50746e-05 (6.14825)

Nlocal:    82 ave 82 max 82 min
Histogram: 1 0 0 0 0 0 0 0 0 0
Nghost:    185 ave 185 max 185 min
Histogram: 1 0 0 0 0 0 0 0 0 0
Neighs:    718 ave 718 max 718 min
Histogram: 1 0 0 0 0 0 0 0 0 0

Total # of neighbors = 718
Ave neighs/atom = 8.7561
Neighbor list builds = 0
Dangerous builds = 0
        # write_dump all atom ${dumpfile}
        next i
jump SELF loop1
        displace_atoms upper move ${xstep1} 0.0 0.0 units lattice
        displace_atoms upper move 0.00333333333333333 0.0 0.0 units lattice
        min_style ${style}
        min_style cg
        minimize ${etol} ${ftol} ${maxiter} ${maxeval}
        minimize 1e-12 ${ftol} ${maxiter} ${maxeval}
        minimize 1e-12 1e-08 ${maxiter} ${maxeval}
        minimize 1e-12 1e-08 10000 ${maxeval}
        minimize 1e-12 1e-08 10000 20000
WARNING: Resetting reneighboring criteria during minimization (../min.cpp:168)
Memory usage per processor = 3.35161 Mbytes
Step Temp PotEng Lx Ly Lz 
      35            0   -241.94607    2.0000005    34.647952    1.0000002 
      36            0   -241.94607    2.0000005    34.647952    1.0000002 
      37            0    -241.9461    2.0000005    34.647952    1.0000002 
      38            0    -241.9461    2.0000005    34.647952    1.0000002 
Loop time of 0.000820989 on 1 procs for 3 steps with 82 atoms

Minimization stats:
  Stopping criterion = linesearch alpha is zero
  Energy initial, next-to-last, final = 
        -241.946071812      -241.94609711      -241.94609711
  Force two-norm initial, final = 0.0438298 0.0419186
  Force max component initial, final = 0.0145348 0.0131214
  Final line search alpha, max atom move = 3.8147e-06 5.00543e-08
  Iterations, force evaluations = 3 34

Pair  time (%) = 0.00060709 (73.9462)
Neigh time (%) = 0 (0)
Comm  time (%) = 4.28057e-05 (5.21392)
Outpt time (%) = 1.10596e-05 (1.3471)
Other time (%) = 0.000160033 (19.4928)

Nlocal:    82 ave 82 max 82 min
Histogram: 1 0 0 0 0 0 0 0 0 0
Nghost:    185 ave 185 max 185 min
Histogram: 1 0 0 0 0 0 0 0 0 0
Neighs:    718 ave 718 max 718 min
Histogram: 1 0 0 0 0 0 0 0 0 0

Total # of neighbors = 718
Ave neighs/atom = 8.7561
Neighbor list builds = 0
Dangerous builds = 0
        # write_dump all atom ${dumpfile}
        next i
jump SELF loop1
        displace_atoms upper move ${xstep1} 0.0 0.0 units lattice
        displace_atoms upper move 0.00333333333333333 0.0 0.0 units lattice
        min_style ${style}
        min_style cg
        minimize ${etol} ${ftol} ${maxiter} ${maxeval}
        minimize 1e-12 ${ftol} ${maxiter} ${maxeval}
        minimize 1e-12 1e-08 ${maxiter} ${maxeval}
        minimize 1e-12 1e-08 10000 ${maxeval}
        minimize 1e-12 1e-08 10000 20000
WARNING: Resetting reneighboring criteria during minimization (../min.cpp:168)
Memory usage per processor = 3.35161 Mbytes
Step Temp PotEng Lx Ly Lz 
      38            0   -241.94018    2.0000005    34.647952    1.0000002 
      39            0   -241.94019    2.0000005    34.647952    1.0000002 
      40            0   -241.94019    2.0000005    34.647952    1.0000002 
      41            0   -241.94019    2.0000005    34.647952    1.0000002 
Loop time of 0.000733022 on 1 procs for 3 steps with 82 atoms

Minimization stats:
  Stopping criterion = linesearch alpha is zero
  Energy initial, next-to-last, final = 
         -241.94018152     -241.940193378     -241.940193378
  Force two-norm initial, final = 0.0428334 0.0252616
  Force max component initial, final = 0.013668 0.00666848
  Final line search alpha, max atom move = 1.52588e-05 1.01753e-07
  Iterations, force evaluations = 3 33

Pair  time (%) = 0.000610721 (83.3155)
Neigh time (%) = 0 (0)
Comm  time (%) = 3.81318e-05 (5.202)
Outpt time (%) = 9.83558e-06 (1.34178)
Other time (%) = 7.43334e-05 (10.1407)

Nlocal:    82 ave 82 max 82 min
Histogram: 1 0 0 0 0 0 0 0 0 0
Nghost:    185 ave 185 max 185 min
Histogram: 1 0 0 0 0 0 0 0 0 0
Neighs:    718 ave 718 max 718 min
Histogram: 1 0 0 0 0 0 0 0 0 0

Total # of neighbors = 718
Ave neighs/atom = 8.7561
Neighbor list builds = 0
Dangerous builds = 0
        # write_dump all atom ${dumpfile}
        next i
jump SELF loop1
        displace_atoms upper move ${xstep1} 0.0 0.0 units lattice
        displace_atoms upper move 0.00333333333333333 0.0 0.0 units lattice
        min_style ${style}
        min_style cg
        minimize ${etol} ${ftol} ${maxiter} ${maxeval}
        minimize 1e-12 ${ftol} ${maxiter} ${maxeval}
        minimize 1e-12 1e-08 ${maxiter} ${maxeval}
        minimize 1e-12 1e-08 10000 ${maxeval}
        minimize 1e-12 1e-08 10000 20000
WARNING: Resetting reneighboring criteria during minimization (../min.cpp:168)
Memory usage per processor = 3.35161 Mbytes
Step Temp PotEng Lx Ly Lz 
      41            0     -241.934    2.0000005    34.647952    1.0000002 
      42            0   -241.93401    2.0000005    34.647952    1.0000002 
      43            0   -241.93401    2.0000005    34.647952    1.0000002 
Loop time of 0.000488046 on 1 procs for 2 steps with 82 atoms

Minimization stats:
  Stopping criterion = linesearch alpha is zero
  Energy initial, next-to-last, final = 
        -241.934001989     -241.934005113     -241.934005113
  Force two-norm initial, final = 0.0645819 0.0580605
  Force max component initial, final = 0.0297871 0.0259753
  Final line search alpha, max atom move = 1.90735e-06 4.9544e-08
  Iterations, force evaluations = 2 31

Pair  time (%) = 0.000404738 (82.9303)
Neigh time (%) = 0 (0)
Comm  time (%) = 2.79073e-05 (5.71817)
Outpt time (%) = 5.9189e-06 (1.21278)
Other time (%) = 4.94818e-05 (10.1387)

Nlocal:    82 ave 82 max 82 min
Histogram: 1 0 0 0 0 0 0 0 0 0
Nghost:    185 ave 185 max 185 min
Histogram: 1 0 0 0 0 0 0 0 0 0
Neighs:    718 ave 718 max 718 min
Histogram: 1 0 0 0 0 0 0 0 0 0

Total # of neighbors = 718
Ave neighs/atom = 8.7561
Neighbor list builds = 0
Dangerous builds = 0
        # write_dump all atom ${dumpfile}
        next i
jump SELF loop1
        displace_atoms upper move ${xstep1} 0.0 0.0 units lattice
        displace_atoms upper move 0.00333333333333333 0.0 0.0 units lattice
        min_style ${style}
        min_style cg
        minimize ${etol} ${ftol} ${maxiter} ${maxeval}
        minimize 1e-12 ${ftol} ${maxiter} ${maxeval}
        minimize 1e-12 1e-08 ${maxiter} ${maxeval}
        minimize 1e-12 1e-08 10000 ${maxeval}
        minimize 1e-12 1e-08 10000 20000
WARNING: Resetting reneighboring criteria during minimization (../min.cpp:168)
Memory usage per processor = 3.35161 Mbytes
Step Temp PotEng Lx Ly Lz 
      43            0   -241.92752    2.0000005    34.647952    1.0000002 
      44            0   -241.92754    2.0000005    34.647952    1.0000002 
      45            0   -241.92758    2.0000005    34.647952    1.0000002 
      46            0    -241.9276    2.0000005    34.647952    1.0000002 
      47            0   -241.92763    2.0000005    34.647952    1.0000002 
      48            0   -241.92763    2.0000005    34.647952    1.0000002 
Loop time of 0.00109811 on 1 procs for 5 steps with 82 atoms

Minimization stats:
  Stopping criterion = linesearch alpha is zero
  Energy initial, next-to-last, final = 
        -241.927521762     -241.927625411     -241.927625411
  Force two-norm initial, final = 0.112993 0.0362431
  Force max component initial, final = 0.0549892 0.0122865
  Final line search alpha, max atom move = 7.62939e-06 9.37386e-08
  Iterations, force evaluations = 5 48

Pair  time (%) = 0.000922764 (84.032)
Neigh time (%) = 0 (0)
Comm  time (%) = 5.5718e-05 (5.07399)
Outpt time (%) = 2.39325e-05 (2.17943)
Other time (%) = 9.56961e-05 (8.71461)

Nlocal:    82 ave 82 max 82 min
Histogram: 1 0 0 0 0 0 0 0 0 0
Nghost:    185 ave 185 max 185 min
Histogram: 1 0 0 0 0 0 0 0 0 0
Neighs:    718 ave 718 max 718 min
Histogram: 1 0 0 0 0 0 0 0 0 0

Total # of neighbors = 718
Ave neighs/atom = 8.7561
Neighbor list builds = 0
Dangerous builds = 0
        # write_dump all atom ${dumpfile}
        next i
jump SELF loop1
        displace_atoms upper move ${xstep1} 0.0 0.0 units lattice
        displace_atoms upper move 0.00333333333333333 0.0 0.0 units lattice
        min_style ${style}
        min_style cg
        minimize ${etol} ${ftol} ${maxiter} ${maxeval}
        minimize 1e-12 ${ftol} ${maxiter} ${maxeval}
        minimize 1e-12 1e-08 ${maxiter} ${maxeval}
        minimize 1e-12 1e-08 10000 ${maxeval}
        minimize 1e-12 1e-08 10000 20000
WARNING: Resetting reneighboring criteria during minimization (../min.cpp:168)
Memory usage per processor = 3.35161 Mbytes
Step Temp PotEng Lx Ly Lz 
      48            0   -241.92093    2.0000005    34.647952    1.0000002 
      49            0   -241.92095    2.0000005    34.647952    1.0000002 
      50            0   -241.92096    2.0000005    34.647952    1.0000002 
      51            0   -241.92097    2.0000005    34.647952    1.0000002 
      52            0   -241.92097    2.0000005    34.647952    1.0000002 
Loop time of 0.000933962 on 1 procs for 4 steps with 82 atoms

Minimization stats:
  Stopping criterion = linesearch alpha is zero
  Energy initial, next-to-last, final = 
        -241.920928199     -241.920969755     -241.920969755
  Force two-norm initial, final = 0.0785507 0.0232969
  Force max component initial, final = 0.0352523 0.00616096
  Final line search alpha, max atom move = 1.52588e-05 9.40088e-08
  Iterations, force evaluations = 4 40

Pair  time (%) = 0.00078461 (84.0087)
Neigh time (%) = 0 (0)
Comm  time (%) = 5.14922e-05 (5.51331)
Outpt time (%) = 1.7058e-05 (1.82641)
Other time (%) = 8.08022e-05 (8.65156)

Nlocal:    82 ave 82 max 82 min
Histogram: 1 0 0 0 0 0 0 0 0 0
Nghost:    185 ave 185 max 185 min
Histogram: 1 0 0 0 0 0 0 0 0 0
Neighs:    718 ave 718 max 718 min
Histogram: 1 0 0 0 0 0 0 0 0 0

Total # of neighbors = 718
Ave neighs/atom = 8.7561
Neighbor list builds = 0
Dangerous builds = 0
        # write_dump all atom ${dumpfile}
        next i
jump SELF loop1
        displace_atoms upper move ${xstep1} 0.0 0.0 units lattice
        displace_atoms upper move 0.00333333333333333 0.0 0.0 units lattice
        min_style ${style}
        min_style cg
        minimize ${etol} ${ftol} ${maxiter} ${maxeval}
        minimize 1e-12 ${ftol} ${maxiter} ${maxeval}
        minimize 1e-12 1e-08 ${maxiter} ${maxeval}
        minimize 1e-12 1e-08 10000 ${maxeval}
        minimize 1e-12 1e-08 10000 20000
WARNING: Resetting reneighboring criteria during minimization (../min.cpp:168)
Memory usage per processor = 3.35161 Mbytes
Step Temp PotEng Lx Ly Lz 
      52            0   -241.91403    2.0000005    34.647952    1.0000002 
      53            0   -241.91404    2.0000005    34.647952    1.0000002 
      54            0   -241.91404    2.0000005    34.647952    1.0000002 
Loop time of 0.0212019 on 1 procs for 2 steps with 82 atoms

Minimization stats:
  Stopping criterion = linesearch alpha is zero
  Energy initial, next-to-last, final = 
        -241.914033336      -241.91403711      -241.91403711
  Force two-norm initial, final = 0.0661603 0.0583138
  Force max component initial, final = 0.0309615 0.0267533
  Final line search alpha, max atom move = 1.90735e-06 5.10279e-08
  Iterations, force evaluations = 2 31

Pair  time (%) = 0.000434323 (2.04851)
Neigh time (%) = 0 (0)
Comm  time (%) = 3.37051e-05 (0.158972)
Outpt time (%) = 0.0206841 (97.5575)
Other time (%) = 4.9821e-05 (0.234984)

Nlocal:    82 ave 82 max 82 min
Histogram: 1 0 0 0 0 0 0 0 0 0
Nghost:    185 ave 185 max 185 min
Histogram: 1 0 0 0 0 0 0 0 0 0
Neighs:    718 ave 718 max 718 min
Histogram: 1 0 0 0 0 0 0 0 0 0

Total # of neighbors = 718
Ave neighs/atom = 8.7561
Neighbor list builds = 0
Dangerous builds = 0
        # write_dump all atom ${dumpfile}
        next i
jump SELF loop1
        displace_atoms upper move ${xstep1} 0.0 0.0 units lattice
        displace_atoms upper move 0.00333333333333333 0.0 0.0 units lattice
        min_style ${style}
        min_style cg
        minimize ${etol} ${ftol} ${maxiter} ${maxeval}
        minimize 1e-12 ${ftol} ${maxiter} ${maxeval}
        minimize 1e-12 1e-08 ${maxiter} ${maxeval}
        minimize 1e-12 1e-08 10000 ${maxeval}
        minimize 1e-12 1e-08 10000 20000
WARNING: Resetting reneighboring criteria during minimization (../min.cpp:168)
Memory usage per processor = 3.35161 Mbytes
Step Temp PotEng Lx Ly Lz 
      54            0   -241.90683    2.0000005    34.647952    1.0000002 
      55            0   -241.90685    2.0000005    34.647952    1.0000002 
      56            0   -241.90688    2.0000005    34.647952    1.0000002 
      57            0    -241.9069    2.0000005    34.647952    1.0000002 
      58            0   -241.90694    2.0000005    34.647952    1.0000002 
      59            0   -241.90695    2.0000005    34.647952    1.0000002 
      60            0   -241.90695    2.0000005    34.647952    1.0000002 
Loop time of 0.00137494 on 1 procs for 6 steps with 82 atoms

Minimization stats:
  Stopping criterion = linesearch alpha is zero
  Energy initial, next-to-last, final = 
        -241.906829646     -241.906953154     -241.906953154
  Force two-norm initial, final = 0.11993 0.0343892
  Force max component initial, final = 0.0588338 0.0116626
  Final line search alpha, max atom move = 7.62939e-06 8.89787e-08
  Iterations, force evaluations = 6 55

Pair  time (%) = 0.00115906 (84.2989)
Neigh time (%) = 0 (0)
Comm  time (%) = 7.37176e-05 (5.36149)
Outpt time (%) = 2.90604e-05 (2.11357)
Other time (%) = 0.000113103 (8.22604)

Nlocal:    82 ave 82 max 82 min
Histogram: 1 0 0 0 0 0 0 0 0 0
Nghost:    185 ave 185 max 185 min
Histogram: 1 0 0 0 0 0 0 0 0 0
Neighs:    718 ave 718 max 718 min
Histogram: 1 0 0 0 0 0 0 0 0 0

Total # of neighbors = 718
Ave neighs/atom = 8.7561
Neighbor list builds = 0
Dangerous builds = 0
        # write_dump all atom ${dumpfile}
        next i
jump SELF loop1
        displace_atoms upper move ${xstep1} 0.0 0.0 units lattice
        displace_atoms upper move 0.00333333333333333 0.0 0.0 units lattice
        min_style ${style}
        min_style cg
        minimize ${etol} ${ftol} ${maxiter} ${maxeval}
        minimize 1e-12 ${ftol} ${maxiter} ${maxeval}
        minimize 1e-12 1e-08 ${maxiter} ${maxeval}
        minimize 1e-12 1e-08 10000 ${maxeval}
        minimize 1e-12 1e-08 10000 20000
WARNING: Resetting reneighboring criteria during minimization (../min.cpp:168)
Memory usage per processor = 3.35161 Mbytes
Step Temp PotEng Lx Ly Lz 
      60            0   -241.89958    2.0000005    34.647953    1.0000002 
      61            0   -241.89959    2.0000005    34.647953    1.0000002 
      62            0    -241.8996    2.0000005    34.647953    1.0000002 
      63            0    -241.8996    2.0000005    34.647953    1.0000002 
      64            0    -241.8996    2.0000005    34.647953    1.0000002 
Loop time of 0.00159399 on 1 procs for 4 steps with 82 atoms

Minimization stats:
  Stopping criterion = linesearch alpha is zero
  Energy initial, next-to-last, final = 
        -241.899584972      -241.89960142      -241.89960142
  Force two-norm initial, final = 0.0609489 0.0210935
  Force max component initial, final = 0.0264383 0.00572006
  Final line search alpha, max atom move = 1.52588e-05 8.72811e-08
  Iterations, force evaluations = 4 44

Pair  time (%) = 0.00139934 (87.7887)
Neigh time (%) = 0 (0)
Comm  time (%) = 7.91316e-05 (4.96437)
Outpt time (%) = 1.88934e-05 (1.18529)
Other time (%) = 9.66227e-05 (6.06169)

Nlocal:    82 ave 82 max 82 min
Histogram: 1 0 0 0 0 0 0 0 0 0
Nghost:    185 ave 185 max 185 min
Histogram: 1 0 0 0 0 0 0 0 0 0
Neighs:    718 ave 718 max 718 min
Histogram: 1 0 0 0 0 0 0 0 0 0

Total # of neighbors = 718
Ave neighs/atom = 8.7561
Neighbor list builds = 0
Dangerous builds = 0
        # write_dump all atom ${dumpfile}
        next i
jump SELF loop1
        displace_atoms upper move ${xstep1} 0.0 0.0 units lattice
        displace_atoms upper move 0.00333333333333333 0.0 0.0 units lattice
        min_style ${style}
        min_style cg
        minimize ${etol} ${ftol} ${maxiter} ${maxeval}
        minimize 1e-12 ${ftol} ${maxiter} ${maxeval}
        minimize 1e-12 1e-08 ${maxiter} ${maxeval}
        minimize 1e-12 1e-08 10000 ${maxeval}
        minimize 1e-12 1e-08 10000 20000
WARNING: Resetting reneighboring criteria during minimization (../min.cpp:168)
Memory usage per processor = 3.35161 Mbytes
Step Temp PotEng Lx Ly Lz 
      64            0   -241.89201    2.0000005    34.647954    1.0000002 
      65            0   -241.89202    2.0000005    34.647954    1.0000002 
      66            0   -241.89203    2.0000005    34.647954    1.0000002 
      67            0   -241.89204    2.0000005    34.647954    1.0000002 
      68            0   -241.89206    2.0000005    34.647954    1.0000002 
      69            0   -241.89207    2.0000005    34.647954    1.0000002 
      70            0   -241.89207    2.0000005    34.647954    1.0000002 
Loop time of 0.00155406 on 1 procs for 6 steps with 82 atoms

Minimization stats:
  Stopping criterion = linesearch alpha is zero
  Energy initial, next-to-last, final = 
         -241.89200582     -241.892067737     -241.892067737
  Force two-norm initial, final = 0.0748973 0.0249499
  Force max component initial, final = 0.0359338 0.00646057
  Final line search alpha, max atom move = 1.52588e-05 9.85804e-08
  Iterations, force evaluations = 6 55

Pair  time (%) = 0.00132933 (85.5392)
Neigh time (%) = 0 (0)
Comm  time (%) = 7.37873e-05 (4.74803)
Outpt time (%) = 3.31908e-05 (2.13575)
Other time (%) = 0.000117752 (7.57704)

Nlocal:    82 ave 82 max 82 min
Histogram: 1 0 0 0 0 0 0 0 0 0
Nghost:    185 ave 185 max 185 min
Histogram: 1 0 0 0 0 0 0 0 0 0
Neighs:    718 ave 718 max 718 min
Histogram: 1 0 0 0 0 0 0 0 0 0

Total # of neighbors = 718
Ave neighs/atom = 8.7561
Neighbor list builds = 0
Dangerous builds = 0
        # write_dump all atom ${dumpfile}
        next i
jump SELF loop1
        displace_atoms upper move ${xstep1} 0.0 0.0 units lattice
        displace_atoms upper move 0.00333333333333333 0.0 0.0 units lattice
        min_style ${style}
        min_style cg
        minimize ${etol} ${ftol} ${maxiter} ${maxeval}
        minimize 1e-12 ${ftol} ${maxiter} ${maxeval}
        minimize 1e-12 1e-08 ${maxiter} ${maxeval}
        minimize 1e-12 1e-08 10000 ${maxeval}
        minimize 1e-12 1e-08 10000 20000
WARNING: Resetting reneighboring criteria during minimization (../min.cpp:168)
Memory usage per processor = 3.35161 Mbytes
Step Temp PotEng Lx Ly Lz 
      70            0   -241.88429    2.0000005    34.647966    1.0000002 
      71            0    -241.8843    2.0000005    34.647966    1.0000002 
      72            0    -241.8843    2.0000005    34.647966    1.0000002 
      73            0    -241.8843    2.0000005    34.647966    1.0000002 
Loop time of 0.00091995 on 1 procs for 3 steps with 82 atoms

Minimization stats:
  Stopping criterion = linesearch alpha is zero
  Energy initial, next-to-last, final = 
        -241.884289132     -241.884300845     -241.884300845
  Force two-norm initial, final = 0.0625995 0.033924
  Force max component initial, final = 0.0294243 0.0122789
  Final line search alpha, max atom move = 7.62939e-06 9.36806e-08
  Iterations, force evaluations = 3 38

Pair  time (%) = 0.000708744 (77.0416)
Neigh time (%) = 0 (0)
Comm  time (%) = 0.000123963 (13.475)
Outpt time (%) = 1.00969e-05 (1.09755)
Other time (%) = 7.71453e-05 (8.38582)

Nlocal:    82 ave 82 max 82 min
Histogram: 1 0 0 0 0 0 0 0 0 0
Nghost:    185 ave 185 max 185 min
Histogram: 1 0 0 0 0 0 0 0 0 0
Neighs:    718 ave 718 max 718 min
Histogram: 1 0 0 0 0 0 0 0 0 0

Total # of neighbors = 718
Ave neighs/atom = 8.7561
Neighbor list builds = 0
Dangerous builds = 0
        # write_dump all atom ${dumpfile}
        next i
jump SELF loop1
        displace_atoms upper move ${xstep1} 0.0 0.0 units lattice
        displace_atoms upper move 0.00333333333333333 0.0 0.0 units lattice
        min_style ${style}
        min_style cg
        minimize ${etol} ${ftol} ${maxiter} ${maxeval}
        minimize 1e-12 ${ftol} ${maxiter} ${maxeval}
        minimize 1e-12 1e-08 ${maxiter} ${maxeval}
        minimize 1e-12 1e-08 10000 ${maxeval}
        minimize 1e-12 1e-08 10000 20000
WARNING: Resetting reneighboring criteria during minimization (../min.cpp:168)
Memory usage per processor = 3.35161 Mbytes
Step Temp PotEng Lx Ly Lz 
      73            0    -241.8763    2.0000005    34.647968    1.0000002 
      74            0   -241.87633    2.0000005    34.647968    1.0000002 
      75            0   -241.87633    2.0000005    34.647968    1.0000002 
      76            0   -241.87634    2.0000005    34.647968    1.0000002 
      77            0   -241.87636    2.0000005    34.647968    1.0000002 
      78            0   -241.87639    2.0000005    34.647968    1.0000002 
      79            0   -241.87641    2.0000005    34.647968    1.0000002 
      80            0   -241.87641    2.0000005    34.647968    1.0000002 
Loop time of 0.00136691 on 1 procs for 7 steps with 82 atoms

Minimization stats:
  Stopping criterion = linesearch alpha is zero
  Energy initial, next-to-last, final = 
        -241.876295438     -241.876406848     -241.876406848
  Force two-norm initial, final = 0.100197 0.0321277
  Force max component initial, final = 0.0487124 0.0106968
  Final line search alpha, max atom move = 7.62939e-06 8.16099e-08
  Iterations, force evaluations = 7 63

Pair  time (%) = 0.0011518 (84.2627)
Neigh time (%) = 0 (0)
Comm  time (%) = 6.06211e-05 (4.43489)
Outpt time (%) = 3.41072e-05 (2.49521)
Other time (%) = 0.000120387 (8.80721)

Nlocal:    82 ave 82 max 82 min
Histogram: 1 0 0 0 0 0 0 0 0 0
Nghost:    185 ave 185 max 185 min
Histogram: 1 0 0 0 0 0 0 0 0 0
Neighs:    718 ave 718 max 718 min
Histogram: 1 0 0 0 0 0 0 0 0 0

Total # of neighbors = 718
Ave neighs/atom = 8.7561
Neighbor list builds = 0
Dangerous builds = 0
        # write_dump all atom ${dumpfile}
        next i
jump SELF loop1
        displace_atoms upper move ${xstep1} 0.0 0.0 units lattice
        displace_atoms upper move 0.00333333333333333 0.0 0.0 units lattice
        min_style ${style}
        min_style cg
        minimize ${etol} ${ftol} ${maxiter} ${maxeval}
        minimize 1e-12 ${ftol} ${maxiter} ${maxeval}
        minimize 1e-12 1e-08 ${maxiter} ${maxeval}
        minimize 1e-12 1e-08 10000 ${maxeval}
        minimize 1e-12 1e-08 10000 20000
WARNING: Resetting reneighboring criteria during minimization (../min.cpp:168)
Memory usage per processor = 3.35161 Mbytes
Step Temp PotEng Lx Ly Lz 
      80            0   -241.86824    2.0000005     34.64803    1.0000002 
      81            0   -241.86826    2.0000005     34.64803    1.0000002 
      82            0   -241.86827    2.0000005     34.64803    1.0000002 
      83            0   -241.86828    2.0000005     34.64803    1.0000002 
      84            0   -241.86829    2.0000005     34.64803    1.0000002 
      85            0    -241.8683    2.0000005     34.64803    1.0000002 
      86            0    -241.8683    2.0000005     34.64803    1.0000002 
      87            0   -241.86831    2.0000005     34.64803    1.0000002 
      88            0   -241.86831    2.0000005     34.64803    1.0000002 
Loop time of 0.00267707 on 1 procs for 8 steps with 82 atoms

Minimization stats:
  Stopping criterion = linesearch alpha is zero
  Energy initial, next-to-last, final = 
        -241.868238775     -241.868306125     -241.868306125
  Force two-norm initial, final = 0.0873431 0.0168632
  Force max component initial, final = 0.0408361 0.00320405
  Final line search alpha, max atom move = 3.05176e-05 9.77798e-08
  Iterations, force evaluations = 8 69

Pair  time (%) = 0.00244383 (91.2875)
Neigh time (%) = 0 (0)
Comm  time (%) = 5.71342e-05 (2.1342)
Outpt time (%) = 4.09423e-05 (1.52937)
Other time (%) = 0.000135164 (5.04894)

Nlocal:    82 ave 82 max 82 min
Histogram: 1 0 0 0 0 0 0 0 0 0
Nghost:    185 ave 185 max 185 min
Histogram: 1 0 0 0 0 0 0 0 0 0
Neighs:    718 ave 718 max 718 min
Histogram: 1 0 0 0 0 0 0 0 0 0

Total # of neighbors = 718
Ave neighs/atom = 8.7561
Neighbor list builds = 0
Dangerous builds = 0
        # write_dump all atom ${dumpfile}
        next i
jump SELF loop1
        displace_atoms upper move ${xstep1} 0.0 0.0 units lattice
        displace_atoms upper move 0.00333333333333333 0.0 0.0 units lattice
        min_style ${style}
        min_style cg
        minimize ${etol} ${ftol} ${maxiter} ${maxeval}
        minimize 1e-12 ${ftol} ${maxiter} ${maxeval}
        minimize 1e-12 1e-08 ${maxiter} ${maxeval}
        minimize 1e-12 1e-08 10000 ${maxeval}
        minimize 1e-12 1e-08 10000 20000
WARNING: Resetting reneighboring criteria during minimization (../min.cpp:168)
Memory usage per processor = 3.35161 Mbytes
Step Temp PotEng Lx Ly Lz 
      88            0   -241.85996    2.0000005     34.64813    1.0000002 
      89            0   -241.85998    2.0000005     34.64813    1.0000002 
      90            0   -241.85998    2.0000005     34.64813    1.0000002 
      91            0   -241.85998    2.0000005     34.64813    1.0000002 
      92            0   -241.85998    2.0000005     34.64813    1.0000002 
      93            0   -241.85998    2.0000005     34.64813    1.0000002 
Loop time of 0.0016531 on 1 procs for 5 steps with 82 atoms

Minimization stats:
  Stopping criterion = linesearch alpha is zero
  Energy initial, next-to-last, final = 
        -241.859962506     -241.859982429     -241.859982429
  Force two-norm initial, final = 0.0761581 0.0283939
  Force max component initial, final = 0.0371358 0.0079562
  Final line search alpha, max atom move = 1.52588e-05 1.21402e-07
  Iterations, force evaluations = 5 59

Pair  time (%) = 0.00144035 (87.1304)
Neigh time (%) = 0 (0)
Comm  time (%) = 7.11087e-05 (4.30155)
Outpt time (%) = 2.41372e-05 (1.46012)
Other time (%) = 0.000117501 (7.10792)

Nlocal:    82 ave 82 max 82 min
Histogram: 1 0 0 0 0 0 0 0 0 0
Nghost:    185 ave 185 max 185 min
Histogram: 1 0 0 0 0 0 0 0 0 0
Neighs:    718 ave 718 max 718 min
Histogram: 1 0 0 0 0 0 0 0 0 0

Total # of neighbors = 718
Ave neighs/atom = 8.7561
Neighbor list builds = 0
Dangerous builds = 0
        # write_dump all atom ${dumpfile}
        next i
jump SELF loop1
        displace_atoms upper move ${xstep1} 0.0 0.0 units lattice
        displace_atoms upper move 0.00333333333333333 0.0 0.0 units lattice
        min_style ${style}
        min_style cg
        minimize ${etol} ${ftol} ${maxiter} ${maxeval}
        minimize 1e-12 ${ftol} ${maxiter} ${maxeval}
        minimize 1e-12 1e-08 ${maxiter} ${maxeval}
        minimize 1e-12 1e-08 10000 ${maxeval}
        minimize 1e-12 1e-08 10000 20000
WARNING: Resetting reneighboring criteria during minimization (../min.cpp:168)
Memory usage per processor = 3.35161 Mbytes
Step Temp PotEng Lx Ly Lz 
      93            0   -241.85144    2.0000005     34.64814    1.0000002 
      94            0   -241.85147    2.0000005     34.64814    1.0000002 
      95            0   -241.85147    2.0000005     34.64814    1.0000002 
Loop time of 0.000610918 on 1 procs for 2 steps with 82 atoms

Minimization stats:
  Stopping criterion = linesearch alpha is zero
  Energy initial, next-to-last, final = 
        -241.851436956      -241.85146837      -241.85146837
  Force two-norm initial, final = 0.0932855 0.0438328
  Force max component initial, final = 0.0451364 0.0197464
  Final line search alpha, max atom move = 3.8147e-06 7.53265e-08
  Iterations, force evaluations = 2 27

Pair  time (%) = 0.000516903 (84.6108)
Neigh time (%) = 0 (0)
Comm  time (%) = 3.13323e-05 (5.12872)
Outpt time (%) = 6.0579e-06 (0.991606)
Other time (%) = 5.66251e-05 (9.26885)

Nlocal:    82 ave 82 max 82 min
Histogram: 1 0 0 0 0 0 0 0 0 0
Nghost:    185 ave 185 max 185 min
Histogram: 1 0 0 0 0 0 0 0 0 0
Neighs:    718 ave 718 max 718 min
Histogram: 1 0 0 0 0 0 0 0 0 0

Total # of neighbors = 718
Ave neighs/atom = 8.7561
Neighbor list builds = 0
Dangerous builds = 0
        # write_dump all atom ${dumpfile}
        next i
jump SELF loop1
        displace_atoms upper move ${xstep1} 0.0 0.0 units lattice
        displace_atoms upper move 0.00333333333333333 0.0 0.0 units lattice
        min_style ${style}
        min_style cg
        minimize ${etol} ${ftol} ${maxiter} ${maxeval}
        minimize 1e-12 ${ftol} ${maxiter} ${maxeval}
        minimize 1e-12 1e-08 ${maxiter} ${maxeval}
        minimize 1e-12 1e-08 10000 ${maxeval}
        minimize 1e-12 1e-08 10000 20000
WARNING: Resetting reneighboring criteria during minimization (../min.cpp:168)
Memory usage per processor = 3.35161 Mbytes
Step Temp PotEng Lx Ly Lz 
      95            0   -241.84274    2.0000005     34.64815    1.0000002 
      96            0   -241.84278    2.0000005     34.64815    1.0000002 
      97            0    -241.8428    2.0000005     34.64815    1.0000002 
      98            0    -241.8428    2.0000005     34.64815    1.0000002 
Loop time of 0.00142606 on 1 procs for 3 steps with 82 atoms

Minimization stats:
  Stopping criterion = linesearch alpha is zero
  Energy initial, next-to-last, final = 
         -241.84274422     -241.842803853     -241.842803853
  Force two-norm initial, final = 0.0837764 0.0676665
  Force max component initial, final = 0.0357384 0.0197289
  Final line search alpha, max atom move = 1.90735e-06 3.763e-08
  Iterations, force evaluations = 3 34

Pair  time (%) = 0.0013043 (91.4618)
Neigh time (%) = 0 (0)
Comm  time (%) = 4.43471e-05 (3.10977)
Outpt time (%) = 1.20784e-05 (0.846981)
Other time (%) = 6.53343e-05 (4.58146)

Nlocal:    82 ave 82 max 82 min
Histogram: 1 0 0 0 0 0 0 0 0 0
Nghost:    185 ave 185 max 185 min
Histogram: 1 0 0 0 0 0 0 0 0 0
Neighs:    718 ave 718 max 718 min
Histogram: 1 0 0 0 0 0 0 0 0 0

Total # of neighbors = 718
Ave neighs/atom = 8.7561
Neighbor list builds = 0
Dangerous builds = 0
        # write_dump all atom ${dumpfile}
        next i
jump SELF loop1
        displace_atoms upper move ${xstep1} 0.0 0.0 units lattice
        displace_atoms upper move 0.00333333333333333 0.0 0.0 units lattice
        min_style ${style}
        min_style cg
        minimize ${etol} ${ftol} ${maxiter} ${maxeval}
        minimize 1e-12 ${ftol} ${maxiter} ${maxeval}
        minimize 1e-12 1e-08 ${maxiter} ${maxeval}
        minimize 1e-12 1e-08 10000 ${maxeval}
        minimize 1e-12 1e-08 10000 20000
WARNING: Resetting reneighboring criteria during minimization (../min.cpp:168)
Memory usage per processor = 3.35161 Mbytes
Step Temp PotEng Lx Ly Lz 
      98            0   -241.83391    2.0000005    34.648197    1.0000002 
      99            0   -241.83394    2.0000005    34.648197    1.0000002 
     100            0   -241.83397    2.0000005    34.648197    1.0000002 
     101            0   -241.83398    2.0000005    34.648197    1.0000002 
     102            0   -241.83401    2.0000005    34.648197    1.0000002 
     103            0   -241.83403    2.0000005    34.648197    1.0000002 
     104            0   -241.83403    2.0000005    34.648197    1.0000002 
     105            0   -241.83409    2.0000005    34.648197    1.0000002 
     106            0    -241.8341    2.0000005    34.648197    1.0000002 
     107            0    -241.8341    2.0000005    34.648197    1.0000002 
     108            0   -241.83411    2.0000005    34.648197    1.0000002 
     109            0   -241.83411    2.0000005    34.648197    1.0000002 
     110            0   -241.83412    2.0000005    34.648197    1.0000002 
     111            0   -241.83414    2.0000005    34.648197    1.0000002 
     112            0   -241.83414    2.0000005    34.648197    1.0000002 
     113            0   -241.83415    2.0000005    34.648197    1.0000002 
     114            0   -241.83415    2.0000005    34.648197    1.0000002 
     115            0   -241.83415    2.0000005    34.648197    1.0000002 
Loop time of 0.00328798 on 1 procs for 17 steps with 82 atoms

Minimization stats:
  Stopping criterion = linesearch alpha is zero
  Energy initial, next-to-last, final = 
        -241.833910544     -241.834149501     -241.834149501
  Force two-norm initial, final = 0.124631 0.0159611
  Force max component initial, final = 0.0551813 0.00293302
  Final line search alpha, max atom move = 3.05176e-05 8.95086e-08
  Iterations, force evaluations = 17 136

Pair  time (%) = 0.00274929 (83.6163)
Neigh time (%) = 0 (0)
Comm  time (%) = 0.000168649 (5.12926)
Outpt time (%) = 9.60075e-05 (2.91995)
Other time (%) = 0.000274038 (8.33452)

Nlocal:    82 ave 82 max 82 min
Histogram: 1 0 0 0 0 0 0 0 0 0
Nghost:    185 ave 185 max 185 min
Histogram: 1 0 0 0 0 0 0 0 0 0
Neighs:    718 ave 718 max 718 min
Histogram: 1 0 0 0 0 0 0 0 0 0

Total # of neighbors = 718
Ave neighs/atom = 8.7561
Neighbor list builds = 0
Dangerous builds = 0
        # write_dump all atom ${dumpfile}
        next i
jump SELF loop1
        displace_atoms upper move ${xstep1} 0.0 0.0 units lattice
        displace_atoms upper move 0.00333333333333333 0.0 0.0 units lattice
        min_style ${style}
        min_style cg
        minimize ${etol} ${ftol} ${maxiter} ${maxeval}
        minimize 1e-12 ${ftol} ${maxiter} ${maxeval}
        minimize 1e-12 1e-08 ${maxiter} ${maxeval}
        minimize 1e-12 1e-08 10000 ${maxeval}
        minimize 1e-12 1e-08 10000 20000
WARNING: Resetting reneighboring criteria during minimization (../min.cpp:168)
Memory usage per processor = 3.35161 Mbytes
Step Temp PotEng Lx Ly Lz 
     115            0   -241.82513    2.0000005    34.648936    1.0000002 
     116            0   -241.82514    2.0000005    34.648936    1.0000002 
     117            0   -241.82514    2.0000005    34.648936    1.0000002 
Loop time of 0.000648908 on 1 procs for 2 steps with 82 atoms

Minimization stats:
  Stopping criterion = linesearch alpha is zero
  Energy initial, next-to-last, final = 
        -241.825130768     -241.825139829     -241.825139829
  Force two-norm initial, final = 0.074067 0.0555108
  Force max component initial, final = 0.0361925 0.0262657
  Final line search alpha, max atom move = 3.8147e-06 1.00196e-07
  Iterations, force evaluations = 2 29

Pair  time (%) = 0.000554107 (85.3907)
Neigh time (%) = 0 (0)
Comm  time (%) = 2.98326e-05 (4.59735)
Outpt time (%) = 6.90075e-06 (1.06344)
Other time (%) = 5.80673e-05 (8.94846)

Nlocal:    82 ave 82 max 82 min
Histogram: 1 0 0 0 0 0 0 0 0 0
Nghost:    185 ave 185 max 185 min
Histogram: 1 0 0 0 0 0 0 0 0 0
Neighs:    718 ave 718 max 718 min
Histogram: 1 0 0 0 0 0 0 0 0 0

Total # of neighbors = 718
Ave neighs/atom = 8.7561
Neighbor list builds = 0
Dangerous builds = 0
        # write_dump all atom ${dumpfile}
        next i
jump SELF loop1
        displace_atoms upper move ${xstep1} 0.0 0.0 units lattice
        displace_atoms upper move 0.00333333333333333 0.0 0.0 units lattice
        min_style ${style}
        min_style cg
        minimize ${etol} ${ftol} ${maxiter} ${maxeval}
        minimize 1e-12 ${ftol} ${maxiter} ${maxeval}
        minimize 1e-12 1e-08 ${maxiter} ${maxeval}
        minimize 1e-12 1e-08 10000 ${maxeval}
        minimize 1e-12 1e-08 10000 20000
WARNING: Resetting reneighboring criteria during minimization (../min.cpp:168)
Memory usage per processor = 3.35161 Mbytes
Step Temp PotEng Lx Ly Lz 
     117            0   -241.81591    2.0000005     34.64894    1.0000002 
     118            0   -241.81595    2.0000005     34.64894    1.0000002 
     119            0   -241.81597    2.0000005     34.64894    1.0000002 
     120            0   -241.81598    2.0000005     34.64894    1.0000002 
     121            0   -241.81599    2.0000005     34.64894    1.0000002 
     122            0   -241.81602    2.0000005     34.64894    1.0000002 
     123            0   -241.81604    2.0000005     34.64894    1.0000002 
     124            0   -241.81607    2.0000005     34.64894    1.0000002 
     125            0    -241.8161    2.0000005     34.64894    1.0000002 
     126            0   -241.81611    2.0000005     34.64894    1.0000002 
     127            0   -241.81611    2.0000005     34.64894    1.0000002 
Loop time of 0.00182501 on 1 procs for 10 steps with 82 atoms

Minimization stats:
  Stopping criterion = linesearch alpha is zero
  Energy initial, next-to-last, final = 
        -241.815910427     -241.816108597     -241.816108597
  Force two-norm initial, final = 0.130083 0.0255851
  Force max component initial, final = 0.0644205 0.00778302
  Final line search alpha, max atom move = 1.52588e-05 1.18759e-07
  Iterations, force evaluations = 10 81

Pair  time (%) = 0.00150924 (82.6976)
Neigh time (%) = 0 (0)
Comm  time (%) = 9.449e-05 (5.1775)
Outpt time (%) = 4.79961e-05 (2.6299)
Other time (%) = 0.000173285 (9.49498)

Nlocal:    82 ave 82 max 82 min
Histogram: 1 0 0 0 0 0 0 0 0 0
Nghost:    185 ave 185 max 185 min
Histogram: 1 0 0 0 0 0 0 0 0 0
Neighs:    718 ave 718 max 718 min
Histogram: 1 0 0 0 0 0 0 0 0 0

Total # of neighbors = 718
Ave neighs/atom = 8.7561
Neighbor list builds = 0
Dangerous builds = 0
        # write_dump all atom ${dumpfile}
        next i
jump SELF loop1
        displace_atoms upper move ${xstep1} 0.0 0.0 units lattice
        displace_atoms upper move 0.00333333333333333 0.0 0.0 units lattice
        min_style ${style}
        min_style cg
        minimize ${etol} ${ftol} ${maxiter} ${maxeval}
        minimize 1e-12 ${ftol} ${maxiter} ${maxeval}
        minimize 1e-12 1e-08 ${maxiter} ${maxeval}
        minimize 1e-12 1e-08 10000 ${maxeval}
        minimize 1e-12 1e-08 10000 20000
WARNING: Resetting reneighboring criteria during minimization (../min.cpp:168)
Memory usage per processor = 3.35161 Mbytes
Step Temp PotEng Lx Ly Lz 
     127            0   -241.80678    2.0000005     34.65027    1.0000002 
     128            0   -241.80681    2.0000005     34.65027    1.0000002 
     129            0   -241.80683    2.0000005     34.65027    1.0000002 
     130            0   -241.80683    2.0000005     34.65027    1.0000002 
     131            0   -241.80684    2.0000005     34.65027    1.0000002 
     132            0   -241.80684    2.0000005     34.65027    1.0000002 
     133            0   -241.80685    2.0000005     34.65027    1.0000002 
     134            0   -241.80685    2.0000005     34.65027    1.0000002 
Loop time of 0.00170497 on 1 procs for 7 steps with 82 atoms

Minimization stats:
  Stopping criterion = linesearch alpha is zero
  Energy initial, next-to-last, final = 
        -241.806777018     -241.806852562     -241.806852562
  Force two-norm initial, final = 0.0875128 0.0218418
  Force max component initial, final = 0.0420503 0.00714992
  Final line search alpha, max atom move = 1.52588e-05 1.09099e-07
  Iterations, force evaluations = 7 59

Pair  time (%) = 0.00146756 (86.0757)
Neigh time (%) = 0 (0)
Comm  time (%) = 7.16394e-05 (4.20181)
Outpt time (%) = 3.98175e-05 (2.33538)
Other time (%) = 0.000125948 (7.38714)

Nlocal:    82 ave 82 max 82 min
Histogram: 1 0 0 0 0 0 0 0 0 0
Nghost:    185 ave 185 max 185 min
Histogram: 1 0 0 0 0 0 0 0 0 0
Neighs:    718 ave 718 max 718 min
Histogram: 1 0 0 0 0 0 0 0 0 0

Total # of neighbors = 718
Ave neighs/atom = 8.7561
Neighbor list builds = 0
Dangerous builds = 0
        # write_dump all atom ${dumpfile}
        next i
jump SELF loop1
        displace_atoms upper move ${xstep1} 0.0 0.0 units lattice
        displace_atoms upper move 0.00333333333333333 0.0 0.0 units lattice
        min_style ${style}
        min_style cg
        minimize ${etol} ${ftol} ${maxiter} ${maxeval}
        minimize 1e-12 ${ftol} ${maxiter} ${maxeval}
        minimize 1e-12 1e-08 ${maxiter} ${maxeval}
        minimize 1e-12 1e-08 10000 ${maxeval}
        minimize 1e-12 1e-08 10000 20000
WARNING: Resetting reneighboring criteria during minimization (../min.cpp:168)
Memory usage per processor = 3.35161 Mbytes
Step Temp PotEng Lx Ly Lz 
     134            0   -241.79737    2.0000005    34.651026    1.0000002 
     135            0   -241.79739    2.0000005    34.651026    1.0000002 
     136            0   -241.79741    2.0000005    34.651026    1.0000002 
     137            0   -241.79742    2.0000005    34.651026    1.0000002 
     138            0   -241.79743    2.0000005    34.651026    1.0000002 
     139            0   -241.79743    2.0000005    34.651026    1.0000002 
Loop time of 0.0198269 on 1 procs for 5 steps with 82 atoms

Minimization stats:
  Stopping criterion = linesearch alpha is zero
  Energy initial, next-to-last, final = 
        -241.797372195     -241.797432335     -241.797432335
  Force two-norm initial, final = 0.0782857 0.0195208
  Force max component initial, final = 0.0376036 0.00575892
  Final line search alpha, max atom move = 1.52588e-05 8.78742e-08
  Iterations, force evaluations = 5 46

Pair  time (%) = 0.00093183 (4.69982)
Neigh time (%) = 0 (0)
Comm  time (%) = 4.82656e-05 (0.243435)
Outpt time (%) = 0.0187051 (94.3418)
Other time (%) = 0.000141757 (0.714974)

Nlocal:    82 ave 82 max 82 min
Histogram: 1 0 0 0 0 0 0 0 0 0
Nghost:    185 ave 185 max 185 min
Histogram: 1 0 0 0 0 0 0 0 0 0
Neighs:    718 ave 718 max 718 min
Histogram: 1 0 0 0 0 0 0 0 0 0

Total # of neighbors = 718
Ave neighs/atom = 8.7561
Neighbor list builds = 0
Dangerous builds = 0
        # write_dump all atom ${dumpfile}
        next i
jump SELF loop1
        displace_atoms upper move ${xstep1} 0.0 0.0 units lattice
        displace_atoms upper move 0.00333333333333333 0.0 0.0 units lattice
        min_style ${style}
        min_style cg
        minimize ${etol} ${ftol} ${maxiter} ${maxeval}
        minimize 1e-12 ${ftol} ${maxiter} ${maxeval}
        minimize 1e-12 1e-08 ${maxiter} ${maxeval}
        minimize 1e-12 1e-08 10000 ${maxeval}
        minimize 1e-12 1e-08 10000 20000
WARNING: Resetting reneighboring criteria during minimization (../min.cpp:168)
Memory usage per processor = 3.35161 Mbytes
Step Temp PotEng Lx Ly Lz 
     139            0    -241.7878    2.0000005    34.651317    1.0000002 
     140            0   -241.78782    2.0000005    34.651317    1.0000002 
     141            0   -241.78783    2.0000005    34.651317    1.0000002 
     142            0   -241.78784    2.0000005    34.651317    1.0000002 
     143            0   -241.78786    2.0000005    34.651317    1.0000002 
     144            0   -241.78786    2.0000005    34.651317    1.0000002 
     145            0   -241.78787    2.0000005    34.651317    1.0000002 
     146            0   -241.78788    2.0000005    34.651317    1.0000002 
     147            0   -241.78789    2.0000005    34.651317    1.0000002 
     148            0   -241.78789    2.0000005    34.651317    1.0000002 
Loop time of 0.00185291 on 1 procs for 9 steps with 82 atoms

Minimization stats:
  Stopping criterion = linesearch alpha is zero
  Energy initial, next-to-last, final = 
        -241.787804209     -241.787888743     -241.787888743
  Force two-norm initial, final = 0.0783275 0.0205416
  Force max component initial, final = 0.0379433 0.00502111
  Final line search alpha, max atom move = 1.52588e-05 7.6616e-08
  Iterations, force evaluations = 9 78

Pair  time (%) = 0.00155556 (83.9522)
Neigh time (%) = 0 (0)
Comm  time (%) = 9.11443e-05 (4.91899)
Outpt time (%) = 4.84755e-05 (2.61618)
Other time (%) = 0.000157732 (8.51266)

Nlocal:    82 ave 82 max 82 min
Histogram: 1 0 0 0 0 0 0 0 0 0
Nghost:    185 ave 185 max 185 min
Histogram: 1 0 0 0 0 0 0 0 0 0
Neighs:    718 ave 718 max 718 min
Histogram: 1 0 0 0 0 0 0 0 0 0

Total # of neighbors = 718
Ave neighs/atom = 8.7561
Neighbor list builds = 0
Dangerous builds = 0
        # write_dump all atom ${dumpfile}
        next i
jump SELF loop1
        displace_atoms upper move ${xstep1} 0.0 0.0 units lattice
        displace_atoms upper move 0.00333333333333333 0.0 0.0 units lattice
        min_style ${style}
        min_style cg
        minimize ${etol} ${ftol} ${maxiter} ${maxeval}
        minimize 1e-12 ${ftol} ${maxiter} ${maxeval}
        minimize 1e-12 1e-08 ${maxiter} ${maxeval}
        minimize 1e-12 1e-08 10000 ${maxeval}
        minimize 1e-12 1e-08 10000 20000
WARNING: Resetting reneighboring criteria during minimization (../min.cpp:168)
Memory usage per processor = 3.35161 Mbytes
Step Temp PotEng Lx Ly Lz 
     148            0   -241.77813    2.0000005    34.652164    1.0000002 
     149            0   -241.77814    2.0000005    34.652164    1.0000002 
     150            0   -241.77814    2.0000005    34.652164    1.0000002 
Loop time of 0.000683915 on 1 procs for 2 steps with 82 atoms

Minimization stats:
  Stopping criterion = linesearch alpha is zero
  Energy initial, next-to-last, final = 
[...]
        displace_atoms upper move 0.00333333333333333 0.0 0.0 units lattice
        min_style ${style}
        min_style cg
        minimize ${etol} ${ftol} ${maxiter} ${maxeval}
        minimize 1e-12 ${ftol} ${maxiter} ${maxeval}
        minimize 1e-12 1e-08 ${maxiter} ${maxeval}
        minimize 1e-12 1e-08 10000 ${maxeval}
        minimize 1e-12 1e-08 10000 20000
WARNING: Resetting reneighboring criteria during minimization (../min.cpp:168)
Memory usage per processor = 3.35161 Mbytes
Step Temp PotEng Lx Ly Lz 
    1116            0   -241.98258    2.0000005    34.661618    1.0000002 
    1117            0   -241.98258    2.0000005    34.661618    1.0000002 
Loop time of 0.000349957 on 1 procs for 1 steps with 82 atoms

Minimization stats:
  Stopping criterion = linesearch alpha is zero
  Energy initial, next-to-last, final = 
        -241.982582353     -241.982582353     -241.982582353
  Force two-norm initial, final = 0.0756908 0.0756908
  Force max component initial, final = 0.0215711 0.0215711
  Final line search alpha, max atom move = 1.90735e-06 4.11436e-08
  Iterations, force evaluations = 1 20

Pair  time (%) = 0.000295535 (84.449)
Neigh time (%) = 0 (0)
Comm  time (%) = 2.93127e-05 (8.37609)
Outpt time (%) = 0 (0)
Other time (%) = 2.51089e-05 (7.17487)

Nlocal:    82 ave 82 max 82 min
Histogram: 1 0 0 0 0 0 0 0 0 0
Nghost:    185 ave 185 max 185 min
Histogram: 1 0 0 0 0 0 0 0 0 0
Neighs:    718 ave 718 max 718 min
Histogram: 1 0 0 0 0 0 0 0 0 0

Total # of neighbors = 718
Ave neighs/atom = 8.7561
Neighbor list builds = 0
Dangerous builds = 0
        # write_dump all atom ${dumpfile}
        next i
jump SELF loop1
        displace_atoms upper move ${xstep1} 0.0 0.0 units lattice
        displace_atoms upper move 0.00333333333333333 0.0 0.0 units lattice
        min_style ${style}
        min_style cg
        minimize ${etol} ${ftol} ${maxiter} ${maxeval}
        minimize 1e-12 ${ftol} ${maxiter} ${maxeval}
        minimize 1e-12 1e-08 ${maxiter} ${maxeval}
        minimize 1e-12 1e-08 10000 ${maxeval}
        minimize 1e-12 1e-08 10000 20000
WARNING: Resetting reneighboring criteria during minimization (../min.cpp:168)
Memory usage per processor = 3.35161 Mbytes
Step Temp PotEng Lx Ly Lz 
    1117            0   -241.98576    2.0000005    34.661618    1.0000002 
    1118            0   -241.98577    2.0000005    34.661618    1.0000002 
    1119            0   -241.98577    2.0000005    34.661618    1.0000002 
Loop time of 0.000735006 on 1 procs for 2 steps with 82 atoms

Minimization stats:
  Stopping criterion = linesearch alpha is zero
  Energy initial, next-to-last, final = 
        -241.985757288     -241.985765773     -241.985765773
  Force two-norm initial, final = 0.0954439 0.0773086
  Force max component initial, final = 0.0359867 0.0266954
  Final line search alpha, max atom move = 1.90735e-06 5.09174e-08
  Iterations, force evaluations = 2 30

Pair  time (%) = 0.000614588 (83.6168)
Neigh time (%) = 0 (0)
Comm  time (%) = 4.36739e-05 (5.94198)
Outpt time (%) = 1.19162e-05 (1.62123)
Other time (%) = 6.48276e-05 (8.82001)

Nlocal:    82 ave 82 max 82 min
Histogram: 1 0 0 0 0 0 0 0 0 0
Nghost:    185 ave 185 max 185 min
Histogram: 1 0 0 0 0 0 0 0 0 0
Neighs:    718 ave 718 max 718 min
Histogram: 1 0 0 0 0 0 0 0 0 0

Total # of neighbors = 718
Ave neighs/atom = 8.7561
Neighbor list builds = 0
Dangerous builds = 0
        # write_dump all atom ${dumpfile}
        next i
jump SELF loop1
        displace_atoms upper move ${xstep1} 0.0 0.0 units lattice
        displace_atoms upper move 0.00333333333333333 0.0 0.0 units lattice
        min_style ${style}
        min_style cg
        minimize ${etol} ${ftol} ${maxiter} ${maxeval}
        minimize 1e-12 ${ftol} ${maxiter} ${maxeval}
        minimize 1e-12 1e-08 ${maxiter} ${maxeval}
        minimize 1e-12 1e-08 10000 ${maxeval}
        minimize 1e-12 1e-08 10000 20000
WARNING: Resetting reneighboring criteria during minimization (../min.cpp:168)
Memory usage per processor = 3.35161 Mbytes
Step Temp PotEng Lx Ly Lz 
    1119            0   -241.98861    2.0000005    34.661621    1.0000002 
    1120            0   -241.98863    2.0000005    34.661621    1.0000002 
    1121            0   -241.98863    2.0000005    34.661621    1.0000002 
Loop time of 0.000372896 on 1 procs for 2 steps with 82 atoms

Minimization stats:
  Stopping criterion = linesearch alpha is zero
  Energy initial, next-to-last, final = 
        -241.988607179     -241.988626812     -241.988626812
  Force two-norm initial, final = 0.0974818 0.0612077
  Force max component initial, final = 0.039945 0.0193315
  Final line search alpha, max atom move = 1.90735e-06 3.6872e-08
  Iterations, force evaluations = 2 29

Pair  time (%) = 0.00030995 (83.1197)
Neigh time (%) = 0 (0)
Comm  time (%) = 2.82211e-05 (7.56808)
Outpt time (%) = 6.75209e-08 (0.0181072)
Other time (%) = 3.46574e-05 (9.29413)

Nlocal:    82 ave 82 max 82 min
Histogram: 1 0 0 0 0 0 0 0 0 0
Nghost:    185 ave 185 max 185 min
Histogram: 1 0 0 0 0 0 0 0 0 0
Neighs:    718 ave 718 max 718 min
Histogram: 1 0 0 0 0 0 0 0 0 0

Total # of neighbors = 718
Ave neighs/atom = 8.7561
Neighbor list builds = 0
Dangerous builds = 0
        # write_dump all atom ${dumpfile}
        next i
jump SELF loop1
        displace_atoms upper move ${xstep1} 0.0 0.0 units lattice
        displace_atoms upper move 0.00333333333333333 0.0 0.0 units lattice
        min_style ${style}
        min_style cg
        minimize ${etol} ${ftol} ${maxiter} ${maxeval}
        minimize 1e-12 ${ftol} ${maxiter} ${maxeval}
        minimize 1e-12 1e-08 ${maxiter} ${maxeval}
        minimize 1e-12 1e-08 10000 ${maxeval}
        minimize 1e-12 1e-08 10000 20000
WARNING: Resetting reneighboring criteria during minimization (../min.cpp:168)
Memory usage per processor = 3.35161 Mbytes
Step Temp PotEng Lx Ly Lz 
    1121            0   -241.99114    2.0000005    34.661625    1.0000002 
    1122            0   -241.99116    2.0000005    34.661625    1.0000002 
    1123            0   -241.99116    2.0000005    34.661625    1.0000002 
Loop time of 0.000614011 on 1 procs for 2 steps with 82 atoms

Minimization stats:
  Stopping criterion = linesearch alpha is zero
  Energy initial, next-to-last, final = 
        -241.991144299     -241.991161141     -241.991161141
  Force two-norm initial, final = 0.0781599 0.0523519
  Force max component initial, final = 0.031074 0.0156455
  Final line search alpha, max atom move = 3.8147e-06 5.96827e-08
  Iterations, force evaluations = 2 28

Pair  time (%) = 0.000456804 (74.3968)
Neigh time (%) = 0 (0)
Comm  time (%) = 2.89781e-05 (4.71948)
Outpt time (%) = 6.40114e-05 (10.4251)
Other time (%) = 6.42168e-05 (10.4586)

Nlocal:    82 ave 82 max 82 min
Histogram: 1 0 0 0 0 0 0 0 0 0
Nghost:    185 ave 185 max 185 min
Histogram: 1 0 0 0 0 0 0 0 0 0
Neighs:    718 ave 718 max 718 min
Histogram: 1 0 0 0 0 0 0 0 0 0

Total # of neighbors = 718
Ave neighs/atom = 8.7561
Neighbor list builds = 0
Dangerous builds = 0
        # write_dump all atom ${dumpfile}
        next i
jump SELF loop1
        displace_atoms upper move ${xstep1} 0.0 0.0 units lattice
        displace_atoms upper move 0.00333333333333333 0.0 0.0 units lattice
        min_style ${style}
        min_style cg
        minimize ${etol} ${ftol} ${maxiter} ${maxeval}
        minimize 1e-12 ${ftol} ${maxiter} ${maxeval}
        minimize 1e-12 1e-08 ${maxiter} ${maxeval}
        minimize 1e-12 1e-08 10000 ${maxeval}
        minimize 1e-12 1e-08 10000 20000
WARNING: Resetting reneighboring criteria during minimization (../min.cpp:168)
Memory usage per processor = 3.35161 Mbytes
Step Temp PotEng Lx Ly Lz 
    1123            0   -241.99335    2.0000005    34.661626    1.0000002 
    1124            0   -241.99337    2.0000005    34.661626    1.0000002 
    1125            0   -241.99337    2.0000005    34.661626    1.0000002 
Loop time of 0.000700058 on 1 procs for 2 steps with 82 atoms

Minimization stats:
  Stopping criterion = linesearch alpha is zero
  Energy initial, next-to-last, final = 
        -241.993346932      -241.99336573      -241.99336573
  Force two-norm initial, final = 0.0665412 0.0343547
  Force max component initial, final = 0.0258379 0.00854786
  Final line search alpha, max atom move = 7.62939e-06 6.5215e-08
  Iterations, force evaluations = 2 26

Pair  time (%) = 0.000548997 (78.4217)
Neigh time (%) = 0 (0)
Comm  time (%) = 4.72432e-05 (6.74847)
Outpt time (%) = 8.09808e-06 (1.15677)
Other time (%) = 9.57195e-05 (13.6731)

Nlocal:    82 ave 82 max 82 min
Histogram: 1 0 0 0 0 0 0 0 0 0
Nghost:    185 ave 185 max 185 min
Histogram: 1 0 0 0 0 0 0 0 0 0
Neighs:    718 ave 718 max 718 min
Histogram: 1 0 0 0 0 0 0 0 0 0

Total # of neighbors = 718
Ave neighs/atom = 8.7561
Neighbor list builds = 0
Dangerous builds = 0
        # write_dump all atom ${dumpfile}
        next i
jump SELF loop1
        displace_atoms upper move ${xstep1} 0.0 0.0 units lattice
        displace_atoms upper move 0.00333333333333333 0.0 0.0 units lattice
        min_style ${style}
        min_style cg
        minimize ${etol} ${ftol} ${maxiter} ${maxeval}
        minimize 1e-12 ${ftol} ${maxiter} ${maxeval}
        minimize 1e-12 1e-08 ${maxiter} ${maxeval}
        minimize 1e-12 1e-08 10000 ${maxeval}
        minimize 1e-12 1e-08 10000 20000
WARNING: Resetting reneighboring criteria during minimization (../min.cpp:168)
Memory usage per processor = 3.35161 Mbytes
Step Temp PotEng Lx Ly Lz 
    1125            0   -241.99523    2.0000005    34.661624    1.0000002 
    1126            0   -241.99524    2.0000005    34.661624    1.0000002 
    1127            0   -241.99524    2.0000005    34.661624    1.0000002 
    1128            0   -241.99524    2.0000005    34.661624    1.0000002 
    1129            0   -241.99524    2.0000005    34.661624    1.0000002 
Loop time of 0.00110707 on 1 procs for 4 steps with 82 atoms

Minimization stats:
  Stopping criterion = linesearch alpha is zero
  Energy initial, next-to-last, final = 
         -241.99522674     -241.995242849     -241.995242849
  Force two-norm initial, final = 0.0392326 0.0164067
  Force max component initial, final = 0.00955999 0.0032087
  Final line search alpha, max atom move = 3.05176e-05 9.79218e-08
  Iterations, force evaluations = 4 39

Pair  time (%) = 0.000935638 (84.5148)
Neigh time (%) = 0 (0)
Comm  time (%) = 6.21193e-05 (5.61115)
Outpt time (%) = 2.10076e-05 (1.89759)
Other time (%) = 8.83047e-05 (7.97644)

Nlocal:    82 ave 82 max 82 min
Histogram: 1 0 0 0 0 0 0 0 0 0
Nghost:    185 ave 185 max 185 min
Histogram: 1 0 0 0 0 0 0 0 0 0
Neighs:    718 ave 718 max 718 min
Histogram: 1 0 0 0 0 0 0 0 0 0

Total # of neighbors = 718
Ave neighs/atom = 8.7561
Neighbor list builds = 0
Dangerous builds = 0
        # write_dump all atom ${dumpfile}
        next i
jump SELF loop1
        displace_atoms upper move ${xstep1} 0.0 0.0 units lattice
        displace_atoms upper move 0.00333333333333333 0.0 0.0 units lattice
        min_style ${style}
        min_style cg
        minimize ${etol} ${ftol} ${maxiter} ${maxeval}
        minimize 1e-12 ${ftol} ${maxiter} ${maxeval}
        minimize 1e-12 1e-08 ${maxiter} ${maxeval}
        minimize 1e-12 1e-08 10000 ${maxeval}
        minimize 1e-12 1e-08 10000 20000
WARNING: Resetting reneighboring criteria during minimization (../min.cpp:168)
Memory usage per processor = 3.35161 Mbytes
Step Temp PotEng Lx Ly Lz 
    1129            0   -241.99676    2.0000005    34.661542    1.0000002 
    1130            0   -241.99678    2.0000005    34.661542    1.0000002 
    1131            0   -241.99678    2.0000005    34.661542    1.0000002 
Loop time of 0.000502001 on 1 procs for 2 steps with 82 atoms

Minimization stats:
  Stopping criterion = linesearch alpha is zero
  Energy initial, next-to-last, final = 
        -241.996764249     -241.996777759     -241.996777759
  Force two-norm initial, final = 0.0250497 0.0319513
  Force max component initial, final = 0.00991092 0.0125224
  Final line search alpha, max atom move = 3.05176e-05 3.82154e-07
  Iterations, force evaluations = 2 23

Pair  time (%) = 0.000421221 (83.9085)
Neigh time (%) = 0 (0)
Comm  time (%) = 2.70912e-05 (5.39666)
Outpt time (%) = 5.05568e-06 (1.00711)
Other time (%) = 4.86326e-05 (9.68776)

Nlocal:    82 ave 82 max 82 min
Histogram: 1 0 0 0 0 0 0 0 0 0
Nghost:    185 ave 185 max 185 min
Histogram: 1 0 0 0 0 0 0 0 0 0
Neighs:    718 ave 718 max 718 min
Histogram: 1 0 0 0 0 0 0 0 0 0

Total # of neighbors = 718
Ave neighs/atom = 8.7561
Neighbor list builds = 0
Dangerous builds = 0
        # write_dump all atom ${dumpfile}
        next i
jump SELF loop1
        displace_atoms upper move ${xstep1} 0.0 0.0 units lattice
        displace_atoms upper move 0.00333333333333333 0.0 0.0 units lattice
        min_style ${style}
        min_style cg
        minimize ${etol} ${ftol} ${maxiter} ${maxeval}
        minimize 1e-12 ${ftol} ${maxiter} ${maxeval}
        minimize 1e-12 1e-08 ${maxiter} ${maxeval}
        minimize 1e-12 1e-08 10000 ${maxeval}
        minimize 1e-12 1e-08 10000 20000
WARNING: Resetting reneighboring criteria during minimization (../min.cpp:168)
Memory usage per processor = 3.35161 Mbytes
Step Temp PotEng Lx Ly Lz 
    1131            0   -241.99796    2.0000005    34.661484    1.0000002 
    1132            0   -241.99796    2.0000005    34.661484    1.0000002 
Loop time of 0.000336895 on 1 procs for 1 steps with 82 atoms

Minimization stats:
  Stopping criterion = linesearch alpha is zero
  Energy initial, next-to-last, final = 
        -241.997962847     -241.997962847     -241.997962847
  Force two-norm initial, final = 0.0243283 0.0243283
  Force max component initial, final = 0.0072589 0.0072589
  Final line search alpha, max atom move = 1.52588e-05 1.10762e-07
  Iterations, force evaluations = 1 17

Pair  time (%) = 0.000277026 (82.2293)
Neigh time (%) = 0 (0)
Comm  time (%) = 2.14148e-05 (6.35653)
Outpt time (%) = 0 (0)
Other time (%) = 3.84538e-05 (11.4142)

Nlocal:    82 ave 82 max 82 min
Histogram: 1 0 0 0 0 0 0 0 0 0
Nghost:    185 ave 185 max 185 min
Histogram: 1 0 0 0 0 0 0 0 0 0
Neighs:    718 ave 718 max 718 min
Histogram: 1 0 0 0 0 0 0 0 0 0

Total # of neighbors = 718
Ave neighs/atom = 8.7561
Neighbor list builds = 0
Dangerous builds = 0
        # write_dump all atom ${dumpfile}
        next i
jump SELF loop1
        displace_atoms upper move ${xstep1} 0.0 0.0 units lattice
        displace_atoms upper move 0.00333333333333333 0.0 0.0 units lattice
        min_style ${style}
        min_style cg
        minimize ${etol} ${ftol} ${maxiter} ${maxeval}
        minimize 1e-12 ${ftol} ${maxiter} ${maxeval}
        minimize 1e-12 1e-08 ${maxiter} ${maxeval}
        minimize 1e-12 1e-08 10000 ${maxeval}
        minimize 1e-12 1e-08 10000 20000
WARNING: Resetting reneighboring criteria during minimization (../min.cpp:168)
Memory usage per processor = 3.35161 Mbytes
Step Temp PotEng Lx Ly Lz 
    1132            0   -241.99882    2.0000005    34.661484    1.0000002 
    1133            0   -241.99882    2.0000005    34.661484    1.0000002 
    1134            0   -241.99884    2.0000005    34.661484    1.0000002 
    1135            0   -241.99884    2.0000005    34.661484    1.0000002 
    1136            0   -241.99885    2.0000005    34.661484    1.0000002 
    1137            0   -241.99885    2.0000005    34.661484    1.0000002 
Loop time of 0.00106798 on 1 procs for 5 steps with 82 atoms

Minimization stats:
  Stopping criterion = linesearch alpha is zero
  Energy initial, next-to-last, final = 
         -241.99881854     -241.998846367     -241.998846367
  Force two-norm initial, final = 0.0208175 0.0591988
  Force max component initial, final = 0.0072589 0.0221167
  Final line search alpha, max atom move = 1.90735e-06 4.21843e-08
  Iterations, force evaluations = 5 52

Pair  time (%) = 0.000877263 (82.142)
Neigh time (%) = 0 (0)
Comm  time (%) = 5.58363e-05 (5.22819)
Outpt time (%) = 2.0953e-05 (1.96192)
Other time (%) = 0.000113932 (10.6679)

Nlocal:    82 ave 82 max 82 min
Histogram: 1 0 0 0 0 0 0 0 0 0
Nghost:    185 ave 185 max 185 min
Histogram: 1 0 0 0 0 0 0 0 0 0
Neighs:    718 ave 718 max 718 min
Histogram: 1 0 0 0 0 0 0 0 0 0

Total # of neighbors = 718
Ave neighs/atom = 8.7561
Neighbor list builds = 0
Dangerous builds = 0
        # write_dump all atom ${dumpfile}
        next i
jump SELF loop1
        displace_atoms upper move ${xstep1} 0.0 0.0 units lattice
        displace_atoms upper move 0.00333333333333333 0.0 0.0 units lattice
        min_style ${style}
        min_style cg
        minimize ${etol} ${ftol} ${maxiter} ${maxeval}
        minimize 1e-12 ${ftol} ${maxiter} ${maxeval}
        minimize 1e-12 1e-08 ${maxiter} ${maxeval}
        minimize 1e-12 1e-08 10000 ${maxeval}
        minimize 1e-12 1e-08 10000 20000
WARNING: Resetting reneighboring criteria during minimization (../min.cpp:168)
Memory usage per processor = 3.35161 Mbytes
Step Temp PotEng Lx Ly Lz 
    1137            0   -241.99936    2.0000005    34.660648    1.0000002 
    1138            0   -241.99937    2.0000005    34.660648    1.0000002 
    1139            0   -241.99937    2.0000005    34.660648    1.0000002 
Loop time of 0.000572083 on 1 procs for 2 steps with 82 atoms

Minimization stats:
  Stopping criterion = linesearch alpha is zero
  Energy initial, next-to-last, final = 
        -241.999357341     -241.999368239     -241.999368239
  Force two-norm initial, final = 0.0557377 0.029128
  Force max component initial, final = 0.0197351 0.0110256
  Final line search alpha, max atom move = 7.62939e-06 8.41185e-08
  Iterations, force evaluations = 2 26

Pair  time (%) = 0.000478356 (83.6165)
Neigh time (%) = 0 (0)
Comm  time (%) = 3.64308e-05 (6.3681)
Outpt time (%) = 6.06431e-06 (1.06004)
Other time (%) = 5.12321e-05 (8.95536)

Nlocal:    82 ave 82 max 82 min
Histogram: 1 0 0 0 0 0 0 0 0 0
Nghost:    185 ave 185 max 185 min
Histogram: 1 0 0 0 0 0 0 0 0 0
Neighs:    718 ave 718 max 718 min
Histogram: 1 0 0 0 0 0 0 0 0 0

Total # of neighbors = 718
Ave neighs/atom = 8.7561
Neighbor list builds = 0
Dangerous builds = 0
        # write_dump all atom ${dumpfile}
        next i
jump SELF loop1
        displace_atoms upper move ${xstep1} 0.0 0.0 units lattice
        displace_atoms upper move 0.00333333333333333 0.0 0.0 units lattice
        min_style ${style}
        min_style cg
        minimize ${etol} ${ftol} ${maxiter} ${maxeval}
        minimize 1e-12 ${ftol} ${maxiter} ${maxeval}
        minimize 1e-12 1e-08 ${maxiter} ${maxeval}
        minimize 1e-12 1e-08 10000 ${maxeval}
        minimize 1e-12 1e-08 10000 20000
WARNING: Resetting reneighboring criteria during minimization (../min.cpp:168)
Memory usage per processor = 3.35161 Mbytes
Step Temp PotEng Lx Ly Lz 
    1139            0   -241.99953    2.0000005    34.660615    1.0000002 
    1140            0   -241.99953    2.0000005    34.660615    1.0000002 
Loop time of 0.000386079 on 1 procs for 1 steps with 82 atoms

Minimization stats:
  Stopping criterion = linesearch alpha is zero
  Energy initial, next-to-last, final = 
        -241.999533036     -241.999533036     -241.999533036
  Force two-norm initial, final = 0.0292983 0.0292983
  Force max component initial, final = 0.0110256 0.0110256
  Final line search alpha, max atom move = 7.62939e-06 8.41185e-08
  Iterations, force evaluations = 1 18

Pair  time (%) = 0.000306844 (79.4769)
Neigh time (%) = 0 (0)
Comm  time (%) = 2.51074e-05 (6.50318)
Outpt time (%) = 0 (0)
Other time (%) = 5.41278e-05 (14.0199)

Nlocal:    82 ave 82 max 82 min
Histogram: 1 0 0 0 0 0 0 0 0 0
Nghost:    185 ave 185 max 185 min
Histogram: 1 0 0 0 0 0 0 0 0 0
Neighs:    718 ave 718 max 718 min
Histogram: 1 0 0 0 0 0 0 0 0 0

Total # of neighbors = 718
Ave neighs/atom = 8.7561
Neighbor list builds = 0
Dangerous builds = 0
        # write_dump all atom ${dumpfile}
        next i
jump SELF loop1


