LAMMPS (28 Jun 2014)
# attempt at getting GSF energy

#file prefix
variable prefix string gsf_V_brittle_3d
variable dumpfile string ${prefix}.*.dump
variable dumpfile string gsf_V_brittle_3d.*.dump
variable restartfile string ${prefix}.*.equil
variable restartfile string gsf_V_brittle_3d.*.equil

#Mass (g/mol)
variable m equal 1.0

# lattice constant (in Angstroms) and orientation of axes (given by lattice vectors)
variable rho equal 1.0
variable x1 equal 1
variable x2 equal -2
variable x3 equal 1
variable y1 equal 1
variable y2 equal 1
variable y3 equal 1
variable z1 equal -1
variable z2 equal 0
variable z3 equal 1
# length of lattice in different directions (using orientation of lattice vectors)
variable ax equal sqrt(${x1}*${x1}+${x2}*${x2}+${x3}*${x3})
variable ax equal sqrt(1*${x1}+${x2}*${x2}+${x3}*${x3})
variable ax equal sqrt(1*1+${x2}*${x2}+${x3}*${x3})
variable ax equal sqrt(1*1+-2*${x2}+${x3}*${x3})
variable ax equal sqrt(1*1+-2*-2+${x3}*${x3})
variable ax equal sqrt(1*1+-2*-2+1*${x3})
variable ax equal sqrt(1*1+-2*-2+1*1)
variable ay equal sqrt(${y1}*${y1}+${y2}*${y2}+${y3}*${y3})
variable ay equal sqrt(1*${y1}+${y2}*${y2}+${y3}*${y3})
variable ay equal sqrt(1*1+${y2}*${y2}+${y3}*${y3})
variable ay equal sqrt(1*1+1*${y2}+${y3}*${y3})
variable ay equal sqrt(1*1+1*1+${y3}*${y3})
variable ay equal sqrt(1*1+1*1+1*${y3})
variable ay equal sqrt(1*1+1*1+1*1)
variable az equal sqrt(${z1}*${z1}+${z2}*${z2}+${z3}*${z3})
variable az equal sqrt(-1*${z1}+${z2}*${z2}+${z3}*${z3})
variable az equal sqrt(-1*-1+${z2}*${z2}+${z3}*${z3})
variable az equal sqrt(-1*-1+0*${z2}+${z3}*${z3})
variable az equal sqrt(-1*-1+0*0+${z3}*${z3})
variable az equal sqrt(-1*-1+0*0+1*${z3})
variable az equal sqrt(-1*-1+0*0+1*1)

# size of box in lattice units
variable lxpos equal 2
variable lxneg equal 0
variable lypos equal 15
variable lyneg equal -1*${lypos}
variable lyneg equal -1*15
variable lzpos equal 2
variable lzneg equal 0

# Define minimization parameters and damping
variable etol equal 1.0e-12
variable ftol equal 1.0e-8
variable maxiter equal 10000
variable maxeval equal 20000
variable style string hftn

# boundary conditions
dimension	3
boundary	p s p
atom_style	atomic

# create geometry
units		lj
lattice         fcc ${rho} orient x ${x1} ${x2} ${x3} orient y ${y1} ${y2} ${y3} orient z ${z1} ${z2} ${z3} spacing ${ax} ${ay} ${az}
lattice         fcc 1 orient x ${x1} ${x2} ${x3} orient y ${y1} ${y2} ${y3} orient z ${z1} ${z2} ${z3} spacing ${ax} ${ay} ${az}
lattice         fcc 1 orient x 1 ${x2} ${x3} orient y ${y1} ${y2} ${y3} orient z ${z1} ${z2} ${z3} spacing ${ax} ${ay} ${az}
lattice         fcc 1 orient x 1 -2 ${x3} orient y ${y1} ${y2} ${y3} orient z ${z1} ${z2} ${z3} spacing ${ax} ${ay} ${az}
lattice         fcc 1 orient x 1 -2 1 orient y ${y1} ${y2} ${y3} orient z ${z1} ${z2} ${z3} spacing ${ax} ${ay} ${az}
lattice         fcc 1 orient x 1 -2 1 orient y 1 ${y2} ${y3} orient z ${z1} ${z2} ${z3} spacing ${ax} ${ay} ${az}
lattice         fcc 1 orient x 1 -2 1 orient y 1 1 ${y3} orient z ${z1} ${z2} ${z3} spacing ${ax} ${ay} ${az}
lattice         fcc 1 orient x 1 -2 1 orient y 1 1 1 orient z ${z1} ${z2} ${z3} spacing ${ax} ${ay} ${az}
lattice         fcc 1 orient x 1 -2 1 orient y 1 1 1 orient z -1 ${z2} ${z3} spacing ${ax} ${ay} ${az}
lattice         fcc 1 orient x 1 -2 1 orient y 1 1 1 orient z -1 0 ${z3} spacing ${ax} ${ay} ${az}
lattice         fcc 1 orient x 1 -2 1 orient y 1 1 1 orient z -1 0 1 spacing ${ax} ${ay} ${az}
lattice         fcc 1 orient x 1 -2 1 orient y 1 1 1 orient z -1 0 1 spacing 2.44948974278318 ${ay} ${az}
lattice         fcc 1 orient x 1 -2 1 orient y 1 1 1 orient z -1 0 1 spacing 2.44948974278318 1.73205080756888 ${az}
lattice         fcc 1 orient x 1 -2 1 orient y 1 1 1 orient z -1 0 1 spacing 2.44948974278318 1.73205080756888 1.4142135623731
Lattice spacing in x,y,z = 3.88832 2.74946 2.24492
region		myregion block ${lxneg} ${lxpos} ${lyneg} ${lypos} ${lzneg} ${lzpos} units lattice
region		myregion block 0 ${lxpos} ${lyneg} ${lypos} ${lzneg} ${lzpos} units lattice
region		myregion block 0 2 ${lyneg} ${lypos} ${lzneg} ${lzpos} units lattice
region		myregion block 0 2 -15 ${lypos} ${lzneg} ${lzpos} units lattice
region		myregion block 0 2 -15 15 ${lzneg} ${lzpos} units lattice
region		myregion block 0 2 -15 15 0 ${lzpos} units lattice
region		myregion block 0 2 -15 15 0 2 units lattice
create_box	1 myregion
Created orthogonal box = (0 -41.2419 0) to (7.77665 41.2419 4.48985)
  1 by 1 by 1 MPI processor grid
create_atoms	1 box
Created 2912 atoms

# define masses
mass * $m
mass * 1

# my fake/morse potential
pair_style      table linear 3001
pair_coeff      * * vpotential_inter33d dummy
neighbor	0.3 bin
neigh_modify	delay 5

# define groups. Nudge to separate planes cleanly
region	    upper block INF INF 0.01 ${lypos} INF INF units lattice
region	    upper block INF INF 0.01 15 INF INF units lattice
group		upper region upper
1440 atoms in group upper

# Setup output
thermo 1
thermo_style custom step temp pe lx ly lz
thermo_modify norm no

# Compute initial state by relaxing box
min_style ${style}
min_style hftn
minimize ${etol} ${ftol} ${maxiter} ${maxeval}
minimize 1e-12 ${ftol} ${maxiter} ${maxeval}
minimize 1e-12 1e-08 ${maxiter} ${maxeval}
minimize 1e-12 1e-08 10000 ${maxeval}
minimize 1e-12 1e-08 10000 20000
WARNING: Resetting reneighboring criteria during minimization (../min.cpp:168)
Memory usage per processor = 5.28939 Mbytes
Step Temp PotEng Lx Ly Lz 
       0            0   -17375.986    7.7766452    82.500275    4.4898482 
       1            0   -17375.986    7.7766452    82.500275    4.4898482 
       2            0   -17375.986    7.7766452    82.500275    4.4898482 
Loop time of 1.42928 on 1 procs for 1 steps with 2912 atoms

Minimization stats:
  Stopping criterion = force tolerance
  Energy initial, next-to-last, final = 
        -17375.9855515     -17375.9855515     -17375.9858427
  Force two-norm initial, final = 0.00252636 4.78485e-12
  Force max component initial, final = 0.000315795 3.56737e-13
  Final line search alpha, max atom move = 0 0
  Iterations, force evaluations = 1 629

Pair  time (%) = 1.31165 (91.77)
Neigh time (%) = 0 (0)
Comm  time (%) = 0.0247317 (1.73036)
Outpt time (%) = 9.99063e-05 (0.00699)
Other time (%) = 0.0927982 (6.49267)

Nlocal:    2912 ave 2912 max 2912 min
Histogram: 1 0 0 0 0 0 0 0 0 0
Nghost:    7129 ave 7129 max 7129 min
Histogram: 1 0 0 0 0 0 0 0 0 0
Neighs:    77856 ave 77856 max 77856 min
Histogram: 1 0 0 0 0 0 0 0 0 0

Total # of neighbors = 77856
Ave neighs/atom = 26.7363
Neighbor list builds = 0
Dangerous builds = 0

# don't allow atoms to relax in x- and y-directions
fix 2 all setforce 0.0 NULL 0.0

# GSF energy curve will have 100*2 steps
variable nsteps equal 100
# first partial is parallel to x-axis
variable angle1 equal 0
# second partial is at 60 degrees to first partial
variable angle2 equal PI/180*60
# partial dislocations have length a*sqrt(6)/6
variable sstep1 equal sqrt(6)/6
variable sstep2 equal sqrt(6)/6
variable xstep1 equal cos(${angle1})*${sstep1}/(${ax}*${nsteps})
variable xstep1 equal cos(0)*${sstep1}/(${ax}*${nsteps})
variable xstep1 equal cos(0)*0.408248290463863/(${ax}*${nsteps})
variable xstep1 equal cos(0)*0.408248290463863/(2.44948974278318*${nsteps})
variable xstep1 equal cos(0)*0.408248290463863/(2.44948974278318*100)
variable zstep1 equal sin(${angle1})*${sstep1}/(${az}*${nsteps})
variable zstep1 equal sin(0)*${sstep1}/(${az}*${nsteps})
variable zstep1 equal sin(0)*0.408248290463863/(${az}*${nsteps})
variable zstep1 equal sin(0)*0.408248290463863/(1.4142135623731*${nsteps})
variable zstep1 equal sin(0)*0.408248290463863/(1.4142135623731*100)
variable xstep2 equal cos(${angle2})*${sstep2}/(${ax}*${nsteps})
variable xstep2 equal cos(1.0471975511966)*${sstep2}/(${ax}*${nsteps})
variable xstep2 equal cos(1.0471975511966)*0.408248290463863/(${ax}*${nsteps})
variable xstep2 equal cos(1.0471975511966)*0.408248290463863/(2.44948974278318*${nsteps})
variable xstep2 equal cos(1.0471975511966)*0.408248290463863/(2.44948974278318*100)
variable zstep2 equal sin(${angle2})*${sstep2}/(${az}*${nsteps})
variable zstep2 equal sin(1.0471975511966)*${sstep2}/(${az}*${nsteps})
variable zstep2 equal sin(1.0471975511966)*0.408248290463863/(${az}*${nsteps})
variable zstep2 equal sin(1.0471975511966)*0.408248290463863/(1.4142135623731*${nsteps})
variable zstep2 equal sin(1.0471975511966)*0.408248290463863/(1.4142135623731*100)

variable i loop ${nsteps}
variable i loop 100
label loop1
        displace_atoms upper move ${xstep1} 0.0 ${zstep1} units lattice
        displace_atoms upper move 0.00166666666666667 0.0 ${zstep1} units lattice
        displace_atoms upper move 0.00166666666666667 0.0 0 units lattice
        min_style ${style}
        min_style hftn
        minimize ${etol} ${ftol} ${maxiter} ${maxeval}
        minimize 1e-12 ${ftol} ${maxiter} ${maxeval}
        minimize 1e-12 1e-08 ${maxiter} ${maxeval}
        minimize 1e-12 1e-08 10000 ${maxeval}
        minimize 1e-12 1e-08 10000 20000
WARNING: Resetting reneighboring criteria during minimization (../min.cpp:168)
Memory usage per processor = 5.28939 Mbytes
Step Temp PotEng Lx Ly Lz 
       2            0   -17375.958    7.7766452    82.500442    4.4898482 
       3            0   -17375.958    7.7766452    82.500442    4.4898482 
       4            0   -17375.958    7.7766452    82.500442    4.4898482 
       5            0   -17375.958    7.7766452    82.500442    4.4898482 
       6            0   -17375.958    7.7766452    82.500442    4.4898482 
       7            0   -17375.958    7.7766452    82.500442    4.4898482 
       8            0   -17375.958    7.7766452    82.500442    4.4898482 
       9            0   -17375.958    7.7766452    82.500442    4.4898482 
Loop time of 0.1573 on 1 procs for 6 steps with 2912 atoms

Minimization stats:
  Stopping criterion = energy tolerance
  Energy initial, next-to-last, final = 
        -17375.9576916     -17375.9576916     -17375.9576916
  Force two-norm initial, final = 0.0967175 0.0967002
  Force max component initial, final = 0.0120897 0.0120875
  Final line search alpha, max atom move = 0 0
  Iterations, force evaluations = 6 65

Pair  time (%) = 0.143115 (90.9824)
Neigh time (%) = 0 (0)
Comm  time (%) = 0.00629012 (3.99881)
Outpt time (%) = 0.000552992 (0.351553)
Other time (%) = 0.00734162 (4.66727)

Nlocal:    2912 ave 2912 max 2912 min
Histogram: 1 0 0 0 0 0 0 0 0 0
Nghost:    7129 ave 7129 max 7129 min
Histogram: 1 0 0 0 0 0 0 0 0 0
Neighs:    77856 ave 77856 max 77856 min
Histogram: 1 0 0 0 0 0 0 0 0 0

Total # of neighbors = 77856
Ave neighs/atom = 26.7363
Neighbor list builds = 0
Dangerous builds = 0
        next i
jump SELF loop1
        displace_atoms upper move ${xstep1} 0.0 ${zstep1} units lattice
        displace_atoms upper move 0.00166666666666667 0.0 ${zstep1} units lattice
        displace_atoms upper move 0.00166666666666667 0.0 0 units lattice
        min_style ${style}
        min_style hftn
        minimize ${etol} ${ftol} ${maxiter} ${maxeval}
        minimize 1e-12 ${ftol} ${maxiter} ${maxeval}
        minimize 1e-12 1e-08 ${maxiter} ${maxeval}
        minimize 1e-12 1e-08 10000 ${maxeval}
        minimize 1e-12 1e-08 10000 20000
WARNING: Resetting reneighboring criteria during minimization (../min.cpp:168)
Memory usage per processor = 5.28939 Mbytes
Step Temp PotEng Lx Ly Lz 
       9            0   -17375.875    7.7766452    82.500442    4.4898482 
      10            0   -17375.875    7.7766452    82.500442    4.4898482 
      11            0   -17375.875    7.7766452    82.500442    4.4898482 
      12            0   -17375.875    7.7766452    82.500442    4.4898482 
      13            0   -17375.875    7.7766452    82.500442    4.4898482 
      14            0   -17375.875    7.7766452    82.500442    4.4898482 
      15            0   -17375.875    7.7766452    82.500442    4.4898482 
      16            0   -17375.875    7.7766452    82.500442    4.4898482 
      17            0   -17375.875    7.7766452    82.500442    4.4898482 
      18            0   -17375.875    7.7766452    82.500442    4.4898482 
      19            0   -17375.875    7.7766452    82.500442    4.4898482 
Loop time of 0.181534 on 1 procs for 9 steps with 2912 atoms

Minimization stats:
  Stopping criterion = energy tolerance
  Energy initial, next-to-last, final = 
        -17375.8752298     -17375.8752972     -17375.8753178
  Force two-norm initial, final = 0.379021 0.0896676
  Force max component initial, final = 0.0473777 0.0103845
  Final line search alpha, max atom move = 0 0
  Iterations, force evaluations = 9 72

Pair  time (%) = 0.160533 (88.4316)
Neigh time (%) = 0 (0)
Comm  time (%) = 0.00925746 (5.09957)
Outpt time (%) = 0.00333962 (1.83967)
Other time (%) = 0.0084035 (4.62916)

Nlocal:    2912 ave 2912 max 2912 min
Histogram: 1 0 0 0 0 0 0 0 0 0
Nghost:    7129 ave 7129 max 7129 min
Histogram: 1 0 0 0 0 0 0 0 0 0
Neighs:    77856 ave 77856 max 77856 min
Histogram: 1 0 0 0 0 0 0 0 0 0

Total # of neighbors = 77856
Ave neighs/atom = 26.7363
Neighbor list builds = 0
Dangerous builds = 0
        next i
jump SELF loop1
        displace_atoms upper move ${xstep1} 0.0 ${zstep1} units lattice
        displace_atoms upper move 0.00166666666666667 0.0 ${zstep1} units lattice
        displace_atoms upper move 0.00166666666666667 0.0 0 units lattice
        min_style ${style}
        min_style hftn
        minimize ${etol} ${ftol} ${maxiter} ${maxeval}
        minimize 1e-12 ${ftol} ${maxiter} ${maxeval}
        minimize 1e-12 1e-08 ${maxiter} ${maxeval}
        minimize 1e-12 1e-08 10000 ${maxeval}
        minimize 1e-12 1e-08 10000 20000
WARNING: Resetting reneighboring criteria during minimization (../min.cpp:168)
Memory usage per processor = 5.28939 Mbytes
Step Temp PotEng Lx Ly Lz 
      19            0   -17375.741    7.7766452    82.500442    4.4898482 
      20            0   -17375.741    7.7766452    82.500442    4.4898482 
      21            0   -17375.741    7.7766452    82.500442    4.4898482 
      22            0   -17375.741    7.7766452    82.500442    4.4898482 
      23            0   -17375.741    7.7766452    82.500442    4.4898482 
      24            0   -17375.741    7.7766452    82.500442    4.4898482 
      25            0   -17375.741    7.7766452    82.500442    4.4898482 
      26            0   -17375.741    7.7766452    82.500442    4.4898482 
      27            0   -17375.741    7.7766452    82.500442    4.4898482 
      28            0   -17375.741    7.7766452    82.500442    4.4898482 
Loop time of 0.191409 on 1 procs for 8 steps with 2912 atoms

Minimization stats:
  Stopping criterion = energy tolerance
  Energy initial, next-to-last, final = 
        -17375.7411028     -17375.7411028     -17375.7411027
  Force two-norm initial, final = 0.49275 0.492724
  Force max component initial, final = 0.0606575 0.060654
  Final line search alpha, max atom move = 0 0
  Iterations, force evaluations = 8 75

Pair  time (%) = 0.178366 (93.1857)
Neigh time (%) = 0 (0)
Comm  time (%) = 0.00344487 (1.79974)
Outpt time (%) = 0.000673221 (0.351719)
Other time (%) = 0.00892517 (4.66288)

Nlocal:    2912 ave 2912 max 2912 min
Histogram: 1 0 0 0 0 0 0 0 0 0
Nghost:    7129 ave 7129 max 7129 min
Histogram: 1 0 0 0 0 0 0 0 0 0
Neighs:    77856 ave 77856 max 77856 min
Histogram: 1 0 0 0 0 0 0 0 0 0

Total # of neighbors = 77856
Ave neighs/atom = 26.7363
Neighbor list builds = 0
Dangerous builds = 0
        next i
jump SELF loop1
        displace_atoms upper move ${xstep1} 0.0 ${zstep1} units lattice
        displace_atoms upper move 0.00166666666666667 0.0 ${zstep1} units lattice
        displace_atoms upper move 0.00166666666666667 0.0 0 units lattice
        min_style ${style}
        min_style hftn
        minimize ${etol} ${ftol} ${maxiter} ${maxeval}
        minimize 1e-12 ${ftol} ${maxiter} ${maxeval}
        minimize 1e-12 1e-08 ${maxiter} ${maxeval}
        minimize 1e-12 1e-08 10000 ${maxeval}
        minimize 1e-12 1e-08 10000 20000
WARNING: Resetting reneighboring criteria during minimization (../min.cpp:168)
Memory usage per processor = 5.28939 Mbytes
Step Temp PotEng Lx Ly Lz 
      28            0   -17375.557    7.7766452    82.500442    4.4898482 
      29            0   -17375.558    7.7766452    82.500442    4.4898482 
      30            0    -17375.56    7.7766452    82.500442    4.4898482 
      31            0    -17375.56    7.7766452    82.500442    4.4898482 
      32            0    -17375.56    7.7766452    82.500442    4.4898482 
Loop time of 1.39209 on 1 procs for 3 steps with 2912 atoms

Minimization stats:
  Stopping criterion = force tolerance
  Energy initial, next-to-last, final = 
        -17375.5573507     -17375.5596613     -17375.5596792
  Force two-norm initial, final = 1.11464 9.44928e-12
  Force max component initial, final = 0.138919 1.16688e-12
  Final line search alpha, max atom move = 0 0
  Iterations, force evaluations = 3 621

Pair  time (%) = 1.27347 (91.4786)
Neigh time (%) = 0 (0)
Comm  time (%) = 0.0237677 (1.70734)
Outpt time (%) = 0.00051493 (0.0369896)
Other time (%) = 0.0943426 (6.77704)

Nlocal:    2912 ave 2912 max 2912 min
Histogram: 1 0 0 0 0 0 0 0 0 0
Nghost:    7129 ave 7129 max 7129 min
Histogram: 1 0 0 0 0 0 0 0 0 0
Neighs:    77856 ave 77856 max 77856 min
Histogram: 1 0 0 0 0 0 0 0 0 0

Total # of neighbors = 77856
Ave neighs/atom = 26.7363
Neighbor list builds = 0
Dangerous builds = 0
        next i
jump SELF loop1
        displace_atoms upper move ${xstep1} 0.0 ${zstep1} units lattice
        displace_atoms upper move 0.00166666666666667 0.0 ${zstep1} units lattice
        displace_atoms upper move 0.00166666666666667 0.0 0 units lattice
        min_style ${style}
        min_style hftn
        minimize ${etol} ${ftol} ${maxiter} ${maxeval}
        minimize 1e-12 ${ftol} ${maxiter} ${maxeval}
        minimize 1e-12 1e-08 ${maxiter} ${maxeval}
        minimize 1e-12 1e-08 10000 ${maxeval}
        minimize 1e-12 1e-08 10000 20000
WARNING: Resetting reneighboring criteria during minimization (../min.cpp:168)
Memory usage per processor = 5.28939 Mbytes
Step Temp PotEng Lx Ly Lz 
      32            0   -17375.331    7.7766452     82.50152    4.4898482 
      33            0   -17375.332    7.7766452     82.50152    4.4898482 
      34            0   -17375.332    7.7766452     82.50152    4.4898482 
      35            0   -17375.332    7.7766452     82.50152    4.4898482 
      36            0   -17375.332    7.7766452     82.50152    4.4898482 
Loop time of 1.15447 on 1 procs for 3 steps with 2912 atoms

Minimization stats:
  Stopping criterion = force tolerance
  Energy initial, next-to-last, final = 
         -17375.331427     -17375.3323551     -17375.3323652
  Force two-norm initial, final = 0.776226 1.00969e-11
  Force max component initial, final = 0.0970283 1.94251e-12
  Final line search alpha, max atom move = 0 0
  Iterations, force evaluations = 3 515

Pair  time (%) = 1.05777 (91.6238)
Neigh time (%) = 0 (0)
Comm  time (%) = 0.0223801 (1.93857)
Outpt time (%) = 0.000280979 (0.0243384)
Other time (%) = 0.0740389 (6.41325)

Nlocal:    2912 ave 2912 max 2912 min
Histogram: 1 0 0 0 0 0 0 0 0 0
Nghost:    7009 ave 7009 max 7009 min
Histogram: 1 0 0 0 0 0 0 0 0 0
Neighs:    77856 ave 77856 max 77856 min
Histogram: 1 0 0 0 0 0 0 0 0 0

Total # of neighbors = 77856
Ave neighs/atom = 26.7363
Neighbor list builds = 0
Dangerous builds = 0
        next i
jump SELF loop1
        displace_atoms upper move ${xstep1} 0.0 ${zstep1} units lattice
        displace_atoms upper move 0.00166666666666667 0.0 ${zstep1} units lattice
        displace_atoms upper move 0.00166666666666667 0.0 0 units lattice
        min_style ${style}
        min_style hftn
        minimize ${etol} ${ftol} ${maxiter} ${maxeval}
        minimize 1e-12 ${ftol} ${maxiter} ${maxeval}
        minimize 1e-12 1e-08 ${maxiter} ${maxeval}
        minimize 1e-12 1e-08 10000 ${maxeval}
        minimize 1e-12 1e-08 10000 20000
WARNING: Resetting reneighboring criteria during minimization (../min.cpp:168)
Memory usage per processor = 5.28939 Mbytes
Step Temp PotEng Lx Ly Lz 
      36            0   -17375.062    7.7766452    82.502093    4.4898482 
      37            0   -17375.062    7.7766452    82.502093    4.4898482 
      38            0   -17375.063    7.7766452    82.502093    4.4898482 
      39            0   -17375.063    7.7766452    82.502093    4.4898482 
      40            0   -17375.063    7.7766452    82.502093    4.4898482 
Loop time of 1.10254 on 1 procs for 3 steps with 2912 atoms

Minimization stats:
  Stopping criterion = force tolerance
  Energy initial, next-to-last, final = 
        -17375.0618854     -17375.0631337     -17375.0631478
  Force two-norm initial, final = 0.917572 2.40559e-11
  Force max component initial, final = 0.114697 2.45732e-12
  Final line search alpha, max atom move = 0 0
  Iterations, force evaluations = 3 491

Pair  time (%) = 1.00749 (91.3786)
Neigh time (%) = 0 (0)
Comm  time (%) = 0.0207451 (1.88156)
Outpt time (%) = 0.000317998 (0.0288422)
Other time (%) = 0.0739917 (6.71099)

Nlocal:    2912 ave 2912 max 2912 min
Histogram: 1 0 0 0 0 0 0 0 0 0
Nghost:    7009 ave 7009 max 7009 min
Histogram: 1 0 0 0 0 0 0 0 0 0
Neighs:    77856 ave 77856 max 77856 min
Histogram: 1 0 0 0 0 0 0 0 0 0

Total # of neighbors = 77856
Ave neighs/atom = 26.7363
Neighbor list builds = 0
Dangerous builds = 0
        next i
jump SELF loop1
        displace_atoms upper move ${xstep1} 0.0 ${zstep1} units lattice
        displace_atoms upper move 0.00166666666666667 0.0 ${zstep1} units lattice
        displace_atoms upper move 0.00166666666666667 0.0 0 units lattice
        min_style ${style}
        min_style hftn
        minimize ${etol} ${ftol} ${maxiter} ${maxeval}
        minimize 1e-12 ${ftol} ${maxiter} ${maxeval}
        minimize 1e-12 1e-08 ${maxiter} ${maxeval}
        minimize 1e-12 1e-08 10000 ${maxeval}
        minimize 1e-12 1e-08 10000 20000
WARNING: Resetting reneighboring criteria during minimization (../min.cpp:168)
Memory usage per processor = 5.28939 Mbytes
Step Temp PotEng Lx Ly Lz 
      40            0   -17374.754    7.7766452    82.502771    4.4898482 
      41            0   -17374.754    7.7766452    82.502771    4.4898482 
      42            0   -17374.755    7.7766452    82.502771    4.4898482 
      43            0   -17374.755    7.7766452    82.502771    4.4898482 
      44            0   -17374.755    7.7766452    82.502771    4.4898482 
Loop time of 1.10153 on 1 procs for 3 steps with 2912 atoms

Minimization stats:
  Stopping criterion = force tolerance
  Energy initial, next-to-last, final = 
        -17374.7537828     -17374.7554163     -17374.7554324
  Force two-norm initial, final = 1.04692 3.76544e-11
  Force max component initial, final = 0.130864 2.42986e-12
  Final line search alpha, max atom move = 0 0
  Iterations, force evaluations = 3 491

Pair  time (%) = 1.01118 (91.797)
Neigh time (%) = 0 (0)
Comm  time (%) = 0.0188196 (1.70849)
Outpt time (%) = 0.00053606 (0.0486649)
Other time (%) = 0.0710028 (6.44581)

Nlocal:    2912 ave 2912 max 2912 min
Histogram: 1 0 0 0 0 0 0 0 0 0
Nghost:    7009 ave 7009 max 7009 min
Histogram: 1 0 0 0 0 0 0 0 0 0
Neighs:    77856 ave 77856 max 77856 min
Histogram: 1 0 0 0 0 0 0 0 0 0

Total # of neighbors = 77856
Ave neighs/atom = 26.7363
Neighbor list builds = 0
Dangerous builds = 0
        next i
jump SELF loop1
        displace_atoms upper move ${xstep1} 0.0 ${zstep1} units lattice
        displace_atoms upper move 0.00166666666666667 0.0 ${zstep1} units lattice
        displace_atoms upper move 0.00166666666666667 0.0 0 units lattice
        min_style ${style}
        min_style hftn
        minimize ${etol} ${ftol} ${maxiter} ${maxeval}
        minimize 1e-12 ${ftol} ${maxiter} ${maxeval}
        minimize 1e-12 1e-08 ${maxiter} ${maxeval}
        minimize 1e-12 1e-08 10000 ${maxeval}
        minimize 1e-12 1e-08 10000 20000
WARNING: Resetting reneighboring criteria during minimization (../min.cpp:168)
Memory usage per processor = 5.28939 Mbytes
Step Temp PotEng Lx Ly Lz 
      44            0   -17374.411    7.7766452    82.503545    4.4898482 
      45            0   -17374.411    7.7766452    82.503545    4.4898482 
      46            0   -17374.413    7.7766452    82.503545    4.4898482 
      47            0   -17374.413    7.7766452    82.503545    4.4898482 
      48            0   -17374.413    7.7766452    82.503545    4.4898482 
Loop time of 1.09418 on 1 procs for 3 steps with 2912 atoms

Minimization stats:
  Stopping criterion = force tolerance
  Energy initial, next-to-last, final = 
        -17374.4107647     -17374.4125878     -17374.4126057
  Force two-norm initial, final = 1.16316 8.16977e-11
  Force max component initial, final = 0.145395 6.74046e-12
  Final line search alpha, max atom move = 0 0
  Iterations, force evaluations = 3 487

Pair  time (%) = 1.00391 (91.7506)
Neigh time (%) = 0 (0)
Comm  time (%) = 0.0182538 (1.66827)
Outpt time (%) = 0.000272854 (0.024937)
Other time (%) = 0.0717363 (6.5562)

Nlocal:    2912 ave 2912 max 2912 min
Histogram: 1 0 0 0 0 0 0 0 0 0
Nghost:    7009 ave 7009 max 7009 min
Histogram: 1 0 0 0 0 0 0 0 0 0
Neighs:    77856 ave 77856 max 77856 min
Histogram: 1 0 0 0 0 0 0 0 0 0

Total # of neighbors = 77856
Ave neighs/atom = 26.7363
Neighbor list builds = 0
Dangerous builds = 0
        next i
jump SELF loop1
        displace_atoms upper move ${xstep1} 0.0 ${zstep1} units lattice
        displace_atoms upper move 0.00166666666666667 0.0 ${zstep1} units lattice
        displace_atoms upper move 0.00166666666666667 0.0 0 units lattice
        min_style ${style}
        min_style hftn
        minimize ${etol} ${ftol} ${maxiter} ${maxeval}
        minimize 1e-12 ${ftol} ${maxiter} ${maxeval}
        minimize 1e-12 1e-08 ${maxiter} ${maxeval}
        minimize 1e-12 1e-08 10000 ${maxeval}
        minimize 1e-12 1e-08 10000 20000
WARNING: Resetting reneighboring criteria during minimization (../min.cpp:168)
Memory usage per processor = 5.28939 Mbytes
Step Temp PotEng Lx Ly Lz 
      48            0   -17374.036    7.7766452    82.504406    4.4898482 
      49            0   -17374.037    7.7766452    82.504406    4.4898482 
      50            0   -17374.038    7.7766452    82.504406    4.4898482 
      51            0   -17374.038    7.7766452    82.504406    4.4898482 
      52            0   -17374.038    7.7766452    82.504406    4.4898482 
Loop time of 1.08979 on 1 procs for 3 steps with 2912 atoms

Minimization stats:
  Stopping criterion = force tolerance
  Energy initial, next-to-last, final = 
         -17374.035532     -17374.0381066     -17374.0381261
  Force two-norm initial, final = 1.26932 9.25203e-11
  Force max component initial, final = 0.158665 6.06092e-12
  Final line search alpha, max atom move = 0 0
  Iterations, force evaluations = 3 487

Pair  time (%) = 0.995821 (91.3774)
Neigh time (%) = 0 (0)
Comm  time (%) = 0.0193721 (1.7776)
Outpt time (%) = 0.000307003 (0.0281709)
Other time (%) = 0.0742889 (6.81682)

Nlocal:    2912 ave 2912 max 2912 min
Histogram: 1 0 0 0 0 0 0 0 0 0
Nghost:    7009 ave 7009 max 7009 min
Histogram: 1 0 0 0 0 0 0 0 0 0
Neighs:    77856 ave 77856 max 77856 min
Histogram: 1 0 0 0 0 0 0 0 0 0

Total # of neighbors = 77856
Ave neighs/atom = 26.7363
Neighbor list builds = 0
Dangerous builds = 0
        next i
jump SELF loop1
        displace_atoms upper move ${xstep1} 0.0 ${zstep1} units lattice
        displace_atoms upper move 0.00166666666666667 0.0 ${zstep1} units lattice
        displace_atoms upper move 0.00166666666666667 0.0 0 units lattice
        min_style ${style}
        min_style hftn
        minimize ${etol} ${ftol} ${maxiter} ${maxeval}
        minimize 1e-12 ${ftol} ${maxiter} ${maxeval}
        minimize 1e-12 1e-08 ${maxiter} ${maxeval}
        minimize 1e-12 1e-08 10000 ${maxeval}
        minimize 1e-12 1e-08 10000 20000
WARNING: Resetting reneighboring criteria during minimization (../min.cpp:168)
Memory usage per processor = 5.28939 Mbytes
Step Temp PotEng Lx Ly Lz 
      52            0   -17373.632    7.7766452    82.505346    4.4898482 
      53            0   -17373.633    7.7766452    82.505346    4.4898482 
      54            0   -17373.635    7.7766452    82.505346    4.4898482 
      55            0   -17373.635    7.7766452    82.505346    4.4898482 
      56            0   -17373.635    7.7766452    82.505346    4.4898482 
Loop time of 1.0808 on 1 procs for 3 steps with 2912 atoms

Minimization stats:
  Stopping criterion = force tolerance
  Energy initial, next-to-last, final = 
        -17373.6321624     -17373.6349256     -17373.6349466
  Force two-norm initial, final = 1.36267 8.75244e-11
  Force max component initial, final = 0.170333 6.03346e-12
  Final line search alpha, max atom move = 0 0
  Iterations, force evaluations = 3 485

Pair  time (%) = 0.977788 (90.4688)
Neigh time (%) = 0 (0)
Comm  time (%) = 0.0218134 (2.01826)
Outpt time (%) = 0.00028585 (0.026448)
Other time (%) = 0.0809136 (7.48644)

Nlocal:    2912 ave 2912 max 2912 min
Histogram: 1 0 0 0 0 0 0 0 0 0
Nghost:    7009 ave 7009 max 7009 min
Histogram: 1 0 0 0 0 0 0 0 0 0
Neighs:    77856 ave 77856 max 77856 min
Histogram: 1 0 0 0 0 0 0 0 0 0

Total # of neighbors = 77856
Ave neighs/atom = 26.7363
Neighbor list builds = 0
Dangerous builds = 0
        next i
jump SELF loop1
        displace_atoms upper move ${xstep1} 0.0 ${zstep1} units lattice
        displace_atoms upper move 0.00166666666666667 0.0 ${zstep1} units lattice
        displace_atoms upper move 0.00166666666666667 0.0 0 units lattice
        min_style ${style}
        min_style hftn
        minimize ${etol} ${ftol} ${maxiter} ${maxeval}
        minimize 1e-12 ${ftol} ${maxiter} ${maxeval}
        minimize 1e-12 1e-08 ${maxiter} ${maxeval}
        minimize 1e-12 1e-08 10000 ${maxeval}
        minimize 1e-12 1e-08 10000 20000
WARNING: Resetting reneighboring criteria during minimization (../min.cpp:168)
Memory usage per processor = 5.28939 Mbytes
Step Temp PotEng Lx Ly Lz 
      56            0   -17373.204    7.7766452    82.506358    4.4898482 
      57            0   -17373.205    7.7766452    82.506358    4.4898482 
      58            0   -17373.207    7.7766452    82.506358    4.4898482 
      59            0   -17373.207    7.7766452    82.506358    4.4898482 
      60            0   -17373.207    7.7766452    82.506358    4.4898482 
Loop time of 1.08438 on 1 procs for 3 steps with 2912 atoms

Minimization stats:
  Stopping criterion = force tolerance
  Energy initial, next-to-last, final = 
        -17373.2036306     -17373.2066885     -17373.2067109
  Force two-norm initial, final = 1.44302 8.82776e-11
  Force max component initial, final = 0.180378 6.43844e-12
  Final line search alpha, max atom move = 0 0
  Iterations, force evaluations = 3 485

Pair  time (%) = 0.994304 (91.6938)
Neigh time (%) = 0 (0)
Comm  time (%) = 0.0174927 (1.61316)
Outpt time (%) = 0.000292991 (0.0270193)
Other time (%) = 0.0722851 (6.66606)

Nlocal:    2912 ave 2912 max 2912 min
Histogram: 1 0 0 0 0 0 0 0 0 0
Nghost:    7009 ave 7009 max 7009 min
Histogram: 1 0 0 0 0 0 0 0 0 0
Neighs:    77856 ave 77856 max 77856 min
Histogram: 1 0 0 0 0 0 0 0 0 0

Total # of neighbors = 77856
Ave neighs/atom = 26.7363
Neighbor list builds = 0
Dangerous builds = 0
        next i
jump SELF loop1
        displace_atoms upper move ${xstep1} 0.0 ${zstep1} units lattice
        displace_atoms upper move 0.00166666666666667 0.0 ${zstep1} units lattice
        displace_atoms upper move 0.00166666666666667 0.0 0 units lattice
        min_style ${style}
        min_style hftn
        minimize ${etol} ${ftol} ${maxiter} ${maxeval}
        minimize 1e-12 ${ftol} ${maxiter} ${maxeval}
        minimize 1e-12 1e-08 ${maxiter} ${maxeval}
        minimize 1e-12 1e-08 10000 ${maxeval}
        minimize 1e-12 1e-08 10000 20000
WARNING: Resetting reneighboring criteria during minimization (../min.cpp:168)
Memory usage per processor = 5.28939 Mbytes
Step Temp PotEng Lx Ly Lz 
      60            0   -17372.753    7.7766452     82.50743    4.4898482 
      61            0   -17372.755    7.7766452     82.50743    4.4898482 
      62            0   -17372.756    7.7766452     82.50743    4.4898482 
      63            0   -17372.757    7.7766452     82.50743    4.4898482 
      64            0   -17372.757    7.7766452     82.50743    4.4898482 
Loop time of 1.08317 on 1 procs for 3 steps with 2912 atoms

Minimization stats:
  Stopping criterion = force tolerance
  Energy initial, next-to-last, final = 
        -17372.7529657     -17372.7564822     -17372.7565056
  Force two-norm initial, final = 1.513 1.08241e-10
  Force max component initial, final = 0.189125 7.85243e-12
  Final line search alpha, max atom move = 0 0
  Iterations, force evaluations = 3 485

Pair  time (%) = 0.993692 (91.7393)
Neigh time (%) = 0 (0)
Comm  time (%) = 0.0176705 (1.63137)
Outpt time (%) = 0.000425943 (0.0393238)
Other time (%) = 0.071381 (6.59002)

Nlocal:    2912 ave 2912 max 2912 min
Histogram: 1 0 0 0 0 0 0 0 0 0
Nghost:    7009 ave 7009 max 7009 min
Histogram: 1 0 0 0 0 0 0 0 0 0
Neighs:    77856 ave 77856 max 77856 min
Histogram: 1 0 0 0 0 0 0 0 0 0

Total # of neighbors = 77856
Ave neighs/atom = 26.7363
Neighbor list builds = 0
Dangerous builds = 0
        next i
jump SELF loop1
        displace_atoms upper move ${xstep1} 0.0 ${zstep1} units lattice
        displace_atoms upper move 0.00166666666666667 0.0 ${zstep1} units lattice
        displace_atoms upper move 0.00166666666666667 0.0 0 units lattice
        min_style ${style}
        min_style hftn
        minimize ${etol} ${ftol} ${maxiter} ${maxeval}
        minimize 1e-12 ${ftol} ${maxiter} ${maxeval}
        minimize 1e-12 1e-08 ${maxiter} ${maxeval}
        minimize 1e-12 1e-08 10000 ${maxeval}
        minimize 1e-12 1e-08 10000 20000
WARNING: Resetting reneighboring criteria during minimization (../min.cpp:168)
Memory usage per processor = 5.28939 Mbytes
Step Temp PotEng Lx Ly Lz 
      64            0   -17372.283    7.7766452    82.508557    4.4898482 
      65            0   -17372.285    7.7766452    82.508557    4.4898482 
      66            0   -17372.287    7.7766452    82.508557    4.4898482 
      67            0   -17372.287    7.7766452    82.508557    4.4898482 
      68            0   -17372.287    7.7766452    82.508557    4.4898482 
Loop time of 1.06645 on 1 procs for 3 steps with 2912 atoms

Minimization stats:
  Stopping criterion = force tolerance
  Energy initial, next-to-last, final = 
        -17372.2830971     -17372.2865697     -17372.2865974
  Force two-norm initial, final = 1.49373 1.28656e-10
  Force max component initial, final = 0.186716 8.26426e-12
  Final line search alpha, max atom move = 0 0
  Iterations, force evaluations = 3 478

Pair  time (%) = 0.977949 (91.701)
Neigh time (%) = 0 (0)
Comm  time (%) = 0.0170537 (1.5991)
Outpt time (%) = 0.000458057 (0.0429514)
Other time (%) = 0.070993 (6.65692)

Nlocal:    2912 ave 2912 max 2912 min
Histogram: 1 0 0 0 0 0 0 0 0 0
Nghost:    7009 ave 7009 max 7009 min
Histogram: 1 0 0 0 0 0 0 0 0 0
Neighs:    77792 ave 77792 max 77792 min
Histogram: 1 0 0 0 0 0 0 0 0 0

Total # of neighbors = 77792
Ave neighs/atom = 26.7143
Neighbor list builds = 0
Dangerous builds = 0
        next i
jump SELF loop1
        displace_atoms upper move ${xstep1} 0.0 ${zstep1} units lattice
        displace_atoms upper move 0.00166666666666667 0.0 ${zstep1} units lattice
        displace_atoms upper move 0.00166666666666667 0.0 0 units lattice
        min_style ${style}
        min_style hftn
        minimize ${etol} ${ftol} ${maxiter} ${maxeval}
        minimize 1e-12 ${ftol} ${maxiter} ${maxeval}
        minimize 1e-12 1e-08 ${maxiter} ${maxeval}
        minimize 1e-12 1e-08 10000 ${maxeval}
        minimize 1e-12 1e-08 10000 20000
WARNING: Resetting reneighboring criteria during minimization (../min.cpp:168)
Memory usage per processor = 5.28939 Mbytes
Step Temp PotEng Lx Ly Lz 
      68            0    -17371.79    7.7766452    82.509621    4.4898482 
      69            0   -17371.791    7.7766452    82.509621    4.4898482 
      70            0   -17371.793    7.7766452    82.509621    4.4898482 
      71            0   -17371.793    7.7766452    82.509621    4.4898482 
      72            0   -17371.793    7.7766452    82.509621    4.4898482 
Loop time of 1.07471 on 1 procs for 3 steps with 2912 atoms

Minimization stats:
  Stopping criterion = force tolerance
  Energy initial, next-to-last, final = 
        -17371.7903228     -17371.7926531     -17371.7926764
  Force two-norm initial, final = 1.24487 1.37337e-10
  Force max component initial, final = 0.155608 1.00832e-11
  Final line search alpha, max atom move = 0 0
  Iterations, force evaluations = 3 481

Pair  time (%) = 0.985008 (91.6537)
Neigh time (%) = 0 (0)
Comm  time (%) = 0.0190463 (1.77224)
Outpt time (%) = 0.000375105 (0.034903)
Other time (%) = 0.0702764 (6.53913)

Nlocal:    2912 ave 2912 max 2912 min
Histogram: 1 0 0 0 0 0 0 0 0 0
Nghost:    7009 ave 7009 max 7009 min
Histogram: 1 0 0 0 0 0 0 0 0 0
Neighs:    77792 ave 77792 max 77792 min
Histogram: 1 0 0 0 0 0 0 0 0 0

Total # of neighbors = 77792
Ave neighs/atom = 26.7143
Neighbor list builds = 0
Dangerous builds = 0
        next i
jump SELF loop1
        displace_atoms upper move ${xstep1} 0.0 ${zstep1} units lattice
        displace_atoms upper move 0.00166666666666667 0.0 ${zstep1} units lattice
        displace_atoms upper move 0.00166666666666667 0.0 0 units lattice
        min_style ${style}
        min_style hftn
        minimize ${etol} ${ftol} ${maxiter} ${maxeval}
        minimize 1e-12 ${ftol} ${maxiter} ${maxeval}
        minimize 1e-12 1e-08 ${maxiter} ${maxeval}
        minimize 1e-12 1e-08 10000 ${maxeval}
        minimize 1e-12 1e-08 10000 20000
WARNING: Resetting reneighboring criteria during minimization (../min.cpp:168)
Memory usage per processor = 5.28939 Mbytes
Step Temp PotEng Lx Ly Lz 
      72            0   -17371.273    7.7766452    82.510505    4.4898482 
      73            0   -17371.274    7.7766452    82.510505    4.4898482 
      74            0   -17371.275    7.7766452    82.510505    4.4898482 
      75            0   -17371.275    7.7766452    82.510505    4.4898482 
      76            0   -17371.275    7.7766452    82.510505    4.4898482 
Loop time of 1.07988 on 1 procs for 3 steps with 2912 atoms

Minimization stats:
  Stopping criterion = force tolerance
  Energy initial, next-to-last, final = 
        -17371.2730579     -17371.2753539     -17371.2753769
  Force two-norm initial, final = 1.23442 1.4032e-10
  Force max component initial, final = 0.154302 8.84771e-12
  Final line search alpha, max atom move = 0 0
  Iterations, force evaluations = 3 483

Pair  time (%) = 0.980252 (90.7745)
Neigh time (%) = 0 (0)
Comm  time (%) = 0.0202381 (1.87411)
Outpt time (%) = 0.000384954 (0.035648)
Other time (%) = 0.0790009 (7.31573)

Nlocal:    2912 ave 2912 max 2912 min
Histogram: 1 0 0 0 0 0 0 0 0 0
Nghost:    7009 ave 7009 max 7009 min
Histogram: 1 0 0 0 0 0 0 0 0 0
Neighs:    77792 ave 77792 max 77792 min
Histogram: 1 0 0 0 0 0 0 0 0 0

Total # of neighbors = 77792
Ave neighs/atom = 26.7143
Neighbor list builds = 0
Dangerous builds = 0
        next i
jump SELF loop1
        displace_atoms upper move ${xstep1} 0.0 ${zstep1} units lattice
        displace_atoms upper move 0.00166666666666667 0.0 ${zstep1} units lattice
        displace_atoms upper move 0.00166666666666667 0.0 0 units lattice
        min_style ${style}
        min_style hftn
        minimize ${etol} ${ftol} ${maxiter} ${maxeval}
        minimize 1e-12 ${ftol} ${maxiter} ${maxeval}
        minimize 1e-12 1e-08 ${maxiter} ${maxeval}
        minimize 1e-12 1e-08 10000 ${maxeval}
        minimize 1e-12 1e-08 10000 20000
WARNING: Resetting reneighboring criteria during minimization (../min.cpp:168)
Memory usage per processor = 5.28939 Mbytes
Step Temp PotEng Lx Ly Lz 
      76            0   -17370.735    7.7766452    82.511378    4.4898482 
      77            0   -17370.735    7.7766452    82.511378    4.4898482 
      78            0   -17370.737    7.7766452    82.511378    4.4898482 
      79            0   -17370.737    7.7766452    82.511378    4.4898482 
      80            0   -17370.737    7.7766452    82.511378    4.4898482 
Loop time of 1.08861 on 1 procs for 3 steps with 2912 atoms

Minimization stats:
  Stopping criterion = force tolerance
  Energy initial, next-to-last, final = 
        -17370.7346393      -17370.736881     -17370.7369037
  Force two-norm initial, final = 1.22129 7.28239e-11
  Force max component initial, final = 0.152662 5.40198e-12
  Final line search alpha, max atom move = 0 0
  Iterations, force evaluations = 3 487

Pair  time (%) = 0.993096 (91.2263)
Neigh time (%) = 0 (0)
Comm  time (%) = 0.020573 (1.88984)
Outpt time (%) = 0.000401024 (0.0368383)
Other time (%) = 0.0745368 (6.84698)

Nlocal:    2912 ave 2912 max 2912 min
Histogram: 1 0 0 0 0 0 0 0 0 0
Nghost:    7009 ave 7009 max 7009 min
Histogram: 1 0 0 0 0 0 0 0 0 0
Neighs:    77792 ave 77792 max 77792 min
Histogram: 1 0 0 0 0 0 0 0 0 0

Total # of neighbors = 77792
Ave neighs/atom = 26.7143
Neighbor list builds = 0
Dangerous builds = 0
        next i
jump SELF loop1
        displace_atoms upper move ${xstep1} 0.0 ${zstep1} units lattice
        displace_atoms upper move 0.00166666666666667 0.0 ${zstep1} units lattice
        displace_atoms upper move 0.00166666666666667 0.0 0 units lattice
        min_style ${style}
        min_style hftn
        minimize ${etol} ${ftol} ${maxiter} ${maxeval}
        minimize 1e-12 ${ftol} ${maxiter} ${maxeval}
        minimize 1e-12 1e-08 ${maxiter} ${maxeval}
        minimize 1e-12 1e-08 10000 ${maxeval}
        minimize 1e-12 1e-08 10000 20000
WARNING: Resetting reneighboring criteria during minimization (../min.cpp:168)
Memory usage per processor = 5.28939 Mbytes
Step Temp PotEng Lx Ly Lz 
      80            0   -17370.177    7.7766452    82.512239    4.4898482 
      81            0   -17370.178    7.7766452    82.512239    4.4898482 
      82            0   -17370.179    7.7766452    82.512239    4.4898482 
      83            0   -17370.179    7.7766452    82.512239    4.4898482 
      84            0   -17370.179    7.7766452    82.512239    4.4898482 
Loop time of 1.10615 on 1 procs for 3 steps with 2912 atoms

Minimization stats:
  Stopping criterion = force tolerance
  Energy initial, next-to-last, final = 
        -17370.1771466     -17370.1793582     -17370.1793803
  Force two-norm initial, final = 1.20602 1.44872e-10
  Force max component initial, final = 0.150752 1.55844e-11
  Final line search alpha, max atom move = 0 0
  Iterations, force evaluations = 3 491

Pair  time (%) = 1.01511 (91.7691)
Neigh time (%) = 0 (0)
Comm  time (%) = 0.0179529 (1.623)
Outpt time (%) = 0.000277178 (0.0250578)
Other time (%) = 0.0728164 (6.58286)

Nlocal:    2912 ave 2912 max 2912 min
Histogram: 1 0 0 0 0 0 0 0 0 0
Nghost:    7009 ave 7009 max 7009 min
Histogram: 1 0 0 0 0 0 0 0 0 0
Neighs:    77792 ave 77792 max 77792 min
Histogram: 1 0 0 0 0 0 0 0 0 0

Total # of neighbors = 77792
Ave neighs/atom = 26.7143
Neighbor list builds = 0
Dangerous builds = 0
        next i
jump SELF loop1
        displace_atoms upper move ${xstep1} 0.0 ${zstep1} units lattice
        displace_atoms upper move 0.00166666666666667 0.0 ${zstep1} units lattice
        displace_atoms upper move 0.00166666666666667 0.0 0 units lattice
        min_style ${style}
        min_style hftn
        minimize ${etol} ${ftol} ${maxiter} ${maxeval}
        minimize 1e-12 ${ftol} ${maxiter} ${maxeval}
        minimize 1e-12 1e-08 ${maxiter} ${maxeval}
        minimize 1e-12 1e-08 10000 ${maxeval}
        minimize 1e-12 1e-08 10000 20000
WARNING: Resetting reneighboring criteria during minimization (../min.cpp:168)
Memory usage per processor = 5.28939 Mbytes
Step Temp PotEng Lx Ly Lz 
      84            0   -17369.603    7.7766452    82.513087    4.4898482 
      85            0   -17369.604    7.7766452    82.513087    4.4898482 
      86            0   -17369.605    7.7766452    82.513087    4.4898482 
      87            0   -17369.605    7.7766452    82.513087    4.4898482 
      88            0   -17369.605    7.7766452    82.513087    4.4898482 
Loop time of 1.11433 on 1 procs for 3 steps with 2912 atoms

Minimization stats:
  Stopping criterion = force tolerance
  Energy initial, next-to-last, final = 
        -17369.6028943     -17369.6047438     -17369.6047655
  Force two-norm initial, final = 1.18792 4.97046e-11
  Force max component initial, final = 0.148489 3.23294e-12
  Final line search alpha, max atom move = 0 0
  Iterations, force evaluations = 3 487

Pair  time (%) = 1.02275 (91.7816)
Neigh time (%) = 0 (0)
Comm  time (%) = 0.0172994 (1.55246)
Outpt time (%) = 0.000290902 (0.0261056)
Other time (%) = 0.0739894 (6.63983)

Nlocal:    2912 ave 2912 max 2912 min
Histogram: 1 0 0 0 0 0 0 0 0 0
Nghost:    7009 ave 7009 max 7009 min
Histogram: 1 0 0 0 0 0 0 0 0 0
Neighs:    77792 ave 77792 max 77792 min
Histogram: 1 0 0 0 0 0 0 0 0 0

Total # of neighbors = 77792
Ave neighs/atom = 26.7143
Neighbor list builds = 0
Dangerous builds = 0
        next i
jump SELF loop1
        displace_atoms upper move ${xstep1} 0.0 ${zstep1} units lattice
        displace_atoms upper move 0.00166666666666667 0.0 ${zstep1} units lattice
        displace_atoms upper move 0.00166666666666667 0.0 0 units lattice
        min_style ${style}
        min_style hftn
        minimize ${etol} ${ftol} ${maxiter} ${maxeval}
        minimize 1e-12 ${ftol} ${maxiter} ${maxeval}
        minimize 1e-12 1e-08 ${maxiter} ${maxeval}
        minimize 1e-12 1e-08 10000 ${maxeval}
        minimize 1e-12 1e-08 10000 20000
WARNING: Resetting reneighboring criteria during minimization (../min.cpp:168)
Memory usage per processor = 5.28939 Mbytes
Step Temp PotEng Lx Ly Lz 
      88            0   -17369.014    7.7766452     82.51392    4.4898482 
      89            0   -17369.014    7.7766452     82.51392    4.4898482 
      90            0   -17369.015    7.7766452     82.51392    4.4898482 
      91            0   -17369.015    7.7766452     82.51392    4.4898482 
      92            0   -17369.015    7.7766452     82.51392    4.4898482 
Loop time of 1.13051 on 1 procs for 3 steps with 2912 atoms

Minimization stats:
  Stopping criterion = force tolerance
  Energy initial, next-to-last, final = 
        -17369.0136477     -17369.0154144     -17369.0154362
  Force two-norm initial, final = 1.16773 2.46608e-11
  Force max component initial, final = 0.145967 2.40927e-12
  Final line search alpha, max atom move = 0 0
  Iterations, force evaluations = 3 489

Pair  time (%) = 1.03759 (91.7803)
Neigh time (%) = 0 (0)
Comm  time (%) = 0.0189582 (1.67696)
Outpt time (%) = 0.000630194 (0.0557442)
Other time (%) = 0.0733364 (6.48702)

Nlocal:    2912 ave 2912 max 2912 min
Histogram: 1 0 0 0 0 0 0 0 0 0
Nghost:    7009 ave 7009 max 7009 min
Histogram: 1 0 0 0 0 0 0 0 0 0
Neighs:    77792 ave 77792 max 77792 min
Histogram: 1 0 0 0 0 0 0 0 0 0

Total # of neighbors = 77792
Ave neighs/atom = 26.7143
Neighbor list builds = 0
Dangerous builds = 0
        next i
jump SELF loop1
        displace_atoms upper move ${xstep1} 0.0 ${zstep1} units lattice
        displace_atoms upper move 0.00166666666666667 0.0 ${zstep1} units lattice
        displace_atoms upper move 0.00166666666666667 0.0 0 units lattice
        min_style ${style}
        min_style hftn
        minimize ${etol} ${ftol} ${maxiter} ${maxeval}
        minimize 1e-12 ${ftol} ${maxiter} ${maxeval}
        minimize 1e-12 1e-08 ${maxiter} ${maxeval}
        minimize 1e-12 1e-08 10000 ${maxeval}
        minimize 1e-12 1e-08 10000 20000
WARNING: Resetting reneighboring criteria during minimization (../min.cpp:168)
Memory usage per processor = 5.28939 Mbytes
Step Temp PotEng Lx Ly Lz 
      92            0   -17368.412    7.7766452    82.514737    4.4898482 
      93            0   -17368.412    7.7766452    82.514737    4.4898482 
      94            0   -17368.414    7.7766452    82.514737    4.4898482 
      95            0   -17368.414    7.7766452    82.514737    4.4898482 
      96            0   -17368.414    7.7766452    82.514737    4.4898482 
Loop time of 1.14884 on 1 procs for 3 steps with 2912 atoms

Minimization stats:
  Stopping criterion = force tolerance
  Energy initial, next-to-last, final = 
        -17368.4118107     -17368.4135797      -17368.413601
  Force two-norm initial, final = 1.14552 1.12254e-11
  Force max component initial, final = 0.14319 1.25611e-12
  Final line search alpha, max atom move = 0 0
  Iterations, force evaluations = 3 499

Pair  time (%) = 1.05296 (91.6536)
Neigh time (%) = 0 (0)
Comm  time (%) = 0.0203886 (1.77471)
Outpt time (%) = 0.00024607 (0.0214189)
Other time (%) = 0.0752524 (6.55028)

Nlocal:    2912 ave 2912 max 2912 min
Histogram: 1 0 0 0 0 0 0 0 0 0
Nghost:    7009 ave 7009 max 7009 min
Histogram: 1 0 0 0 0 0 0 0 0 0
Neighs:    77792 ave 77792 max 77792 min
Histogram: 1 0 0 0 0 0 0 0 0 0

Total # of neighbors = 77792
Ave neighs/atom = 26.7143
Neighbor list builds = 0
Dangerous builds = 0
        next i
jump SELF loop1
        displace_atoms upper move ${xstep1} 0.0 ${zstep1} units lattice
        displace_atoms upper move 0.00166666666666667 0.0 ${zstep1} units lattice
        displace_atoms upper move 0.00166666666666667 0.0 0 units lattice
        min_style ${style}
        min_style hftn
        minimize ${etol} ${ftol} ${maxiter} ${maxeval}
        minimize 1e-12 ${ftol} ${maxiter} ${maxeval}
        minimize 1e-12 1e-08 ${maxiter} ${maxeval}
        minimize 1e-12 1e-08 10000 ${maxeval}
        minimize 1e-12 1e-08 10000 20000
WARNING: Resetting reneighboring criteria during minimization (../min.cpp:168)
Memory usage per processor = 5.28939 Mbytes
Step Temp PotEng Lx Ly Lz 
      96            0     -17367.8    7.7766452    82.515536    4.4898482 
      97            0     -17367.8    7.7766452    82.515536    4.4898482 
      98            0   -17367.802    7.7766452    82.515536    4.4898482 
      99            0   -17367.802    7.7766452    82.515536    4.4898482 
     100            0   -17367.802    7.7766452    82.515536    4.4898482 
Loop time of 1.1297 on 1 procs for 3 steps with 2912 atoms

Minimization stats:
  Stopping criterion = force tolerance
  Energy initial, next-to-last, final = 
        -17367.7997465     -17367.8015047     -17367.8015211
  Force two-norm initial, final = 1.1206 3.15669e-11
  Force max component initial, final = 0.140075 2.42986e-12
  Final line search alpha, max atom move = 0 0
  Iterations, force evaluations = 3 491

Pair  time (%) = 1.0356 (91.6711)
Neigh time (%) = 0 (0)
Comm  time (%) = 0.0188509 (1.66868)
Outpt time (%) = 0.000457288 (0.0404789)
Other time (%) = 0.0747825 (6.61971)

Nlocal:    2912 ave 2912 max 2912 min
Histogram: 1 0 0 0 0 0 0 0 0 0
Nghost:    7009 ave 7009 max 7009 min
Histogram: 1 0 0 0 0 0 0 0 0 0
Neighs:    77792 ave 77792 max 77792 min
Histogram: 1 0 0 0 0 0 0 0 0 0

Total # of neighbors = 77792
Ave neighs/atom = 26.7143
Neighbor list builds = 0
Dangerous builds = 0
        next i
jump SELF loop1
        displace_atoms upper move ${xstep1} 0.0 ${zstep1} units lattice
        displace_atoms upper move 0.00166666666666667 0.0 ${zstep1} units lattice
        displace_atoms upper move 0.00166666666666667 0.0 0 units lattice
        min_style ${style}
        min_style hftn
        minimize ${etol} ${ftol} ${maxiter} ${maxeval}
        minimize 1e-12 ${ftol} ${maxiter} ${maxeval}
        minimize 1e-12 1e-08 ${maxiter} ${maxeval}
        minimize 1e-12 1e-08 10000 ${maxeval}
        minimize 1e-12 1e-08 10000 20000
WARNING: Resetting reneighboring criteria during minimization (../min.cpp:168)
Memory usage per processor = 5.28939 Mbytes
Step Temp PotEng Lx Ly Lz 
     100            0    -17367.18    7.7766452    82.516317    4.4898482 
     101            0    -17367.18    7.7766452    82.516317    4.4898482 
     102            0   -17367.181    7.7766452    82.516317    4.4898482 
     103            0   -17367.181    7.7766452    82.516317    4.4898482 
     104            0   -17367.181    7.7766452    82.516317    4.4898482 
Loop time of 1.11692 on 1 procs for 3 steps with 2912 atoms

Minimization stats:
  Stopping criterion = force tolerance
  Energy initial, next-to-last, final = 
        -17367.1796621     -17367.1813792     -17367.1813951
  Force two-norm initial, final = 1.09324 3.25695e-11
  Force max component initial, final = 0.136655 2.4985e-12
  Final line search alpha, max atom move = 0 0
  Iterations, force evaluations = 3 491

Pair  time (%) = 1.01754 (91.1028)
Neigh time (%) = 0 (0)
Comm  time (%) = 0.0196738 (1.76143)
Outpt time (%) = 0.000441087 (0.0394914)
Other time (%) = 0.0792602 (7.09632)

Nlocal:    2912 ave 2912 max 2912 min
Histogram: 1 0 0 0 0 0 0 0 0 0
Nghost:    7009 ave 7009 max 7009 min
Histogram: 1 0 0 0 0 0 0 0 0 0
Neighs:    77792 ave 77792 max 77792 min
Histogram: 1 0 0 0 0 0 0 0 0 0

Total # of neighbors = 77792
Ave neighs/atom = 26.7143
Neighbor list builds = 0
Dangerous builds = 0
        next i
jump SELF loop1
        displace_atoms upper move ${xstep1} 0.0 ${zstep1} units lattice
        displace_atoms upper move 0.00166666666666667 0.0 ${zstep1} units lattice
        displace_atoms upper move 0.00166666666666667 0.0 0 units lattice
        min_style ${style}
        min_style hftn
        minimize ${etol} ${ftol} ${maxiter} ${maxeval}
        minimize 1e-12 ${ftol} ${maxiter} ${maxeval}
        minimize 1e-12 1e-08 ${maxiter} ${maxeval}
        minimize 1e-12 1e-08 10000 ${maxeval}
        minimize 1e-12 1e-08 10000 20000
WARNING: Resetting reneighboring criteria during minimization (../min.cpp:168)
Memory usage per processor = 5.28939 Mbytes
Step Temp PotEng Lx Ly Lz 
     104            0   -17366.553    7.7766452    82.517077    4.4898482 
     105            0   -17366.554    7.7766452    82.517077    4.4898482 
     106            0   -17366.555    7.7766452    82.517077    4.4898482 
     107            0   -17366.555    7.7766452    82.517077    4.4898482 
     108            0   -17366.555    7.7766452    82.517077    4.4898482 
Loop time of 1.46149 on 1 procs for 3 steps with 2912 atoms

Minimization stats:
  Stopping criterion = force tolerance
  Energy initial, next-to-last, final = 
        -17366.5531551     -17366.5546836      -17366.554699
  Force two-norm initial, final = 1.06611 1.20393e-11
  Force max component initial, final = 0.133264 1.51008e-12
  Final line search alpha, max atom move = 0 0
  Iterations, force evaluations = 3 657

Pair  time (%) = 1.34086 (91.7463)
Neigh time (%) = 0 (0)
Comm  time (%) = 0.024702 (1.6902)
Outpt time (%) = 0.000395864 (0.0270863)
Other time (%) = 0.0955292 (6.53643)

Nlocal:    2912 ave 2912 max 2912 min
Histogram: 1 0 0 0 0 0 0 0 0 0
Nghost:    7009 ave 7009 max 7009 min
Histogram: 1 0 0 0 0 0 0 0 0 0
Neighs:    77792 ave 77792 max 77792 min
Histogram: 1 0 0 0 0 0 0 0 0 0

Total # of neighbors = 77792
Ave neighs/atom = 26.7143
Neighbor list builds = 0
Dangerous builds = 0
        next i
jump SELF loop1
        displace_atoms upper move ${xstep1} 0.0 ${zstep1} units lattice
        displace_atoms upper move 0.00166666666666667 0.0 ${zstep1} units lattice
        displace_atoms upper move 0.00166666666666667 0.0 0 units lattice
        min_style ${style}
        min_style hftn
        minimize ${etol} ${ftol} ${maxiter} ${maxeval}
        minimize 1e-12 ${ftol} ${maxiter} ${maxeval}
        minimize 1e-12 1e-08 ${maxiter} ${maxeval}
        minimize 1e-12 1e-08 10000 ${maxeval}
        minimize 1e-12 1e-08 10000 20000
WARNING: Resetting reneighboring criteria during minimization (../min.cpp:168)
Memory usage per processor = 5.28939 Mbytes
Step Temp PotEng Lx Ly Lz 
     108            0   -17365.923    7.7766452    82.517817    4.4898482 
     109            0   -17365.923    7.7766452    82.517817    4.4898482 
     110            0   -17365.924    7.7766452    82.517817    4.4898482 
     111            0   -17365.924    7.7766452    82.517817    4.4898482 
     112            0   -17365.924    7.7766452    82.517817    4.4898482 
Loop time of 1.10959 on 1 procs for 3 steps with 2912 atoms

Minimization stats:
  Stopping criterion = force tolerance
  Energy initial, next-to-last, final = 
         -17365.922771     -17365.9242348     -17365.9242499
  Force two-norm initial, final = 1.03455 2.39273e-11
  Force max component initial, final = 0.129319 2.45045e-12
  Final line search alpha, max atom move = 0 0
  Iterations, force evaluations = 3 493

Pair  time (%) = 1.01595 (91.5613)
Neigh time (%) = 0 (0)
Comm  time (%) = 0.0187304 (1.68805)
Outpt time (%) = 0.000296034 (0.0266796)
Other time (%) = 0.0746079 (6.72393)

Nlocal:    2912 ave 2912 max 2912 min
Histogram: 1 0 0 0 0 0 0 0 0 0
Nghost:    7009 ave 7009 max 7009 min
Histogram: 1 0 0 0 0 0 0 0 0 0
Neighs:    77792 ave 77792 max 77792 min
Histogram: 1 0 0 0 0 0 0 0 0 0

Total # of neighbors = 77792
Ave neighs/atom = 26.7143
Neighbor list builds = 0
Dangerous builds = 0
        next i
jump SELF loop1
        displace_atoms upper move ${xstep1} 0.0 ${zstep1} units lattice
        displace_atoms upper move 0.00166666666666667 0.0 ${zstep1} units lattice
        displace_atoms upper move 0.00166666666666667 0.0 0 units lattice
        min_style ${style}
        min_style hftn
        minimize ${etol} ${ftol} ${maxiter} ${maxeval}
        minimize 1e-12 ${ftol} ${maxiter} ${maxeval}
        minimize 1e-12 1e-08 ${maxiter} ${maxeval}
        minimize 1e-12 1e-08 10000 ${maxeval}
        minimize 1e-12 1e-08 10000 20000
WARNING: Resetting reneighboring criteria during minimization (../min.cpp:168)
Memory usage per processor = 5.28939 Mbytes
Step Temp PotEng Lx Ly Lz 
     112            0   -17365.291    7.7766452    82.518535    4.4898482 
     113            0   -17365.291    7.7766452    82.518535    4.4898482 
     114            0   -17365.292    7.7766452    82.518535    4.4898482 
     115            0   -17365.292    7.7766452    82.518535    4.4898482 
     116            0   -17365.292    7.7766452    82.518535    4.4898482 
Loop time of 1.46675 on 1 procs for 3 steps with 2912 atoms

Minimization stats:
  Stopping criterion = force tolerance
  Energy initial, next-to-last, final = 
        -17365.2910182     -17365.2923539     -17365.2923687
  Force two-norm initial, final = 0.999974 1.3892e-11
  Force max component initial, final = 0.124997 1.5444e-12
  Final line search alpha, max atom move = 0 0
  Iterations, force evaluations = 3 659

Pair  time (%) = 1.34377 (91.6156)
Neigh time (%) = 0 (0)
Comm  time (%) = 0.0230003 (1.56812)
Outpt time (%) = 0.000282922 (0.0192891)
Other time (%) = 0.099695 (6.79701)

Nlocal:    2912 ave 2912 max 2912 min
Histogram: 1 0 0 0 0 0 0 0 0 0
Nghost:    7009 ave 7009 max 7009 min
Histogram: 1 0 0 0 0 0 0 0 0 0
Neighs:    77792 ave 77792 max 77792 min
Histogram: 1 0 0 0 0 0 0 0 0 0

Total # of neighbors = 77792
Ave neighs/atom = 26.7143
Neighbor list builds = 0
Dangerous builds = 0
        next i
jump SELF loop1
        displace_atoms upper move ${xstep1} 0.0 ${zstep1} units lattice
        displace_atoms upper move 0.00166666666666667 0.0 ${zstep1} units lattice
        displace_atoms upper move 0.00166666666666667 0.0 0 units lattice
        min_style ${style}
        min_style hftn
        minimize ${etol} ${ftol} ${maxiter} ${maxeval}
        minimize 1e-12 ${ftol} ${maxiter} ${maxeval}
        minimize 1e-12 1e-08 ${maxiter} ${maxeval}
        minimize 1e-12 1e-08 10000 ${maxeval}
        minimize 1e-12 1e-08 10000 20000
WARNING: Resetting reneighboring criteria during minimization (../min.cpp:168)
Memory usage per processor = 5.28939 Mbytes
Step Temp PotEng Lx Ly Lz 
     116            0   -17364.659    7.7766452    82.519229    4.4898482 
     117            0   -17364.659    7.7766452    82.519229    4.4898482 
     118            0    -17364.66    7.7766452    82.519229    4.4898482 
     119            0    -17364.66    7.7766452    82.519229    4.4898482 
     120            0    -17364.66    7.7766452    82.519229    4.4898482 
Loop time of 1.2916 on 1 procs for 3 steps with 2912 atoms

Minimization stats:
  Stopping criterion = force tolerance
  Energy initial, next-to-last, final = 
        -17364.6588804      -17364.660178      -17364.660192
  Force two-norm initial, final = 0.968219 1.29334e-11
  Force max component initial, final = 0.121027 1.72286e-12
  Final line search alpha, max atom move = 0 0
  Iterations, force evaluations = 3 577

Pair  time (%) = 1.184 (91.6693)
Neigh time (%) = 0 (0)
Comm  time (%) = 0.0215262 (1.66663)
Outpt time (%) = 0.000287948 (0.0222939)
Other time (%) = 0.0857854 (6.64178)

Nlocal:    2912 ave 2912 max 2912 min
Histogram: 1 0 0 0 0 0 0 0 0 0
Nghost:    7009 ave 7009 max 7009 min
Histogram: 1 0 0 0 0 0 0 0 0 0
Neighs:    77792 ave 77792 max 77792 min
Histogram: 1 0 0 0 0 0 0 0 0 0

Total # of neighbors = 77792
Ave neighs/atom = 26.7143
Neighbor list builds = 0
Dangerous builds = 0
        next i
jump SELF loop1
        displace_atoms upper move ${xstep1} 0.0 ${zstep1} units lattice
        displace_atoms upper move 0.00166666666666667 0.0 ${zstep1} units lattice
        displace_atoms upper move 0.00166666666666667 0.0 0 units lattice
        min_style ${style}
        min_style hftn
        minimize ${etol} ${ftol} ${maxiter} ${maxeval}
        minimize 1e-12 ${ftol} ${maxiter} ${maxeval}
        minimize 1e-12 1e-08 ${maxiter} ${maxeval}
        minimize 1e-12 1e-08 10000 ${maxeval}
        minimize 1e-12 1e-08 10000 20000
WARNING: Resetting reneighboring criteria during minimization (../min.cpp:168)
Memory usage per processor = 5.28939 Mbytes
Step Temp PotEng Lx Ly Lz 
     120            0    -17364.03    7.7766452      82.5199    4.4898482 
     121            0    -17364.03    7.7766452      82.5199    4.4898482 
     122            0   -17364.031    7.7766452      82.5199    4.4898482 
     123            0   -17364.031    7.7766452      82.5199    4.4898482 
     124            0   -17364.031    7.7766452      82.5199    4.4898482 
Loop time of 1.11547 on 1 procs for 3 steps with 2912 atoms

Minimization stats:
  Stopping criterion = force tolerance
  Energy initial, next-to-last, final = 
        -17364.0297684      -17364.030852     -17364.0308628
  Force two-norm initial, final = 0.929414 1.90517e-11
  Force max component initial, final = 0.116177 1.63363e-12
  Final line search alpha, max atom move = 0 0
  Iterations, force evaluations = 3 495

Pair  time (%) = 1.0219 (91.6115)
Neigh time (%) = 0 (0)
Comm  time (%) = 0.0194744 (1.74585)
Outpt time (%) = 0.000544991 (0.0488576)
Other time (%) = 0.0735516 (6.59378)

Nlocal:    2912 ave 2912 max 2912 min
Histogram: 1 0 0 0 0 0 0 0 0 0
Nghost:    7009 ave 7009 max 7009 min
Histogram: 1 0 0 0 0 0 0 0 0 0
Neighs:    77792 ave 77792 max 77792 min
Histogram: 1 0 0 0 0 0 0 0 0 0

Total # of neighbors = 77792
Ave neighs/atom = 26.7143
Neighbor list builds = 0
Dangerous builds = 0
        next i
jump SELF loop1
        displace_atoms upper move ${xstep1} 0.0 ${zstep1} units lattice
        displace_atoms upper move 0.00166666666666667 0.0 ${zstep1} units lattice
        displace_atoms upper move 0.00166666666666667 0.0 0 units lattice
        min_style ${style}
        min_style hftn
        minimize ${etol} ${ftol} ${maxiter} ${maxeval}
        minimize 1e-12 ${ftol} ${maxiter} ${maxeval}
        minimize 1e-12 1e-08 ${maxiter} ${maxeval}
        minimize 1e-12 1e-08 10000 ${maxeval}
        minimize 1e-12 1e-08 10000 20000
WARNING: Resetting reneighboring criteria during minimization (../min.cpp:168)
Memory usage per processor = 5.28939 Mbytes
Step Temp PotEng Lx Ly Lz 
     124            0   -17363.405    7.7766452    82.520545    4.4898482 
     125            0   -17363.405    7.7766452    82.520545    4.4898482 
     126            0   -17363.406    7.7766452    82.520545    4.4898482 
     127            0   -17363.406    7.7766452    82.520545    4.4898482 
     128            0   -17363.406    7.7766452    82.520545    4.4898482 
Loop time of 1.40243 on 1 procs for 3 steps with 2912 atoms

Minimization stats:
  Stopping criterion = force tolerance
  Energy initial, next-to-last, final = 
        -17363.4047619     -17363.4059206     -17363.4059312
  Force two-norm initial, final = 0.892557 1.33372e-11
  Force max component initial, final = 0.11157 1.59931e-12
  Final line search alpha, max atom move = 0 0
  Iterations, force evaluations = 3 631

Pair  time (%) = 1.2775 (91.0916)
Neigh time (%) = 0 (0)
Comm  time (%) = 0.0230964 (1.64688)
Outpt time (%) = 0.000257825 (0.0183841)
Other time (%) = 0.10158 (7.2431)

Nlocal:    2912 ave 2912 max 2912 min
Histogram: 1 0 0 0 0 0 0 0 0 0
Nghost:    7009 ave 7009 max 7009 min
Histogram: 1 0 0 0 0 0 0 0 0 0
Neighs:    77792 ave 77792 max 77792 min
Histogram: 1 0 0 0 0 0 0 0 0 0

Total # of neighbors = 77792
Ave neighs/atom = 26.7143
Neighbor list builds = 0
Dangerous builds = 0
        next i
jump SELF loop1
        displace_atoms upper move ${xstep1} 0.0 ${zstep1} units lattice
        displace_atoms upper move 0.00166666666666667 0.0 ${zstep1} units lattice
        displace_atoms upper move 0.00166666666666667 0.0 0 units lattice
        min_style ${style}
        min_style hftn
        minimize ${etol} ${ftol} ${maxiter} ${maxeval}
        minimize 1e-12 ${ftol} ${maxiter} ${maxeval}
        minimize 1e-12 1e-08 ${maxiter} ${maxeval}
        minimize 1e-12 1e-08 10000 ${maxeval}
        minimize 1e-12 1e-08 10000 20000
WARNING: Resetting reneighboring criteria during minimization (../min.cpp:168)
Memory usage per processor = 5.28939 Mbytes
Step Temp PotEng Lx Ly Lz 
     128            0   -17362.787    7.7766452    82.521164    4.4898482 
     129            0   -17362.787    7.7766452    82.521164    4.4898482 
     130            0   -17362.787    7.7766452    82.521164    4.4898482 
     131            0   -17362.787    7.7766452    82.521164    4.4898482 
     132            0   -17362.787    7.7766452    82.521164    4.4898482 
     133            0   -17362.787    7.7766452    82.521164    4.4898482 
     134            0   -17362.787    7.7766452    82.521164    4.4898482 
     135            0   -17362.787    7.7766452    82.521164    4.4898482 
     136            0   -17362.787    7.7766452    82.521164    4.4898482 
     137            0   -17362.787    7.7766452    82.521164    4.4898482 
     138            0   -17362.787    7.7766452    82.521164    4.4898482 
Loop time of 0.185148 on 1 procs for 9 steps with 2912 atoms

Minimization stats:
  Stopping criterion = energy tolerance
  Energy initial, next-to-last, final = 
        -17362.7868352     -17362.7868352     -17362.7869625
  Force two-norm initial, final = 0.851474 0.450783
  Force max component initial, final = 0.106434 0.0537639
  Final line search alpha, max atom move = 0 0
  Iterations, force evaluations = 9 74

Pair  time (%) = 0.16845 (90.9811)
Neigh time (%) = 0 (0)
Comm  time (%) = 0.00574573 (3.10332)
Outpt time (%) = 0.00107495 (0.580587)
Other time (%) = 0.00987774 (5.33505)

Nlocal:    2912 ave 2912 max 2912 min
Histogram: 1 0 0 0 0 0 0 0 0 0
Nghost:    7009 ave 7009 max 7009 min
Histogram: 1 0 0 0 0 0 0 0 0 0
Neighs:    77792 ave 77792 max 77792 min
Histogram: 1 0 0 0 0 0 0 0 0 0

Total # of neighbors = 77792
Ave neighs/atom = 26.7143
Neighbor list builds = 0
Dangerous builds = 0
        next i
jump SELF loop1
        displace_atoms upper move ${xstep1} 0.0 ${zstep1} units lattice
        displace_atoms upper move 0.00166666666666667 0.0 ${zstep1} units lattice
        displace_atoms upper move 0.00166666666666667 0.0 0 units lattice
        min_style ${style}
        min_style hftn
        minimize ${etol} ${ftol} ${maxiter} ${maxeval}
        minimize 1e-12 ${ftol} ${maxiter} ${maxeval}
        minimize 1e-12 1e-08 ${maxiter} ${maxeval}
        minimize 1e-12 1e-08 10000 ${maxeval}
        minimize 1e-12 1e-08 10000 20000
WARNING: Resetting reneighboring criteria during minimization (../min.cpp:168)
Memory usage per processor = 5.28939 Mbytes
Step Temp PotEng Lx Ly Lz 
     138            0   -17362.175    7.7766452    82.521164    4.4898482 
     139            0   -17362.176    7.7766452    82.521164    4.4898482 
     140            0   -17362.178    7.7766452    82.521164    4.4898482 
     141            0   -17362.178    7.7766452    82.521164    4.4898482 
     142            0   -17362.178    7.7766452    82.521164    4.4898482 
Loop time of 1.1025 on 1 procs for 3 steps with 2912 atoms

Minimization stats:
  Stopping criterion = force tolerance
  Energy initial, next-to-last, final = 
        -17362.1753592     -17362.1781944     -17362.1782139
  Force two-norm initial, final = 1.25216 2.05842e-11
  Force max component initial, final = 0.155609 2.4024e-12
  Final line search alpha, max atom move = 0 0
  Iterations, force evaluations = 3 493

Pair  time (%) = 1.00251 (90.9304)
Neigh time (%) = 0 (0)
Comm  time (%) = 0.0222126 (2.01474)
Outpt time (%) = 0.000407904 (0.036998)
Other time (%) = 0.0773725 (7.01788)

Nlocal:    2912 ave 2912 max 2912 min
Histogram: 1 0 0 0 0 0 0 0 0 0
Nghost:    7009 ave 7009 max 7009 min
Histogram: 1 0 0 0 0 0 0 0 0 0
Neighs:    77792 ave 77792 max 77792 min
Histogram: 1 0 0 0 0 0 0 0 0 0

Total # of neighbors = 77792
Ave neighs/atom = 26.7143
Neighbor list builds = 0
Dangerous builds = 0
        next i
jump SELF loop1
        displace_atoms upper move ${xstep1} 0.0 ${zstep1} units lattice
        displace_atoms upper move 0.00166666666666667 0.0 ${zstep1} units lattice
        displace_atoms upper move 0.00166666666666667 0.0 0 units lattice
        min_style ${style}
        min_style hftn
        minimize ${etol} ${ftol} ${maxiter} ${maxeval}
        minimize 1e-12 ${ftol} ${maxiter} ${maxeval}
        minimize 1e-12 1e-08 ${maxiter} ${maxeval}
        minimize 1e-12 1e-08 10000 ${maxeval}
        minimize 1e-12 1e-08 10000 20000
WARNING: Resetting reneighboring criteria during minimization (../min.cpp:168)
Memory usage per processor = 5.28939 Mbytes
Step Temp PotEng Lx Ly Lz 
     142            0   -17361.579    7.7766452    82.522319    4.4898482 
     143            0   -17361.579    7.7766452    82.522319    4.4898482 
     144            0   -17361.579    7.7766452    82.522319    4.4898482 
     145            0   -17361.579    7.7766452    82.522319    4.4898482 
     146            0   -17361.579    7.7766452    82.522319    4.4898482 
     147            0   -17361.579    7.7766452    82.522319    4.4898482 
     148            0   -17361.579    7.7766452    82.522319    4.4898482 
     149            0   -17361.579    7.7766452    82.522319    4.4898482 
     150            0   -17361.579    7.7766452    82.522319    4.4898482 
     151            0   -17361.579    7.7766452    82.522319    4.4898482 
Loop time of 0.178371 on 1 procs for 8 steps with 2912 atoms

Minimization stats:
  Stopping criterion = energy tolerance
  Energy initial, next-to-last, final = 
        -17361.5789835     -17361.5789835     -17361.5789835
  Force two-norm initial, final = 0.766254 0.766231
  Force max component initial, final = 0.0957818 0.0957789
  Final line search alpha, max atom move = 0 0
  Iterations, force evaluations = 8 69

Pair  time (%) = 0.164819 (92.4025)
Neigh time (%) = 0 (0)
Comm  time (%) = 0.00567033 (3.17895)
Outpt time (%) = 0.000799055 (0.447974)
Other time (%) = 0.00708234 (3.97057)

Nlocal:    2912 ave 2912 max 2912 min
Histogram: 1 0 0 0 0 0 0 0 0 0
Nghost:    7009 ave 7009 max 7009 min
Histogram: 1 0 0 0 0 0 0 0 0 0
Neighs:    77792 ave 77792 max 77792 min
Histogram: 1 0 0 0 0 0 0 0 0 0

Total # of neighbors = 77792
Ave neighs/atom = 26.7143
Neighbor list builds = 0
Dangerous builds = 0
        next i
jump SELF loop1
        displace_atoms upper move ${xstep1} 0.0 ${zstep1} units lattice
        displace_atoms upper move 0.00166666666666667 0.0 ${zstep1} units lattice
        displace_atoms upper move 0.00166666666666667 0.0 0 units lattice
        min_style ${style}
        min_style hftn
        minimize ${etol} ${ftol} ${maxiter} ${maxeval}
        minimize 1e-12 ${ftol} ${maxiter} ${maxeval}
        minimize 1e-12 1e-08 ${maxiter} ${maxeval}
        minimize 1e-12 1e-08 10000 ${maxeval}
        minimize 1e-12 1e-08 10000 20000
WARNING: Resetting reneighboring criteria during minimization (../min.cpp:168)
Memory usage per processor = 5.28939 Mbytes
Step Temp PotEng Lx Ly Lz 
     151            0   -17360.991    7.7766452    82.522319    4.4898482 
     152            0   -17360.992    7.7766452    82.522319    4.4898482 
     153            0   -17360.994    7.7766452    82.522319    4.4898482 
     154            0   -17360.994    7.7766452    82.522319    4.4898482 
     155            0   -17360.994    7.7766452    82.522319    4.4898482 
Loop time of 1.0989 on 1 procs for 3 steps with 2912 atoms

Minimization stats:
  Stopping criterion = force tolerance
  Energy initial, next-to-last, final = 
        -17360.9907566     -17360.9936951     -17360.9937222
  Force two-norm initial, final = 1.49499 4.61053e-11
  Force max component initial, final = 0.186873 4.0223e-12
  Final line search alpha, max atom move = 0 0
  Iterations, force evaluations = 3 484

Pair  time (%) = 0.998516 (90.8653)
Neigh time (%) = 0 (0)
Comm  time (%) = 0.018668 (1.69879)
Outpt time (%) = 0.00028481 (0.0259178)
Other time (%) = 0.0814284 (7.41001)

Nlocal:    2912 ave 2912 max 2912 min
Histogram: 1 0 0 0 0 0 0 0 0 0
Nghost:    7009 ave 7009 max 7009 min
Histogram: 1 0 0 0 0 0 0 0 0 0
Neighs:    77792 ave 77792 max 77792 min
Histogram: 1 0 0 0 0 0 0 0 0 0

Total # of neighbors = 77792
Ave neighs/atom = 26.7143
Neighbor list builds = 0
Dangerous builds = 0
        next i
jump SELF loop1
        displace_atoms upper move ${xstep1} 0.0 ${zstep1} units lattice
        displace_atoms upper move 0.00166666666666667 0.0 ${zstep1} units lattice
        displace_atoms upper move 0.00166666666666667 0.0 0 units lattice
        min_style ${style}
        min_style hftn
        minimize ${etol} ${ftol} ${maxiter} ${maxeval}
        minimize 1e-12 ${ftol} ${maxiter} ${maxeval}
        minimize 1e-12 1e-08 ${maxiter} ${maxeval}
        minimize 1e-12 1e-08 10000 ${maxeval}
        minimize 1e-12 1e-08 10000 20000
WARNING: Resetting reneighboring criteria during minimization (../min.cpp:168)
Memory usage per processor = 5.28939 Mbytes
Step Temp PotEng Lx Ly Lz 
     155            0   -17360.422    7.7766452    82.523356    4.4898482 
     156            0   -17360.422    7.7766452    82.523356    4.4898482 
     157            0   -17360.422    7.7766452    82.523356    4.4898482 
     158            0   -17360.422    7.7766452    82.523356    4.4898482 
     159            0   -17360.422    7.7766452    82.523356    4.4898482 
     160            0   -17360.422    7.7766452    82.523356    4.4898482 
     161            0   -17360.422    7.7766452    82.523356    4.4898482 
     162            0   -17360.422    7.7766452    82.523356    4.4898482 
     163            0   -17360.422    7.7766452    82.523356    4.4898482 
Loop time of 0.160411 on 1 procs for 7 steps with 2912 atoms

Minimization stats:
  Stopping criterion = energy tolerance
  Energy initial, next-to-last, final = 
        -17360.4223736     -17360.4223736     -17360.4223736
  Force two-norm initial, final = 0.676256 0.676174
  Force max component initial, final = 0.084532 0.0845217
  Final line search alpha, max atom move = 0 0
  Iterations, force evaluations = 7 62

Pair  time (%) = 0.143791 (89.6394)
Neigh time (%) = 0 (0)
Comm  time (%) = 0.00635118 (3.95932)
Outpt time (%) = 0.00064101 (0.399605)
Other time (%) = 0.00962738 (6.0017)

Nlocal:    2912 ave 2912 max 2912 min
Histogram: 1 0 0 0 0 0 0 0 0 0
Nghost:    7009 ave 7009 max 7009 min
Histogram: 1 0 0 0 0 0 0 0 0 0
Neighs:    77792 ave 77792 max 77792 min
Histogram: 1 0 0 0 0 0 0 0 0 0

Total # of neighbors = 77792
Ave neighs/atom = 26.7143
Neighbor list builds = 0
Dangerous builds = 0
        next i
jump SELF loop1
        displace_atoms upper move ${xstep1} 0.0 ${zstep1} units lattice
        displace_atoms upper move 0.00166666666666667 0.0 ${zstep1} units lattice
        displace_atoms upper move 0.00166666666666667 0.0 0 units lattice
        min_style ${style}
        min_style hftn
        minimize ${etol} ${ftol} ${maxiter} ${maxeval}
        minimize 1e-12 ${ftol} ${maxiter} ${maxeval}
        minimize 1e-12 1e-08 ${maxiter} ${maxeval}
        minimize 1e-12 1e-08 10000 ${maxeval}
        minimize 1e-12 1e-08 10000 20000
WARNING: Resetting reneighboring criteria during minimization (../min.cpp:168)
Memory usage per processor = 5.28939 Mbytes
Step Temp PotEng Lx Ly Lz 
     163            0   -17359.867    7.7766452    82.523356    4.4898482 
     164            0   -17359.868    7.7766452    82.523356    4.4898482 
     165            0   -17359.869    7.7766452    82.523356    4.4898482 
     166            0   -17359.869    7.7766452    82.523356    4.4898482 
     167            0   -17359.869    7.7766452    82.523356    4.4898482 
Loop time of 1.11813 on 1 procs for 3 steps with 2912 atoms

Minimization stats:
  Stopping criterion = force tolerance
  Energy initial, next-to-last, final = 
        -17359.8668995      -17359.869066     -17359.8690903
  Force two-norm initial, final = 1.30883 7.03422e-11
  Force max component initial, final = 0.163603 5.2441e-12
  Final line search alpha, max atom move = 0 0
  Iterations, force evaluations = 3 487

Pair  time (%) = 1.03011 (92.1283)
Neigh time (%) = 0 (0)
Comm  time (%) = 0.0186245 (1.66569)
Outpt time (%) = 0.000246001 (0.0220012)
Other time (%) = 0.0691451 (6.18402)

Nlocal:    2912 ave 2912 max 2912 min
Histogram: 1 0 0 0 0 0 0 0 0 0
Nghost:    7009 ave 7009 max 7009 min
Histogram: 1 0 0 0 0 0 0 0 0 0
Neighs:    77792 ave 77792 max 77792 min
Histogram: 1 0 0 0 0 0 0 0 0 0

Total # of neighbors = 77792
Ave neighs/atom = 26.7143
Neighbor list builds = 0
Dangerous builds = 0
        next i
jump SELF loop1
        displace_atoms upper move ${xstep1} 0.0 ${zstep1} units lattice
        displace_atoms upper move 0.00166666666666667 0.0 ${zstep1} units lattice
        displace_atoms upper move 0.00166666666666667 0.0 0 units lattice
        min_style ${style}
        min_style hftn
        minimize ${etol} ${ftol} ${maxiter} ${maxeval}
        minimize 1e-12 ${ftol} ${maxiter} ${maxeval}
        minimize 1e-12 1e-08 ${maxiter} ${maxeval}
        minimize 1e-12 1e-08 10000 ${maxeval}
        minimize 1e-12 1e-08 10000 20000
WARNING: Resetting reneighboring criteria during minimization (../min.cpp:168)
Memory usage per processor = 5.28939 Mbytes
Step Temp PotEng Lx Ly Lz 
     167            0   -17359.334    7.7766452    82.524268    4.4898482 
     168            0   -17359.334    7.7766452    82.524268    4.4898482 
     169            0   -17359.335    7.7766452    82.524268    4.4898482 
     170            0   -17359.335    7.7766452    82.524268    4.4898482 
     171            0   -17359.335    7.7766452    82.524268    4.4898482 
Loop time of 1.14302 on 1 procs for 3 steps with 2912 atoms

Minimization stats:
  Stopping criterion = force tolerance
  Energy initial, next-to-last, final = 
        -17359.3339357     -17359.3347267     -17359.3347294
  Force two-norm initial, final = 0.580309 3.27023e-11
  Force max component initial, final = 0.0725386 2.44359e-12
  Final line search alpha, max atom move = 0 0
  Iterations, force evaluations = 3 503

Pair  time (%) = 1.04243 (91.2)
Neigh time (%) = 0 (0)
Comm  time (%) = 0.0236649 (2.07039)
Outpt time (%) = 0.000215048 (0.0188141)
Other time (%) = 0.0767052 (6.71076)

Nlocal:    2912 ave 2912 max 2912 min
[...]
Neighs:    77856 ave 77856 max 77856 min
Histogram: 1 0 0 0 0 0 0 0 0 0

Total # of neighbors = 77856
Ave neighs/atom = 26.7363
Neighbor list builds = 0
Dangerous builds = 0
        next j
jump SELF loop2
        displace_atoms upper move ${xstep2} 0.0 ${zstep2} units lattice
        displace_atoms upper move 0.000833333333333329 0.0 ${zstep2} units lattice
        displace_atoms upper move 0.000833333333333329 0.0 0.00249999999999999 units lattice
        min_style ${style}
        min_style hftn
        minimize ${etol} ${ftol} ${maxiter} ${maxeval}
        minimize 1e-12 ${ftol} ${maxiter} ${maxeval}
        minimize 1e-12 1e-08 ${maxiter} ${maxeval}
        minimize 1e-12 1e-08 10000 ${maxeval}
        minimize 1e-12 1e-08 10000 20000
WARNING: Resetting reneighboring criteria during minimization (../min.cpp:168)
Memory usage per processor = 5.28939 Mbytes
Step Temp PotEng Lx Ly Lz 
    1835            0   -17375.065    7.7766452    82.505761    4.4898482 
    1836            0   -17375.065    7.7766452    82.505761    4.4898482 
    1837            0   -17375.065    7.7766452    82.505761    4.4898482 
    1838            0   -17375.067    7.7766452    82.505761    4.4898482 
    1839            0   -17375.067    7.7766452    82.505761    4.4898482 
    1840            0   -17375.067    7.7766452    82.505761    4.4898482 
    1841            0   -17375.067    7.7766452    82.505761    4.4898482 
    1842            0   -17375.067    7.7766452    82.505761    4.4898482 
    1843            0   -17375.067    7.7766452    82.505761    4.4898482 
    1844            0   -17375.067    7.7766452    82.505761    4.4898482 
    1845            0   -17375.067    7.7766452    82.505761    4.4898482 
    1846            0   -17375.067    7.7766452    82.505761    4.4898482 
    1847            0   -17375.067    7.7766452    82.505761    4.4898482 
    1848            0   -17375.067    7.7766452    82.505761    4.4898482 
    1849            0   -17375.067    7.7766452    82.505761    4.4898482 
    1850            0   -17375.067    7.7766452    82.505761    4.4898482 
    1851            0   -17375.067    7.7766452    82.505761    4.4898482 
    1852            0   -17375.067    7.7766452    82.505761    4.4898482 
    1853            0   -17375.067    7.7766452    82.505761    4.4898482 
Loop time of 0.899798 on 1 procs for 17 steps with 2912 atoms

Minimization stats:
  Stopping criterion = energy tolerance
  Energy initial, next-to-last, final = 
        -17375.0651031     -17375.0672759     -17375.0672762
  Force two-norm initial, final = 1.03598 0.0127274
  Force max component initial, final = 0.129495 0.000594739
  Final line search alpha, max atom move = 0 0
  Iterations, force evaluations = 17 386

Pair  time (%) = 0.815301 (90.6094)
Neigh time (%) = 0 (0)
Comm  time (%) = 0.0236637 (2.62989)
Outpt time (%) = 0.00145105 (0.161264)
Other time (%) = 0.0593819 (6.59947)

Nlocal:    2912 ave 2912 max 2912 min
Histogram: 1 0 0 0 0 0 0 0 0 0
Nghost:    7129 ave 7129 max 7129 min
Histogram: 1 0 0 0 0 0 0 0 0 0
Neighs:    77856 ave 77856 max 77856 min
Histogram: 1 0 0 0 0 0 0 0 0 0

Total # of neighbors = 77856
Ave neighs/atom = 26.7363
Neighbor list builds = 0
Dangerous builds = 0
        next j
jump SELF loop2
        displace_atoms upper move ${xstep2} 0.0 ${zstep2} units lattice
        displace_atoms upper move 0.000833333333333329 0.0 ${zstep2} units lattice
        displace_atoms upper move 0.000833333333333329 0.0 0.00249999999999999 units lattice
        min_style ${style}
        min_style hftn
        minimize ${etol} ${ftol} ${maxiter} ${maxeval}
        minimize 1e-12 ${ftol} ${maxiter} ${maxeval}
        minimize 1e-12 1e-08 ${maxiter} ${maxeval}
        minimize 1e-12 1e-08 10000 ${maxeval}
        minimize 1e-12 1e-08 10000 20000
WARNING: Resetting reneighboring criteria during minimization (../min.cpp:168)
Memory usage per processor = 5.28939 Mbytes
Step Temp PotEng Lx Ly Lz 
    1853            0   -17375.335    7.7766452    82.505246    4.4898482 
    1854            0   -17375.335    7.7766452    82.505246    4.4898482 
    1855            0   -17375.336    7.7766452    82.505246    4.4898482 
    1856            0   -17375.336    7.7766452    82.505246    4.4898482 
    1857            0   -17375.336    7.7766452    82.505246    4.4898482 
    1858            0   -17375.336    7.7766452    82.505246    4.4898482 
    1859            0   -17375.336    7.7766452    82.505246    4.4898482 
    1860            0   -17375.336    7.7766452    82.505246    4.4898482 
    1861            0   -17375.336    7.7766452    82.505246    4.4898482 
    1862            0   -17375.336    7.7766452    82.505246    4.4898482 
    1863            0   -17375.336    7.7766452    82.505246    4.4898482 
Loop time of 0.199013 on 1 procs for 9 steps with 2912 atoms

Minimization stats:
  Stopping criterion = energy tolerance
  Energy initial, next-to-last, final = 
        -17375.3351175     -17375.3351175     -17375.3355313
  Force two-norm initial, final = 0.909678 0.469267
  Force max component initial, final = 0.113701 0.0552149
  Final line search alpha, max atom move = 0 0
  Iterations, force evaluations = 9 74

Pair  time (%) = 0.18355 (92.2303)
Neigh time (%) = 0 (0)
Comm  time (%) = 0.00240755 (1.20975)
Outpt time (%) = 0.00298894 (1.50188)
Other time (%) = 0.0100662 (5.05804)

Nlocal:    2912 ave 2912 max 2912 min
Histogram: 1 0 0 0 0 0 0 0 0 0
Nghost:    7129 ave 7129 max 7129 min
Histogram: 1 0 0 0 0 0 0 0 0 0
Neighs:    77856 ave 77856 max 77856 min
Histogram: 1 0 0 0 0 0 0 0 0 0

Total # of neighbors = 77856
Ave neighs/atom = 26.7363
Neighbor list builds = 0
Dangerous builds = 0
        next j
jump SELF loop2
        displace_atoms upper move ${xstep2} 0.0 ${zstep2} units lattice
        displace_atoms upper move 0.000833333333333329 0.0 ${zstep2} units lattice
        displace_atoms upper move 0.000833333333333329 0.0 0.00249999999999999 units lattice
        min_style ${style}
        min_style hftn
        minimize ${etol} ${ftol} ${maxiter} ${maxeval}
        minimize 1e-12 ${ftol} ${maxiter} ${maxeval}
        minimize 1e-12 1e-08 ${maxiter} ${maxeval}
        minimize 1e-12 1e-08 10000 ${maxeval}
        minimize 1e-12 1e-08 10000 20000
WARNING: Resetting reneighboring criteria during minimization (../min.cpp:168)
Memory usage per processor = 5.28939 Mbytes
Step Temp PotEng Lx Ly Lz 
    1863            0    -17375.56    7.7766452    82.505245    4.4898482 
    1864            0   -17375.561    7.7766452    82.505245    4.4898482 
    1865            0   -17375.561    7.7766452    82.505245    4.4898482 
    1866            0   -17375.562    7.7766452    82.505245    4.4898482 
    1867            0   -17375.563    7.7766452    82.505245    4.4898482 
    1868            0   -17375.563    7.7766452    82.505245    4.4898482 
    1869            0   -17375.563    7.7766452    82.505245    4.4898482 
    1870            0   -17375.563    7.7766452    82.505245    4.4898482 
    1871            0   -17375.563    7.7766452    82.505245    4.4898482 
    1872            0   -17375.563    7.7766452    82.505245    4.4898482 
    1873            0   -17375.563    7.7766452    82.505245    4.4898482 
    1874            0   -17375.563    7.7766452    82.505245    4.4898482 
    1875            0   -17375.563    7.7766452    82.505245    4.4898482 
    1876            0   -17375.563    7.7766452    82.505245    4.4898482 
    1877            0   -17375.563    7.7766452    82.505245    4.4898482 
    1878            0   -17375.563    7.7766452    82.505245    4.4898482 
    1879            0   -17375.563    7.7766452    82.505245    4.4898482 
    1880            0   -17375.563    7.7766452    82.505245    4.4898482 
Loop time of 1.06467 on 1 procs for 16 steps with 2912 atoms

Minimization stats:
  Stopping criterion = energy tolerance
  Energy initial, next-to-last, final = 
        -17375.5603069     -17375.5632045     -17375.5632261
  Force two-norm initial, final = 1.21666 0.0418561
  Force max component initial, final = 0.150789 0.00353898
  Final line search alpha, max atom move = 0 0
  Iterations, force evaluations = 16 461

Pair  time (%) = 0.966645 (90.7929)
Neigh time (%) = 0 (0)
Comm  time (%) = 0.0259178 (2.43435)
Outpt time (%) = 0.00567089 (0.532643)
Other time (%) = 0.0664362 (6.24007)

Nlocal:    2912 ave 2912 max 2912 min
Histogram: 1 0 0 0 0 0 0 0 0 0
Nghost:    7129 ave 7129 max 7129 min
Histogram: 1 0 0 0 0 0 0 0 0 0
Neighs:    77856 ave 77856 max 77856 min
Histogram: 1 0 0 0 0 0 0 0 0 0

Total # of neighbors = 77856
Ave neighs/atom = 26.7363
Neighbor list builds = 0
Dangerous builds = 0
        next j
jump SELF loop2
        displace_atoms upper move ${xstep2} 0.0 ${zstep2} units lattice
        displace_atoms upper move 0.000833333333333329 0.0 ${zstep2} units lattice
        displace_atoms upper move 0.000833333333333329 0.0 0.00249999999999999 units lattice
        min_style ${style}
        min_style hftn
        minimize ${etol} ${ftol} ${maxiter} ${maxeval}
        minimize 1e-12 ${ftol} ${maxiter} ${maxeval}
        minimize 1e-12 1e-08 ${maxiter} ${maxeval}
        minimize 1e-12 1e-08 10000 ${maxeval}
        minimize 1e-12 1e-08 10000 20000
WARNING: Resetting reneighboring criteria during minimization (../min.cpp:168)
Memory usage per processor = 5.28939 Mbytes
Step Temp PotEng Lx Ly Lz 
    1880            0   -17375.745    7.7766452    82.503774    4.4898482 
    1881            0   -17375.745    7.7766452    82.503774    4.4898482 
    1882            0   -17375.745    7.7766452    82.503774    4.4898482 
    1883            0   -17375.745    7.7766452    82.503774    4.4898482 
    1884            0   -17375.745    7.7766452    82.503774    4.4898482 
    1885            0   -17375.745    7.7766452    82.503774    4.4898482 
    1886            0   -17375.745    7.7766452    82.503774    4.4898482 
    1887            0   -17375.745    7.7766452    82.503774    4.4898482 
    1888            0   -17375.745    7.7766452    82.503774    4.4898482 
    1889            0   -17375.745    7.7766452    82.503774    4.4898482 
    1890            0   -17375.745    7.7766452    82.503774    4.4898482 
    1891            0   -17375.745    7.7766452    82.503774    4.4898482 
    1892            0   -17375.745    7.7766452    82.503774    4.4898482 
    1893            0   -17375.745    7.7766452    82.503774    4.4898482 
    1894            0   -17375.745    7.7766452    82.503774    4.4898482 
Loop time of 0.849918 on 1 procs for 13 steps with 2912 atoms

Minimization stats:
  Stopping criterion = energy tolerance
  Energy initial, next-to-last, final = 
        -17375.7445911     -17375.7450635     -17375.7450656
  Force two-norm initial, final = 0.626101 0.0175039
  Force max component initial, final = 0.0781013 0.000812819
  Final line search alpha, max atom move = 0 0
  Iterations, force evaluations = 13 364

Pair  time (%) = 0.774873 (91.1704)
Neigh time (%) = 0 (0)
Comm  time (%) = 0.0154744 (1.82069)
Outpt time (%) = 0.00699619 (0.823161)
Other time (%) = 0.0525742 (6.18579)

Nlocal:    2912 ave 2912 max 2912 min
Histogram: 1 0 0 0 0 0 0 0 0 0
Nghost:    7129 ave 7129 max 7129 min
Histogram: 1 0 0 0 0 0 0 0 0 0
Neighs:    77856 ave 77856 max 77856 min
Histogram: 1 0 0 0 0 0 0 0 0 0

Total # of neighbors = 77856
Ave neighs/atom = 26.7363
Neighbor list builds = 0
Dangerous builds = 0
        next j
jump SELF loop2
        displace_atoms upper move ${xstep2} 0.0 ${zstep2} units lattice
        displace_atoms upper move 0.000833333333333329 0.0 ${zstep2} units lattice
        displace_atoms upper move 0.000833333333333329 0.0 0.00249999999999999 units lattice
        min_style ${style}
        min_style hftn
        minimize ${etol} ${ftol} ${maxiter} ${maxeval}
        minimize 1e-12 ${ftol} ${maxiter} ${maxeval}
        minimize 1e-12 1e-08 ${maxiter} ${maxeval}
        minimize 1e-12 1e-08 10000 ${maxeval}
        minimize 1e-12 1e-08 10000 20000
WARNING: Resetting reneighboring criteria during minimization (../min.cpp:168)
Memory usage per processor = 5.28939 Mbytes
Step Temp PotEng Lx Ly Lz 
    1894            0   -17375.878    7.7766452    82.502976    4.4898482 
    1895            0   -17375.878    7.7766452    82.502976    4.4898482 
    1896            0   -17375.878    7.7766452    82.502976    4.4898482 
    1897            0   -17375.879    7.7766452    82.502976    4.4898482 
    1898            0   -17375.879    7.7766452    82.502976    4.4898482 
    1899            0   -17375.879    7.7766452    82.502976    4.4898482 
    1900            0   -17375.879    7.7766452    82.502976    4.4898482 
    1901            0   -17375.879    7.7766452    82.502976    4.4898482 
    1902            0   -17375.879    7.7766452    82.502976    4.4898482 
    1903            0   -17375.879    7.7766452    82.502976    4.4898482 
    1904            0   -17375.879    7.7766452    82.502976    4.4898482 
    1905            0   -17375.879    7.7766452    82.502976    4.4898482 
    1906            0   -17375.879    7.7766452    82.502976    4.4898482 
    1907            0   -17375.879    7.7766452    82.502976    4.4898482 
    1908            0   -17375.879    7.7766452    82.502976    4.4898482 
    1909            0   -17375.879    7.7766452    82.502976    4.4898482 
Loop time of 0.764964 on 1 procs for 14 steps with 2912 atoms

Minimization stats:
  Stopping criterion = energy tolerance
  Energy initial, next-to-last, final = 
        -17375.8782677     -17375.8787099     -17375.8787157
  Force two-norm initial, final = 0.455468 0.0163682
  Force max component initial, final = 0.056894 0.000872117
  Final line search alpha, max atom move = 0 0
  Iterations, force evaluations = 14 333

Pair  time (%) = 0.70309 (91.9115)
Neigh time (%) = 0 (0)
Comm  time (%) = 0.013662 (1.78597)
Outpt time (%) = 0.00136157 (0.177992)
Other time (%) = 0.0468502 (6.1245)

Nlocal:    2912 ave 2912 max 2912 min
Histogram: 1 0 0 0 0 0 0 0 0 0
Nghost:    7129 ave 7129 max 7129 min
Histogram: 1 0 0 0 0 0 0 0 0 0
Neighs:    77856 ave 77856 max 77856 min
Histogram: 1 0 0 0 0 0 0 0 0 0

Total # of neighbors = 77856
Ave neighs/atom = 26.7363
Neighbor list builds = 0
Dangerous builds = 0
        next j
jump SELF loop2
        displace_atoms upper move ${xstep2} 0.0 ${zstep2} units lattice
        displace_atoms upper move 0.000833333333333329 0.0 ${zstep2} units lattice
        displace_atoms upper move 0.000833333333333329 0.0 0.00249999999999999 units lattice
        min_style ${style}
        min_style hftn
        minimize ${etol} ${ftol} ${maxiter} ${maxeval}
        minimize 1e-12 ${ftol} ${maxiter} ${maxeval}
        minimize 1e-12 1e-08 ${maxiter} ${maxeval}
        minimize 1e-12 1e-08 10000 ${maxeval}
        minimize 1e-12 1e-08 10000 20000
WARNING: Resetting reneighboring criteria during minimization (../min.cpp:168)
Memory usage per processor = 5.28939 Mbytes
Step Temp PotEng Lx Ly Lz 
    1909            0   -17375.961    7.7766452    82.502575    4.4898482 
    1910            0   -17375.961    7.7766452    82.502575    4.4898482 
    1911            0   -17375.961    7.7766452    82.502575    4.4898482 
    1912            0   -17375.961    7.7766452    82.502575    4.4898482 
    1913            0   -17375.961    7.7766452    82.502575    4.4898482 
    1914            0   -17375.961    7.7766452    82.502575    4.4898482 
    1915            0   -17375.961    7.7766452    82.502575    4.4898482 
    1916            0   -17375.961    7.7766452    82.502575    4.4898482 
    1917            0   -17375.961    7.7766452    82.502575    4.4898482 
    1918            0   -17375.961    7.7766452    82.502575    4.4898482 
    1919            0   -17375.961    7.7766452    82.502575    4.4898482 
    1920            0   -17375.961    7.7766452    82.502575    4.4898482 
    1921            0   -17375.961    7.7766452    82.502575    4.4898482 
    1922            0   -17375.961    7.7766452    82.502575    4.4898482 
    1923            0   -17375.961    7.7766452    82.502575    4.4898482 
    1924            0   -17375.961    7.7766452    82.502575    4.4898482 
Loop time of 0.648447 on 1 procs for 14 steps with 2912 atoms

Minimization stats:
  Stopping criterion = energy tolerance
  Energy initial, next-to-last, final = 
        -17375.9607073     -17375.9612873     -17375.9612875
  Force two-norm initial, final = 0.278698 0.00896482
  Force max component initial, final = 0.0347787 0.000270019
  Final line search alpha, max atom move = 0 0
  Iterations, force evaluations = 14 261

Pair  time (%) = 0.594968 (91.7527)
Neigh time (%) = 0 (0)
Comm  time (%) = 0.0120217 (1.85393)
Outpt time (%) = 0.00113085 (0.174393)
Other time (%) = 0.0403267 (6.21896)

Nlocal:    2912 ave 2912 max 2912 min
Histogram: 1 0 0 0 0 0 0 0 0 0
Nghost:    7129 ave 7129 max 7129 min
Histogram: 1 0 0 0 0 0 0 0 0 0
Neighs:    77856 ave 77856 max 77856 min
Histogram: 1 0 0 0 0 0 0 0 0 0

Total # of neighbors = 77856
Ave neighs/atom = 26.7363
Neighbor list builds = 0
Dangerous builds = 0
        next j
jump SELF loop2
        displace_atoms upper move ${xstep2} 0.0 ${zstep2} units lattice
        displace_atoms upper move 0.000833333333333329 0.0 ${zstep2} units lattice
        displace_atoms upper move 0.000833333333333329 0.0 0.00249999999999999 units lattice
        min_style ${style}
        min_style hftn
        minimize ${etol} ${ftol} ${maxiter} ${maxeval}
        minimize 1e-12 ${ftol} ${maxiter} ${maxeval}
        minimize 1e-12 1e-08 ${maxiter} ${maxeval}
        minimize 1e-12 1e-08 10000 ${maxeval}
        minimize 1e-12 1e-08 10000 20000
WARNING: Resetting reneighboring criteria during minimization (../min.cpp:168)
Memory usage per processor = 5.28939 Mbytes
Step Temp PotEng Lx Ly Lz 
    1924            0   -17375.989    7.7766452    82.502555    4.4898482 
    1925            0   -17375.989    7.7766452    82.502555    4.4898482 
    1926            0   -17375.989    7.7766452    82.502555    4.4898482 
    1927            0   -17375.989    7.7766452    82.502555    4.4898482 
    1928            0   -17375.989    7.7766452    82.502555    4.4898482 
    1929            0   -17375.989    7.7766452    82.502555    4.4898482 
    1930            0   -17375.989    7.7766452    82.502555    4.4898482 
    1931            0   -17375.989    7.7766452    82.502555    4.4898482 
    1932            0   -17375.989    7.7766452    82.502555    4.4898482 
    1933            0   -17375.989    7.7766452    82.502555    4.4898482 
    1934            0   -17375.989    7.7766452    82.502555    4.4898482 
    1935            0   -17375.989    7.7766452    82.502555    4.4898482 
    1936            0   -17375.989    7.7766452    82.502555    4.4898482 
    1937            0   -17375.989    7.7766452    82.502555    4.4898482 
    1938            0   -17375.989    7.7766452    82.502555    4.4898482 
    1939            0   -17375.989    7.7766452    82.502555    4.4898482 
Loop time of 0.675449 on 1 procs for 14 steps with 2912 atoms

Minimization stats:
  Stopping criterion = energy tolerance
  Energy initial, next-to-last, final = 
        -17375.9892446      -17375.989406     -17375.9894083
  Force two-norm initial, final = 0.0964229 0.0108954
  Force max component initial, final = 0.0120013 0.000443829
  Final line search alpha, max atom move = 0 0
  Iterations, force evaluations = 14 259

Pair  time (%) = 0.625457 (92.5987)
Neigh time (%) = 0 (0)
Comm  time (%) = 0.0115618 (1.71172)
Outpt time (%) = 0.00411244 (0.608845)
Other time (%) = 0.034318 (5.08077)

Nlocal:    2912 ave 2912 max 2912 min
Histogram: 1 0 0 0 0 0 0 0 0 0
Nghost:    7129 ave 7129 max 7129 min
Histogram: 1 0 0 0 0 0 0 0 0 0
Neighs:    77856 ave 77856 max 77856 min
Histogram: 1 0 0 0 0 0 0 0 0 0

Total # of neighbors = 77856
Ave neighs/atom = 26.7363
Neighbor list builds = 0
Dangerous builds = 0
        next j
jump SELF loop2


