LAMMPS (28 Jun 2014)
# attempt at getting generalized stacking fault (GSF) energy curve

#file prefix
variable prefix string gsf_V_ductile
variable dumpfile string ${prefix}.*.dump
variable dumpfile string gsf_V_ductile.*.dump
variable restartfile string ${prefix}.*.equil
variable restartfile string gsf_V_ductile.*.equil

#Mass (g/mol)
variable m equal 1

# lattice constant (in Angstroms) and orientation of axes (given by lattice vectors)
variable rho equal 0.9165
variable x1 equal 1
variable x2 equal 0
variable x3 equal 0
variable y1 equal 0
variable y2 equal 1
variable y3 equal 0
# length of lattice in different directions (using orientation of lattice vectors)
variable ax equal sqrt(${x1}*${x1}+${x2}*${x2}+${x3}*${x3})
variable ax equal sqrt(1*${x1}+${x2}*${x2}+${x3}*${x3})
variable ax equal sqrt(1*1+${x2}*${x2}+${x3}*${x3})
variable ax equal sqrt(1*1+0*${x2}+${x3}*${x3})
variable ax equal sqrt(1*1+0*0+${x3}*${x3})
variable ax equal sqrt(1*1+0*0+0*${x3})
variable ax equal sqrt(1*1+0*0+0*0)
variable ay equal sqrt(${y1}*${y1}+${y2}*${y2}+${y3}*${y3})
variable ay equal sqrt(0*${y1}+${y2}*${y2}+${y3}*${y3})
variable ay equal sqrt(0*0+${y2}*${y2}+${y3}*${y3})
variable ay equal sqrt(0*0+1*${y2}+${y3}*${y3})
variable ay equal sqrt(0*0+1*1+${y3}*${y3})
variable ay equal sqrt(0*0+1*1+0*${y3})
variable ay equal sqrt(0*0+1*1+0*0)
variable az equal 1

# size of box in lattice units
variable lxpos equal 1
variable lxneg equal -1*${lxpos}
variable lxneg equal -1*1
variable lypos equal 10
variable lyneg equal -1*${lypos}
variable lyneg equal -1*10
variable lzpos equal 0
variable lzneg equal -1

# Define minimization parameters and damping
variable etol equal 1.0e-12
variable ftol equal 1.0e-8
variable maxiter equal 10000
variable maxeval equal 20000
variable style string hftn

# boundary conditions
dimension	2
boundary	p s p
atom_style	atomic

# create geometry
units		lj
lattice         hex ${rho}
lattice         hex 0.9165
Lattice spacing in x,y,z = 1.12245 1.94415 1.12245
region		myregion block ${lxneg} ${lxpos} ${lyneg} ${lypos} ${lzneg} ${lzpos} units lattice
region		myregion block -1 ${lxpos} ${lyneg} ${lypos} ${lzneg} ${lzpos} units lattice
region		myregion block -1 1 ${lyneg} ${lypos} ${lzneg} ${lzpos} units lattice
region		myregion block -1 1 -10 ${lypos} ${lzneg} ${lzpos} units lattice
region		myregion block -1 1 -10 10 ${lzneg} ${lzpos} units lattice
region		myregion block -1 1 -10 10 -1 ${lzpos} units lattice
region		myregion block -1 1 -10 10 -1 0 units lattice
create_box	3 myregion
Created orthogonal box = (-1.12245 -19.4415 -1.12245) to (1.12245 19.4415 0)
  1 by 1 by 1 MPI processor grid
create_atoms	1 box
Created 82 atoms

# define masses
mass * $m
mass * 1

# my fake/morse potential
pair_style      table linear 3001
pair_coeff      * * vpotential_ductile dummy
neighbor	0.3 bin
neigh_modify	delay 5

# define groups
region	    upper block INF INF 0.01 ${lypos} INF INF units lattice
region	    upper block INF INF 0.01 10 INF INF units lattice
group		upper region upper
40 atoms in group upper

# Setup output
thermo 1
thermo_style custom step temp pe lx ly lz
thermo_modify norm no

# Compute initial state by relaxing box
min_style ${style}
min_style hftn
minimize ${etol} ${ftol} ${maxiter} ${maxeval}
minimize 1e-12 ${ftol} ${maxiter} ${maxeval}
minimize 1e-12 1e-08 ${maxiter} ${maxeval}
minimize 1e-12 1e-08 10000 ${maxeval}
minimize 1e-12 1e-08 10000 20000
WARNING: Resetting reneighboring criteria during minimization (../min.cpp:168)
Memory usage per processor = 4.85169 Mbytes
Step Temp PotEng Lx Ly Lz 
       0            0   -241.99993    2.2449075    38.890715    1.1224537 
       1            0   -241.99994    2.2449075    38.890715    1.1224537 
       2            0   -241.99994    2.2449075    38.890715    1.1224537 
       3            0   -241.99994    2.2449075    38.890715    1.1224537 
       4            0   -241.99994    2.2449075    38.890715    1.1224537 
       5            0   -241.99994    2.2449075    38.890715    1.1224537 
Loop time of 0.0027319 on 1 procs for 4 steps with 82 atoms

Minimization stats:
  Stopping criterion = force tolerance
  Energy initial, next-to-last, final = 
        -241.999927696     -241.999927696     -241.999937101
  Force two-norm initial, final = 0.000778805 9.96874e-09
  Force max component initial, final = 0.000389403 4.81123e-09
  Final line search alpha, max atom move = 0 0
  Iterations, force evaluations = 4 103

Pair  time (%) = 0.00189543 (69.3814)
Neigh time (%) = 0 (0)
Comm  time (%) = 0.000154585 (5.65853)
Outpt time (%) = 0.000184868 (6.76702)
Other time (%) = 0.000497015 (18.193)

Nlocal:    82 ave 82 max 82 min
Histogram: 1 0 0 0 0 0 0 0 0 0
Nghost:    185 ave 185 max 185 min
Histogram: 1 0 0 0 0 0 0 0 0 0
Neighs:    718 ave 718 max 718 min
Histogram: 1 0 0 0 0 0 0 0 0 0

Total # of neighbors = 718
Ave neighs/atom = 8.7561
Neighbor list builds = 0
Dangerous builds = 0

# don't allow atoms to relax in x-direction
fix 2 all setforce 0.0 NULL 0.0

# GSF energy curve will have 100*2 steps
variable nsteps equal 500
variable sstep1 equal 1.
variable xstep1 equal ${sstep1}/(${ax}*${nsteps})
variable xstep1 equal 1/(${ax}*${nsteps})
variable xstep1 equal 1/(1*${nsteps})
variable xstep1 equal 1/(1*500)

variable i loop ${nsteps}
variable i loop 500
label loop1
        displace_atoms upper move ${xstep1} 0.0 0.0 units lattice
        displace_atoms upper move 0.002 0.0 0.0 units lattice
        min_style ${style}
        min_style hftn
        minimize ${etol} ${ftol} ${maxiter} ${maxeval}
        minimize 1e-12 ${ftol} ${maxiter} ${maxeval}
        minimize 1e-12 1e-08 ${maxiter} ${maxeval}
        minimize 1e-12 1e-08 10000 ${maxeval}
        minimize 1e-12 1e-08 10000 20000
WARNING: Resetting reneighboring criteria during minimization (../min.cpp:168)
Memory usage per processor = 4.85169 Mbytes
Step Temp PotEng Lx Ly Lz 
       5            0   -241.99987    2.2449075    38.891137    1.1224537 
       6            0   -241.99987    2.2449075    38.891137    1.1224537 
Loop time of 0.00360495 on 1 procs for 0 steps with 82 atoms

Minimization stats:
  Stopping criterion = force tolerance
  Energy initial, next-to-last, final = 
        -241.999874687     -241.999874687     -241.999874668
  Force two-norm initial, final = 0.000521569 5.61261e-09
  Force max component initial, final = 0.000260785 1.91841e-09
  Final line search alpha, max atom move = 0 0
  Iterations, force evaluations = 0 83

Pair  time (%) = 0.00140023 (38.8417)
Neigh time (%) = 0 (0)
Comm  time (%) = 0.000120671 (3.34736)
Outpt time (%) = 0 (0)
Other time (%) = 0.00208406 (57.811)

Nlocal:    82 ave 82 max 82 min
Histogram: 1 0 0 0 0 0 0 0 0 0
Nghost:    185 ave 185 max 185 min
Histogram: 1 0 0 0 0 0 0 0 0 0
Neighs:    718 ave 718 max 718 min
Histogram: 1 0 0 0 0 0 0 0 0 0

Total # of neighbors = 718
Ave neighs/atom = 8.7561
Neighbor list builds = 0
Dangerous builds = 0
        # write_dump all atom ${dumpfile}
        next i
jump SELF loop1
        displace_atoms upper move ${xstep1} 0.0 0.0 units lattice
        displace_atoms upper move 0.002 0.0 0.0 units lattice
        min_style ${style}
        min_style hftn
        minimize ${etol} ${ftol} ${maxiter} ${maxeval}
        minimize 1e-12 ${ftol} ${maxiter} ${maxeval}
        minimize 1e-12 1e-08 ${maxiter} ${maxeval}
        minimize 1e-12 1e-08 10000 ${maxeval}
        minimize 1e-12 1e-08 10000 20000
WARNING: Resetting reneighboring criteria during minimization (../min.cpp:168)
Memory usage per processor = 4.85169 Mbytes
Step Temp PotEng Lx Ly Lz 
       6            0   -241.99969    2.2449075    38.891144    1.1224537 
       7            0   -241.99969    2.2449075    38.891144    1.1224537 
       8            0   -241.99969    2.2449075    38.891144    1.1224537 
       9            0   -241.99969    2.2449075    38.891144    1.1224537 
      10            0   -241.99969    2.2449075    38.891144    1.1224537 
      11            0   -241.99969    2.2449075    38.891144    1.1224537 
      12            0   -241.99969    2.2449075    38.891144    1.1224537 
      13            0   -241.99969    2.2449075    38.891144    1.1224537 
Loop time of 0.00320605 on 1 procs for 6 steps with 82 atoms

Minimization stats:
  Stopping criterion = energy tolerance
  Energy initial, next-to-last, final = 
        -241.999688201     -241.999688201     -241.999688201
  Force two-norm initial, final = 0.00155568 0.00155483
  Force max component initial, final = 0.00077784 0.000777417
  Final line search alpha, max atom move = 0 0
  Iterations, force evaluations = 6 131

Pair  time (%) = 0.00219409 (68.4358)
Neigh time (%) = 0 (0)
Comm  time (%) = 0.00017802 (5.55262)
Outpt time (%) = 0.000228777 (7.13579)
Other time (%) = 0.00060517 (18.8758)

Nlocal:    82 ave 82 max 82 min
Histogram: 1 0 0 0 0 0 0 0 0 0
Nghost:    185 ave 185 max 185 min
Histogram: 1 0 0 0 0 0 0 0 0 0
Neighs:    718 ave 718 max 718 min
Histogram: 1 0 0 0 0 0 0 0 0 0

Total # of neighbors = 718
Ave neighs/atom = 8.7561
Neighbor list builds = 0
Dangerous builds = 0
        # write_dump all atom ${dumpfile}
        next i
jump SELF loop1
        displace_atoms upper move ${xstep1} 0.0 0.0 units lattice
        displace_atoms upper move 0.002 0.0 0.0 units lattice
        min_style ${style}
        min_style hftn
        minimize ${etol} ${ftol} ${maxiter} ${maxeval}
        minimize 1e-12 ${ftol} ${maxiter} ${maxeval}
        minimize 1e-12 1e-08 ${maxiter} ${maxeval}
        minimize 1e-12 1e-08 10000 ${maxeval}
        minimize 1e-12 1e-08 10000 20000
WARNING: Resetting reneighboring criteria during minimization (../min.cpp:168)
Memory usage per processor = 4.85169 Mbytes
Step Temp PotEng Lx Ly Lz 
      13            0   -241.99938    2.2449075    38.891144    1.1224537 
      14            0   -241.99938    2.2449075    38.891144    1.1224537 
      15            0   -241.99938    2.2449075    38.891144    1.1224537 
Loop time of 0.00582992 on 1 procs for 1 steps with 82 atoms

Minimization stats:
  Stopping criterion = force tolerance
  Energy initial, next-to-last, final = 
        -241.999378717     -241.999378717     -241.999378885
  Force two-norm initial, final = 0.00413147 6.12457e-09
  Force max component initial, final = 0.00206573 2.28636e-09
  Final line search alpha, max atom move = 0 0
  Iterations, force evaluations = 1 183

Pair  time (%) = 0.00447815 (76.8133)
Neigh time (%) = 0 (0)
Comm  time (%) = 0.000305563 (5.24129)
Outpt time (%) = 5.30927e-05 (0.910694)
Other time (%) = 0.00099311 (17.0347)

Nlocal:    82 ave 82 max 82 min
Histogram: 1 0 0 0 0 0 0 0 0 0
Nghost:    185 ave 185 max 185 min
Histogram: 1 0 0 0 0 0 0 0 0 0
Neighs:    718 ave 718 max 718 min
Histogram: 1 0 0 0 0 0 0 0 0 0

Total # of neighbors = 718
Ave neighs/atom = 8.7561
Neighbor list builds = 0
Dangerous builds = 0
        # write_dump all atom ${dumpfile}
        next i
jump SELF loop1
        displace_atoms upper move ${xstep1} 0.0 0.0 units lattice
        displace_atoms upper move 0.002 0.0 0.0 units lattice
        min_style ${style}
        min_style hftn
        minimize ${etol} ${ftol} ${maxiter} ${maxeval}
        minimize 1e-12 ${ftol} ${maxiter} ${maxeval}
        minimize 1e-12 1e-08 ${maxiter} ${maxeval}
        minimize 1e-12 1e-08 10000 ${maxeval}
        minimize 1e-12 1e-08 10000 20000
WARNING: Resetting reneighboring criteria during minimization (../min.cpp:168)
Memory usage per processor = 4.85169 Mbytes
Step Temp PotEng Lx Ly Lz 
      15            0   -241.99895    2.2449075      38.8912    1.1224537 
      16            0   -241.99895    2.2449075      38.8912    1.1224537 
      17            0   -241.99895    2.2449075      38.8912    1.1224537 
      18            0   -241.99895    2.2449075      38.8912    1.1224537 
      19            0   -241.99895    2.2449075      38.8912    1.1224537 
Loop time of 0.00475594 on 1 procs for 3 steps with 82 atoms

Minimization stats:
  Stopping criterion = force tolerance
  Energy initial, next-to-last, final = 
        -241.998950385     -241.998950859     -241.998950285
  Force two-norm initial, final = 0.00215885 1.8741e-10
  Force max component initial, final = 0.00107943 6.60404e-11
  Final line search alpha, max atom move = 0 0
  Iterations, force evaluations = 3 204

Pair  time (%) = 0.00330655 (69.5246)
Neigh time (%) = 0 (0)
Comm  time (%) = 0.000320812 (6.74551)
Outpt time (%) = 0.000121081 (2.54589)
Other time (%) = 0.0010075 (21.184)

Nlocal:    82 ave 82 max 82 min
Histogram: 1 0 0 0 0 0 0 0 0 0
Nghost:    185 ave 185 max 185 min
Histogram: 1 0 0 0 0 0 0 0 0 0
Neighs:    718 ave 718 max 718 min
Histogram: 1 0 0 0 0 0 0 0 0 0

Total # of neighbors = 718
Ave neighs/atom = 8.7561
Neighbor list builds = 0
Dangerous builds = 0
        # write_dump all atom ${dumpfile}
        next i
jump SELF loop1
        displace_atoms upper move ${xstep1} 0.0 0.0 units lattice
        displace_atoms upper move 0.002 0.0 0.0 units lattice
        min_style ${style}
        min_style hftn
        minimize ${etol} ${ftol} ${maxiter} ${maxeval}
        minimize 1e-12 ${ftol} ${maxiter} ${maxeval}
        minimize 1e-12 1e-08 ${maxiter} ${maxeval}
        minimize 1e-12 1e-08 10000 ${maxeval}
        minimize 1e-12 1e-08 10000 20000
WARNING: Resetting reneighboring criteria during minimization (../min.cpp:168)
Memory usage per processor = 4.85169 Mbytes
Step Temp PotEng Lx Ly Lz 
      19            0   -241.99845    2.2449075    38.891169    1.1224537 
      20            0   -241.99845    2.2449075    38.891169    1.1224537 
      21            0   -241.99845    2.2449075    38.891169    1.1224537 
Loop time of 0.003116 on 1 procs for 1 steps with 82 atoms

Minimization stats:
  Stopping criterion = force tolerance
  Energy initial, next-to-last, final = 
         -241.99845276      -241.99845276     -241.998454576
  Force two-norm initial, final = 0.0133932 1.57391e-10
  Force max component initial, final = 0.00669661 7.38322e-11
  Final line search alpha, max atom move = 0 0
  Iterations, force evaluations = 1 146

Pair  time (%) = 0.00221557 (71.1029)
Neigh time (%) = 0 (0)
Comm  time (%) = 0.000162843 (5.22603)
Outpt time (%) = 4.20671e-05 (1.35004)
Other time (%) = 0.000695525 (22.3211)

Nlocal:    82 ave 82 max 82 min
Histogram: 1 0 0 0 0 0 0 0 0 0
Nghost:    185 ave 185 max 185 min
Histogram: 1 0 0 0 0 0 0 0 0 0
Neighs:    718 ave 718 max 718 min
Histogram: 1 0 0 0 0 0 0 0 0 0

Total # of neighbors = 718
Ave neighs/atom = 8.7561
Neighbor list builds = 0
Dangerous builds = 0
        # write_dump all atom ${dumpfile}
        next i
jump SELF loop1
        displace_atoms upper move ${xstep1} 0.0 0.0 units lattice
        displace_atoms upper move 0.002 0.0 0.0 units lattice
        min_style ${style}
        min_style hftn
        minimize ${etol} ${ftol} ${maxiter} ${maxeval}
        minimize 1e-12 ${ftol} ${maxiter} ${maxeval}
        minimize 1e-12 1e-08 ${maxiter} ${maxeval}
        minimize 1e-12 1e-08 10000 ${maxeval}
        minimize 1e-12 1e-08 10000 20000
WARNING: Resetting reneighboring criteria during minimization (../min.cpp:168)
Memory usage per processor = 4.85169 Mbytes
Step Temp PotEng Lx Ly Lz 
      21            0   -241.99791    2.2449075    38.890975    1.1224537 
      22            0   -241.99791    2.2449075    38.890975    1.1224537 
      23            0   -241.99791    2.2449075    38.890975    1.1224537 
Loop time of 0.00345299 on 1 procs for 1 steps with 82 atoms

Minimization stats:
  Stopping criterion = force tolerance
  Energy initial, next-to-last, final = 
        -241.997905528     -241.997905528     -241.997907887
  Force two-norm initial, final = 0.0123113 1.0171e-10
  Force max component initial, final = 0.00615563 4.60303e-11
  Final line search alpha, max atom move = 0 0
  Iterations, force evaluations = 1 148

Pair  time (%) = 0.00248359 (71.9258)
Neigh time (%) = 0 (0)
Comm  time (%) = 0.000217495 (6.29874)
Outpt time (%) = 4.09018e-05 (1.18453)
Other time (%) = 0.000711003 (20.5909)

Nlocal:    82 ave 82 max 82 min
Histogram: 1 0 0 0 0 0 0 0 0 0
Nghost:    185 ave 185 max 185 min
Histogram: 1 0 0 0 0 0 0 0 0 0
Neighs:    718 ave 718 max 718 min
Histogram: 1 0 0 0 0 0 0 0 0 0

Total # of neighbors = 718
Ave neighs/atom = 8.7561
Neighbor list builds = 0
Dangerous builds = 0
        # write_dump all atom ${dumpfile}
        next i
jump SELF loop1
        displace_atoms upper move ${xstep1} 0.0 0.0 units lattice
        displace_atoms upper move 0.002 0.0 0.0 units lattice
        min_style ${style}
        min_style hftn
        minimize ${etol} ${ftol} ${maxiter} ${maxeval}
        minimize 1e-12 ${ftol} ${maxiter} ${maxeval}
        minimize 1e-12 1e-08 ${maxiter} ${maxeval}
        minimize 1e-12 1e-08 10000 ${maxeval}
        minimize 1e-12 1e-08 10000 20000
WARNING: Resetting reneighboring criteria during minimization (../min.cpp:168)
Memory usage per processor = 4.85169 Mbytes
Step Temp PotEng Lx Ly Lz 
      23            0   -241.99731    2.2449075    38.890797    1.1224537 
      24            0   -241.99731    2.2449075    38.890797    1.1224537 
      25            0   -241.99731    2.2449075    38.890797    1.1224537 
Loop time of 0.00341007 on 1 procs for 1 steps with 82 atoms

Minimization stats:
  Stopping criterion = force tolerance
  Energy initial, next-to-last, final = 
        -241.997305284     -241.997305284     -241.997306364
  Force two-norm initial, final = 0.0111883 7.74127e-11
  Force max component initial, final = 0.00559413 3.87398e-11
  Final line search alpha, max atom move = 0 0
  Iterations, force evaluations = 1 148

Pair  time (%) = 0.00246567 (72.3057)
Neigh time (%) = 0 (0)
Comm  time (%) = 0.000199875 (5.8613)
Outpt time (%) = 8.9017e-06 (0.261042)
Other time (%) = 0.000735619 (21.572)

Nlocal:    82 ave 82 max 82 min
Histogram: 1 0 0 0 0 0 0 0 0 0
Nghost:    185 ave 185 max 185 min
Histogram: 1 0 0 0 0 0 0 0 0 0
Neighs:    718 ave 718 max 718 min
Histogram: 1 0 0 0 0 0 0 0 0 0

Total # of neighbors = 718
Ave neighs/atom = 8.7561
Neighbor list builds = 0
Dangerous builds = 0
        # write_dump all atom ${dumpfile}
        next i
jump SELF loop1
        displace_atoms upper move ${xstep1} 0.0 0.0 units lattice
        displace_atoms upper move 0.002 0.0 0.0 units lattice
        min_style ${style}
        min_style hftn
        minimize ${etol} ${ftol} ${maxiter} ${maxeval}
        minimize 1e-12 ${ftol} ${maxiter} ${maxeval}
        minimize 1e-12 1e-08 ${maxiter} ${maxeval}
        minimize 1e-12 1e-08 10000 ${maxeval}
        minimize 1e-12 1e-08 10000 20000
WARNING: Resetting reneighboring criteria during minimization (../min.cpp:168)
Memory usage per processor = 4.85169 Mbytes
Step Temp PotEng Lx Ly Lz 
      25            0   -241.99665    2.2449075    38.890636    1.1224537 
      26            0   -241.99665    2.2449075    38.890636    1.1224537 
      27            0   -241.99665    2.2449075    38.890636    1.1224537 
Loop time of 0.00359194 on 1 procs for 1 steps with 82 atoms

Minimization stats:
  Stopping criterion = force tolerance
  Energy initial, next-to-last, final = 
         -241.99665031      -241.99665031     -241.996652435
  Force two-norm initial, final = 0.0100761 4.65558e-11
  Force max component initial, final = 0.00503803 2.07724e-11
  Final line search alpha, max atom move = 0 0
  Iterations, force evaluations = 1 150

Pair  time (%) = 0.00259764 (72.3184)
Neigh time (%) = 0 (0)
Comm  time (%) = 0.000239278 (6.66153)
Outpt time (%) = 1.10019e-05 (0.306295)
Other time (%) = 0.000744025 (20.7137)

Nlocal:    82 ave 82 max 82 min
Histogram: 1 0 0 0 0 0 0 0 0 0
Nghost:    185 ave 185 max 185 min
Histogram: 1 0 0 0 0 0 0 0 0 0
Neighs:    718 ave 718 max 718 min
Histogram: 1 0 0 0 0 0 0 0 0 0

Total # of neighbors = 718
Ave neighs/atom = 8.7561
Neighbor list builds = 0
Dangerous builds = 0
        # write_dump all atom ${dumpfile}
        next i
jump SELF loop1
        displace_atoms upper move ${xstep1} 0.0 0.0 units lattice
        displace_atoms upper move 0.002 0.0 0.0 units lattice
        min_style ${style}
        min_style hftn
        minimize ${etol} ${ftol} ${maxiter} ${maxeval}
        minimize 1e-12 ${ftol} ${maxiter} ${maxeval}
        minimize 1e-12 1e-08 ${maxiter} ${maxeval}
        minimize 1e-12 1e-08 10000 ${maxeval}
        minimize 1e-12 1e-08 10000 20000
WARNING: Resetting reneighboring criteria during minimization (../min.cpp:168)
Memory usage per processor = 4.85169 Mbytes
Step Temp PotEng Lx Ly Lz 
      27            0   -241.99594    2.2449075    38.890491    1.1224537 
      28            0   -241.99594    2.2449075    38.890491    1.1224537 
      29            0   -241.99594    2.2449075    38.890491    1.1224537 
Loop time of 0.00282804 on 1 procs for 1 steps with 82 atoms

Minimization stats:
  Stopping criterion = force tolerance
  Energy initial, next-to-last, final = 
         -241.99594233      -241.99594233     -241.995944741
  Force two-norm initial, final = 0.00896314 2.7864e-11
  Force max component initial, final = 0.00448157 1.37093e-11
  Final line search alpha, max atom move = 0 0
  Iterations, force evaluations = 1 152

Pair  time (%) = 0.0020598 (72.835)
Neigh time (%) = 0 (0)
Comm  time (%) = 0.000162609 (5.74989)
Outpt time (%) = 8.99401e-06 (0.31803)
Other time (%) = 0.000596636 (21.0971)

Nlocal:    82 ave 82 max 82 min
Histogram: 1 0 0 0 0 0 0 0 0 0
Nghost:    185 ave 185 max 185 min
Histogram: 1 0 0 0 0 0 0 0 0 0
Neighs:    718 ave 718 max 718 min
Histogram: 1 0 0 0 0 0 0 0 0 0

Total # of neighbors = 718
Ave neighs/atom = 8.7561
Neighbor list builds = 0
Dangerous builds = 0
        # write_dump all atom ${dumpfile}
        next i
jump SELF loop1
        displace_atoms upper move ${xstep1} 0.0 0.0 units lattice
        displace_atoms upper move 0.002 0.0 0.0 units lattice
        min_style ${style}
        min_style hftn
        minimize ${etol} ${ftol} ${maxiter} ${maxeval}
        minimize 1e-12 ${ftol} ${maxiter} ${maxeval}
        minimize 1e-12 1e-08 ${maxiter} ${maxeval}
        minimize 1e-12 1e-08 10000 ${maxeval}
        minimize 1e-12 1e-08 10000 20000
WARNING: Resetting reneighboring criteria during minimization (../min.cpp:168)
Memory usage per processor = 4.85169 Mbytes
Step Temp PotEng Lx Ly Lz 
      29            0   -241.99518    2.2449075    38.890362    1.1224537 
      30            0   -241.99518    2.2449075    38.890362    1.1224537 
      31            0   -241.99518    2.2449075    38.890362    1.1224537 
Loop time of 0.00692593 on 1 procs for 1 steps with 82 atoms

Minimization stats:
  Stopping criterion = force tolerance
  Energy initial, next-to-last, final = 
        -241.995179902     -241.995179902     -241.995181311
  Force two-norm initial, final = 0.00784952 3.285e-11
  Force max component initial, final = 0.00392476 1.08916e-11
  Final line search alpha, max atom move = 0 0
  Iterations, force evaluations = 1 154

Pair  time (%) = 0.00241294 (34.8392)
Neigh time (%) = 0 (0)
Comm  time (%) = 0.000200336 (2.89255)
Outpt time (%) = 9.10996e-06 (0.131534)
Other time (%) = 0.00430355 (62.1367)

Nlocal:    82 ave 82 max 82 min
Histogram: 1 0 0 0 0 0 0 0 0 0
Nghost:    185 ave 185 max 185 min
Histogram: 1 0 0 0 0 0 0 0 0 0
Neighs:    718 ave 718 max 718 min
Histogram: 1 0 0 0 0 0 0 0 0 0

Total # of neighbors = 718
Ave neighs/atom = 8.7561
Neighbor list builds = 0
Dangerous builds = 0
        # write_dump all atom ${dumpfile}
        next i
jump SELF loop1
        displace_atoms upper move ${xstep1} 0.0 0.0 units lattice
        displace_atoms upper move 0.002 0.0 0.0 units lattice
        min_style ${style}
        min_style hftn
        minimize ${etol} ${ftol} ${maxiter} ${maxeval}
        minimize 1e-12 ${ftol} ${maxiter} ${maxeval}
        minimize 1e-12 1e-08 ${maxiter} ${maxeval}
        minimize 1e-12 1e-08 10000 ${maxeval}
        minimize 1e-12 1e-08 10000 20000
WARNING: Resetting reneighboring criteria during minimization (../min.cpp:168)
Memory usage per processor = 4.85169 Mbytes
Step Temp PotEng Lx Ly Lz 
      31            0   -241.99436    2.2449075     38.89025    1.1224537 
      32            0   -241.99436    2.2449075     38.89025    1.1224537 
      33            0   -241.99436    2.2449075     38.89025    1.1224537 
Loop time of 0.00350592 on 1 procs for 1 steps with 82 atoms

Minimization stats:
  Stopping criterion = force tolerance
  Energy initial, next-to-last, final = 
        -241.994360281     -241.994360281     -241.994360667
  Force two-norm initial, final = 0.00673273 1.10178e-11
  Force max component initial, final = 0.00336637 4.26862e-12
  Final line search alpha, max atom move = 0 0
  Iterations, force evaluations = 1 156

Pair  time (%) = 0.00261678 (74.639)
Neigh time (%) = 0 (0)
Comm  time (%) = 0.00016877 (4.81385)
Outpt time (%) = 4.20698e-05 (1.19997)
Other time (%) = 0.000678296 (19.3472)

Nlocal:    82 ave 82 max 82 min
Histogram: 1 0 0 0 0 0 0 0 0 0
Nghost:    185 ave 185 max 185 min
Histogram: 1 0 0 0 0 0 0 0 0 0
Neighs:    718 ave 718 max 718 min
Histogram: 1 0 0 0 0 0 0 0 0 0

Total # of neighbors = 718
Ave neighs/atom = 8.7561
Neighbor list builds = 0
Dangerous builds = 0
        # write_dump all atom ${dumpfile}
        next i
jump SELF loop1
        displace_atoms upper move ${xstep1} 0.0 0.0 units lattice
        displace_atoms upper move 0.002 0.0 0.0 units lattice
        min_style ${style}
        min_style hftn
        minimize ${etol} ${ftol} ${maxiter} ${maxeval}
        minimize 1e-12 ${ftol} ${maxiter} ${maxeval}
        minimize 1e-12 1e-08 ${maxiter} ${maxeval}
        minimize 1e-12 1e-08 10000 ${maxeval}
        minimize 1e-12 1e-08 10000 20000
WARNING: Resetting reneighboring criteria during minimization (../min.cpp:168)
Memory usage per processor = 4.85169 Mbytes
Step Temp PotEng Lx Ly Lz 
      33            0   -241.99348    2.2449075    38.890154    1.1224537 
      34            0   -241.99348    2.2449075    38.890154    1.1224537 
      35            0   -241.99348    2.2449075    38.890154    1.1224537 
Loop time of 0.00516311 on 1 procs for 1 steps with 82 atoms

Minimization stats:
  Stopping criterion = force tolerance
  Energy initial, next-to-last, final = 
        -241.993483305     -241.993483305     -241.993483764
  Force two-norm initial, final = 0.00562512 6.59412e-12
  Force max component initial, final = 0.00281256 1.83422e-12
  Final line search alpha, max atom move = 0 0
  Iterations, force evaluations = 1 158

Pair  time (%) = 0.00321601 (62.2883)
Neigh time (%) = 0 (0)
Comm  time (%) = 0.00100997 (19.5613)
Outpt time (%) = 4.31159e-05 (0.835077)
Other time (%) = 0.000894013 (17.3154)

Nlocal:    82 ave 82 max 82 min
Histogram: 1 0 0 0 0 0 0 0 0 0
Nghost:    185 ave 185 max 185 min
Histogram: 1 0 0 0 0 0 0 0 0 0
Neighs:    718 ave 718 max 718 min
Histogram: 1 0 0 0 0 0 0 0 0 0

Total # of neighbors = 718
Ave neighs/atom = 8.7561
Neighbor list builds = 0
Dangerous builds = 0
        # write_dump all atom ${dumpfile}
        next i
jump SELF loop1
        displace_atoms upper move ${xstep1} 0.0 0.0 units lattice
        displace_atoms upper move 0.002 0.0 0.0 units lattice
        min_style ${style}
        min_style hftn
        minimize ${etol} ${ftol} ${maxiter} ${maxeval}
        minimize 1e-12 ${ftol} ${maxiter} ${maxeval}
        minimize 1e-12 1e-08 ${maxiter} ${maxeval}
        minimize 1e-12 1e-08 10000 ${maxeval}
        minimize 1e-12 1e-08 10000 20000
WARNING: Resetting reneighboring criteria during minimization (../min.cpp:168)
Memory usage per processor = 4.85169 Mbytes
Step Temp PotEng Lx Ly Lz 
      35            0   -241.99255    2.2449075    38.890074    1.1224537 
      36            0   -241.99255    2.2449075    38.890074    1.1224537 
      37            0   -241.99255    2.2449075    38.890074    1.1224537 
      38            0   -241.99255    2.2449075    38.890074    1.1224537 
Loop time of 0.0044881 on 1 procs for 2 steps with 82 atoms

Minimization stats:
  Stopping criterion = force tolerance
  Energy initial, next-to-last, final = 
        -241.992549955      -241.99254432     -241.992550125
  Force two-norm initial, final = 0.00452014 7.62238e-10
  Force max component initial, final = 0.00226007 3.81407e-10
  Final line search alpha, max atom move = 0 0
  Iterations, force evaluations = 2 203

Pair  time (%) = 0.00323356 (72.0474)
Neigh time (%) = 0 (0)
Comm  time (%) = 0.000305274 (6.80185)
Outpt time (%) = 2.10122e-05 (0.468175)
Other time (%) = 0.000928255 (20.6826)

Nlocal:    82 ave 82 max 82 min
Histogram: 1 0 0 0 0 0 0 0 0 0
Nghost:    185 ave 185 max 185 min
Histogram: 1 0 0 0 0 0 0 0 0 0
Neighs:    718 ave 718 max 718 min
Histogram: 1 0 0 0 0 0 0 0 0 0

Total # of neighbors = 718
Ave neighs/atom = 8.7561
Neighbor list builds = 0
Dangerous builds = 0
        # write_dump all atom ${dumpfile}
        next i
jump SELF loop1
        displace_atoms upper move ${xstep1} 0.0 0.0 units lattice
        displace_atoms upper move 0.002 0.0 0.0 units lattice
        min_style ${style}
        min_style hftn
        minimize ${etol} ${ftol} ${maxiter} ${maxeval}
        minimize 1e-12 ${ftol} ${maxiter} ${maxeval}
        minimize 1e-12 1e-08 ${maxiter} ${maxeval}
        minimize 1e-12 1e-08 10000 ${maxeval}
        minimize 1e-12 1e-08 10000 20000
WARNING: Resetting reneighboring criteria during minimization (../min.cpp:168)
Memory usage per processor = 4.85169 Mbytes
Step Temp PotEng Lx Ly Lz 
      38            0   -241.99156    2.2449075     38.89001    1.1224537 
      39            0   -241.99156    2.2449075     38.89001    1.1224537 
      40            0   -241.99156    2.2449075     38.89001    1.1224537 
      41            0   -241.99156    2.2449075     38.89001    1.1224537 
      42            0   -241.99156    2.2449075     38.89001    1.1224537 
Loop time of 0.00347002 on 1 procs for 3 steps with 82 atoms

Minimization stats:
  Stopping criterion = force tolerance
  Energy initial, next-to-last, final = 
        -241.991559599      -241.99155567     -241.991559648
  Force two-norm initial, final = 0.00341888 6.11457e-09
  Force max component initial, final = 0.00170944 2.12341e-09
  Final line search alpha, max atom move = 0 0
  Iterations, force evaluations = 3 159

Pair  time (%) = 0.00252139 (72.6621)
Neigh time (%) = 0 (0)
Comm  time (%) = 0.000216955 (6.25226)
Outpt time (%) = 2.78695e-05 (0.803149)
Other time (%) = 0.000703808 (20.2825)

Nlocal:    82 ave 82 max 82 min
Histogram: 1 0 0 0 0 0 0 0 0 0
Nghost:    185 ave 185 max 185 min
Histogram: 1 0 0 0 0 0 0 0 0 0
Neighs:    718 ave 718 max 718 min
Histogram: 1 0 0 0 0 0 0 0 0 0

Total # of neighbors = 718
Ave neighs/atom = 8.7561
Neighbor list builds = 0
Dangerous builds = 0
        # write_dump all atom ${dumpfile}
        next i
jump SELF loop1
        displace_atoms upper move ${xstep1} 0.0 0.0 units lattice
        displace_atoms upper move 0.002 0.0 0.0 units lattice
        min_style ${style}
        min_style hftn
        minimize ${etol} ${ftol} ${maxiter} ${maxeval}
        minimize 1e-12 ${ftol} ${maxiter} ${maxeval}
        minimize 1e-12 1e-08 ${maxiter} ${maxeval}
        minimize 1e-12 1e-08 10000 ${maxeval}
        minimize 1e-12 1e-08 10000 20000
WARNING: Resetting reneighboring criteria during minimization (../min.cpp:168)
Memory usage per processor = 4.85169 Mbytes
Step Temp PotEng Lx Ly Lz 
      42            0   -241.99051    2.2449075    38.889961    1.1224537 
      43            0   -241.99051    2.2449075    38.889961    1.1224537 
      44            0   -241.99051    2.2449075    38.889961    1.1224537 
      45            0   -241.99051    2.2449075    38.889961    1.1224537 
      46            0   -241.99051    2.2449075    38.889961    1.1224537 
Loop time of 0.00483001 on 1 procs for 3 steps with 82 atoms

Minimization stats:
  Stopping criterion = force tolerance
  Energy initial, next-to-last, final = 
        -241.990511584      -241.99051211     -241.990511511
  Force two-norm initial, final = 0.00232326 2.10001e-10
  Force max component initial, final = 0.00116163 7.07681e-11
  Final line search alpha, max atom move = 0 0
  Iterations, force evaluations = 3 204

Pair  time (%) = 0.00354079 (73.3082)
Neigh time (%) = 0 (0)
Comm  time (%) = 0.000285633 (5.91372)
Outpt time (%) = 2.5234e-05 (0.522441)
Other time (%) = 0.000978347 (20.2556)

Nlocal:    82 ave 82 max 82 min
Histogram: 1 0 0 0 0 0 0 0 0 0
Nghost:    185 ave 185 max 185 min
Histogram: 1 0 0 0 0 0 0 0 0 0
Neighs:    718 ave 718 max 718 min
Histogram: 1 0 0 0 0 0 0 0 0 0

Total # of neighbors = 718
Ave neighs/atom = 8.7561
Neighbor list builds = 0
Dangerous builds = 0
        # write_dump all atom ${dumpfile}
        next i
jump SELF loop1
        displace_atoms upper move ${xstep1} 0.0 0.0 units lattice
        displace_atoms upper move 0.002 0.0 0.0 units lattice
        min_style ${style}
        min_style hftn
        minimize ${etol} ${ftol} ${maxiter} ${maxeval}
        minimize 1e-12 ${ftol} ${maxiter} ${maxeval}
        minimize 1e-12 1e-08 ${maxiter} ${maxeval}
        minimize 1e-12 1e-08 10000 ${maxeval}
        minimize 1e-12 1e-08 10000 20000
WARNING: Resetting reneighboring criteria during minimization (../min.cpp:168)
Memory usage per processor = 4.85169 Mbytes
Step Temp PotEng Lx Ly Lz 
      46            0   -241.98941    2.2449075    38.889929    1.1224537 
      47            0   -241.98941    2.2449075    38.889929    1.1224537 
      48            0   -241.98941    2.2449075    38.889929    1.1224537 
      49            0   -241.98941    2.2449075    38.889929    1.1224537 
      50            0   -241.98941    2.2449075    38.889929    1.1224537 
Loop time of 0.00903505 on 1 procs for 3 steps with 82 atoms

Minimization stats:
  Stopping criterion = force tolerance
  Energy initial, next-to-last, final = 
        -241.989406359     -241.989406526     -241.989406182
  Force two-norm initial, final = 0.00123264 7.90498e-11
  Force max component initial, final = 0.000616319 2.21497e-11
  Final line search alpha, max atom move = 0 0
  Iterations, force evaluations = 3 204

Pair  time (%) = 0.00764008 (84.5604)
Neigh time (%) = 0 (0)
Comm  time (%) = 0.000295415 (3.26966)
Outpt time (%) = 0.000140229 (1.55206)
Other time (%) = 0.000959329 (10.6179)

Nlocal:    82 ave 82 max 82 min
Histogram: 1 0 0 0 0 0 0 0 0 0
Nghost:    185 ave 185 max 185 min
Histogram: 1 0 0 0 0 0 0 0 0 0
Neighs:    718 ave 718 max 718 min
Histogram: 1 0 0 0 0 0 0 0 0 0

Total # of neighbors = 718
Ave neighs/atom = 8.7561
Neighbor list builds = 0
Dangerous builds = 0
        # write_dump all atom ${dumpfile}
        next i
jump SELF loop1
        displace_atoms upper move ${xstep1} 0.0 0.0 units lattice
        displace_atoms upper move 0.002 0.0 0.0 units lattice
        min_style ${style}
        min_style hftn
        minimize ${etol} ${ftol} ${maxiter} ${maxeval}
        minimize 1e-12 ${ftol} ${maxiter} ${maxeval}
        minimize 1e-12 1e-08 ${maxiter} ${maxeval}
        minimize 1e-12 1e-08 10000 ${maxeval}
        minimize 1e-12 1e-08 10000 20000
WARNING: Resetting reneighboring criteria during minimization (../min.cpp:168)
Memory usage per processor = 4.85169 Mbytes
Step Temp PotEng Lx Ly Lz 
      50            0   -241.98824    2.2449075    38.889911    1.1224537 
      51            0   -241.98824    2.2449075    38.889911    1.1224537 
Loop time of 0.00146608 on 1 procs for 0 steps with 82 atoms

Minimization stats:
  Stopping criterion = force tolerance
  Energy initial, next-to-last, final = 
        -241.988240829     -241.988240829     -241.988240855
  Force two-norm initial, final = 0.000119147 3.74214e-10
  Force max component initial, final = 5.95736e-05 7.40849e-11
  Final line search alpha, max atom move = 0 0
  Iterations, force evaluations = 0 83

Pair  time (%) = 0.0010382 (70.8143)
Neigh time (%) = 0 (0)
Comm  time (%) = 0.000101028 (6.89105)
Outpt time (%) = 0 (0)
Other time (%) = 0.000326858 (22.2946)

Nlocal:    82 ave 82 max 82 min
Histogram: 1 0 0 0 0 0 0 0 0 0
Nghost:    185 ave 185 max 185 min
Histogram: 1 0 0 0 0 0 0 0 0 0
Neighs:    718 ave 718 max 718 min
Histogram: 1 0 0 0 0 0 0 0 0 0

Total # of neighbors = 718
Ave neighs/atom = 8.7561
Neighbor list builds = 0
Dangerous builds = 0
        # write_dump all atom ${dumpfile}
        next i
jump SELF loop1
        displace_atoms upper move ${xstep1} 0.0 0.0 units lattice
        displace_atoms upper move 0.002 0.0 0.0 units lattice
        min_style ${style}
        min_style hftn
        minimize ${etol} ${ftol} ${maxiter} ${maxeval}
        minimize 1e-12 ${ftol} ${maxiter} ${maxeval}
        minimize 1e-12 1e-08 ${maxiter} ${maxeval}
        minimize 1e-12 1e-08 10000 ${maxeval}
        minimize 1e-12 1e-08 10000 20000
WARNING: Resetting reneighboring criteria during minimization (../min.cpp:168)
Memory usage per processor = 4.85169 Mbytes
Step Temp PotEng Lx Ly Lz 
      51            0   -241.98702    2.2449075     38.88991    1.1224537 
      52            0   -241.98702    2.2449075     38.88991    1.1224537 
      53            0   -241.98702    2.2449075     38.88991    1.1224537 
      54            0   -241.98702    2.2449075     38.88991    1.1224537 
      55            0   -241.98702    2.2449075     38.88991    1.1224537 
      56            0   -241.98702    2.2449075     38.88991    1.1224537 
      57            0   -241.98702    2.2449075     38.88991    1.1224537 
      58            0   -241.98702    2.2449075     38.88991    1.1224537 
Loop time of 0.00396512 on 1 procs for 6 steps with 82 atoms

Minimization stats:
  Stopping criterion = energy tolerance
  Energy initial, next-to-last, final = 
        -241.987015279     -241.987015279     -241.987015279
  Force two-norm initial, final = 0.000987763 0.000987329
  Force max component initial, final = 0.000493881 0.000493665
  Final line search alpha, max atom move = 0 0
  Iterations, force evaluations = 6 129

Pair  time (%) = 0.0030319 (76.4644)
Neigh time (%) = 0 (0)
Comm  time (%) = 0.000162722 (4.10384)
Outpt time (%) = 0.000223043 (5.62513)
Other time (%) = 0.000547448 (13.8066)

Nlocal:    82 ave 82 max 82 min
Histogram: 1 0 0 0 0 0 0 0 0 0
Nghost:    185 ave 185 max 185 min
Histogram: 1 0 0 0 0 0 0 0 0 0
Neighs:    718 ave 718 max 718 min
Histogram: 1 0 0 0 0 0 0 0 0 0

Total # of neighbors = 718
Ave neighs/atom = 8.7561
Neighbor list builds = 0
Dangerous builds = 0
        # write_dump all atom ${dumpfile}
        next i
jump SELF loop1
        displace_atoms upper move ${xstep1} 0.0 0.0 units lattice
        displace_atoms upper move 0.002 0.0 0.0 units lattice
        min_style ${style}
        min_style hftn
        minimize ${etol} ${ftol} ${maxiter} ${maxeval}
        minimize 1e-12 ${ftol} ${maxiter} ${maxeval}
        minimize 1e-12 1e-08 ${maxiter} ${maxeval}
        minimize 1e-12 1e-08 10000 ${maxeval}
        minimize 1e-12 1e-08 10000 20000
WARNING: Resetting reneighboring criteria during minimization (../min.cpp:168)
Memory usage per processor = 4.85169 Mbytes
Step Temp PotEng Lx Ly Lz 
      58            0   -241.98573    2.2449075     38.88991    1.1224537 
      59            0   -241.98573    2.2449075     38.88991    1.1224537 
      60            0   -241.98573    2.2449075     38.88991    1.1224537 
Loop time of 0.00249692 on 1 procs for 1 steps with 82 atoms

Minimization stats:
  Stopping criterion = force tolerance
  Energy initial, next-to-last, final = 
        -241.985732194     -241.985732194       -241.9857324
  Force two-norm initial, final = 0.00304996 7.93475e-09
  Force max component initial, final = 0.00152498 3.96608e-09
  Final line search alpha, max atom move = 0 0
  Iterations, force evaluations = 1 111

Pair  time (%) = 0.00183025 (73.3004)
Neigh time (%) = 0 (0)
Comm  time (%) = 0.000174506 (6.98886)
Outpt time (%) = 9.89146e-06 (0.396147)
Other time (%) = 0.00048227 (19.3146)

Nlocal:    82 ave 82 max 82 min
Histogram: 1 0 0 0 0 0 0 0 0 0
Nghost:    185 ave 185 max 185 min
Histogram: 1 0 0 0 0 0 0 0 0 0
Neighs:    718 ave 718 max 718 min
Histogram: 1 0 0 0 0 0 0 0 0 0

Total # of neighbors = 718
Ave neighs/atom = 8.7561
Neighbor list builds = 0
Dangerous builds = 0
        # write_dump all atom ${dumpfile}
        next i
jump SELF loop1
        displace_atoms upper move ${xstep1} 0.0 0.0 units lattice
        displace_atoms upper move 0.002 0.0 0.0 units lattice
        min_style ${style}
        min_style hftn
        minimize ${etol} ${ftol} ${maxiter} ${maxeval}
        minimize 1e-12 ${ftol} ${maxiter} ${maxeval}
        minimize 1e-12 1e-08 ${maxiter} ${maxeval}
        minimize 1e-12 1e-08 10000 ${maxeval}
        minimize 1e-12 1e-08 10000 20000
WARNING: Resetting reneighboring criteria during minimization (../min.cpp:168)
Memory usage per processor = 4.85169 Mbytes
Step Temp PotEng Lx Ly Lz 
      60            0   -241.98439    2.2449075    38.889952    1.1224537 
      61            0   -241.98439    2.2449075    38.889952    1.1224537 
      62            0   -241.98439    2.2449075    38.889952    1.1224537 
Loop time of 0.00233891 on 1 procs for 1 steps with 82 atoms

Minimization stats:
  Stopping criterion = force tolerance
  Energy initial, next-to-last, final = 
         -241.98439202      -241.98439202     -241.984392842
  Force two-norm initial, final = 0.00311962 8.27631e-09
  Force max component initial, final = 0.00155981 4.12656e-09
  Final line search alpha, max atom move = 0 0
  Iterations, force evaluations = 1 111

Pair  time (%) = 0.00172435 (73.7245)
Neigh time (%) = 0 (0)
Comm  time (%) = 0.000155261 (6.63818)
Outpt time (%) = 8.88202e-06 (0.37975)
Other time (%) = 0.000450418 (19.2576)

Nlocal:    82 ave 82 max 82 min
Histogram: 1 0 0 0 0 0 0 0 0 0
Nghost:    185 ave 185 max 185 min
Histogram: 1 0 0 0 0 0 0 0 0 0
Neighs:    718 ave 718 max 718 min
Histogram: 1 0 0 0 0 0 0 0 0 0

Total # of neighbors = 718
Ave neighs/atom = 8.7561
Neighbor list builds = 0
Dangerous builds = 0
        # write_dump all atom ${dumpfile}
        next i
jump SELF loop1
        displace_atoms upper move ${xstep1} 0.0 0.0 units lattice
        displace_atoms upper move 0.002 0.0 0.0 units lattice
        min_style ${style}
        min_style hftn
        minimize ${etol} ${ftol} ${maxiter} ${maxeval}
        minimize 1e-12 ${ftol} ${maxiter} ${maxeval}
        minimize 1e-12 1e-08 ${maxiter} ${maxeval}
        minimize 1e-12 1e-08 10000 ${maxeval}
        minimize 1e-12 1e-08 10000 20000
WARNING: Resetting reneighboring criteria during minimization (../min.cpp:168)
Memory usage per processor = 4.85169 Mbytes
Step Temp PotEng Lx Ly Lz 
      62            0   -241.98299    2.2449075    38.889995    1.1224537 
      63            0   -241.98299    2.2449075    38.889995    1.1224537 
      64            0   -241.98299    2.2449075    38.889995    1.1224537 
      65            0   -241.98299    2.2449075    38.889995    1.1224537 
      66            0   -241.98299    2.2449075    38.889995    1.1224537 
      67            0   -241.98299    2.2449075    38.889995    1.1224537 
      68            0   -241.98299    2.2449075    38.889995    1.1224537 
      69            0   -241.98299    2.2449075    38.889995    1.1224537 
      70            0   -241.98299    2.2449075    38.889995    1.1224537 
Loop time of 0.0029151 on 1 procs for 7 steps with 82 atoms

Minimization stats:
  Stopping criterion = energy tolerance
  Energy initial, next-to-last, final = 
        -241.982989517     -241.982989517     -241.982989517
  Force two-norm initial, final = 0.00423875 0.00423838
  Force max component initial, final = 0.00211937 0.00211919
  Final line search alpha, max atom move = 0 0
  Iterations, force evaluations = 7 134

Pair  time (%) = 0.00212476 (72.888)
Neigh time (%) = 0 (0)
Comm  time (%) = 0.000149883 (5.1416)
Outpt time (%) = 4.90557e-05 (1.68281)
Other time (%) = 0.000591405 (20.2876)

Nlocal:    82 ave 82 max 82 min
Histogram: 1 0 0 0 0 0 0 0 0 0
Nghost:    185 ave 185 max 185 min
Histogram: 1 0 0 0 0 0 0 0 0 0
Neighs:    718 ave 718 max 718 min
Histogram: 1 0 0 0 0 0 0 0 0 0

Total # of neighbors = 718
Ave neighs/atom = 8.7561
Neighbor list builds = 0
Dangerous builds = 0
        # write_dump all atom ${dumpfile}
        next i
jump SELF loop1
        displace_atoms upper move ${xstep1} 0.0 0.0 units lattice
        displace_atoms upper move 0.002 0.0 0.0 units lattice
        min_style ${style}
        min_style hftn
        minimize ${etol} ${ftol} ${maxiter} ${maxeval}
        minimize 1e-12 ${ftol} ${maxiter} ${maxeval}
        minimize 1e-12 1e-08 ${maxiter} ${maxeval}
        minimize 1e-12 1e-08 10000 ${maxeval}
        minimize 1e-12 1e-08 10000 20000
WARNING: Resetting reneighboring criteria during minimization (../min.cpp:168)
Memory usage per processor = 4.85169 Mbytes
Step Temp PotEng Lx Ly Lz 
      70            0   -241.98153    2.2449075    38.889995    1.1224537 
      71            0   -241.98153    2.2449075    38.889995    1.1224537 
      72            0   -241.98153    2.2449075    38.889995    1.1224537 
Loop time of 0.00328112 on 1 procs for 1 steps with 82 atoms

Minimization stats:
  Stopping criterion = force tolerance
  Energy initial, next-to-last, final = 
        -241.981528249     -241.981528249      -241.98153019
  Force two-norm initial, final = 0.00954161 3.67597e-11
  Force max component initial, final = 0.00477081 1.71271e-11
  Final line search alpha, max atom move = 0 0
  Iterations, force evaluations = 1 150

Pair  time (%) = 0.00239192 (72.8994)
Neigh time (%) = 0 (0)
Comm  time (%) = 0.000190048 (5.79217)
Outpt time (%) = 8.91462e-06 (0.271695)
Other time (%) = 0.000690238 (21.0367)

Nlocal:    82 ave 82 max 82 min
Histogram: 1 0 0 0 0 0 0 0 0 0
Nghost:    185 ave 185 max 185 min
Histogram: 1 0 0 0 0 0 0 0 0 0
Neighs:    718 ave 718 max 718 min
Histogram: 1 0 0 0 0 0 0 0 0 0

Total # of neighbors = 718
Ave neighs/atom = 8.7561
Neighbor list builds = 0
Dangerous builds = 0
        # write_dump all atom ${dumpfile}
        next i
jump SELF loop1
        displace_atoms upper move ${xstep1} 0.0 0.0 units lattice
        displace_atoms upper move 0.002 0.0 0.0 units lattice
        min_style ${style}
        min_style hftn
        minimize ${etol} ${ftol} ${maxiter} ${maxeval}
        minimize 1e-12 ${ftol} ${maxiter} ${maxeval}
        minimize 1e-12 1e-08 ${maxiter} ${maxeval}
        minimize 1e-12 1e-08 10000 ${maxeval}
        minimize 1e-12 1e-08 10000 20000
WARNING: Resetting reneighboring criteria during minimization (../min.cpp:168)
Memory usage per processor = 4.85169 Mbytes
Step Temp PotEng Lx Ly Lz 
      72            0   -241.98001    2.2449075    38.890127    1.1224537 
      73            0   -241.98001    2.2449075    38.890127    1.1224537 
      74            0   -241.98001    2.2449075    38.890127    1.1224537 
      75            0   -241.98001    2.2449075    38.890127    1.1224537 
      76            0   -241.98001    2.2449075    38.890127    1.1224537 
      77            0   -241.98001    2.2449075    38.890127    1.1224537 
      78            0   -241.98001    2.2449075    38.890127    1.1224537 
      79            0   -241.98001    2.2449075    38.890127    1.1224537 
      80            0   -241.98001    2.2449075    38.890127    1.1224537 
Loop time of 0.00670696 on 1 procs for 7 steps with 82 atoms

Minimization stats:
  Stopping criterion = energy tolerance
  Energy initial, next-to-last, final = 
        -241.980013238     -241.980013238     -241.980013238
  Force two-norm initial, final = 0.00631633 0.00631577
  Force max component initial, final = 0.00315816 0.00315789
  Final line search alpha, max atom move = 0 0
  Iterations, force evaluations = 7 126

Pair  time (%) = 0.00568198 (84.7177)
Neigh time (%) = 0 (0)
Comm  time (%) = 0.000173104 (2.58096)
Outpt time (%) = 0.00026777 (3.99242)
Other time (%) = 0.000584105 (8.70893)

Nlocal:    82 ave 82 max 82 min
Histogram: 1 0 0 0 0 0 0 0 0 0
Nghost:    185 ave 185 max 185 min
Histogram: 1 0 0 0 0 0 0 0 0 0
Neighs:    718 ave 718 max 718 min
Histogram: 1 0 0 0 0 0 0 0 0 0

Total # of neighbors = 718
Ave neighs/atom = 8.7561
Neighbor list builds = 0
Dangerous builds = 0
        # write_dump all atom ${dumpfile}
        next i
jump SELF loop1
        displace_atoms upper move ${xstep1} 0.0 0.0 units lattice
        displace_atoms upper move 0.002 0.0 0.0 units lattice
        min_style ${style}
        min_style hftn
        minimize ${etol} ${ftol} ${maxiter} ${maxeval}
        minimize 1e-12 ${ftol} ${maxiter} ${maxeval}
        minimize 1e-12 1e-08 ${maxiter} ${maxeval}
        minimize 1e-12 1e-08 10000 ${maxeval}
        minimize 1e-12 1e-08 10000 20000
WARNING: Resetting reneighboring criteria during minimization (../min.cpp:168)
Memory usage per processor = 4.85169 Mbytes
Step Temp PotEng Lx Ly Lz 
      80            0   -241.97843    2.2449075    38.890127    1.1224537 
      81            0   -241.97843    2.2449075    38.890127    1.1224537 
      82            0   -241.97843    2.2449075    38.890127    1.1224537 
      83            0   -241.97843    2.2449075    38.890127    1.1224537 
      84            0   -241.97843    2.2449075    38.890127    1.1224537 
      85            0   -241.97843    2.2449075    38.890127    1.1224537 
      86            0   -241.97843    2.2449075    38.890127    1.1224537 
      87            0   -241.97843    2.2449075    38.890127    1.1224537 
      88            0   -241.97843    2.2449075    38.890127    1.1224537 
      89            0   -241.97843    2.2449075    38.890127    1.1224537 
Loop time of 0.0027951 on 1 procs for 8 steps with 82 atoms

Minimization stats:
  Stopping criterion = energy tolerance
  Energy initial, next-to-last, final = 
        -241.978432326     -241.978432326     -241.978432326
  Force two-norm initial, final = 0.0137606 0.0137603
  Force max component initial, final = 0.00688029 0.00688014
  Final line search alpha, max atom move = 0 0
  Iterations, force evaluations = 8 125

Pair  time (%) = 0.00205502 (73.5223)
Neigh time (%) = 0 (0)
Comm  time (%) = 0.000172906 (6.18603)
Outpt time (%) = 4.50315e-05 (1.61109)
Other time (%) = 0.000522141 (18.6806)

Nlocal:    82 ave 82 max 82 min
Histogram: 1 0 0 0 0 0 0 0 0 0
Nghost:    185 ave 185 max 185 min
Histogram: 1 0 0 0 0 0 0 0 0 0
Neighs:    718 ave 718 max 718 min
Histogram: 1 0 0 0 0 0 0 0 0 0

Total # of neighbors = 718
Ave neighs/atom = 8.7561
Neighbor list builds = 0
Dangerous builds = 0
        # write_dump all atom ${dumpfile}
        next i
jump SELF loop1
        displace_atoms upper move ${xstep1} 0.0 0.0 units lattice
        displace_atoms upper move 0.002 0.0 0.0 units lattice
        min_style ${style}
        min_style hftn
        minimize ${etol} ${ftol} ${maxiter} ${maxeval}
        minimize 1e-12 ${ftol} ${maxiter} ${maxeval}
        minimize 1e-12 1e-08 ${maxiter} ${maxeval}
        minimize 1e-12 1e-08 10000 ${maxeval}
        minimize 1e-12 1e-08 10000 20000
WARNING: Resetting reneighboring criteria during minimization (../min.cpp:168)
Memory usage per processor = 4.85169 Mbytes
Step Temp PotEng Lx Ly Lz 
      89            0   -241.97679    2.2449075    38.890127    1.1224537 
      90            0    -241.9768    2.2449075    38.890127    1.1224537 
      91            0    -241.9768    2.2449075    38.890127    1.1224537 
Loop time of 0.00437207 on 1 procs for 1 steps with 82 atoms

Minimization stats:
  Stopping criterion = force tolerance
  Energy initial, next-to-last, final = 
        -241.976792606     -241.976792606     -241.976797745
  Force two-norm initial, final = 0.0222641 8.28007e-10
  Force max component initial, final = 0.0111321 4.21124e-10
  Final line search alpha, max atom move = 0 0
  Iterations, force evaluations = 1 142

Pair  time (%) = 0.00260876 (59.6687)
Neigh time (%) = 0 (0)
Comm  time (%) = 0.00102588 (23.4644)
Outpt time (%) = 1.09655e-05 (0.250808)
Other time (%) = 0.000726465 (16.616)

Nlocal:    82 ave 82 max 82 min
Histogram: 1 0 0 0 0 0 0 0 0 0
Nghost:    175 ave 175 max 175 min
Histogram: 1 0 0 0 0 0 0 0 0 0
Neighs:    718 ave 718 max 718 min
Histogram: 1 0 0 0 0 0 0 0 0 0

Total # of neighbors = 718
Ave neighs/atom = 8.7561
Neighbor list builds = 0
Dangerous builds = 0
        # write_dump all atom ${dumpfile}
        next i
jump SELF loop1
        displace_atoms upper move ${xstep1} 0.0 0.0 units lattice
        displace_atoms upper move 0.002 0.0 0.0 units lattice
        min_style ${style}
        min_style hftn
        minimize ${etol} ${ftol} ${maxiter} ${maxeval}
        minimize 1e-12 ${ftol} ${maxiter} ${maxeval}
        minimize 1e-12 1e-08 ${maxiter} ${maxeval}
        minimize 1e-12 1e-08 10000 ${maxeval}
        minimize 1e-12 1e-08 10000 20000
WARNING: Resetting reneighboring criteria during minimization (../min.cpp:168)
Memory usage per processor = 4.85169 Mbytes
Step Temp PotEng Lx Ly Lz 
      91            0    -241.9751    2.2449075    38.890433    1.1224537 
      92            0    -241.9751    2.2449075    38.890433    1.1224537 
      93            0    -241.9751    2.2449075    38.890433    1.1224537 
Loop time of 0.00315896 on 1 procs for 1 steps with 82 atoms

Minimization stats:
  Stopping criterion = force tolerance
  Energy initial, next-to-last, final = 
        -241.975099783     -241.975099783     -241.975100527
  Force two-norm initial, final = 0.00951072 3.64213e-11
  Force max component initial, final = 0.00475536 1.66343e-11
  Final line search alpha, max atom move = 0 0
  Iterations, force evaluations = 1 150

Pair  time (%) = 0.00229261 (72.5748)
Neigh time (%) = 0 (0)
Comm  time (%) = 0.000184983 (5.85582)
Outpt time (%) = 9.00577e-06 (0.285086)
Other time (%) = 0.000672362 (21.2843)

Nlocal:    82 ave 82 max 82 min
Histogram: 1 0 0 0 0 0 0 0 0 0
Nghost:    175 ave 175 max 175 min
Histogram: 1 0 0 0 0 0 0 0 0 0
Neighs:    718 ave 718 max 718 min
Histogram: 1 0 0 0 0 0 0 0 0 0

Total # of neighbors = 718
Ave neighs/atom = 8.7561
Neighbor list builds = 0
Dangerous builds = 0
        # write_dump all atom ${dumpfile}
        next i
jump SELF loop1
        displace_atoms upper move ${xstep1} 0.0 0.0 units lattice
        displace_atoms upper move 0.002 0.0 0.0 units lattice
        min_style ${style}
        min_style hftn
        minimize ${etol} ${ftol} ${maxiter} ${maxeval}
        minimize 1e-12 ${ftol} ${maxiter} ${maxeval}
        minimize 1e-12 1e-08 ${maxiter} ${maxeval}
        minimize 1e-12 1e-08 10000 ${maxeval}
        minimize 1e-12 1e-08 10000 20000
WARNING: Resetting reneighboring criteria during minimization (../min.cpp:168)
Memory usage per processor = 4.85169 Mbytes
Step Temp PotEng Lx Ly Lz 
      93            0   -241.97335    2.2449075    38.890564    1.1224537 
      94            0   -241.97335    2.2449075    38.890564    1.1224537 
      95            0   -241.97335    2.2449075    38.890564    1.1224537 
Loop time of 0.00390006 on 1 procs for 1 steps with 82 atoms

Minimization stats:
  Stopping criterion = force tolerance
  Energy initial, next-to-last, final = 
         -241.97334874      -241.97334874     -241.973350643
  Force two-norm initial, final = 0.0104958 9.80716e-11
  Force max component initial, final = 0.00524791 3.30392e-11
  Final line search alpha, max atom move = 0 0
  Iterations, force evaluations = 1 148

Pair  time (%) = 0.00249731 (64.0327)
Neigh time (%) = 0 (0)
Comm  time (%) = 0.000265369 (6.80424)
Outpt time (%) = 1.10468e-05 (0.283246)
Other time (%) = 0.00112633 (28.8798)

Nlocal:    82 ave 82 max 82 min
Histogram: 1 0 0 0 0 0 0 0 0 0
Nghost:    175 ave 175 max 175 min
Histogram: 1 0 0 0 0 0 0 0 0 0
Neighs:    718 ave 718 max 718 min
Histogram: 1 0 0 0 0 0 0 0 0 0

Total # of neighbors = 718
Ave neighs/atom = 8.7561
Neighbor list builds = 0
Dangerous builds = 0
        # write_dump all atom ${dumpfile}
        next i
jump SELF loop1
        displace_atoms upper move ${xstep1} 0.0 0.0 units lattice
        displace_atoms upper move 0.002 0.0 0.0 units lattice
        min_style ${style}
        min_style hftn
        minimize ${etol} ${ftol} ${maxiter} ${maxeval}
        minimize 1e-12 ${ftol} ${maxiter} ${maxeval}
        minimize 1e-12 1e-08 ${maxiter} ${maxeval}
        minimize 1e-12 1e-08 10000 ${maxeval}
        minimize 1e-12 1e-08 10000 20000
WARNING: Resetting reneighboring criteria during minimization (../min.cpp:168)
Memory usage per processor = 4.85169 Mbytes
Step Temp PotEng Lx Ly Lz 
      95            0   -241.97154    2.2449075    38.890707    1.1224537 
      96            0   -241.97154    2.2449075    38.890707    1.1224537 
      97            0   -241.97154    2.2449075    38.890707    1.1224537 
Loop time of 0.00319197 on 1 procs for 1 steps with 82 atoms

Minimization stats:
  Stopping criterion = force tolerance
  Energy initial, next-to-last, final = 
        -241.971536479     -241.971536479     -241.971536767
  Force two-norm initial, final = 0.0115674 7.47824e-11
  Force max component initial, final = 0.00578372 3.10302e-11
  Final line search alpha, max atom move = 0 0
  Iterations, force evaluations = 1 148

Pair  time (%) = 0.00233303 (73.0906)
Neigh time (%) = 0 (0)
Comm  time (%) = 0.000191757 (6.00749)
Outpt time (%) = 9.97016e-06 (0.312351)
Other time (%) = 0.000657212 (20.5895)

Nlocal:    82 ave 82 max 82 min
Histogram: 1 0 0 0 0 0 0 0 0 0
Nghost:    175 ave 175 max 175 min
Histogram: 1 0 0 0 0 0 0 0 0 0
Neighs:    718 ave 718 max 718 min
Histogram: 1 0 0 0 0 0 0 0 0 0

Total # of neighbors = 718
Ave neighs/atom = 8.7561
Neighbor list builds = 0
Dangerous builds = 0
        # write_dump all atom ${dumpfile}
        next i
jump SELF loop1
        displace_atoms upper move ${xstep1} 0.0 0.0 units lattice
        displace_atoms upper move 0.002 0.0 0.0 units lattice
        min_style ${style}
        min_style hftn
        minimize ${etol} ${ftol} ${maxiter} ${maxeval}
        minimize 1e-12 ${ftol} ${maxiter} ${maxeval}
        minimize 1e-12 1e-08 ${maxiter} ${maxeval}
        minimize 1e-12 1e-08 10000 ${maxeval}
        minimize 1e-12 1e-08 10000 20000
WARNING: Resetting reneighboring criteria during minimization (../min.cpp:168)
Memory usage per processor = 4.85169 Mbytes
Step Temp PotEng Lx Ly Lz 
      97            0   -241.96967    2.2449075    38.890865    1.1224537 
      98            0   -241.96967    2.2449075    38.890865    1.1224537 
      99            0   -241.96967    2.2449075    38.890865    1.1224537 
Loop time of 0.00293802 on 1 procs for 1 steps with 82 atoms

Minimization stats:
  Stopping criterion = force tolerance
  Energy initial, next-to-last, final = 
        -241.969669876     -241.969669876     -241.969670628
  Force two-norm initial, final = 0.0125239 1.25655e-10
  Force max component initial, final = 0.00626195 4.86122e-11
  Final line search alpha, max atom move = 0 0
  Iterations, force evaluations = 1 146

Pair  time (%) = 0.00215341 (73.2948)
Neigh time (%) = 0 (0)
Comm  time (%) = 0.00017451 (5.93972)
Outpt time (%) = 1.00186e-05 (0.340998)
Other time (%) = 0.000600074 (20.4245)

Nlocal:    82 ave 82 max 82 min
Histogram: 1 0 0 0 0 0 0 0 0 0
Nghost:    175 ave 175 max 175 min
Histogram: 1 0 0 0 0 0 0 0 0 0
Neighs:    718 ave 718 max 718 min
Histogram: 1 0 0 0 0 0 0 0 0 0

Total # of neighbors = 718
Ave neighs/atom = 8.7561
Neighbor list builds = 0
Dangerous builds = 0
        # write_dump all atom ${dumpfile}
        next i
jump SELF loop1
        displace_atoms upper move ${xstep1} 0.0 0.0 units lattice
        displace_atoms upper move 0.002 0.0 0.0 units lattice
        min_style ${style}
        min_style hftn
        minimize ${etol} ${ftol} ${maxiter} ${maxeval}
        minimize 1e-12 ${ftol} ${maxiter} ${maxeval}
        minimize 1e-12 1e-08 ${maxiter} ${maxeval}
        minimize 1e-12 1e-08 10000 ${maxeval}
        minimize 1e-12 1e-08 10000 20000
WARNING: Resetting reneighboring criteria during minimization (../min.cpp:168)
Memory usage per processor = 4.85169 Mbytes
Step Temp PotEng Lx Ly Lz 
      99            0   -241.96774    2.2449075    38.891036    1.1224537 
     100            0   -241.96775    2.2449075    38.891036    1.1224537 
     101            0   -241.96775    2.2449075    38.891036    1.1224537 
Loop time of 0.007337 on 1 procs for 1 steps with 82 atoms

Minimization stats:
  Stopping criterion = force tolerance
  Energy initial, next-to-last, final = 
        -241.967743541     -241.967743541     -241.967745659
  Force two-norm initial, final = 0.0135592 2.25937e-10
  Force max component initial, final = 0.0067796 4.14816e-11
  Final line search alpha, max atom move = 0 0
  Iterations, force evaluations = 1 146

Pair  time (%) = 0.00654032 (89.1417)
Neigh time (%) = 0 (0)
Comm  time (%) = 0.000165062 (2.24972)
Outpt time (%) = 1.60316e-05 (0.218503)
Other time (%) = 0.000615582 (8.39011)

Nlocal:    82 ave 82 max 82 min
Histogram: 1 0 0 0 0 0 0 0 0 0
Nghost:    175 ave 175 max 175 min
Histogram: 1 0 0 0 0 0 0 0 0 0
Neighs:    718 ave 718 max 718 min
Histogram: 1 0 0 0 0 0 0 0 0 0

Total # of neighbors = 718
Ave neighs/atom = 8.7561
Neighbor list builds = 0
Dangerous builds = 0
        # write_dump all atom ${dumpfile}
        next i
jump SELF loop1
        displace_atoms upper move ${xstep1} 0.0 0.0 units lattice
        displace_atoms upper move 0.002 0.0 0.0 units lattice
        min_style ${style}
        min_style hftn
        minimize ${etol} ${ftol} ${maxiter} ${maxeval}
        minimize 1e-12 ${ftol} ${maxiter} ${maxeval}
        minimize 1e-12 1e-08 ${maxiter} ${maxeval}
        minimize 1e-12 1e-08 10000 ${maxeval}
        minimize 1e-12 1e-08 10000 20000
WARNING: Resetting reneighboring criteria during minimization (../min.cpp:168)
Memory usage per processor = 4.85169 Mbytes
Step Temp PotEng Lx Ly Lz 
     101            0   -241.96576    2.2449075     38.89122    1.1224537 
     102            0   -241.96576    2.2449075     38.89122    1.1224537 
     103            0   -241.96576    2.2449075     38.89122    1.1224537 
     104            0   -241.96576    2.2449075     38.89122    1.1224537 
     105            0   -241.96576    2.2449075     38.89122    1.1224537 
     106            0   -241.96576    2.2449075     38.89122    1.1224537 
     107            0   -241.96576    2.2449075     38.89122    1.1224537 
     108            0   -241.96576    2.2449075     38.89122    1.1224537 
     109            0   -241.96576    2.2449075     38.89122    1.1224537 
     110            0   -241.96576    2.2449075     38.89122    1.1224537 
Loop time of 0.00320912 on 1 procs for 8 steps with 82 atoms

Minimization stats:
  Stopping criterion = energy tolerance
  Energy initial, next-to-last, final = 
        -241.965764052     -241.965764052     -241.965764052
  Force two-norm initial, final = 0.0145321 0.0145318
  Force max component initial, final = 0.00726605 0.00726589
  Final line search alpha, max atom move = 0 0
  Iterations, force evaluations = 8 125

Pair  time (%) = 0.00239897 (74.7548)
Neigh time (%) = 0 (0)
Comm  time (%) = 0.000237134 (7.38939)
Outpt time (%) = 4.59548e-05 (1.43201)
Other time (%) = 0.00052706 (16.4238)

Nlocal:    82 ave 82 max 82 min
Histogram: 1 0 0 0 0 0 0 0 0 0
Nghost:    175 ave 175 max 175 min
Histogram: 1 0 0 0 0 0 0 0 0 0
Neighs:    718 ave 718 max 718 min
Histogram: 1 0 0 0 0 0 0 0 0 0

Total # of neighbors = 718
Ave neighs/atom = 8.7561
Neighbor list builds = 0
Dangerous builds = 0
        # write_dump all atom ${dumpfile}
        next i
jump SELF loop1
        displace_atoms upper move ${xstep1} 0.0 0.0 units lattice
        displace_atoms upper move 0.002 0.0 0.0 units lattice
        min_style ${style}
        min_style hftn
        minimize ${etol} ${ftol} ${maxiter} ${maxeval}
        minimize 1e-12 ${ftol} ${maxiter} ${maxeval}
        minimize 1e-12 1e-08 ${maxiter} ${maxeval}
        minimize 1e-12 1e-08 10000 ${maxeval}
        minimize 1e-12 1e-08 10000 20000
WARNING: Resetting reneighboring criteria during minimization (../min.cpp:168)
Memory usage per processor = 4.85169 Mbytes
Step Temp PotEng Lx Ly Lz 
     110            0   -241.96372    2.2449075     38.89122    1.1224537 
     111            0   -241.96373    2.2449075     38.89122    1.1224537 
     112            0   -241.96373    2.2449075     38.89122    1.1224537 
Loop time of 0.00279111 on 1 procs for 1 steps with 82 atoms

Minimization stats:
  Stopping criterion = force tolerance
  Energy initial, next-to-last, final = 
        -241.963720697     -241.963720697     -241.963730475
  Force two-norm initial, final = 0.0301359 3.84468e-09
  Force max component initial, final = 0.0150679 2.01245e-09
  Final line search alpha, max atom move = 0 0
  Iterations, force evaluations = 1 138

Pair  time (%) = 0.00204422 (73.2401)
Neigh time (%) = 0 (0)
Comm  time (%) = 0.000158129 (5.66543)
Outpt time (%) = -1.67638e-08 (-0.000600613)
Other time (%) = 0.000588787 (21.0951)

Nlocal:    82 ave 82 max 82 min
Histogram: 1 0 0 0 0 0 0 0 0 0
Nghost:    175 ave 175 max 175 min
Histogram: 1 0 0 0 0 0 0 0 0 0
Neighs:    718 ave 718 max 718 min
Histogram: 1 0 0 0 0 0 0 0 0 0

Total # of neighbors = 718
Ave neighs/atom = 8.7561
Neighbor list builds = 0
Dangerous builds = 0
        # write_dump all atom ${dumpfile}
        next i
jump SELF loop1
        displace_atoms upper move ${xstep1} 0.0 0.0 units lattice
        displace_atoms upper move 0.002 0.0 0.0 units lattice
        min_style ${style}
        min_style hftn
        minimize ${etol} ${ftol} ${maxiter} ${maxeval}
        minimize 1e-12 ${ftol} ${maxiter} ${maxeval}
        minimize 1e-12 1e-08 ${maxiter} ${maxeval}
        minimize 1e-12 1e-08 10000 ${maxeval}
        minimize 1e-12 1e-08 10000 20000
WARNING: Resetting reneighboring criteria during minimization (../min.cpp:168)
Memory usage per processor = 4.85169 Mbytes
Step Temp PotEng Lx Ly Lz 
     112            0   -241.96163    2.2449075    38.891627    1.1224537 
     113            0   -241.96164    2.2449075    38.891627    1.1224537 
     114            0   -241.96164    2.2449075    38.891627    1.1224537 
Loop time of 0.00482705 on 1 procs for 1 steps with 82 atoms

Minimization stats:
  Stopping criterion = force tolerance
  Energy initial, next-to-last, final = 
        -241.961634086     -241.961634086     -241.961635754
  Force two-norm initial, final = 0.0165251 3.02442e-10
  Force max component initial, final = 0.00826254 1.29404e-10
  Final line search alpha, max atom move = 0 0
  Iterations, force evaluations = 1 144

Pair  time (%) = 0.00389686 (80.7296)
Neigh time (%) = 0 (0)
Comm  time (%) = 0.000206588 (4.27979)
Outpt time (%) = 1.19627e-05 (0.247827)
Other time (%) = 0.000711641 (14.7428)

Nlocal:    82 ave 82 max 82 min
Histogram: 1 0 0 0 0 0 0 0 0 0
Nghost:    175 ave 175 max 175 min
Histogram: 1 0 0 0 0 0 0 0 0 0
Neighs:    718 ave 718 max 718 min
Histogram: 1 0 0 0 0 0 0 0 0 0

Total # of neighbors = 718
Ave neighs/atom = 8.7561
Neighbor list builds = 0
Dangerous builds = 0
        # write_dump all atom ${dumpfile}
        next i
jump SELF loop1
        displace_atoms upper move ${xstep1} 0.0 0.0 units lattice
        displace_atoms upper move 0.002 0.0 0.0 units lattice
        min_style ${style}
        min_style hftn
        minimize ${etol} ${ftol} ${maxiter} ${maxeval}
        minimize 1e-12 ${ftol} ${maxiter} ${maxeval}
        minimize 1e-12 1e-08 ${maxiter} ${maxeval}
        minimize 1e-12 1e-08 10000 ${maxeval}
        minimize 1e-12 1e-08 10000 20000
WARNING: Resetting reneighboring criteria during minimization (../min.cpp:168)
Memory usage per processor = 4.85169 Mbytes
Step Temp PotEng Lx Ly Lz 
     114            0   -241.95949    2.2449075     38.89185    1.1224537 
     115            0   -241.95949    2.2449075     38.89185    1.1224537 
     116            0   -241.95949    2.2449075     38.89185    1.1224537 
Loop time of 0.00358311 on 1 procs for 1 steps with 82 atoms

Minimization stats:
  Stopping criterion = force tolerance
  Energy initial, next-to-last, final = 
        -241.959489312     -241.959489312      -241.95949004
  Force two-norm initial, final = 0.0174307 3.41978e-10
  Force max component initial, final = 0.00871533 1.42012e-10
  Final line search alpha, max atom move = 0 0
  Iterations, force evaluations = 1 144

Pair  time (%) = 0.00263167 (73.4463)
Neigh time (%) = 0 (0)
Comm  time (%) = 0.000225302 (6.28787)
Outpt time (%) = 1.09231e-05 (0.30485)
Other time (%) = 0.000715224 (19.961)

Nlocal:    82 ave 82 max 82 min
Histogram: 1 0 0 0 0 0 0 0 0 0
Nghost:    175 ave 175 max 175 min
Histogram: 1 0 0 0 0 0 0 0 0 0
Neighs:    718 ave 718 max 718 min
Histogram: 1 0 0 0 0 0 0 0 0 0

Total # of neighbors = 718
Ave neighs/atom = 8.7561
Neighbor list builds = 0
Dangerous builds = 0
        # write_dump all atom ${dumpfile}
        next i
jump SELF loop1
        displace_atoms upper move ${xstep1} 0.0 0.0 units lattice
        displace_atoms upper move 0.002 0.0 0.0 units lattice
        min_style ${style}
        min_style hftn
        minimize ${etol} ${ftol} ${maxiter} ${maxeval}
        minimize 1e-12 ${ftol} ${maxiter} ${maxeval}
        minimize 1e-12 1e-08 ${maxiter} ${maxeval}
        minimize 1e-12 1e-08 10000 ${maxeval}
        minimize 1e-12 1e-08 10000 20000
WARNING: Resetting reneighboring criteria during minimization (../min.cpp:168)
Memory usage per processor = 4.85169 Mbytes
Step Temp PotEng Lx Ly Lz 
     116            0   -241.95729    2.2449075    38.892085    1.1224537 
     117            0   -241.95729    2.2449075    38.892085    1.1224537 
     118            0   -241.95729    2.2449075    38.892085    1.1224537 
Loop time of 0.00394402 on 1 procs for 1 steps with 82 atoms

Minimization stats:
  Stopping criterion = force tolerance
  Energy initial, next-to-last, final = 
        -241.957289129     -241.957289129      -241.95729076
  Force two-norm initial, final = 0.0183832 7.0876e-10
  Force max component initial, final = 0.0091916 2.04169e-10
  Final line search alpha, max atom move = 0 0
  Iterations, force evaluations = 1 142

Pair  time (%) = 0.00293 (74.2897)
Neigh time (%) = 0 (0)
Comm  time (%) = 0.000255851 (6.48704)
Outpt time (%) = 1.09753e-05 (0.278276)
Other time (%) = 0.000747195 (18.945)

Nlocal:    82 ave 82 max 82 min
Histogram: 1 0 0 0 0 0 0 0 0 0
Nghost:    175 ave 175 max 175 min
Histogram: 1 0 0 0 0 0 0 0 0 0
Neighs:    718 ave 718 max 718 min
Histogram: 1 0 0 0 0 0 0 0 0 0

Total # of neighbors = 718
Ave neighs/atom = 8.7561
Neighbor list builds = 0
Dangerous builds = 0
        # write_dump all atom ${dumpfile}
        next i
jump SELF loop1
        displace_atoms upper move ${xstep1} 0.0 0.0 units lattice
        displace_atoms upper move 0.002 0.0 0.0 units lattice
        min_style ${style}
        min_style hftn
        minimize ${etol} ${ftol} ${maxiter} ${maxeval}
        minimize 1e-12 ${ftol} ${maxiter} ${maxeval}
        minimize 1e-12 1e-08 ${maxiter} ${maxeval}
        minimize 1e-12 1e-08 10000 ${maxeval}
        minimize 1e-12 1e-08 10000 20000
WARNING: Resetting reneighboring criteria during minimization (../min.cpp:168)
Memory usage per processor = 4.85169 Mbytes
Step Temp PotEng Lx Ly Lz 
     118            0   -241.95503    2.2449075    38.892332    1.1224537 
     119            0   -241.95504    2.2449075    38.892332    1.1224537 
     120            0   -241.95504    2.2449075    38.892332    1.1224537 
Loop time of 0.00319707 on 1 procs for 1 steps with 82 atoms

Minimization stats:
  Stopping criterion = force tolerance
  Energy initial, next-to-last, final = 
        -241.955034156     -241.955034156     -241.955040202
  Force two-norm initial, final = 0.0193441 5.90841e-10
  Force max component initial, final = 0.00967206 3.01088e-10
  Final line search alpha, max atom move = 0 0
  Iterations, force evaluations = 1 142

Pair  time (%) = 0.00232686 (72.7812)
Neigh time (%) = 0 (0)
Comm  time (%) = 0.000192571 (6.02336)
Outpt time (%) = 1.10469e-05 (0.345532)
Other time (%) = 0.000666586 (20.8499)

Nlocal:    82 ave 82 max 82 min
Histogram: 1 0 0 0 0 0 0 0 0 0
Nghost:    175 ave 175 max 175 min
Histogram: 1 0 0 0 0 0 0 0 0 0
Neighs:    718 ave 718 max 718 min
Histogram: 1 0 0 0 0 0 0 0 0 0

Total # of neighbors = 718
Ave neighs/atom = 8.7561
Neighbor list builds = 0
Dangerous builds = 0
        # write_dump all atom ${dumpfile}
        next i
jump SELF loop1
        displace_atoms upper move ${xstep1} 0.0 0.0 units lattice
        displace_atoms upper move 0.002 0.0 0.0 units lattice
        min_style ${style}
        min_style hftn
        minimize ${etol} ${ftol} ${maxiter} ${maxeval}
        minimize 1e-12 ${ftol} ${maxiter} ${maxeval}
        minimize 1e-12 1e-08 ${maxiter} ${maxeval}
        minimize 1e-12 1e-08 10000 ${maxeval}
        minimize 1e-12 1e-08 10000 20000
WARNING: Resetting reneighboring criteria during minimization (../min.cpp:168)
Memory usage per processor = 4.85169 Mbytes
Step Temp PotEng Lx Ly Lz 
     120            0   -241.95273    2.2449075    38.892591    1.1224537 
     121            0   -241.95273    2.2449075    38.892591    1.1224537 
     122            0   -241.95273    2.2449075    38.892591    1.1224537 
Loop time of 0.00666389 on 1 procs for 1 steps with 82 atoms

Minimization stats:
  Stopping criterion = force tolerance
  Energy initial, next-to-last, final = 
         -241.95272988      -241.95272988     -241.952732223
  Force two-norm initial, final = 0.0202817 6.51207e-10
  Force max component initial, final = 0.0101408 3.34298e-10
  Final line search alpha, max atom move = 0 0
  Iterations, force evaluations = 1 142

Pair  time (%) = 0.00289364 (43.4227)
Neigh time (%) = 0 (0)
Comm  time (%) = 0.00311367 (46.7245)
Outpt time (%) = 2.29029e-05 (0.343686)
Other time (%) = 0.000633674 (9.50908)

Nlocal:    82 ave 82 max 82 min
Histogram: 1 0 0 0 0 0 0 0 0 0
Nghost:    175 ave 175 max 175 min
Histogram: 1 0 0 0 0 0 0 0 0 0
Neighs:    718 ave 718 max 718 min
Histogram: 1 0 0 0 0 0 0 0 0 0

Total # of neighbors = 718
Ave neighs/atom = 8.7561
Neighbor list builds = 0
Dangerous builds = 0
        # write_dump all atom ${dumpfile}
        next i
jump SELF loop1
        displace_atoms upper move ${xstep1} 0.0 0.0 units lattice
        displace_atoms upper move 0.002 0.0 0.0 units lattice
        min_style ${style}
        min_style hftn
        minimize ${etol} ${ftol} ${maxiter} ${maxeval}
        minimize 1e-12 ${ftol} ${maxiter} ${maxeval}
        minimize 1e-12 1e-08 ${maxiter} ${maxeval}
        minimize 1e-12 1e-08 10000 ${maxeval}
        minimize 1e-12 1e-08 10000 20000
WARNING: Resetting reneighboring criteria during minimization (../min.cpp:168)
Memory usage per processor = 4.85169 Mbytes
Step Temp PotEng Lx Ly Lz 
     122            0   -241.95037    2.2449075    38.892862    1.1224537 
     123            0   -241.95038    2.2449075    38.892862    1.1224537 
     124            0   -241.95038    2.2449075    38.892862    1.1224537 
Loop time of 0.00293608 on 1 procs for 1 steps with 82 atoms

Minimization stats:
  Stopping criterion = force tolerance
  Energy initial, next-to-last, final = 
        -241.950374763     -241.950374763     -241.950375813
  Force two-norm initial, final = 0.0211409 6.85653e-10
  Force max component initial, final = 0.0105705 3.39279e-10
  Final line search alpha, max atom move = 0 0
  Iterations, force evaluations = 1 142

Pair  time (%) = 0.0021432 (72.9954)
Neigh time (%) = 0 (0)
Comm  time (%) = 0.000170405 (5.80381)
Outpt time (%) = 1.00971e-05 (0.343896)
Other time (%) = 0.000612375 (20.8569)

Nlocal:    82 ave 82 max 82 min
Histogram: 1 0 0 0 0 0 0 0 0 0
Nghost:    175 ave 175 max 175 min
Histogram: 1 0 0 0 0 0 0 0 0 0
Neighs:    718 ave 718 max 718 min
Histogram: 1 0 0 0 0 0 0 0 0 0

Total # of neighbors = 718
Ave neighs/atom = 8.7561
Neighbor list builds = 0
Dangerous builds = 0
        # write_dump all atom ${dumpfile}
        next i
jump SELF loop1
        displace_atoms upper move ${xstep1} 0.0 0.0 units lattice
        displace_atoms upper move 0.002 0.0 0.0 units lattice
        min_style ${style}
        min_style hftn
        minimize ${etol} ${ftol} ${maxiter} ${maxeval}
        minimize 1e-12 ${ftol} ${maxiter} ${maxeval}
        minimize 1e-12 1e-08 ${maxiter} ${maxeval}
        minimize 1e-12 1e-08 10000 ${maxeval}
        minimize 1e-12 1e-08 10000 20000
WARNING: Resetting reneighboring criteria during minimization (../min.cpp:168)
Memory usage per processor = 4.85169 Mbytes
Step Temp PotEng Lx Ly Lz 
     124            0   -241.94797    2.2449075    38.893145    1.1224537 
     125            0   -241.94797    2.2449075    38.893145    1.1224537 
     126            0   -241.94797    2.2449075    38.893145    1.1224537 
Loop time of 0.00294905 on 1 procs for 1 steps with 82 atoms

Minimization stats:
  Stopping criterion = force tolerance
  Energy initial, next-to-last, final = 
        -241.947967796     -241.947967796     -241.947968953
  Force two-norm initial, final = 0.0220373 9.33494e-10
  Force max component initial, final = 0.0110186 3.49204e-10
  Final line search alpha, max atom move = 0 0
  Iterations, force evaluations = 1 142

Pair  time (%) = 0.00214587 (72.7648)
Neigh time (%) = 0 (0)
Comm  time (%) = 0.000175395 (5.94752)
Outpt time (%) = 8.95339e-06 (0.303603)
Other time (%) = 0.000618829 (20.984)

Nlocal:    82 ave 82 max 82 min
Histogram: 1 0 0 0 0 0 0 0 0 0
Nghost:    175 ave 175 max 175 min
Histogram: 1 0 0 0 0 0 0 0 0 0
Neighs:    718 ave 718 max 718 min
Histogram: 1 0 0 0 0 0 0 0 0 0

Total # of neighbors = 718
Ave neighs/atom = 8.7561
Neighbor list builds = 0
Dangerous builds = 0
        # write_dump all atom ${dumpfile}
        next i
jump SELF loop1
        displace_atoms upper move ${xstep1} 0.0 0.0 units lattice
        displace_atoms upper move 0.002 0.0 0.0 units lattice
        min_style ${style}
        min_style hftn
        minimize ${etol} ${ftol} ${maxiter} ${maxeval}
        minimize 1e-12 ${ftol} ${maxiter} ${maxeval}
        minimize 1e-12 1e-08 ${maxiter} ${maxeval}
        minimize 1e-12 1e-08 10000 ${maxeval}
        minimize 1e-12 1e-08 10000 20000
WARNING: Resetting reneighboring criteria during minimization (../min.cpp:168)
Memory usage per processor = 4.85169 Mbytes
Step Temp PotEng Lx Ly Lz 
     126            0   -241.94551    2.2449075    38.893439    1.1224537 
     127            0   -241.94551    2.2449075    38.893439    1.1224537 
     128            0   -241.94551    2.2449075    38.893439    1.1224537 
Loop time of 0.00362496 on 1 procs for 1 steps with 82 atoms

Minimization stats:
  Stopping criterion = force tolerance
  Energy initial, next-to-last, final = 
         -241.94551017      -241.94551017      -241.94551306
  Force two-norm initial, final = 0.0229291 1.71628e-09
  Force max component initial, final = 0.0114646 5.95194e-10
  Final line search alpha, max atom move = 0 0
  Iterations, force evaluations = 1 140

Pair  time (%) = 0.00220162 (60.735)
Neigh time (%) = 0 (0)
Comm  time (%) = 0.000207216 (5.71638)
Outpt time (%) = 9.1159e-06 (0.251476)
Other time (%) = 0.00120701 (33.2972)

Nlocal:    82 ave 82 max 82 min
Histogram: 1 0 0 0 0 0 0 0 0 0
Nghost:    175 ave 175 max 175 min
Histogram: 1 0 0 0 0 0 0 0 0 0
Neighs:    718 ave 718 max 718 min
Histogram: 1 0 0 0 0 0 0 0 0 0

Total # of neighbors = 718
Ave neighs/atom = 8.7561
Neighbor list builds = 0
Dangerous builds = 0
        # write_dump all atom ${dumpfile}
        next i
jump SELF loop1
        displace_atoms upper move ${xstep1} 0.0 0.0 units lattice
        displace_atoms upper move 0.002 0.0 0.0 units lattice
        min_style ${style}
        min_style hftn
        minimize ${etol} ${ftol} ${maxiter} ${maxeval}
        minimize 1e-12 ${ftol} ${maxiter} ${maxeval}
        minimize 1e-12 1e-08 ${maxiter} ${maxeval}
        minimize 1e-12 1e-08 10000 ${maxeval}
        minimize 1e-12 1e-08 10000 20000
WARNING: Resetting reneighboring criteria during minimization (../min.cpp:168)
[...]
  Force two-norm initial, final = 0.00671834 1.42833e-10
  Force max component initial, final = 0.00335917 2.83494e-11
  Final line search alpha, max atom move = 0 0
  Iterations, force evaluations = 1 156

Pair  time (%) = 0.00248874 (71.908)
Neigh time (%) = 0 (0)
Comm  time (%) = 0.000196566 (5.67945)
Outpt time (%) = 1.2077e-05 (0.348946)
Other time (%) = 0.000763623 (22.0636)

Nlocal:    82 ave 82 max 82 min
Histogram: 1 0 0 0 0 0 0 0 0 0
Nghost:    185 ave 185 max 185 min
Histogram: 1 0 0 0 0 0 0 0 0 0
Neighs:    718 ave 718 max 718 min
Histogram: 1 0 0 0 0 0 0 0 0 0

Total # of neighbors = 718
Ave neighs/atom = 8.7561
Neighbor list builds = 0
Dangerous builds = 0
        # write_dump all atom ${dumpfile}
        next i
jump SELF loop1
        displace_atoms upper move ${xstep1} 0.0 0.0 units lattice
        displace_atoms upper move 0.002 0.0 0.0 units lattice
        min_style ${style}
        min_style hftn
        minimize ${etol} ${ftol} ${maxiter} ${maxeval}
        minimize 1e-12 ${ftol} ${maxiter} ${maxeval}
        minimize 1e-12 1e-08 ${maxiter} ${maxeval}
        minimize 1e-12 1e-08 10000 ${maxeval}
        minimize 1e-12 1e-08 10000 20000
WARNING: Resetting reneighboring criteria during minimization (../min.cpp:168)
Memory usage per processor = 4.85169 Mbytes
Step Temp PotEng Lx Ly Lz 
    2719            0   -241.99595    2.2449075     38.89025    1.1224537 
    2720            0   -241.99595    2.2449075     38.89025    1.1224537 
    2721            0   -241.99595    2.2449075     38.89025    1.1224537 
    2722            0   -241.99595    2.2449075     38.89025    1.1224537 
    2723            0   -241.99595    2.2449075     38.89025    1.1224537 
    2724            0   -241.99595    2.2449075     38.89025    1.1224537 
    2725            0   -241.99595    2.2449075     38.89025    1.1224537 
    2726            0   -241.99595    2.2449075     38.89025    1.1224537 
    2727            0   -241.99595    2.2449075     38.89025    1.1224537 
    2728            0   -241.99595    2.2449075     38.89025    1.1224537 
    2729            0   -241.99595    2.2449075     38.89025    1.1224537 
    2730            0   -241.99595    2.2449075     38.89025    1.1224537 
    2731            0   -241.99595    2.2449075     38.89025    1.1224537 
Loop time of 0.00347701 on 1 procs for 11 steps with 82 atoms

Minimization stats:
  Stopping criterion = energy tolerance
  Energy initial, next-to-last, final = 
        -241.995945483     -241.995945658      -241.99594566
  Force two-norm initial, final = 0.00783665 0.00514737
  Force max component initial, final = 0.00391833 0.00253375
  Final line search alpha, max atom move = 0 0
  Iterations, force evaluations = 11 146

Pair  time (%) = 0.00251083 (72.2123)
Neigh time (%) = 0 (0)
Comm  time (%) = 0.000225176 (6.47613)
Outpt time (%) = 8.58809e-05 (2.46996)
Other time (%) = 0.000655125 (18.8416)

Nlocal:    82 ave 82 max 82 min
Histogram: 1 0 0 0 0 0 0 0 0 0
Nghost:    185 ave 185 max 185 min
Histogram: 1 0 0 0 0 0 0 0 0 0
Neighs:    718 ave 718 max 718 min
Histogram: 1 0 0 0 0 0 0 0 0 0

Total # of neighbors = 718
Ave neighs/atom = 8.7561
Neighbor list builds = 0
Dangerous builds = 0
        # write_dump all atom ${dumpfile}
        next i
jump SELF loop1
        displace_atoms upper move ${xstep1} 0.0 0.0 units lattice
        displace_atoms upper move 0.002 0.0 0.0 units lattice
        min_style ${style}
        min_style hftn
        minimize ${etol} ${ftol} ${maxiter} ${maxeval}
        minimize 1e-12 ${ftol} ${maxiter} ${maxeval}
        minimize 1e-12 1e-08 ${maxiter} ${maxeval}
        minimize 1e-12 1e-08 10000 ${maxeval}
        minimize 1e-12 1e-08 10000 20000
WARNING: Resetting reneighboring criteria during minimization (../min.cpp:168)
Memory usage per processor = 4.85169 Mbytes
Step Temp PotEng Lx Ly Lz 
    2731            0   -241.99665    2.2449075     38.89025    1.1224537 
    2732            0   -241.99665    2.2449075     38.89025    1.1224537 
    2733            0   -241.99665    2.2449075     38.89025    1.1224537 
Loop time of 0.00340396 on 1 procs for 1 steps with 82 atoms

Minimization stats:
  Stopping criterion = force tolerance
  Energy initial, next-to-last, final = 
         -241.99665129      -241.99665129     -241.996652435
  Force two-norm initial, final = 0.0140659 1.91097e-10
  Force max component initial, final = 0.00701845 9.93007e-11
  Final line search alpha, max atom move = 0 0
  Iterations, force evaluations = 1 148

Pair  time (%) = 0.00248712 (73.0653)
Neigh time (%) = 0 (0)
Comm  time (%) = 0.000202967 (5.96266)
Outpt time (%) = 9.05711e-06 (0.266076)
Other time (%) = 0.000704822 (20.7059)

Nlocal:    82 ave 82 max 82 min
Histogram: 1 0 0 0 0 0 0 0 0 0
Nghost:    185 ave 185 max 185 min
Histogram: 1 0 0 0 0 0 0 0 0 0
Neighs:    718 ave 718 max 718 min
Histogram: 1 0 0 0 0 0 0 0 0 0

Total # of neighbors = 718
Ave neighs/atom = 8.7561
Neighbor list builds = 0
Dangerous builds = 0
        # write_dump all atom ${dumpfile}
        next i
jump SELF loop1
        displace_atoms upper move ${xstep1} 0.0 0.0 units lattice
        displace_atoms upper move 0.002 0.0 0.0 units lattice
        min_style ${style}
        min_style hftn
        minimize ${etol} ${ftol} ${maxiter} ${maxeval}
        minimize 1e-12 ${ftol} ${maxiter} ${maxeval}
        minimize 1e-12 1e-08 ${maxiter} ${maxeval}
        minimize 1e-12 1e-08 10000 ${maxeval}
        minimize 1e-12 1e-08 10000 20000
WARNING: Resetting reneighboring criteria during minimization (../min.cpp:168)
Memory usage per processor = 4.85169 Mbytes
Step Temp PotEng Lx Ly Lz 
    2733            0   -241.99731    2.2449075    38.890491    1.1224537 
    2734            0   -241.99731    2.2449075    38.890491    1.1224537 
    2735            0   -241.99731    2.2449075    38.890491    1.1224537 
    2736            0   -241.99731    2.2449075    38.890491    1.1224537 
    2737            0   -241.99731    2.2449075    38.890491    1.1224537 
    2738            0   -241.99731    2.2449075    38.890491    1.1224537 
    2739            0   -241.99731    2.2449075    38.890491    1.1224537 
    2740            0   -241.99731    2.2449075    38.890491    1.1224537 
Loop time of 0.0078211 on 1 procs for 6 steps with 82 atoms

Minimization stats:
  Stopping criterion = energy tolerance
  Energy initial, next-to-last, final = 
        -241.997306496     -241.997306496     -241.997306496
  Force two-norm initial, final = 0.0100659 0.0100523
  Force max component initial, final = 0.00503295 0.00502617
  Final line search alpha, max atom move = 0 0
  Iterations, force evaluations = 6 115

Pair  time (%) = 0.00690923 (88.3408)
Neigh time (%) = 0 (0)
Comm  time (%) = 0.000187911 (2.40261)
Outpt time (%) = 0.000224943 (2.8761)
Other time (%) = 0.000499021 (6.38044)

Nlocal:    82 ave 82 max 82 min
Histogram: 1 0 0 0 0 0 0 0 0 0
Nghost:    185 ave 185 max 185 min
Histogram: 1 0 0 0 0 0 0 0 0 0
Neighs:    718 ave 718 max 718 min
Histogram: 1 0 0 0 0 0 0 0 0 0

Total # of neighbors = 718
Ave neighs/atom = 8.7561
Neighbor list builds = 0
Dangerous builds = 0
        # write_dump all atom ${dumpfile}
        next i
jump SELF loop1
        displace_atoms upper move ${xstep1} 0.0 0.0 units lattice
        displace_atoms upper move 0.002 0.0 0.0 units lattice
        min_style ${style}
        min_style hftn
        minimize ${etol} ${ftol} ${maxiter} ${maxeval}
        minimize 1e-12 ${ftol} ${maxiter} ${maxeval}
        minimize 1e-12 1e-08 ${maxiter} ${maxeval}
        minimize 1e-12 1e-08 10000 ${maxeval}
        minimize 1e-12 1e-08 10000 20000
WARNING: Resetting reneighboring criteria during minimization (../min.cpp:168)
Memory usage per processor = 4.85169 Mbytes
Step Temp PotEng Lx Ly Lz 
    2740            0    -241.9979    2.2449075    38.890491    1.1224537 
    2741            0   -241.99791    2.2449075    38.890491    1.1224537 
    2742            0   -241.99791    2.2449075    38.890491    1.1224537 
Loop time of 0.00367799 on 1 procs for 1 steps with 82 atoms

Minimization stats:
  Stopping criterion = force tolerance
  Energy initial, next-to-last, final = 
        -241.997903222     -241.997903222     -241.997907887
  Force two-norm initial, final = 0.0212377 8.27399e-10
  Force max component initial, final = 0.0106189 4.04588e-10
  Final line search alpha, max atom move = 0 0
  Iterations, force evaluations = 1 142

Pair  time (%) = 0.00251485 (68.3756)
Neigh time (%) = 0 (0)
Comm  time (%) = 0.000303994 (8.2652)
Outpt time (%) = 4.09601e-05 (1.11366)
Other time (%) = 0.000818189 (22.2455)

Nlocal:    82 ave 82 max 82 min
Histogram: 1 0 0 0 0 0 0 0 0 0
Nghost:    185 ave 185 max 185 min
Histogram: 1 0 0 0 0 0 0 0 0 0
Neighs:    718 ave 718 max 718 min
Histogram: 1 0 0 0 0 0 0 0 0 0

Total # of neighbors = 718
Ave neighs/atom = 8.7561
Neighbor list builds = 0
Dangerous builds = 0
        # write_dump all atom ${dumpfile}
        next i
jump SELF loop1
        displace_atoms upper move ${xstep1} 0.0 0.0 units lattice
        displace_atoms upper move 0.002 0.0 0.0 units lattice
        min_style ${style}
        min_style hftn
        minimize ${etol} ${ftol} ${maxiter} ${maxeval}
        minimize 1e-12 ${ftol} ${maxiter} ${maxeval}
        minimize 1e-12 1e-08 ${maxiter} ${maxeval}
        minimize 1e-12 1e-08 10000 ${maxeval}
        minimize 1e-12 1e-08 10000 20000
WARNING: Resetting reneighboring criteria during minimization (../min.cpp:168)
Memory usage per processor = 4.85169 Mbytes
Step Temp PotEng Lx Ly Lz 
    2742            0   -241.99846    2.2449075    38.890797    1.1224537 
    2743            0   -241.99846    2.2449075    38.890797    1.1224537 
    2744            0   -241.99846    2.2449075    38.890797    1.1224537 
    2745            0   -241.99846    2.2449075    38.890797    1.1224537 
    2746            0   -241.99846    2.2449075    38.890797    1.1224537 
    2747            0   -241.99846    2.2449075    38.890797    1.1224537 
    2748            0   -241.99846    2.2449075    38.890797    1.1224537 
    2749            0   -241.99846    2.2449075    38.890797    1.1224537 
    2750            0   -241.99846    2.2449075    38.890797    1.1224537 
Loop time of 0.00337099 on 1 procs for 7 steps with 82 atoms

Minimization stats:
  Stopping criterion = energy tolerance
  Energy initial, next-to-last, final = 
        -241.998456083     -241.998456083     -241.998456083
  Force two-norm initial, final = 0.0122795 0.0122768
  Force max component initial, final = 0.00613975 0.00613842
  Final line search alpha, max atom move = 0 0
  Iterations, force evaluations = 7 118

Pair  time (%) = 0.00190113 (56.3968)
Neigh time (%) = 0 (0)
Comm  time (%) = 0.000164175 (4.87024)
Outpt time (%) = 0.000851056 (25.2465)
Other time (%) = 0.000454628 (13.4865)

Nlocal:    82 ave 82 max 82 min
Histogram: 1 0 0 0 0 0 0 0 0 0
Nghost:    185 ave 185 max 185 min
Histogram: 1 0 0 0 0 0 0 0 0 0
Neighs:    718 ave 718 max 718 min
Histogram: 1 0 0 0 0 0 0 0 0 0

Total # of neighbors = 718
Ave neighs/atom = 8.7561
Neighbor list builds = 0
Dangerous builds = 0
        # write_dump all atom ${dumpfile}
        next i
jump SELF loop1
        displace_atoms upper move ${xstep1} 0.0 0.0 units lattice
        displace_atoms upper move 0.002 0.0 0.0 units lattice
        min_style ${style}
        min_style hftn
        minimize ${etol} ${ftol} ${maxiter} ${maxeval}
        minimize 1e-12 ${ftol} ${maxiter} ${maxeval}
        minimize 1e-12 1e-08 ${maxiter} ${maxeval}
        minimize 1e-12 1e-08 10000 ${maxeval}
        minimize 1e-12 1e-08 10000 20000
WARNING: Resetting reneighboring criteria during minimization (../min.cpp:168)
Memory usage per processor = 4.85169 Mbytes
Step Temp PotEng Lx Ly Lz 
    2750            0   -241.99895    2.2449075    38.890797    1.1224537 
    2751            0   -241.99895    2.2449075    38.890797    1.1224537 
    2752            0   -241.99895    2.2449075    38.890797    1.1224537 
Loop time of 0.00401891 on 1 procs for 1 steps with 82 atoms

Minimization stats:
  Stopping criterion = force tolerance
  Energy initial, next-to-last, final = 
        -241.998948857     -241.998948857     -241.998950285
  Force two-norm initial, final = 0.0256993 1.93144e-09
  Force max component initial, final = 0.0128497 9.9951e-10
  Final line search alpha, max atom move = 0 0
  Iterations, force evaluations = 1 140

Pair  time (%) = 0.00239714 (59.6465)
Neigh time (%) = 0 (0)
Comm  time (%) = 0.000248932 (6.19401)
Outpt time (%) = 1.00045e-05 (0.248935)
Other time (%) = 0.00136284 (33.9106)

Nlocal:    82 ave 82 max 82 min
Histogram: 1 0 0 0 0 0 0 0 0 0
Nghost:    185 ave 185 max 185 min
Histogram: 1 0 0 0 0 0 0 0 0 0
Neighs:    718 ave 718 max 718 min
Histogram: 1 0 0 0 0 0 0 0 0 0

Total # of neighbors = 718
Ave neighs/atom = 8.7561
Neighbor list builds = 0
Dangerous builds = 0
        # write_dump all atom ${dumpfile}
        next i
jump SELF loop1
        displace_atoms upper move ${xstep1} 0.0 0.0 units lattice
        displace_atoms upper move 0.002 0.0 0.0 units lattice
        min_style ${style}
        min_style hftn
        minimize ${etol} ${ftol} ${maxiter} ${maxeval}
        minimize 1e-12 ${ftol} ${maxiter} ${maxeval}
        minimize 1e-12 1e-08 ${maxiter} ${maxeval}
        minimize 1e-12 1e-08 10000 ${maxeval}
        minimize 1e-12 1e-08 10000 20000
WARNING: Resetting reneighboring criteria during minimization (../min.cpp:168)
Memory usage per processor = 4.85169 Mbytes
Step Temp PotEng Lx Ly Lz 
    2752            0   -241.99938    2.2449075    38.891169    1.1224537 
    2753            0   -241.99938    2.2449075    38.891169    1.1224537 
    2754            0   -241.99938    2.2449075    38.891169    1.1224537 
Loop time of 0.002556 on 1 procs for 1 steps with 82 atoms

Minimization stats:
  Stopping criterion = force tolerance
  Energy initial, next-to-last, final = 
        -241.999378792     -241.999378792     -241.999378885
  Force two-norm initial, final = 0.00228864 4.18193e-09
  Force max component initial, final = 0.00114432 2.05459e-09
  Final line search alpha, max atom move = 0 0
  Iterations, force evaluations = 1 111

Pair  time (%) = 0.0018553 (72.5863)
Neigh time (%) = 0 (0)
Comm  time (%) = 0.000184415 (7.21499)
Outpt time (%) = 9.92045e-06 (0.388124)
Other time (%) = 0.000506359 (19.8106)

Nlocal:    82 ave 82 max 82 min
Histogram: 1 0 0 0 0 0 0 0 0 0
Nghost:    185 ave 185 max 185 min
Histogram: 1 0 0 0 0 0 0 0 0 0
Neighs:    718 ave 718 max 718 min
Histogram: 1 0 0 0 0 0 0 0 0 0

Total # of neighbors = 718
Ave neighs/atom = 8.7561
Neighbor list builds = 0
Dangerous builds = 0
        # write_dump all atom ${dumpfile}
        next i
jump SELF loop1
        displace_atoms upper move ${xstep1} 0.0 0.0 units lattice
        displace_atoms upper move 0.002 0.0 0.0 units lattice
        min_style ${style}
        min_style hftn
        minimize ${etol} ${ftol} ${maxiter} ${maxeval}
        minimize 1e-12 ${ftol} ${maxiter} ${maxeval}
        minimize 1e-12 1e-08 ${maxiter} ${maxeval}
        minimize 1e-12 1e-08 10000 ${maxeval}
        minimize 1e-12 1e-08 10000 20000
WARNING: Resetting reneighboring criteria during minimization (../min.cpp:168)
Memory usage per processor = 4.85169 Mbytes
Step Temp PotEng Lx Ly Lz 
    2754            0   -241.99969    2.2449075      38.8912    1.1224537 
    2755            0   -241.99969    2.2449075      38.8912    1.1224537 
    2756            0   -241.99969    2.2449075      38.8912    1.1224537 
Loop time of 0.00250391 on 1 procs for 1 steps with 82 atoms

Minimization stats:
  Stopping criterion = force tolerance
  Energy initial, next-to-last, final = 
         -241.99968817      -241.99968817     -241.999688189
  Force two-norm initial, final = 0.0025748 5.33112e-09
  Force max component initial, final = 0.0012874 2.64074e-09
  Final line search alpha, max atom move = 0 0
  Iterations, force evaluations = 1 111

Pair  time (%) = 0.0018252 (72.8939)
Neigh time (%) = 0 (0)
Comm  time (%) = 0.000140791 (5.62286)
Outpt time (%) = 8.90985e-06 (0.355837)
Other time (%) = 0.000529011 (21.1274)

Nlocal:    82 ave 82 max 82 min
Histogram: 1 0 0 0 0 0 0 0 0 0
Nghost:    185 ave 185 max 185 min
Histogram: 1 0 0 0 0 0 0 0 0 0
Neighs:    718 ave 718 max 718 min
Histogram: 1 0 0 0 0 0 0 0 0 0

Total # of neighbors = 718
Ave neighs/atom = 8.7561
Neighbor list builds = 0
Dangerous builds = 0
        # write_dump all atom ${dumpfile}
        next i
jump SELF loop1
        displace_atoms upper move ${xstep1} 0.0 0.0 units lattice
        displace_atoms upper move 0.002 0.0 0.0 units lattice
        min_style ${style}
        min_style hftn
        minimize ${etol} ${ftol} ${maxiter} ${maxeval}
        minimize 1e-12 ${ftol} ${maxiter} ${maxeval}
        minimize 1e-12 1e-08 ${maxiter} ${maxeval}
        minimize 1e-12 1e-08 10000 ${maxeval}
        minimize 1e-12 1e-08 10000 20000
WARNING: Resetting reneighboring criteria during minimization (../min.cpp:168)
Memory usage per processor = 4.85169 Mbytes
Step Temp PotEng Lx Ly Lz 
    2756            0   -241.99987    2.2449075    38.891165    1.1224537 
    2757            0   -241.99987    2.2449075    38.891165    1.1224537 
    2758            0   -241.99987    2.2449075    38.891165    1.1224537 
Loop time of 0.00255209 on 1 procs for 1 steps with 82 atoms

Minimization stats:
  Stopping criterion = force tolerance
  Energy initial, next-to-last, final = 
        -241.999874615     -241.999874615     -241.999874668
  Force two-norm initial, final = 0.00155529 1.87188e-09
  Force max component initial, final = 0.000777647 8.55952e-10
  Final line search alpha, max atom move = 0 0
  Iterations, force evaluations = 1 111

Pair  time (%) = 0.00188047 (73.6835)
Neigh time (%) = 0 (0)
Comm  time (%) = 0.000143829 (5.63571)
Outpt time (%) = 1.09376e-05 (0.428573)
Other time (%) = 0.000516857 (20.2523)

Nlocal:    82 ave 82 max 82 min
Histogram: 1 0 0 0 0 0 0 0 0 0
Nghost:    185 ave 185 max 185 min
Histogram: 1 0 0 0 0 0 0 0 0 0
Neighs:    718 ave 718 max 718 min
Histogram: 1 0 0 0 0 0 0 0 0 0

Total # of neighbors = 718
Ave neighs/atom = 8.7561
Neighbor list builds = 0
Dangerous builds = 0
        # write_dump all atom ${dumpfile}
        next i
jump SELF loop1
        displace_atoms upper move ${xstep1} 0.0 0.0 units lattice
        displace_atoms upper move 0.002 0.0 0.0 units lattice
        min_style ${style}
        min_style hftn
        minimize ${etol} ${ftol} ${maxiter} ${maxeval}
        minimize 1e-12 ${ftol} ${maxiter} ${maxeval}
        minimize 1e-12 1e-08 ${maxiter} ${maxeval}
        minimize 1e-12 1e-08 10000 ${maxeval}
        minimize 1e-12 1e-08 10000 20000
WARNING: Resetting reneighboring criteria during minimization (../min.cpp:168)
Memory usage per processor = 4.85169 Mbytes
Step Temp PotEng Lx Ly Lz 
    2758            0   -241.99994    2.2449075    38.891144    1.1224537 
    2759            0   -241.99994    2.2449075    38.891144    1.1224537 
Loop time of 0.00167511 on 1 procs for 0 steps with 82 atoms

Minimization stats:
  Stopping criterion = force tolerance
  Energy initial, next-to-last, final = 
        -241.999937259     -241.999937259     -241.999937101
  Force two-norm initial, final = 0.00052358 5.91254e-09
  Force max component initial, final = 0.00026179 1.80477e-09
  Final line search alpha, max atom move = 0 0
  Iterations, force evaluations = 0 83

Pair  time (%) = 0.00119896 (71.575)
Neigh time (%) = 0 (0)
Comm  time (%) = 8.87812e-05 (5.30001)
Outpt time (%) = 0 (0)
Other time (%) = 0.000387371 (23.125)

Nlocal:    82 ave 82 max 82 min
Histogram: 1 0 0 0 0 0 0 0 0 0
Nghost:    185 ave 185 max 185 min
Histogram: 1 0 0 0 0 0 0 0 0 0
Neighs:    718 ave 718 max 718 min
Histogram: 1 0 0 0 0 0 0 0 0 0

Total # of neighbors = 718
Ave neighs/atom = 8.7561
Neighbor list builds = 0
Dangerous builds = 0
        # write_dump all atom ${dumpfile}
        next i
jump SELF loop1


