LAMMPS (28 Jun 2014)
# attempt at getting generalized stacking fault (GSF) energy curve

#file prefix
variable prefix string gsf_V_inter5
variable dumpfile string ${prefix}.*.dump
variable dumpfile string gsf_V_inter5.*.dump
variable restartfile string ${prefix}.*.equil
variable restartfile string gsf_V_inter5.*.equil

#Mass (g/mol)
variable m equal 1

# lattice constant (in Angstroms) and orientation of axes (given by lattice vectors)
variable rho equal 0.9165
variable x1 equal 1
variable x2 equal 0
variable x3 equal 0
variable y1 equal 0
variable y2 equal 1
variable y3 equal 0
# length of lattice in different directions (using orientation of lattice vectors)
variable ax equal sqrt(${x1}*${x1}+${x2}*${x2}+${x3}*${x3})
variable ax equal sqrt(1*${x1}+${x2}*${x2}+${x3}*${x3})
variable ax equal sqrt(1*1+${x2}*${x2}+${x3}*${x3})
variable ax equal sqrt(1*1+0*${x2}+${x3}*${x3})
variable ax equal sqrt(1*1+0*0+${x3}*${x3})
variable ax equal sqrt(1*1+0*0+0*${x3})
variable ax equal sqrt(1*1+0*0+0*0)
variable ay equal sqrt(${y1}*${y1}+${y2}*${y2}+${y3}*${y3})
variable ay equal sqrt(0*${y1}+${y2}*${y2}+${y3}*${y3})
variable ay equal sqrt(0*0+${y2}*${y2}+${y3}*${y3})
variable ay equal sqrt(0*0+1*${y2}+${y3}*${y3})
variable ay equal sqrt(0*0+1*1+${y3}*${y3})
variable ay equal sqrt(0*0+1*1+0*${y3})
variable ay equal sqrt(0*0+1*1+0*0)
variable az equal 1

# size of box in lattice units
variable lxpos equal 1
variable lxneg equal -1*${lxpos}
variable lxneg equal -1*1
variable lypos equal 10
variable lyneg equal -1*${lypos}
variable lyneg equal -1*10
variable lzpos equal 0
variable lzneg equal -1

# Define minimization parameters and damping
variable etol equal 1.0e-12
variable ftol equal 1.0e-8
variable maxiter equal 10000
variable maxeval equal 20000
variable style string hftn

# boundary conditions
dimension	2
boundary	p s p
atom_style	atomic

# create geometry
units		lj
lattice         hex ${rho}
lattice         hex 0.9165
Lattice spacing in x,y,z = 1.12245 1.94415 1.12245
region		myregion block ${lxneg} ${lxpos} ${lyneg} ${lypos} ${lzneg} ${lzpos} units lattice
region		myregion block -1 ${lxpos} ${lyneg} ${lypos} ${lzneg} ${lzpos} units lattice
region		myregion block -1 1 ${lyneg} ${lypos} ${lzneg} ${lzpos} units lattice
region		myregion block -1 1 -10 ${lypos} ${lzneg} ${lzpos} units lattice
region		myregion block -1 1 -10 10 ${lzneg} ${lzpos} units lattice
region		myregion block -1 1 -10 10 -1 ${lzpos} units lattice
region		myregion block -1 1 -10 10 -1 0 units lattice
create_box	3 myregion
Created orthogonal box = (-1.12245 -19.4415 -1.12245) to (1.12245 19.4415 0)
  1 by 1 by 1 MPI processor grid
create_atoms	1 box
Created 82 atoms

# define masses
mass * $m
mass * 1

# my fake/morse potential
pair_style      table linear 3001
pair_coeff      * * vpotential_inter5 dummy
neighbor	0.3 bin
neigh_modify	delay 5

# define groups
region	    upper block INF INF 0.01 ${lypos} INF INF units lattice
region	    upper block INF INF 0.01 10 INF INF units lattice
group		upper region upper
40 atoms in group upper

# Setup output
thermo 1
thermo_style custom step temp pe lx ly lz
thermo_modify norm no

# Compute initial state by relaxing box
min_style ${style}
min_style hftn
minimize ${etol} ${ftol} ${maxiter} ${maxeval}
minimize 1e-12 ${ftol} ${maxiter} ${maxeval}
minimize 1e-12 1e-08 ${maxiter} ${maxeval}
minimize 1e-12 1e-08 10000 ${maxeval}
minimize 1e-12 1e-08 10000 20000
WARNING: Resetting reneighboring criteria during minimization (../min.cpp:168)
Memory usage per processor = 4.85169 Mbytes
Step Temp PotEng Lx Ly Lz 
       0            0   -241.99993    2.2449075    38.890715    1.1224537 
       1            0   -241.99994    2.2449075    38.890715    1.1224537 
       2            0   -241.99994    2.2449075    38.890715    1.1224537 
       3            0   -241.99994    2.2449075    38.890715    1.1224537 
       4            0   -241.99994    2.2449075    38.890715    1.1224537 
       5            0   -241.99994    2.2449075    38.890715    1.1224537 
Loop time of 0.00287502 on 1 procs for 4 steps with 82 atoms

Minimization stats:
  Stopping criterion = force tolerance
  Energy initial, next-to-last, final = 
        -241.999927696     -241.999927696     -241.999937101
  Force two-norm initial, final = 0.000778805 9.95685e-09
  Force max component initial, final = 0.000389403 4.80333e-09
  Final line search alpha, max atom move = 0 0
  Iterations, force evaluations = 4 103

Pair  time (%) = 0.00189398 (65.877)
Neigh time (%) = 0 (0)
Comm  time (%) = 0.000156684 (5.44985)
Outpt time (%) = 0.000177021 (6.1572)
Other time (%) = 0.000647338 (22.5159)

Nlocal:    82 ave 82 max 82 min
Histogram: 1 0 0 0 0 0 0 0 0 0
Nghost:    185 ave 185 max 185 min
Histogram: 1 0 0 0 0 0 0 0 0 0
Neighs:    718 ave 718 max 718 min
Histogram: 1 0 0 0 0 0 0 0 0 0

Total # of neighbors = 718
Ave neighs/atom = 8.7561
Neighbor list builds = 0
Dangerous builds = 0

# don't allow atoms to relax in x-direction
fix 2 all setforce 0.0 NULL 0.0

# GSF energy curve will have 100*2 steps
variable nsteps equal 500
variable sstep1 equal 1.
variable xstep1 equal ${sstep1}/(${ax}*${nsteps})
variable xstep1 equal 1/(${ax}*${nsteps})
variable xstep1 equal 1/(1*${nsteps})
variable xstep1 equal 1/(1*500)

variable i loop ${nsteps}
variable i loop 500
label loop1
        displace_atoms upper move ${xstep1} 0.0 0.0 units lattice
        displace_atoms upper move 0.002 0.0 0.0 units lattice
        min_style ${style}
        min_style hftn
        minimize ${etol} ${ftol} ${maxiter} ${maxeval}
        minimize 1e-12 ${ftol} ${maxiter} ${maxeval}
        minimize 1e-12 1e-08 ${maxiter} ${maxeval}
        minimize 1e-12 1e-08 10000 ${maxeval}
        minimize 1e-12 1e-08 10000 20000
WARNING: Resetting reneighboring criteria during minimization (../min.cpp:168)
Memory usage per processor = 4.85169 Mbytes
Step Temp PotEng Lx Ly Lz 
       5            0   -241.99987    2.2449075    38.891137    1.1224537 
       6            0   -241.99987    2.2449075    38.891137    1.1224537 
Loop time of 0.0020639 on 1 procs for 0 steps with 82 atoms

Minimization stats:
  Stopping criterion = force tolerance
  Energy initial, next-to-last, final = 
        -241.999874687     -241.999874687     -241.999874668
  Force two-norm initial, final = 0.00052157 5.6173e-09
  Force max component initial, final = 0.000260785 1.91343e-09
  Final line search alpha, max atom move = 0 0
  Iterations, force evaluations = 0 83

Pair  time (%) = 0.00148977 (72.1822)
Neigh time (%) = 0 (0)
Comm  time (%) = 0.000122205 (5.9211)
Outpt time (%) = 0 (0)
Other time (%) = 0.000451926 (21.8967)

Nlocal:    82 ave 82 max 82 min
Histogram: 1 0 0 0 0 0 0 0 0 0
Nghost:    185 ave 185 max 185 min
Histogram: 1 0 0 0 0 0 0 0 0 0
Neighs:    718 ave 718 max 718 min
Histogram: 1 0 0 0 0 0 0 0 0 0

Total # of neighbors = 718
Ave neighs/atom = 8.7561
Neighbor list builds = 0
Dangerous builds = 0
        # write_dump all atom ${dumpfile}
        next i
jump SELF loop1
        displace_atoms upper move ${xstep1} 0.0 0.0 units lattice
        displace_atoms upper move 0.002 0.0 0.0 units lattice
        min_style ${style}
        min_style hftn
        minimize ${etol} ${ftol} ${maxiter} ${maxeval}
        minimize 1e-12 ${ftol} ${maxiter} ${maxeval}
        minimize 1e-12 1e-08 ${maxiter} ${maxeval}
        minimize 1e-12 1e-08 10000 ${maxeval}
        minimize 1e-12 1e-08 10000 20000
WARNING: Resetting reneighboring criteria during minimization (../min.cpp:168)
Memory usage per processor = 4.85169 Mbytes
Step Temp PotEng Lx Ly Lz 
       6            0   -241.99969    2.2449075    38.891144    1.1224537 
       7            0   -241.99969    2.2449075    38.891144    1.1224537 
       8            0   -241.99969    2.2449075    38.891144    1.1224537 
       9            0   -241.99969    2.2449075    38.891144    1.1224537 
      10            0   -241.99969    2.2449075    38.891144    1.1224537 
      11            0   -241.99969    2.2449075    38.891144    1.1224537 
      12            0   -241.99969    2.2449075    38.891144    1.1224537 
      13            0   -241.99969    2.2449075    38.891144    1.1224537 
Loop time of 0.00338088 on 1 procs for 6 steps with 82 atoms

Minimization stats:
  Stopping criterion = energy tolerance
  Energy initial, next-to-last, final = 
        -241.999688201     -241.999688201     -241.999688201
  Force two-norm initial, final = 0.00155566 0.00155481
  Force max component initial, final = 0.000777829 0.000777406
  Final line search alpha, max atom move = 0 0
  Iterations, force evaluations = 6 131

Pair  time (%) = 0.00234877 (69.4721)
Neigh time (%) = 0 (0)
Comm  time (%) = 0.000175926 (5.20357)
Outpt time (%) = 0.000242948 (7.18593)
Other time (%) = 0.000613237 (18.1384)

Nlocal:    82 ave 82 max 82 min
Histogram: 1 0 0 0 0 0 0 0 0 0
Nghost:    185 ave 185 max 185 min
Histogram: 1 0 0 0 0 0 0 0 0 0
Neighs:    718 ave 718 max 718 min
Histogram: 1 0 0 0 0 0 0 0 0 0

Total # of neighbors = 718
Ave neighs/atom = 8.7561
Neighbor list builds = 0
Dangerous builds = 0
        # write_dump all atom ${dumpfile}
        next i
jump SELF loop1
        displace_atoms upper move ${xstep1} 0.0 0.0 units lattice
        displace_atoms upper move 0.002 0.0 0.0 units lattice
        min_style ${style}
        min_style hftn
        minimize ${etol} ${ftol} ${maxiter} ${maxeval}
        minimize 1e-12 ${ftol} ${maxiter} ${maxeval}
        minimize 1e-12 1e-08 ${maxiter} ${maxeval}
        minimize 1e-12 1e-08 10000 ${maxeval}
        minimize 1e-12 1e-08 10000 20000
WARNING: Resetting reneighboring criteria during minimization (../min.cpp:168)
Memory usage per processor = 4.85169 Mbytes
Step Temp PotEng Lx Ly Lz 
      13            0   -241.99938    2.2449075    38.891144    1.1224537 
      14            0   -241.99938    2.2449075    38.891144    1.1224537 
      15            0   -241.99938    2.2449075    38.891144    1.1224537 
Loop time of 0.00507798 on 1 procs for 1 steps with 82 atoms

Minimization stats:
  Stopping criterion = force tolerance
  Energy initial, next-to-last, final = 
        -241.999378718     -241.999378718     -241.999378886
  Force two-norm initial, final = 0.0041327 6.12684e-09
  Force max component initial, final = 0.00206635 2.28715e-09
  Final line search alpha, max atom move = 0 0
  Iterations, force evaluations = 1 183

Pair  time (%) = 0.00406722 (80.0952)
Neigh time (%) = 0 (0)
Comm  time (%) = 0.000216065 (4.25494)
Outpt time (%) = 1.04797e-06 (0.0206375)
Other time (%) = 0.000793652 (15.6293)

Nlocal:    82 ave 82 max 82 min
Histogram: 1 0 0 0 0 0 0 0 0 0
Nghost:    185 ave 185 max 185 min
Histogram: 1 0 0 0 0 0 0 0 0 0
Neighs:    718 ave 718 max 718 min
Histogram: 1 0 0 0 0 0 0 0 0 0

Total # of neighbors = 718
Ave neighs/atom = 8.7561
Neighbor list builds = 0
Dangerous builds = 0
        # write_dump all atom ${dumpfile}
        next i
jump SELF loop1
        displace_atoms upper move ${xstep1} 0.0 0.0 units lattice
        displace_atoms upper move 0.002 0.0 0.0 units lattice
        min_style ${style}
        min_style hftn
        minimize ${etol} ${ftol} ${maxiter} ${maxeval}
        minimize 1e-12 ${ftol} ${maxiter} ${maxeval}
        minimize 1e-12 1e-08 ${maxiter} ${maxeval}
        minimize 1e-12 1e-08 10000 ${maxeval}
        minimize 1e-12 1e-08 10000 20000
WARNING: Resetting reneighboring criteria during minimization (../min.cpp:168)
Memory usage per processor = 4.85169 Mbytes
Step Temp PotEng Lx Ly Lz 
      15            0   -241.99895    2.2449075      38.8912    1.1224537 
      16            0   -241.99895    2.2449075      38.8912    1.1224537 
      17            0   -241.99895    2.2449075      38.8912    1.1224537 
      18            0   -241.99895    2.2449075      38.8912    1.1224537 
      19            0   -241.99895    2.2449075      38.8912    1.1224537 
Loop time of 0.004125 on 1 procs for 3 steps with 82 atoms

Minimization stats:
  Stopping criterion = force tolerance
  Energy initial, next-to-last, final = 
        -241.998946713     -241.998944743     -241.998947109
  Force two-norm initial, final = 0.00359763 6.2117e-09
  Force max component initial, final = 0.00179882 2.16146e-09
  Final line search alpha, max atom move = 0 0
  Iterations, force evaluations = 3 159

Pair  time (%) = 0.0029361 (71.1782)
Neigh time (%) = 0 (0)
Comm  time (%) = 0.000239793 (5.81318)
Outpt time (%) = 0.000136911 (3.31905)
Other time (%) = 0.000812194 (19.6896)

Nlocal:    82 ave 82 max 82 min
Histogram: 1 0 0 0 0 0 0 0 0 0
Nghost:    185 ave 185 max 185 min
Histogram: 1 0 0 0 0 0 0 0 0 0
Neighs:    718 ave 718 max 718 min
Histogram: 1 0 0 0 0 0 0 0 0 0

Total # of neighbors = 718
Ave neighs/atom = 8.7561
Neighbor list builds = 0
Dangerous builds = 0
        # write_dump all atom ${dumpfile}
        next i
jump SELF loop1
        displace_atoms upper move ${xstep1} 0.0 0.0 units lattice
        displace_atoms upper move 0.002 0.0 0.0 units lattice
        min_style ${style}
        min_style hftn
        minimize ${etol} ${ftol} ${maxiter} ${maxeval}
        minimize 1e-12 ${ftol} ${maxiter} ${maxeval}
        minimize 1e-12 1e-08 ${maxiter} ${maxeval}
        minimize 1e-12 1e-08 10000 ${maxeval}
        minimize 1e-12 1e-08 10000 20000
WARNING: Resetting reneighboring criteria during minimization (../min.cpp:168)
Memory usage per processor = 4.85169 Mbytes
Step Temp PotEng Lx Ly Lz 
      19            0   -241.99839    2.2449075    38.891249    1.1224537 
      20            0   -241.99839    2.2449075    38.891249    1.1224537 
      21            0   -241.99839    2.2449075    38.891249    1.1224537 
      22            0   -241.99839    2.2449075    38.891249    1.1224537 
Loop time of 0.00587612 on 1 procs for 2 steps with 82 atoms

Minimization stats:
  Stopping criterion = force tolerance
  Energy initial, next-to-last, final = 
        -241.998392479     -241.998375623     -241.998393408
  Force two-norm initial, final = 0.00461448 5.97598e-10
  Force max component initial, final = 0.00230724 2.84336e-10
  Final line search alpha, max atom move = 0 0
  Iterations, force evaluations = 2 201

Pair  time (%) = 0.00368211 (62.6622)
Neigh time (%) = 0 (0)
Comm  time (%) = 0.00103672 (17.643)
Outpt time (%) = 0.000105969 (1.80339)
Other time (%) = 0.00105132 (17.8914)

Nlocal:    82 ave 82 max 82 min
Histogram: 1 0 0 0 0 0 0 0 0 0
Nghost:    185 ave 185 max 185 min
Histogram: 1 0 0 0 0 0 0 0 0 0
Neighs:    718 ave 718 max 718 min
Histogram: 1 0 0 0 0 0 0 0 0 0

Total # of neighbors = 718
Ave neighs/atom = 8.7561
Neighbor list builds = 0
Dangerous builds = 0
        # write_dump all atom ${dumpfile}
        next i
jump SELF loop1
        displace_atoms upper move ${xstep1} 0.0 0.0 units lattice
        displace_atoms upper move 0.002 0.0 0.0 units lattice
        min_style ${style}
        min_style hftn
        minimize ${etol} ${ftol} ${maxiter} ${maxeval}
        minimize 1e-12 ${ftol} ${maxiter} ${maxeval}
        minimize 1e-12 1e-08 ${maxiter} ${maxeval}
        minimize 1e-12 1e-08 10000 ${maxeval}
        minimize 1e-12 1e-08 10000 20000
WARNING: Resetting reneighboring criteria during minimization (../min.cpp:168)
Memory usage per processor = 4.85169 Mbytes
Step Temp PotEng Lx Ly Lz 
      22            0   -241.99772    2.2449075    38.891312    1.1224537 
      23            0   -241.99772    2.2449075    38.891312    1.1224537 
      24            0   -241.99772    2.2449075    38.891312    1.1224537 
      25            0   -241.99772    2.2449075    38.891312    1.1224537 
      26            0   -241.99772    2.2449075    38.891312    1.1224537 
      27            0   -241.99772    2.2449075    38.891312    1.1224537 
      28            0   -241.99772    2.2449075    38.891312    1.1224537 
      29            0   -241.99772    2.2449075    38.891312    1.1224537 
      30            0   -241.99772    2.2449075    38.891312    1.1224537 
      31            0   -241.99772    2.2449075    38.891312    1.1224537 
Loop time of 0.00304188 on 1 procs for 8 steps with 82 atoms

Minimization stats:
  Stopping criterion = energy tolerance
  Energy initial, next-to-last, final = 
        -241.997716697       -241.9977167       -241.9977167
  Force two-norm initial, final = 0.00562801 0.00519166
  Force max component initial, final = 0.00281401 0.00259482
  Final line search alpha, max atom move = 0 0
  Iterations, force evaluations = 8 129

Pair  time (%) = 0.00224747 (73.884)
Neigh time (%) = 0 (0)
Comm  time (%) = 0.000167774 (5.51547)
Outpt time (%) = 5.40087e-05 (1.7755)
Other time (%) = 0.000572636 (18.825)

Nlocal:    82 ave 82 max 82 min
Histogram: 1 0 0 0 0 0 0 0 0 0
Nghost:    185 ave 185 max 185 min
Histogram: 1 0 0 0 0 0 0 0 0 0
Neighs:    718 ave 718 max 718 min
Histogram: 1 0 0 0 0 0 0 0 0 0

Total # of neighbors = 718
Ave neighs/atom = 8.7561
Neighbor list builds = 0
Dangerous builds = 0
        # write_dump all atom ${dumpfile}
        next i
jump SELF loop1
        displace_atoms upper move ${xstep1} 0.0 0.0 units lattice
        displace_atoms upper move 0.002 0.0 0.0 units lattice
        min_style ${style}
        min_style hftn
        minimize ${etol} ${ftol} ${maxiter} ${maxeval}
        minimize 1e-12 ${ftol} ${maxiter} ${maxeval}
        minimize 1e-12 1e-08 ${maxiter} ${maxeval}
        minimize 1e-12 1e-08 10000 ${maxeval}
        minimize 1e-12 1e-08 10000 20000
WARNING: Resetting reneighboring criteria during minimization (../min.cpp:168)
Memory usage per processor = 4.85169 Mbytes
Step Temp PotEng Lx Ly Lz 
      31            0   -241.99691    2.2449075    38.891312    1.1224537 
      32            0   -241.99692    2.2449075    38.891312    1.1224537 
      33            0   -241.99692    2.2449075    38.891312    1.1224537 
Loop time of 0.00367307 on 1 procs for 1 steps with 82 atoms

Minimization stats:
  Stopping criterion = force tolerance
  Energy initial, next-to-last, final = 
        -241.996914621     -241.996914621     -241.996915538
  Force two-norm initial, final = 0.0118687 8.62934e-11
  Force max component initial, final = 0.00593392 3.37615e-11
  Final line search alpha, max atom move = 0 0
  Iterations, force evaluations = 1 148

Pair  time (%) = 0.00280281 (76.307)
Neigh time (%) = 0 (0)
Comm  time (%) = 0.000190773 (5.19382)
Outpt time (%) = 9.07993e-06 (0.247203)
Other time (%) = 0.000670407 (18.252)

Nlocal:    82 ave 82 max 82 min
Histogram: 1 0 0 0 0 0 0 0 0 0
Nghost:    185 ave 185 max 185 min
Histogram: 1 0 0 0 0 0 0 0 0 0
Neighs:    718 ave 718 max 718 min
Histogram: 1 0 0 0 0 0 0 0 0 0

Total # of neighbors = 718
Ave neighs/atom = 8.7561
Neighbor list builds = 0
Dangerous builds = 0
        # write_dump all atom ${dumpfile}
        next i
jump SELF loop1
        displace_atoms upper move ${xstep1} 0.0 0.0 units lattice
        displace_atoms upper move 0.002 0.0 0.0 units lattice
        min_style ${style}
        min_style hftn
        minimize ${etol} ${ftol} ${maxiter} ${maxeval}
        minimize 1e-12 ${ftol} ${maxiter} ${maxeval}
        minimize 1e-12 1e-08 ${maxiter} ${maxeval}
        minimize 1e-12 1e-08 10000 ${maxeval}
        minimize 1e-12 1e-08 10000 20000
WARNING: Resetting reneighboring criteria during minimization (../min.cpp:168)
Memory usage per processor = 4.85169 Mbytes
Step Temp PotEng Lx Ly Lz 
      33            0   -241.99599    2.2449075    38.891479    1.1224537 
      34            0   -241.99599    2.2449075    38.891479    1.1224537 
      35            0   -241.99599    2.2449075    38.891479    1.1224537 
Loop time of 0.00311904 on 1 procs for 1 steps with 82 atoms

Minimization stats:
  Stopping criterion = force tolerance
  Energy initial, next-to-last, final = 
        -241.995992796     -241.995992796     -241.995994477
  Force two-norm initial, final = 0.00767822 3.1142e-11
  Force max component initial, final = 0.00383911 6.68828e-12
  Final line search alpha, max atom move = 0 0
  Iterations, force evaluations = 1 152

Pair  time (%) = 0.00229941 (73.7217)
Neigh time (%) = 0 (0)
Comm  time (%) = 0.000179515 (5.75545)
Outpt time (%) = 9.08028e-06 (0.291124)
Other time (%) = 0.000631036 (20.2317)

Nlocal:    82 ave 82 max 82 min
Histogram: 1 0 0 0 0 0 0 0 0 0
Nghost:    185 ave 185 max 185 min
Histogram: 1 0 0 0 0 0 0 0 0 0
Neighs:    718 ave 718 max 718 min
Histogram: 1 0 0 0 0 0 0 0 0 0

Total # of neighbors = 718
Ave neighs/atom = 8.7561
Neighbor list builds = 0
Dangerous builds = 0
        # write_dump all atom ${dumpfile}
        next i
jump SELF loop1
        displace_atoms upper move ${xstep1} 0.0 0.0 units lattice
        displace_atoms upper move 0.002 0.0 0.0 units lattice
        min_style ${style}
        min_style hftn
        minimize ${etol} ${ftol} ${maxiter} ${maxeval}
        minimize 1e-12 ${ftol} ${maxiter} ${maxeval}
        minimize 1e-12 1e-08 ${maxiter} ${maxeval}
        minimize 1e-12 1e-08 10000 ${maxeval}
        minimize 1e-12 1e-08 10000 20000
WARNING: Resetting reneighboring criteria during minimization (../min.cpp:168)
Memory usage per processor = 4.85169 Mbytes
Step Temp PotEng Lx Ly Lz 
      35            0   -241.99495    2.2449075    38.891583    1.1224537 
      36            0   -241.99495    2.2449075    38.891583    1.1224537 
      37            0   -241.99495    2.2449075    38.891583    1.1224537 
Loop time of 0.00343294 on 1 procs for 1 steps with 82 atoms

Minimization stats:
  Stopping criterion = force tolerance
  Energy initial, next-to-last, final = 
        -241.994951039     -241.994951039        -241.994952
  Force two-norm initial, final = 0.00867939 2.30823e-10
  Force max component initial, final = 0.0043397 4.73086e-11
  Final line search alpha, max atom move = 0 0
  Iterations, force evaluations = 1 152

Pair  time (%) = 0.00252002 (73.407)
Neigh time (%) = 0 (0)
Comm  time (%) = 0.00019192 (5.59055)
Outpt time (%) = 9.95281e-06 (0.289921)
Other time (%) = 0.000711049 (20.7125)

Nlocal:    82 ave 82 max 82 min
Histogram: 1 0 0 0 0 0 0 0 0 0
Nghost:    185 ave 185 max 185 min
Histogram: 1 0 0 0 0 0 0 0 0 0
Neighs:    718 ave 718 max 718 min
Histogram: 1 0 0 0 0 0 0 0 0 0

Total # of neighbors = 718
Ave neighs/atom = 8.7561
Neighbor list builds = 0
Dangerous builds = 0
        # write_dump all atom ${dumpfile}
        next i
jump SELF loop1
        displace_atoms upper move ${xstep1} 0.0 0.0 units lattice
        displace_atoms upper move 0.002 0.0 0.0 units lattice
        min_style ${style}
        min_style hftn
        minimize ${etol} ${ftol} ${maxiter} ${maxeval}
        minimize 1e-12 ${ftol} ${maxiter} ${maxeval}
        minimize 1e-12 1e-08 ${maxiter} ${maxeval}
        minimize 1e-12 1e-08 10000 ${maxeval}
        minimize 1e-12 1e-08 10000 20000
WARNING: Resetting reneighboring criteria during minimization (../min.cpp:168)
Memory usage per processor = 4.85169 Mbytes
Step Temp PotEng Lx Ly Lz 
      37            0   -241.99379    2.2449075    38.891701    1.1224537 
      38            0   -241.99379    2.2449075    38.891701    1.1224537 
      39            0   -241.99379    2.2449075    38.891701    1.1224537 
      40            0   -241.99379    2.2449075    38.891701    1.1224537 
      41            0   -241.99379    2.2449075    38.891701    1.1224537 
      42            0   -241.99379    2.2449075    38.891701    1.1224537 
      43            0   -241.99379    2.2449075    38.891701    1.1224537 
      44            0   -241.99379    2.2449075    38.891701    1.1224537 
      45            0   -241.99379    2.2449075    38.891701    1.1224537 
Loop time of 0.00701895 on 1 procs for 7 steps with 82 atoms

Minimization stats:
  Stopping criterion = energy tolerance
  Energy initial, next-to-last, final = 
        -241.993785555     -241.993785555     -241.993785555
  Force two-norm initial, final = 0.00969472 0.00969388
  Force max component initial, final = 0.00484736 0.00484694
  Final line search alpha, max atom move = 0 0
  Iterations, force evaluations = 7 120

Pair  time (%) = 0.00207248 (29.5269)
Neigh time (%) = 0 (0)
Comm  time (%) = 0.00415521 (59.1999)
Outpt time (%) = 0.000264112 (3.76284)
Other time (%) = 0.000527146 (7.51032)

Nlocal:    82 ave 82 max 82 min
Histogram: 1 0 0 0 0 0 0 0 0 0
Nghost:    185 ave 185 max 185 min
Histogram: 1 0 0 0 0 0 0 0 0 0
Neighs:    718 ave 718 max 718 min
Histogram: 1 0 0 0 0 0 0 0 0 0

Total # of neighbors = 718
Ave neighs/atom = 8.7561
Neighbor list builds = 0
Dangerous builds = 0
        # write_dump all atom ${dumpfile}
        next i
jump SELF loop1
        displace_atoms upper move ${xstep1} 0.0 0.0 units lattice
        displace_atoms upper move 0.002 0.0 0.0 units lattice
        min_style ${style}
        min_style hftn
        minimize ${etol} ${ftol} ${maxiter} ${maxeval}
        minimize 1e-12 ${ftol} ${maxiter} ${maxeval}
        minimize 1e-12 1e-08 ${maxiter} ${maxeval}
        minimize 1e-12 1e-08 10000 ${maxeval}
        minimize 1e-12 1e-08 10000 20000
WARNING: Resetting reneighboring criteria during minimization (../min.cpp:168)
Memory usage per processor = 4.85169 Mbytes
Step Temp PotEng Lx Ly Lz 
      45            0    -241.9925    2.2449075    38.891701    1.1224537 
      46            0    -241.9925    2.2449075    38.891701    1.1224537 
      47            0    -241.9925    2.2449075    38.891701    1.1224537 
Loop time of 0.00334498 on 1 procs for 1 steps with 82 atoms

Minimization stats:
  Stopping criterion = force tolerance
  Energy initial, next-to-last, final = 
        -241.992497663     -241.992497663     -241.992499864
  Force two-norm initial, final = 0.0203125 6.72834e-10
  Force max component initial, final = 0.0101562 3.44945e-10
  Final line search alpha, max atom move = 0 0
  Iterations, force evaluations = 1 142

Pair  time (%) = 0.00240809 (71.9912)
Neigh time (%) = 0 (0)
Comm  time (%) = 0.000190731 (5.70201)
Outpt time (%) = 4.1095e-05 (1.22856)
Other time (%) = 0.000705064 (21.0783)

Nlocal:    82 ave 82 max 82 min
Histogram: 1 0 0 0 0 0 0 0 0 0
Nghost:    185 ave 185 max 185 min
Histogram: 1 0 0 0 0 0 0 0 0 0
Neighs:    718 ave 718 max 718 min
Histogram: 1 0 0 0 0 0 0 0 0 0

Total # of neighbors = 718
Ave neighs/atom = 8.7561
Neighbor list builds = 0
Dangerous builds = 0
        # write_dump all atom ${dumpfile}
        next i
jump SELF loop1
        displace_atoms upper move ${xstep1} 0.0 0.0 units lattice
        displace_atoms upper move 0.002 0.0 0.0 units lattice
        min_style ${style}
        min_style hftn
        minimize ${etol} ${ftol} ${maxiter} ${maxeval}
        minimize 1e-12 ${ftol} ${maxiter} ${maxeval}
        minimize 1e-12 1e-08 ${maxiter} ${maxeval}
        minimize 1e-12 1e-08 10000 ${maxeval}
        minimize 1e-12 1e-08 10000 20000
WARNING: Resetting reneighboring criteria during minimization (../min.cpp:168)
Memory usage per processor = 4.85169 Mbytes
Step Temp PotEng Lx Ly Lz 
      47            0    -241.9911    2.2449075    38.891977    1.1224537 
      48            0    -241.9911    2.2449075    38.891977    1.1224537 
      49            0    -241.9911    2.2449075    38.891977    1.1224537 
      50            0    -241.9911    2.2449075    38.891977    1.1224537 
      51            0    -241.9911    2.2449075    38.891977    1.1224537 
      52            0    -241.9911    2.2449075    38.891977    1.1224537 
      53            0    -241.9911    2.2449075    38.891977    1.1224537 
      54            0    -241.9911    2.2449075    38.891977    1.1224537 
      55            0    -241.9911    2.2449075    38.891977    1.1224537 
      56            0    -241.9911    2.2449075    38.891977    1.1224537 
Loop time of 0.0037831 on 1 procs for 8 steps with 82 atoms

Minimization stats:
  Stopping criterion = energy tolerance
  Energy initial, next-to-last, final = 
        -241.991095208     -241.991095208     -241.991095208
  Force two-norm initial, final = 0.0114956 0.0114954
  Force max component initial, final = 0.00574781 0.00574768
  Final line search alpha, max atom move = 0 0
  Iterations, force evaluations = 8 127

Pair  time (%) = 0.00299972 (79.2926)
Neigh time (%) = 0 (0)
Comm  time (%) = 0.000171357 (4.52954)
Outpt time (%) = 7.0725e-05 (1.8695)
Other time (%) = 0.000541298 (14.3083)

Nlocal:    82 ave 82 max 82 min
Histogram: 1 0 0 0 0 0 0 0 0 0
Nghost:    185 ave 185 max 185 min
Histogram: 1 0 0 0 0 0 0 0 0 0
Neighs:    718 ave 718 max 718 min
Histogram: 1 0 0 0 0 0 0 0 0 0

Total # of neighbors = 718
Ave neighs/atom = 8.7561
Neighbor list builds = 0
Dangerous builds = 0
        # write_dump all atom ${dumpfile}
        next i
jump SELF loop1
        displace_atoms upper move ${xstep1} 0.0 0.0 units lattice
        displace_atoms upper move 0.002 0.0 0.0 units lattice
        min_style ${style}
        min_style hftn
        minimize ${etol} ${ftol} ${maxiter} ${maxeval}
        minimize 1e-12 ${ftol} ${maxiter} ${maxeval}
        minimize 1e-12 1e-08 ${maxiter} ${maxeval}
        minimize 1e-12 1e-08 10000 ${maxeval}
        minimize 1e-12 1e-08 10000 20000
WARNING: Resetting reneighboring criteria during minimization (../min.cpp:168)
Memory usage per processor = 4.85169 Mbytes
Step Temp PotEng Lx Ly Lz 
      56            0   -241.98957    2.2449075    38.891977    1.1224537 
      57            0   -241.98957    2.2449075    38.891977    1.1224537 
      58            0   -241.98957    2.2449075    38.891977    1.1224537 
Loop time of 0.00306509 on 1 procs for 1 steps with 82 atoms

Minimization stats:
  Stopping criterion = force tolerance
  Energy initial, next-to-last, final = 
        -241.989567279     -241.989567279     -241.989571653
  Force two-norm initial, final = 0.0239313 6.38874e-09
  Force max component initial, final = 0.0119657 1.14049e-09
  Final line search alpha, max atom move = 0 0
  Iterations, force evaluations = 1 138

Pair  time (%) = 0.00220047 (71.7915)
Neigh time (%) = 0 (0)
Comm  time (%) = 0.000227689 (7.42846)
Outpt time (%) = 9.0634e-06 (0.295698)
Other time (%) = 0.000627864 (20.4844)

Nlocal:    82 ave 82 max 82 min
Histogram: 1 0 0 0 0 0 0 0 0 0
Nghost:    185 ave 185 max 185 min
Histogram: 1 0 0 0 0 0 0 0 0 0
Neighs:    718 ave 718 max 718 min
Histogram: 1 0 0 0 0 0 0 0 0 0

Total # of neighbors = 718
Ave neighs/atom = 8.7561
Neighbor list builds = 0
Dangerous builds = 0
        # write_dump all atom ${dumpfile}
        next i
jump SELF loop1
        displace_atoms upper move ${xstep1} 0.0 0.0 units lattice
        displace_atoms upper move 0.002 0.0 0.0 units lattice
        min_style ${style}
        min_style hftn
        minimize ${etol} ${ftol} ${maxiter} ${maxeval}
        minimize 1e-12 ${ftol} ${maxiter} ${maxeval}
        minimize 1e-12 1e-08 ${maxiter} ${maxeval}
        minimize 1e-12 1e-08 10000 ${maxeval}
        minimize 1e-12 1e-08 10000 20000
WARNING: Resetting reneighboring criteria during minimization (../min.cpp:168)
Memory usage per processor = 4.85169 Mbytes
Step Temp PotEng Lx Ly Lz 
      58            0   -241.98793    2.2449075    38.892303    1.1224537 
      59            0   -241.98793    2.2449075    38.892303    1.1224537 
      60            0   -241.98793    2.2449075    38.892303    1.1224537 
Loop time of 0.00416912 on 1 procs for 1 steps with 82 atoms

Minimization stats:
  Stopping criterion = force tolerance
  Energy initial, next-to-last, final = 
        -241.987930795     -241.987930795     -241.987931365
  Force two-norm initial, final = 0.0132833 1.41822e-10
  Force max component initial, final = 0.00664163 6.31722e-11
  Final line search alpha, max atom move = 0 0
  Iterations, force evaluations = 1 146

Pair  time (%) = 0.00250418 (60.0651)
Neigh time (%) = 0 (0)
Comm  time (%) = 0.000204491 (4.90491)
Outpt time (%) = 9.06142e-06 (0.217346)
Other time (%) = 0.00145138 (34.8127)

Nlocal:    82 ave 82 max 82 min
Histogram: 1 0 0 0 0 0 0 0 0 0
Nghost:    185 ave 185 max 185 min
Histogram: 1 0 0 0 0 0 0 0 0 0
Neighs:    718 ave 718 max 718 min
Histogram: 1 0 0 0 0 0 0 0 0 0

Total # of neighbors = 718
Ave neighs/atom = 8.7561
Neighbor list builds = 0
Dangerous builds = 0
        # write_dump all atom ${dumpfile}
        next i
jump SELF loop1
        displace_atoms upper move ${xstep1} 0.0 0.0 units lattice
        displace_atoms upper move 0.002 0.0 0.0 units lattice
        min_style ${style}
        min_style hftn
        minimize ${etol} ${ftol} ${maxiter} ${maxeval}
        minimize 1e-12 ${ftol} ${maxiter} ${maxeval}
        minimize 1e-12 1e-08 ${maxiter} ${maxeval}
        minimize 1e-12 1e-08 10000 ${maxeval}
        minimize 1e-12 1e-08 10000 20000
WARNING: Resetting reneighboring criteria during minimization (../min.cpp:168)
Memory usage per processor = 4.85169 Mbytes
Step Temp PotEng Lx Ly Lz 
      60            0   -241.98617    2.2449075    38.892484    1.1224537 
      61            0   -241.98617    2.2449075    38.892484    1.1224537 
      62            0   -241.98617    2.2449075    38.892484    1.1224537 
Loop time of 0.00381409 on 1 procs for 1 steps with 82 atoms

Minimization stats:
  Stopping criterion = force tolerance
  Energy initial, next-to-last, final = 
        -241.986171447     -241.986171447     -241.986172136
  Force two-norm initial, final = 0.014195 1.51329e-10
  Force max component initial, final = 0.00709751 7.30636e-11
  Final line search alpha, max atom move = 0 0
  Iterations, force evaluations = 1 146

Pair  time (%) = 0.0028618 (75.0322)
Neigh time (%) = 0 (0)
Comm  time (%) = 0.00020156 (5.28462)
Outpt time (%) = 1.0114e-05 (0.265176)
Other time (%) = 0.00074062 (19.418)

Nlocal:    82 ave 82 max 82 min
Histogram: 1 0 0 0 0 0 0 0 0 0
Nghost:    185 ave 185 max 185 min
Histogram: 1 0 0 0 0 0 0 0 0 0
Neighs:    718 ave 718 max 718 min
Histogram: 1 0 0 0 0 0 0 0 0 0

Total # of neighbors = 718
Ave neighs/atom = 8.7561
Neighbor list builds = 0
Dangerous builds = 0
        # write_dump all atom ${dumpfile}
        next i
jump SELF loop1
        displace_atoms upper move ${xstep1} 0.0 0.0 units lattice
        displace_atoms upper move 0.002 0.0 0.0 units lattice
        min_style ${style}
        min_style hftn
        minimize ${etol} ${ftol} ${maxiter} ${maxeval}
        minimize 1e-12 ${ftol} ${maxiter} ${maxeval}
        minimize 1e-12 1e-08 ${maxiter} ${maxeval}
        minimize 1e-12 1e-08 10000 ${maxeval}
        minimize 1e-12 1e-08 10000 20000
WARNING: Resetting reneighboring criteria during minimization (../min.cpp:168)
Memory usage per processor = 4.85169 Mbytes
Step Temp PotEng Lx Ly Lz 
      62            0    -241.9843    2.2449075    38.892677    1.1224537 
      63            0    -241.9843    2.2449075    38.892677    1.1224537 
      64            0    -241.9843    2.2449075    38.892677    1.1224537 
Loop time of 0.00638603 on 1 procs for 1 steps with 82 atoms

Minimization stats:
  Stopping criterion = force tolerance
  Energy initial, next-to-last, final = 
        -241.984299049     -241.984299049     -241.984299726
  Force two-norm initial, final = 0.0150481 2.96577e-10
  Force max component initial, final = 0.00752405 1.3098e-10
  Final line search alpha, max atom move = 0 0
  Iterations, force evaluations = 1 144

Pair  time (%) = 0.00556524 (87.147)
Neigh time (%) = 0 (0)
Comm  time (%) = 0.000186058 (2.91352)
Outpt time (%) = 8.91113e-06 (0.139541)
Other time (%) = 0.000625826 (9.79991)

Nlocal:    82 ave 82 max 82 min
Histogram: 1 0 0 0 0 0 0 0 0 0
Nghost:    185 ave 185 max 185 min
Histogram: 1 0 0 0 0 0 0 0 0 0
Neighs:    718 ave 718 max 718 min
Histogram: 1 0 0 0 0 0 0 0 0 0

Total # of neighbors = 718
Ave neighs/atom = 8.7561
Neighbor list builds = 0
Dangerous builds = 0
        # write_dump all atom ${dumpfile}
        next i
jump SELF loop1
        displace_atoms upper move ${xstep1} 0.0 0.0 units lattice
        displace_atoms upper move 0.002 0.0 0.0 units lattice
        min_style ${style}
        min_style hftn
        minimize ${etol} ${ftol} ${maxiter} ${maxeval}
        minimize 1e-12 ${ftol} ${maxiter} ${maxeval}
        minimize 1e-12 1e-08 ${maxiter} ${maxeval}
        minimize 1e-12 1e-08 10000 ${maxeval}
        minimize 1e-12 1e-08 10000 20000
WARNING: Resetting reneighboring criteria during minimization (../min.cpp:168)
Memory usage per processor = 4.85169 Mbytes
Step Temp PotEng Lx Ly Lz 
      64            0   -241.98231    2.2449075    38.892882    1.1224537 
      65            0   -241.98231    2.2449075    38.892882    1.1224537 
      66            0   -241.98231    2.2449075    38.892882    1.1224537 
Loop time of 0.00328697 on 1 procs for 1 steps with 82 atoms

Minimization stats:
  Stopping criterion = force tolerance
  Energy initial, next-to-last, final = 
        -241.982309853     -241.982309853     -241.982313519
  Force two-norm initial, final = 0.0159474 2.72014e-10
  Force max component initial, final = 0.00797372 1.33441e-10
  Final line search alpha, max atom move = 0 0
  Iterations, force evaluations = 1 144

Pair  time (%) = 0.00241538 (73.4832)
Neigh time (%) = 0 (0)
Comm  time (%) = 0.000197144 (5.99775)
Outpt time (%) = 8.94826e-06 (0.272234)
Other time (%) = 0.000665507 (20.2468)

Nlocal:    82 ave 82 max 82 min
Histogram: 1 0 0 0 0 0 0 0 0 0
Nghost:    185 ave 185 max 185 min
Histogram: 1 0 0 0 0 0 0 0 0 0
Neighs:    718 ave 718 max 718 min
Histogram: 1 0 0 0 0 0 0 0 0 0

Total # of neighbors = 718
Ave neighs/atom = 8.7561
Neighbor list builds = 0
Dangerous builds = 0
        # write_dump all atom ${dumpfile}
        next i
jump SELF loop1
        displace_atoms upper move ${xstep1} 0.0 0.0 units lattice
        displace_atoms upper move 0.002 0.0 0.0 units lattice
        min_style ${style}
        min_style hftn
        minimize ${etol} ${ftol} ${maxiter} ${maxeval}
        minimize 1e-12 ${ftol} ${maxiter} ${maxeval}
        minimize 1e-12 1e-08 ${maxiter} ${maxeval}
        minimize 1e-12 1e-08 10000 ${maxeval}
        minimize 1e-12 1e-08 10000 20000
WARNING: Resetting reneighboring criteria during minimization (../min.cpp:168)
Memory usage per processor = 4.85169 Mbytes
Step Temp PotEng Lx Ly Lz 
      66            0   -241.98021    2.2449075    38.893099    1.1224537 
      67            0   -241.98021    2.2449075    38.893099    1.1224537 
      68            0   -241.98021    2.2449075    38.893099    1.1224537 
      69            0   -241.98021    2.2449075    38.893099    1.1224537 
      70            0   -241.98021    2.2449075    38.893099    1.1224537 
      71            0   -241.98021    2.2449075    38.893099    1.1224537 
      72            0   -241.98021    2.2449075    38.893099    1.1224537 
      73            0   -241.98021    2.2449075    38.893099    1.1224537 
      74            0   -241.98021    2.2449075    38.893099    1.1224537 
      75            0   -241.98021    2.2449075    38.893099    1.1224537 
Loop time of 0.00344606 on 1 procs for 8 steps with 82 atoms

Minimization stats:
  Stopping criterion = energy tolerance
  Energy initial, next-to-last, final = 
        -241.980212741     -241.980212741     -241.980212741
  Force two-norm initial, final = 0.0167855 0.0167852
  Force max component initial, final = 0.00839277 0.00839259
  Final line search alpha, max atom move = 0 0
  Iterations, force evaluations = 8 123

Pair  time (%) = 0.00272835 (79.173)
Neigh time (%) = 0 (0)
Comm  time (%) = 0.000165123 (4.79166)
Outpt time (%) = 5.60735e-05 (1.62718)
Other time (%) = 0.000496514 (14.4082)

Nlocal:    82 ave 82 max 82 min
Histogram: 1 0 0 0 0 0 0 0 0 0
Nghost:    185 ave 185 max 185 min
Histogram: 1 0 0 0 0 0 0 0 0 0
Neighs:    718 ave 718 max 718 min
Histogram: 1 0 0 0 0 0 0 0 0 0

Total # of neighbors = 718
Ave neighs/atom = 8.7561
Neighbor list builds = 0
Dangerous builds = 0
        # write_dump all atom ${dumpfile}
        next i
jump SELF loop1
        displace_atoms upper move ${xstep1} 0.0 0.0 units lattice
        displace_atoms upper move 0.002 0.0 0.0 units lattice
        min_style ${style}
        min_style hftn
        minimize ${etol} ${ftol} ${maxiter} ${maxeval}
        minimize 1e-12 ${ftol} ${maxiter} ${maxeval}
        minimize 1e-12 1e-08 ${maxiter} ${maxeval}
        minimize 1e-12 1e-08 10000 ${maxeval}
        minimize 1e-12 1e-08 10000 20000
WARNING: Resetting reneighboring criteria during minimization (../min.cpp:168)
Memory usage per processor = 4.85169 Mbytes
Step Temp PotEng Lx Ly Lz 
      75            0   -241.97799    2.2449075    38.893099    1.1224537 
      76            0     -241.978    2.2449075    38.893099    1.1224537 
      77            0     -241.978    2.2449075    38.893099    1.1224537 
Loop time of 0.00442007 on 1 procs for 1 steps with 82 atoms

Minimization stats:
  Stopping criterion = force tolerance
  Energy initial, next-to-last, final = 
        -241.977991988     -241.977991988      -241.97800095
  Force two-norm initial, final = 0.0345021 5.14296e-09
  Force max component initial, final = 0.0172511 2.69188e-09
  Final line search alpha, max atom move = 0 0
  Iterations, force evaluations = 1 138

Pair  time (%) = 0.00341886 (77.3485)
Neigh time (%) = 0 (0)
Comm  time (%) = 0.000212111 (4.79881)
Outpt time (%) = 8.99157e-06 (0.203426)
Other time (%) = 0.00078011 (17.6493)

Nlocal:    82 ave 82 max 82 min
Histogram: 1 0 0 0 0 0 0 0 0 0
Nghost:    185 ave 185 max 185 min
Histogram: 1 0 0 0 0 0 0 0 0 0
Neighs:    718 ave 718 max 718 min
Histogram: 1 0 0 0 0 0 0 0 0 0

Total # of neighbors = 718
Ave neighs/atom = 8.7561
Neighbor list builds = 0
Dangerous builds = 0
        # write_dump all atom ${dumpfile}
        next i
jump SELF loop1
        displace_atoms upper move ${xstep1} 0.0 0.0 units lattice
        displace_atoms upper move 0.002 0.0 0.0 units lattice
        min_style ${style}
        min_style hftn
        minimize ${etol} ${ftol} ${maxiter} ${maxeval}
        minimize 1e-12 ${ftol} ${maxiter} ${maxeval}
        minimize 1e-12 1e-08 ${maxiter} ${maxeval}
        minimize 1e-12 1e-08 10000 ${maxeval}
        minimize 1e-12 1e-08 10000 20000
WARNING: Resetting reneighboring criteria during minimization (../min.cpp:168)
Memory usage per processor = 4.85169 Mbytes
Step Temp PotEng Lx Ly Lz 
      77            0   -241.97567    2.2449075    38.893568    1.1224537 
      78            0   -241.97568    2.2449075    38.893568    1.1224537 
      79            0   -241.97568    2.2449075    38.893568    1.1224537 
Loop time of 0.00465406 on 1 procs for 1 steps with 82 atoms

Minimization stats:
  Stopping criterion = force tolerance
  Energy initial, next-to-last, final = 
        -241.975674414     -241.975674414     -241.975675956
  Force two-norm initial, final = 0.0185251 5.50917e-10
  Force max component initial, final = 0.00926257 2.54839e-10
  Final line search alpha, max atom move = 0 0
  Iterations, force evaluations = 1 142

Pair  time (%) = 0.00353084 (75.8658)
Neigh time (%) = 0 (0)
Comm  time (%) = 0.000267492 (5.74749)
Outpt time (%) = 1.70717e-05 (0.366814)
Other time (%) = 0.000838656 (18.0199)

Nlocal:    82 ave 82 max 82 min
Histogram: 1 0 0 0 0 0 0 0 0 0
Nghost:    185 ave 185 max 185 min
Histogram: 1 0 0 0 0 0 0 0 0 0
Neighs:    718 ave 718 max 718 min
Histogram: 1 0 0 0 0 0 0 0 0 0

Total # of neighbors = 718
Ave neighs/atom = 8.7561
Neighbor list builds = 0
Dangerous builds = 0
        # write_dump all atom ${dumpfile}
        next i
jump SELF loop1
        displace_atoms upper move ${xstep1} 0.0 0.0 units lattice
        displace_atoms upper move 0.002 0.0 0.0 units lattice
        min_style ${style}
        min_style hftn
        minimize ${etol} ${ftol} ${maxiter} ${maxeval}
        minimize 1e-12 ${ftol} ${maxiter} ${maxeval}
        minimize 1e-12 1e-08 ${maxiter} ${maxeval}
        minimize 1e-12 1e-08 10000 ${maxeval}
        minimize 1e-12 1e-08 10000 20000
WARNING: Resetting reneighboring criteria during minimization (../min.cpp:168)
Memory usage per processor = 4.85169 Mbytes
Step Temp PotEng Lx Ly Lz 
      79            0   -241.97324    2.2449075    38.893821    1.1224537 
      80            0   -241.97324    2.2449075    38.893821    1.1224537 
      81            0   -241.97324    2.2449075    38.893821    1.1224537 
Loop time of 0.00328588 on 1 procs for 1 steps with 82 atoms

Minimization stats:
  Stopping criterion = force tolerance
  Energy initial, next-to-last, final = 
        -241.973241986     -241.973241986     -241.973243629
  Force two-norm initial, final = 0.0193433 6.6503e-10
  Force max component initial, final = 0.00967163 2.49501e-10
  Final line search alpha, max atom move = 0 0
  Iterations, force evaluations = 1 142

Pair  time (%) = 0.00242619 (73.8367)
Neigh time (%) = 0 (0)
Comm  time (%) = 0.000186183 (5.66616)
Outpt time (%) = 9.9407e-06 (0.302528)
Other time (%) = 0.000663571 (20.1946)

Nlocal:    82 ave 82 max 82 min
Histogram: 1 0 0 0 0 0 0 0 0 0
Nghost:    185 ave 185 max 185 min
Histogram: 1 0 0 0 0 0 0 0 0 0
Neighs:    718 ave 718 max 718 min
Histogram: 1 0 0 0 0 0 0 0 0 0

Total # of neighbors = 718
Ave neighs/atom = 8.7561
Neighbor list builds = 0
Dangerous builds = 0
        # write_dump all atom ${dumpfile}
        next i
jump SELF loop1
        displace_atoms upper move ${xstep1} 0.0 0.0 units lattice
        displace_atoms upper move 0.002 0.0 0.0 units lattice
        min_style ${style}
        min_style hftn
        minimize ${etol} ${ftol} ${maxiter} ${maxeval}
        minimize 1e-12 ${ftol} ${maxiter} ${maxeval}
        minimize 1e-12 1e-08 ${maxiter} ${maxeval}
        minimize 1e-12 1e-08 10000 ${maxeval}
        minimize 1e-12 1e-08 10000 20000
WARNING: Resetting reneighboring criteria during minimization (../min.cpp:168)
Memory usage per processor = 4.85169 Mbytes
Step Temp PotEng Lx Ly Lz 
      81            0    -241.9707    2.2449075    38.894084    1.1224537 
      82            0   -241.97071    2.2449075    38.894084    1.1224537 
      83            0   -241.97071    2.2449075    38.894084    1.1224537 
Loop time of 0.003488 on 1 procs for 1 steps with 82 atoms

Minimization stats:
  Stopping criterion = force tolerance
  Energy initial, next-to-last, final = 
        -241.970699538     -241.970699538     -241.970705145
  Force two-norm initial, final = 0.0201974 6.67121e-10
  Force max component initial, final = 0.0100987 3.3836e-10
  Final line search alpha, max atom move = 0 0
  Iterations, force evaluations = 1 142

Pair  time (%) = 0.00254448 (72.9494)
Neigh time (%) = 0 (0)
Comm  time (%) = 0.000202095 (5.79399)
Outpt time (%) = 1.20309e-05 (0.344923)
Other time (%) = 0.0007294 (20.9117)

Nlocal:    82 ave 82 max 82 min
Histogram: 1 0 0 0 0 0 0 0 0 0
Nghost:    185 ave 185 max 185 min
Histogram: 1 0 0 0 0 0 0 0 0 0
Neighs:    718 ave 718 max 718 min
Histogram: 1 0 0 0 0 0 0 0 0 0

Total # of neighbors = 718
Ave neighs/atom = 8.7561
Neighbor list builds = 0
Dangerous builds = 0
        # write_dump all atom ${dumpfile}
        next i
jump SELF loop1
        displace_atoms upper move ${xstep1} 0.0 0.0 units lattice
        displace_atoms upper move 0.002 0.0 0.0 units lattice
        min_style ${style}
        min_style hftn
        minimize ${etol} ${ftol} ${maxiter} ${maxeval}
        minimize 1e-12 ${ftol} ${maxiter} ${maxeval}
        minimize 1e-12 1e-08 ${maxiter} ${maxeval}
        minimize 1e-12 1e-08 10000 ${maxeval}
        minimize 1e-12 1e-08 10000 20000
WARNING: Resetting reneighboring criteria during minimization (../min.cpp:168)
Memory usage per processor = 4.85169 Mbytes
Step Temp PotEng Lx Ly Lz 
      83            0   -241.96805    2.2449075    38.894359    1.1224537 
      84            0   -241.96805    2.2449075    38.894359    1.1224537 
      85            0   -241.96806    2.2449075    38.894359    1.1224537 
Loop time of 0.00694495 on 1 procs for 1 steps with 82 atoms

Minimization stats:
  Stopping criterion = force tolerance
  Energy initial, next-to-last, final = 
        -241.968053903     -241.968053903     -241.968055019
  Force two-norm initial, final = 0.0210242 7.25387e-10
  Force max component initial, final = 0.0105121 3.70557e-10
  Final line search alpha, max atom move = 0 0
  Iterations, force evaluations = 1 142

Pair  time (%) = 0.00247471 (35.6332)
Neigh time (%) = 0 (0)
Comm  time (%) = 0.000196995 (2.83653)
Outpt time (%) = 1.59907e-05 (0.230249)
Other time (%) = 0.00425725 (61.3)

Nlocal:    82 ave 82 max 82 min
Histogram: 1 0 0 0 0 0 0 0 0 0
Nghost:    185 ave 185 max 185 min
Histogram: 1 0 0 0 0 0 0 0 0 0
Neighs:    718 ave 718 max 718 min
Histogram: 1 0 0 0 0 0 0 0 0 0

Total # of neighbors = 718
Ave neighs/atom = 8.7561
Neighbor list builds = 0
Dangerous builds = 0
        # write_dump all atom ${dumpfile}
        next i
jump SELF loop1
        displace_atoms upper move ${xstep1} 0.0 0.0 units lattice
        displace_atoms upper move 0.002 0.0 0.0 units lattice
        min_style ${style}
        min_style hftn
        minimize ${etol} ${ftol} ${maxiter} ${maxeval}
        minimize 1e-12 ${ftol} ${maxiter} ${maxeval}
        minimize 1e-12 1e-08 ${maxiter} ${maxeval}
        minimize 1e-12 1e-08 10000 ${maxeval}
        minimize 1e-12 1e-08 10000 20000
WARNING: Resetting reneighboring criteria during minimization (../min.cpp:168)
Memory usage per processor = 4.85169 Mbytes
Step Temp PotEng Lx Ly Lz 
      85            0    -241.9653    2.2449075    38.894646    1.1224537 
      86            0    -241.9653    2.2449075    38.894646    1.1224537 
      87            0    -241.9653    2.2449075    38.894646    1.1224537 
Loop time of 0.00394396 on 1 procs for 1 steps with 82 atoms

Minimization stats:
  Stopping criterion = force tolerance
  Energy initial, next-to-last, final = 
        -241.965300855     -241.965300855     -241.965303872
  Force two-norm initial, final = 0.0218099 8.14399e-10
  Force max component initial, final = 0.010905 3.37676e-10
  Final line search alpha, max atom move = 0 0
  Iterations, force evaluations = 1 142

Pair  time (%) = 0.00272442 (69.0782)
Neigh time (%) = 0 (0)
Comm  time (%) = 0.00022519 (5.70974)
Outpt time (%) = 1.99081e-05 (0.504773)
Other time (%) = 0.000974447 (24.7073)

Nlocal:    82 ave 82 max 82 min
Histogram: 1 0 0 0 0 0 0 0 0 0
Nghost:    185 ave 185 max 185 min
Histogram: 1 0 0 0 0 0 0 0 0 0
Neighs:    718 ave 718 max 718 min
Histogram: 1 0 0 0 0 0 0 0 0 0

Total # of neighbors = 718
Ave neighs/atom = 8.7561
Neighbor list builds = 0
Dangerous builds = 0
        # write_dump all atom ${dumpfile}
        next i
jump SELF loop1
        displace_atoms upper move ${xstep1} 0.0 0.0 units lattice
        displace_atoms upper move 0.002 0.0 0.0 units lattice
        min_style ${style}
        min_style hftn
        minimize ${etol} ${ftol} ${maxiter} ${maxeval}
        minimize 1e-12 ${ftol} ${maxiter} ${maxeval}
        minimize 1e-12 1e-08 ${maxiter} ${maxeval}
        minimize 1e-12 1e-08 10000 ${maxeval}
        minimize 1e-12 1e-08 10000 20000
WARNING: Resetting reneighboring criteria during minimization (../min.cpp:168)
Memory usage per processor = 4.85169 Mbytes
Step Temp PotEng Lx Ly Lz 
      87            0   -241.96244    2.2449075    38.894943    1.1224537 
      88            0   -241.96245    2.2449075    38.894943    1.1224537 
      89            0   -241.96245    2.2449075    38.894943    1.1224537 
Loop time of 0.00290402 on 1 procs for 1 steps with 82 atoms

Minimization stats:
  Stopping criterion = force tolerance
  Energy initial, next-to-last, final = 
        -241.962443333     -241.962443333     -241.962448004
  Force two-norm initial, final = 0.0226414 8.29531e-10
  Force max component initial, final = 0.0113207 4.16642e-10
  Final line search alpha, max atom move = 0 0
  Iterations, force evaluations = 1 142

Pair  time (%) = 0.00213537 (73.5315)
Neigh time (%) = 0 (0)
Comm  time (%) = 0.00016745 (5.76615)
Outpt time (%) = 9.418e-08 (0.00324309)
Other time (%) = 0.000601106 (20.6991)

Nlocal:    82 ave 82 max 82 min
Histogram: 1 0 0 0 0 0 0 0 0 0
Nghost:    175 ave 175 max 175 min
Histogram: 1 0 0 0 0 0 0 0 0 0
Neighs:    718 ave 718 max 718 min
Histogram: 1 0 0 0 0 0 0 0 0 0

Total # of neighbors = 718
Ave neighs/atom = 8.7561
Neighbor list builds = 0
Dangerous builds = 0
        # write_dump all atom ${dumpfile}
        next i
jump SELF loop1
        displace_atoms upper move ${xstep1} 0.0 0.0 units lattice
        displace_atoms upper move 0.002 0.0 0.0 units lattice
        min_style ${style}
        min_style hftn
        minimize ${etol} ${ftol} ${maxiter} ${maxeval}
        minimize 1e-12 ${ftol} ${maxiter} ${maxeval}
        minimize 1e-12 1e-08 ${maxiter} ${maxeval}
        minimize 1e-12 1e-08 10000 ${maxeval}
        minimize 1e-12 1e-08 10000 20000
WARNING: Resetting reneighboring criteria during minimization (../min.cpp:168)
Memory usage per processor = 4.85169 Mbytes
Step Temp PotEng Lx Ly Lz 
      89            0   -241.95948    2.2449075    38.895251    1.1224537 
      90            0   -241.95949    2.2449075    38.895251    1.1224537 
      91            0   -241.95949    2.2449075    38.895251    1.1224537 
Loop time of 0.00315991 on 1 procs for 1 steps with 82 atoms

Minimization stats:
  Stopping criterion = force tolerance
  Energy initial, next-to-last, final = 
        -241.959483464     -241.959483464     -241.959489077
  Force two-norm initial, final = 0.0234507 1.4217e-09
  Force max component initial, final = 0.0117254 7.32676e-10
  Final line search alpha, max atom move = 0 0
  Iterations, force evaluations = 1 140

Pair  time (%) = 0.00232137 (73.4632)
Neigh time (%) = 0 (0)
Comm  time (%) = 0.000191367 (6.05611)
Outpt time (%) = 1.09038e-05 (0.345067)
Other time (%) = 0.000636267 (20.1356)

Nlocal:    82 ave 82 max 82 min
Histogram: 1 0 0 0 0 0 0 0 0 0
Nghost:    175 ave 175 max 175 min
Histogram: 1 0 0 0 0 0 0 0 0 0
Neighs:    718 ave 718 max 718 min
Histogram: 1 0 0 0 0 0 0 0 0 0

Total # of neighbors = 718
Ave neighs/atom = 8.7561
Neighbor list builds = 0
Dangerous builds = 0
        # write_dump all atom ${dumpfile}
        next i
jump SELF loop1
        displace_atoms upper move ${xstep1} 0.0 0.0 units lattice
        displace_atoms upper move 0.002 0.0 0.0 units lattice
        min_style ${style}
        min_style hftn
        minimize ${etol} ${ftol} ${maxiter} ${maxeval}
        minimize 1e-12 ${ftol} ${maxiter} ${maxeval}
        minimize 1e-12 1e-08 ${maxiter} ${maxeval}
        minimize 1e-12 1e-08 10000 ${maxeval}
        minimize 1e-12 1e-08 10000 20000
WARNING: Resetting reneighboring criteria during minimization (../min.cpp:168)
Memory usage per processor = 4.85169 Mbytes
Step Temp PotEng Lx Ly Lz 
      91            0   -241.95642    2.2449075    38.895571    1.1224537 
      92            0   -241.95643    2.2449075    38.895571    1.1224537 
      93            0   -241.95643    2.2449075    38.895571    1.1224537 
Loop time of 0.00323905 on 1 procs for 1 steps with 82 atoms

Minimization stats:
  Stopping criterion = force tolerance
  Energy initial, next-to-last, final = 
        -241.956424947     -241.956424947     -241.956427435
  Force two-norm initial, final = 0.0242184 1.49715e-09
  Force max component initial, final = 0.0121092 7.62552e-10
  Final line search alpha, max atom move = 0 0
  Iterations, force evaluations = 1 140

Pair  time (%) = 0.00235874 (72.8219)
Neigh time (%) = 0 (0)
Comm  time (%) = 0.000215039 (6.63897)
Outpt time (%) = 1.09822e-05 (0.339055)
Other time (%) = 0.000654288 (20.2)

Nlocal:    82 ave 82 max 82 min
Histogram: 1 0 0 0 0 0 0 0 0 0
Nghost:    175 ave 175 max 175 min
Histogram: 1 0 0 0 0 0 0 0 0 0
Neighs:    718 ave 718 max 718 min
Histogram: 1 0 0 0 0 0 0 0 0 0

Total # of neighbors = 718
Ave neighs/atom = 8.7561
Neighbor list builds = 0
Dangerous builds = 0
        # write_dump all atom ${dumpfile}
        next i
jump SELF loop1
        displace_atoms upper move ${xstep1} 0.0 0.0 units lattice
        displace_atoms upper move 0.002 0.0 0.0 units lattice
        min_style ${style}
        min_style hftn
        minimize ${etol} ${ftol} ${maxiter} ${maxeval}
        minimize 1e-12 ${ftol} ${maxiter} ${maxeval}
        minimize 1e-12 1e-08 ${maxiter} ${maxeval}
        minimize 1e-12 1e-08 10000 ${maxeval}
        minimize 1e-12 1e-08 10000 20000
WARNING: Resetting reneighboring criteria during minimization (../min.cpp:168)
Memory usage per processor = 4.85169 Mbytes
Step Temp PotEng Lx Ly Lz 
      93            0   -241.95327    2.2449075    38.895901    1.1224537 
      94            0   -241.95327    2.2449075    38.895901    1.1224537 
      95            0   -241.95327    2.2449075    38.895901    1.1224537 
Loop time of 0.00354706 on 1 procs for 1 steps with 82 atoms

Minimization stats:
  Stopping criterion = force tolerance
  Energy initial, next-to-last, final = 
        -241.953266353     -241.953266353     -241.953267994
  Force two-norm initial, final = 0.0249617 1.84143e-09
  Force max component initial, final = 0.0124808 7.79128e-10
  Final line search alpha, max atom move = 0 0
  Iterations, force evaluations = 1 140

Pair  time (%) = 0.00268837 (75.7915)
Neigh time (%) = 0 (0)
Comm  time (%) = 0.000180331 (5.08395)
Outpt time (%) = 1.20904e-05 (0.340858)
Other time (%) = 0.000666269 (18.7837)

Nlocal:    82 ave 82 max 82 min
Histogram: 1 0 0 0 0 0 0 0 0 0
Nghost:    175 ave 175 max 175 min
Histogram: 1 0 0 0 0 0 0 0 0 0
Neighs:    718 ave 718 max 718 min
Histogram: 1 0 0 0 0 0 0 0 0 0

Total # of neighbors = 718
Ave neighs/atom = 8.7561
Neighbor list builds = 0
Dangerous builds = 0
        # write_dump all atom ${dumpfile}
        next i
jump SELF loop1
        displace_atoms upper move ${xstep1} 0.0 0.0 units lattice
        displace_atoms upper move 0.002 0.0 0.0 units lattice
        min_style ${style}
        min_style hftn
        minimize ${etol} ${ftol} ${maxiter} ${maxeval}
        minimize 1e-12 ${ftol} ${maxiter} ${maxeval}
        minimize 1e-12 1e-08 ${maxiter} ${maxeval}
        minimize 1e-12 1e-08 10000 ${maxeval}
        minimize 1e-12 1e-08 10000 20000
WARNING: Resetting reneighboring criteria during minimization (../min.cpp:168)
Memory usage per processor = 4.85169 Mbytes
Step Temp PotEng Lx Ly Lz 
      95            0   -241.95001    2.2449075    38.896242    1.1224537 
      96            0   -241.95001    2.2449075    38.896242    1.1224537 
      97            0   -241.95001    2.2449075    38.896242    1.1224537 
Loop time of 0.00380902 on 1 procs for 1 steps with 82 atoms

Minimization stats:
  Stopping criterion = force tolerance
  Energy initial, next-to-last, final = 
        -241.950006973     -241.950006973     -241.950011843
  Force two-norm initial, final = 0.0257458 1.70382e-09
  Force max component initial, final = 0.0128729 8.96252e-10
  Final line search alpha, max atom move = 0 0
  Iterations, force evaluations = 1 140

Pair  time (%) = 0.00283885 (74.5295)
Neigh time (%) = 0 (0)
Comm  time (%) = 0.000217603 (5.71284)
Outpt time (%) = 4.60908e-05 (1.21004)
Other time (%) = 0.000706483 (18.5476)

Nlocal:    82 ave 82 max 82 min
Histogram: 1 0 0 0 0 0 0 0 0 0
Nghost:    175 ave 175 max 175 min
Histogram: 1 0 0 0 0 0 0 0 0 0
Neighs:    718 ave 718 max 718 min
Histogram: 1 0 0 0 0 0 0 0 0 0

Total # of neighbors = 718
Ave neighs/atom = 8.7561
Neighbor list builds = 0
Dangerous builds = 0
        # write_dump all atom ${dumpfile}
        next i
jump SELF loop1
        displace_atoms upper move ${xstep1} 0.0 0.0 units lattice
        displace_atoms upper move 0.002 0.0 0.0 units lattice
        min_style ${style}
        min_style hftn
        minimize ${etol} ${ftol} ${maxiter} ${maxeval}
        minimize 1e-12 ${ftol} ${maxiter} ${maxeval}
        minimize 1e-12 1e-08 ${maxiter} ${maxeval}
        minimize 1e-12 1e-08 10000 ${maxeval}
        minimize 1e-12 1e-08 10000 20000
WARNING: Resetting reneighboring criteria during minimization (../min.cpp:168)
Memory usage per processor = 4.85169 Mbytes
Step Temp PotEng Lx Ly Lz 
      97            0   -241.94665    2.2449075    38.896593    1.1224537 
      98            0   -241.94666    2.2449075    38.896593    1.1224537 
      99            0   -241.94666    2.2449075    38.896593    1.1224537 
Loop time of 0.00378112 on 1 procs for 1 steps with 82 atoms

Minimization stats:
  Stopping criterion = force tolerance
  Energy initial, next-to-last, final = 
        -241.946653515     -241.946653515     -241.946658416
  Force two-norm initial, final = 0.0265056 1.83414e-09
  Force max component initial, final = 0.0132528 9.53273e-10
  Final line search alpha, max atom move = 0 0
  Iterations, force evaluations = 1 140

Pair  time (%) = 0.00266019 (70.3545)
Neigh time (%) = 0 (0)
Comm  time (%) = 0.000205288 (5.42931)
Outpt time (%) = 1.19669e-05 (0.316492)
Other time (%) = 0.000903673 (23.8997)

Nlocal:    82 ave 82 max 82 min
Histogram: 1 0 0 0 0 0 0 0 0 0
Nghost:    175 ave 175 max 175 min
Histogram: 1 0 0 0 0 0 0 0 0 0
Neighs:    718 ave 718 max 718 min
Histogram: 1 0 0 0 0 0 0 0 0 0

Total # of neighbors = 718
Ave neighs/atom = 8.7561
Neighbor list builds = 0
Dangerous builds = 0
        # write_dump all atom ${dumpfile}
        next i
jump SELF loop1
        displace_atoms upper move ${xstep1} 0.0 0.0 units lattice
        displace_atoms upper move 0.002 0.0 0.0 units lattice
        min_style ${style}
        min_style hftn
        minimize ${etol} ${ftol} ${maxiter} ${maxeval}
        minimize 1e-12 ${ftol} ${maxiter} ${maxeval}
        minimize 1e-12 1e-08 ${maxiter} ${maxeval}
        minimize 1e-12 1e-08 10000 ${maxeval}
        minimize 1e-12 1e-08 10000 20000
WARNING: Resetting reneighboring criteria during minimization (../min.cpp:168)
Memory usage per processor = 4.85169 Mbytes
Step Temp PotEng Lx Ly Lz 
      99            0    -241.9432    2.2449075    38.896954    1.1224537 
     100            0   -241.94321    2.2449075    38.896954    1.1224537 
     101            0   -241.94321    2.2449075    38.896954    1.1224537 
Loop time of 0.00307099 on 1 procs for 1 steps with 82 atoms

Minimization stats:
  Stopping criterion = force tolerance
  Energy initial, next-to-last, final = 
        -241.943203724     -241.943203724     -241.943211633
  Force two-norm initial, final = 0.0272619 1.92851e-09
  Force max component initial, final = 0.0136309 1.0046e-09
  Final line search alpha, max atom move = 0 0
  Iterations, force evaluations = 1 140

Pair  time (%) = 0.00226627 (73.7961)
Neigh time (%) = 0 (0)
Comm  time (%) = 0.000193703 (6.30752)
Outpt time (%) = -1.18394e-07 (-0.00385525)
Other time (%) = 0.000611133 (19.9002)

Nlocal:    82 ave 82 max 82 min
Histogram: 1 0 0 0 0 0 0 0 0 0
Nghost:    175 ave 175 max 175 min
Histogram: 1 0 0 0 0 0 0 0 0 0
Neighs:    718 ave 718 max 718 min
Histogram: 1 0 0 0 0 0 0 0 0 0

Total # of neighbors = 718
Ave neighs/atom = 8.7561
Neighbor list builds = 0
Dangerous builds = 0
        # write_dump all atom ${dumpfile}
        next i
jump SELF loop1
        displace_atoms upper move ${xstep1} 0.0 0.0 units lattice
        displace_atoms upper move 0.002 0.0 0.0 units lattice
        min_style ${style}
        min_style hftn
        minimize ${etol} ${ftol} ${maxiter} ${maxeval}
        minimize 1e-12 ${ftol} ${maxiter} ${maxeval}
        minimize 1e-12 1e-08 ${maxiter} ${maxeval}
        minimize 1e-12 1e-08 10000 ${maxeval}
        minimize 1e-12 1e-08 10000 20000
WARNING: Resetting reneighboring criteria during minimization (../min.cpp:168)
Memory usage per processor = 4.85169 Mbytes
Step Temp PotEng Lx Ly Lz 
     101            0   -241.93966    2.2449075    38.897325    1.1224537 
     102            0   -241.93967    2.2449075    38.897325    1.1224537 
     103            0   -241.93967    2.2449075    38.897325    1.1224537 
Loop time of 0.00493906 on 1 procs for 1 steps with 82 atoms

Minimization stats:
  Stopping criterion = force tolerance
  Energy initial, next-to-last, final = 
        -241.939662153     -241.939662153     -241.939670441
  Force two-norm initial, final = 0.0280074 2.00085e-09
  Force max component initial, final = 0.0140037 1.02e-09
  Final line search alpha, max atom move = 0 0
  Iterations, force evaluations = 1 140

Pair  time (%) = 0.00401871 (81.3658)
Neigh time (%) = 0 (0)
Comm  time (%) = 0.000206886 (4.18877)
Outpt time (%) = 2.31101e-05 (0.467904)
Other time (%) = 0.000690357 (13.9775)

Nlocal:    82 ave 82 max 82 min
Histogram: 1 0 0 0 0 0 0 0 0 0
Nghost:    175 ave 175 max 175 min
Histogram: 1 0 0 0 0 0 0 0 0 0
Neighs:    718 ave 718 max 718 min
Histogram: 1 0 0 0 0 0 0 0 0 0

Total # of neighbors = 718
Ave neighs/atom = 8.7561
Neighbor list builds = 0
Dangerous builds = 0
        # write_dump all atom ${dumpfile}
        next i
jump SELF loop1
        displace_atoms upper move ${xstep1} 0.0 0.0 units lattice
        displace_atoms upper move 0.002 0.0 0.0 units lattice
        min_style ${style}
        min_style hftn
        minimize ${etol} ${ftol} ${maxiter} ${maxeval}
        minimize 1e-12 ${ftol} ${maxiter} ${maxeval}
        minimize 1e-12 1e-08 ${maxiter} ${maxeval}
        minimize 1e-12 1e-08 10000 ${maxeval}
        minimize 1e-12 1e-08 10000 20000
WARNING: Resetting reneighboring criteria during minimization (../min.cpp:168)
Memory usage per processor = 4.85169 Mbytes
Step Temp PotEng Lx Ly Lz 
     103            0   -241.93603    2.2449075    38.897706    1.1224537 
     104            0   -241.93604    2.2449075    38.897706    1.1224537 
     105            0   -241.93604    2.2449075    38.897706    1.1224537 
Loop time of 0.00295501 on 1 procs for 1 steps with 82 atoms

Minimization stats:
  Stopping criterion = force tolerance
  Energy initial, next-to-last, final = 
        -241.936030154     -241.936030154     -241.936036081
  Force two-norm initial, final = 0.0287136 2.11232e-09
  Force max component initial, final = 0.0143568 1.0764e-09
  Final line search alpha, max atom move = 0 0
  Iterations, force evaluations = 1 140

Pair  time (%) = 0.00219999 (74.4495)
Neigh time (%) = 0 (0)
Comm  time (%) = 0.000161598 (5.46859)
Outpt time (%) = 9.94129e-06 (0.336421)
Other time (%) = 0.000583483 (19.7455)

Nlocal:    82 ave 82 max 82 min
Histogram: 1 0 0 0 0 0 0 0 0 0
Nghost:    175 ave 175 max 175 min
Histogram: 1 0 0 0 0 0 0 0 0 0
Neighs:    718 ave 718 max 718 min
Histogram: 1 0 0 0 0 0 0 0 0 0

Total # of neighbors = 718
Ave neighs/atom = 8.7561
Neighbor list builds = 0
Dangerous builds = 0
        # write_dump all atom ${dumpfile}
        next i
jump SELF loop1
        displace_atoms upper move ${xstep1} 0.0 0.0 units lattice
        displace_atoms upper move 0.002 0.0 0.0 units lattice
        min_style ${style}
        min_style hftn
        minimize ${etol} ${ftol} ${maxiter} ${maxeval}
        minimize 1e-12 ${ftol} ${maxiter} ${maxeval}
        minimize 1e-12 1e-08 ${maxiter} ${maxeval}
        minimize 1e-12 1e-08 10000 ${maxeval}
        minimize 1e-12 1e-08 10000 20000
WARNING: Resetting reneighboring criteria during minimization (../min.cpp:168)
Memory usage per processor = 4.85169 Mbytes
Step Temp PotEng Lx Ly Lz 
     105            0   -241.93231    2.2449075    38.898098    1.1224537 
     106            0   -241.93231    2.2449075    38.898098    1.1224537 
     107            0   -241.93231    2.2449075    38.898098    1.1224537 
Loop time of 0.00386106 on 1 procs for 1 steps with 82 atoms

Minimization stats:
  Stopping criterion = force tolerance
  Energy initial, next-to-last, final = 
        -241.932306754     -241.932306754     -241.932312974
  Force two-norm initial, final = 0.0294073 2.24807e-09
  Force max component initial, final = 0.0147036 1.1686e-09
  Final line search alpha, max atom move = 0 0
  Iterations, force evaluations = 1 140

Pair  time (%) = 0.00283633 (73.4599)
Neigh time (%) = 0 (0)
Comm  time (%) = 0.000300429 (7.78101)
Outpt time (%) = 1.10031e-05 (0.284977)
Other time (%) = 0.000713295 (18.4741)

Nlocal:    82 ave 82 max 82 min
Histogram: 1 0 0 0 0 0 0 0 0 0
Nghost:    175 ave 175 max 175 min
Histogram: 1 0 0 0 0 0 0 0 0 0
Neighs:    718 ave 718 max 718 min
Histogram: 1 0 0 0 0 0 0 0 0 0

Total # of neighbors = 718
Ave neighs/atom = 8.7561
Neighbor list builds = 0
Dangerous builds = 0
        # write_dump all atom ${dumpfile}
        next i
jump SELF loop1
        displace_atoms upper move ${xstep1} 0.0 0.0 units lattice
        displace_atoms upper move 0.002 0.0 0.0 units lattice
        min_style ${style}
        min_style hftn
        minimize ${etol} ${ftol} ${maxiter} ${maxeval}
        minimize 1e-12 ${ftol} ${maxiter} ${maxeval}
        minimize 1e-12 1e-08 ${maxiter} ${maxeval}
        minimize 1e-12 1e-08 10000 ${maxeval}
        minimize 1e-12 1e-08 10000 20000
WARNING: Resetting reneighboring criteria during minimization (../min.cpp:168)
Memory usage per processor = 4.85169 Mbytes
Step Temp PotEng Lx Ly Lz 
     107            0    -241.9285    2.2449075    38.898499    1.1224537 
     108            0    -241.9285    2.2449075    38.898499    1.1224537 
     109            0    -241.9285    2.2449075    38.898499    1.1224537 
Loop time of 0.00273103 on 1 procs for 1 steps with 82 atoms

Minimization stats:
  Stopping criterion = force tolerance
  Energy initial, next-to-last, final = 
        -241.928495497     -241.928495497     -241.928502439
  Force two-norm initial, final = 0.0300981 3.91248e-09
  Force max component initial, final = 0.015049 2.04509e-09
  Final line search alpha, max atom move = 0 0
  Iterations, force evaluations = 1 138

Pair  time (%) = 0.00200049 (73.2504)
Neigh time (%) = 0 (0)
Comm  time (%) = 0.000150666 (5.51682)
Outpt time (%) = 1.00823e-05 (0.369175)
Other time (%) = 0.000569791 (20.8636)

Nlocal:    82 ave 82 max 82 min
Histogram: 1 0 0 0 0 0 0 0 0 0
Nghost:    175 ave 175 max 175 min
Histogram: 1 0 0 0 0 0 0 0 0 0
Neighs:    718 ave 718 max 718 min
Histogram: 1 0 0 0 0 0 0 0 0 0

Total # of neighbors = 718
Ave neighs/atom = 8.7561
Neighbor list builds = 0
Dangerous builds = 0
        # write_dump all atom ${dumpfile}
        next i
jump SELF loop1
        displace_atoms upper move ${xstep1} 0.0 0.0 units lattice
        displace_atoms upper move 0.002 0.0 0.0 units lattice
        min_style ${style}
        min_style hftn
        minimize ${etol} ${ftol} ${maxiter} ${maxeval}
        minimize 1e-12 ${ftol} ${maxiter} ${maxeval}
        minimize 1e-12 1e-08 ${maxiter} ${maxeval}
        minimize 1e-12 1e-08 10000 ${maxeval}
        minimize 1e-12 1e-08 10000 20000
WARNING: Resetting reneighboring criteria during minimization (../min.cpp:168)
Memory usage per processor = 4.85169 Mbytes
Step Temp PotEng Lx Ly Lz 
     109            0    -241.9246    2.2449075    38.898909    1.1224537 
     110            0    -241.9246    2.2449075    38.898909    1.1224537 
     111            0    -241.9246    2.2449075    38.898909    1.1224537 
Loop time of 0.00686005 on 1 procs for 1 steps with 82 atoms

Minimization stats:
  Stopping criterion = force tolerance
  Energy initial, next-to-last, final = 
        -241.924598144     -241.924598144     -241.924604801
  Force two-norm initial, final = 0.0307796 4.10182e-09
  Force max component initial, final = 0.0153898 2.15318e-09
  Final line search alpha, max atom move = 0 0
  Iterations, force evaluations = 1 138

Pair  time (%) = 0.00263374 (38.3924)
Neigh time (%) = 0 (0)
Comm  time (%) = 0.00349141 (50.8948)
Outpt time (%) = 1.10664e-05 (0.161317)
Other time (%) = 0.000723835 (10.5515)

Nlocal:    82 ave 82 max 82 min
Histogram: 1 0 0 0 0 0 0 0 0 0
Nghost:    175 ave 175 max 175 min
Histogram: 1 0 0 0 0 0 0 0 0 0
Neighs:    718 ave 718 max 718 min
Histogram: 1 0 0 0 0 0 0 0 0 0

Total # of neighbors = 718
Ave neighs/atom = 8.7561
Neighbor list builds = 0
Dangerous builds = 0
        # write_dump all atom ${dumpfile}
        next i
jump SELF loop1
        displace_atoms upper move ${xstep1} 0.0 0.0 units lattice
        displace_atoms upper move 0.002 0.0 0.0 units lattice
        min_style ${style}
        min_style hftn
        minimize ${etol} ${ftol} ${maxiter} ${maxeval}
        minimize 1e-12 ${ftol} ${maxiter} ${maxeval}
        minimize 1e-12 1e-08 ${maxiter} ${maxeval}
        minimize 1e-12 1e-08 10000 ${maxeval}
        minimize 1e-12 1e-08 10000 20000
WARNING: Resetting reneighboring criteria during minimization (../min.cpp:168)
Memory usage per processor = 4.85169 Mbytes
Step Temp PotEng Lx Ly Lz 
     111            0   -241.92062    2.2449075    38.899328    1.1224537 
     112            0   -241.92062    2.2449075    38.899328    1.1224537 
     113            0   -241.92062    2.2449075    38.899328    1.1224537 
Loop time of 0.00445403 on 1 procs for 1 steps with 82 atoms

Minimization stats:
  Stopping criterion = force tolerance
  Energy initial, next-to-last, final = 
        -241.920616284     -241.920616284     -241.920622214
  Force two-norm initial, final = 0.0314371 4.28002e-09
  Force max component initial, final = 0.0157186 2.24509e-09
  Final line search alpha, max atom move = 0 0
  Iterations, force evaluations = 1 138

Pair  time (%) = 0.00249418 (55.9983)
Neigh time (%) = 0 (0)
Comm  time (%) = 0.000230683 (5.1792)
Outpt time (%) = 8.91485e-06 (0.200153)
Other time (%) = 0.00172025 (38.6224)

Nlocal:    82 ave 82 max 82 min
Histogram: 1 0 0 0 0 0 0 0 0 0
Nghost:    175 ave 175 max 175 min
Histogram: 1 0 0 0 0 0 0 0 0 0
Neighs:    718 ave 718 max 718 min
Histogram: 1 0 0 0 0 0 0 0 0 0

Total # of neighbors = 718
Ave neighs/atom = 8.7561
Neighbor list builds = 0
Dangerous builds = 0
        # write_dump all atom ${dumpfile}
        next i
jump SELF loop1
        displace_atoms upper move ${xstep1} 0.0 0.0 units lattice
        displace_atoms upper move 0.002 0.0 0.0 units lattice
        min_style ${style}
        min_style hftn
        minimize ${etol} ${ftol} ${maxiter} ${maxeval}
        minimize 1e-12 ${ftol} ${maxiter} ${maxeval}
        minimize 1e-12 1e-08 ${maxiter} ${maxeval}
        minimize 1e-12 1e-08 10000 ${maxeval}
        minimize 1e-12 1e-08 10000 20000
WARNING: Resetting reneighboring criteria during minimization (../min.cpp:168)
Memory usage per processor = 4.85169 Mbytes
Step Temp PotEng Lx Ly Lz 
     113            0   -241.91655    2.2449075    38.899757    1.1224537 
     114            0   -241.91656    2.2449075    38.899757    1.1224537 
     115            0   -241.91656    2.2449075    38.899757    1.1224537 
Loop time of 0.00345704 on 1 procs for 1 steps with 82 atoms

Minimization stats:
  Stopping criterion = force tolerance
  Energy initial, next-to-last, final = 
        -241.916550116     -241.916550116     -241.916557125
  Force two-norm initial, final = 0.0320954 4.40312e-09
  Force max component initial, final = 0.0160477 2.27434e-09
  Final line search alpha, max atom move = 0 0
  Iterations, force evaluations = 1 138

Pair  time (%) = 0.00254076 (73.4952)
Neigh time (%) = 0 (0)
Comm  time (%) = 0.000178477 (5.16269)
Outpt time (%) = 1.31043e-05 (0.379061)
Other time (%) = 0.0007247 (20.963)

Nlocal:    82 ave 82 max 82 min
Histogram: 1 0 0 0 0 0 0 0 0 0
Nghost:    175 ave 175 max 175 min
Histogram: 1 0 0 0 0 0 0 0 0 0
Neighs:    718 ave 718 max 718 min
Histogram: 1 0 0 0 0 0 0 0 0 0

Total # of neighbors = 718
Ave neighs/atom = 8.7561
Neighbor list builds = 0
Dangerous builds = 0
        # write_dump all atom ${dumpfile}
        next i
jump SELF loop1
        displace_atoms upper move ${xstep1} 0.0 0.0 units lattice
        displace_atoms upper move 0.002 0.0 0.0 units lattice
        min_style ${style}
        min_style hftn
        minimize ${etol} ${ftol} ${maxiter} ${maxeval}
        minimize 1e-12 ${ftol} ${maxiter} ${maxeval}
        minimize 1e-12 1e-08 ${maxiter} ${maxeval}
        minimize 1e-12 1e-08 10000 ${maxeval}
        minimize 1e-12 1e-08 10000 20000
WARNING: Resetting reneighboring criteria during minimization (../min.cpp:168)
Memory usage per processor = 4.85169 Mbytes
Step Temp PotEng Lx Ly Lz 
     115            0    -241.9124    2.2449075    38.900194    1.1224537 
     116            0   -241.91241    2.2449075    38.900194    1.1224537 
     117            0   -241.91241    2.2449075    38.900194    1.1224537 
Loop time of 0.00401309 on 1 procs for 1 steps with 82 atoms

Minimization stats:
  Stopping criterion = force tolerance
  Energy initial, next-to-last, final = 
        -241.912402548     -241.912402548      -241.91241128
  Force two-norm initial, final = 0.0327479 4.61701e-09
  Force max component initial, final = 0.0163739 2.40853e-09
  Final line search alpha, max atom move = 0 0
  Iterations, force evaluations = 1 138

Pair  time (%) = 0.0024071 (59.9812)
Neigh time (%) = 0 (0)
Comm  time (%) = 0.000209776 (5.2273)
Outpt time (%) = 2.19623e-05 (0.547267)
Other time (%) = 0.00137425 (34.2442)

Nlocal:    82 ave 82 max 82 min
Histogram: 1 0 0 0 0 0 0 0 0 0
Nghost:    175 ave 175 max 175 min
Histogram: 1 0 0 0 0 0 0 0 0 0
Neighs:    718 ave 718 max 718 min
Histogram: 1 0 0 0 0 0 0 0 0 0

Total # of neighbors = 718
Ave neighs/atom = 8.7561
Neighbor list builds = 0
Dangerous builds = 0
        # write_dump all atom ${dumpfile}
        next i
jump SELF loop1
        displace_atoms upper move ${xstep1} 0.0 0.0 units lattice
        displace_atoms upper move 0.002 0.0 0.0 units lattice
        min_style ${style}
        min_style hftn
        minimize ${etol} ${ftol} ${maxiter} ${maxeval}
        minimize 1e-12 ${ftol} ${maxiter} ${maxeval}
        minimize 1e-12 1e-08 ${maxiter} ${maxeval}
        minimize 1e-12 1e-08 10000 ${maxeval}
        minimize 1e-12 1e-08 10000 20000
WARNING: Resetting reneighboring criteria during minimization (../min.cpp:168)
Memory usage per processor = 4.85169 Mbytes
Step Temp PotEng Lx Ly Lz 
     117            0   -241.90818    2.2449075     38.90064    1.1224537 
     118            0   -241.90819    2.2449075     38.90064    1.1224537 
     119            0   -241.90819    2.2449075     38.90064    1.1224537 
Loop time of 0.00300303 on 1 procs for 1 steps with 82 atoms

Minimization stats:
  Stopping criterion = force tolerance
  Energy initial, next-to-last, final = 
        -241.908175563     -241.908175563     -241.908186341
  Force two-norm initial, final = 0.0334157 4.75898e-09
  Force max component initial, final = 0.0167078 2.42746e-09
  Final line search alpha, max atom move = 0 0
  Iterations, force evaluations = 1 138

Pair  time (%) = 0.0022079 (73.5225)
Neigh time (%) = 0 (0)
Comm  time (%) = 0.00014136 (4.70725)
Outpt time (%) = 9.8882e-06 (0.329274)
Other time (%) = 0.00064388 (21.441)

Nlocal:    82 ave 82 max 82 min
Histogram: 1 0 0 0 0 0 0 0 0 0
Nghost:    175 ave 175 max 175 min
Histogram: 1 0 0 0 0 0 0 0 0 0
Neighs:    718 ave 718 max 718 min
Histogram: 1 0 0 0 0 0 0 0 0 0

Total # of neighbors = 718
Ave neighs/atom = 8.7561
Neighbor list builds = 0
Dangerous builds = 0
        # write_dump all atom ${dumpfile}
        next i
jump SELF loop1
        displace_atoms upper move ${xstep1} 0.0 0.0 units lattice
        displace_atoms upper move 0.002 0.0 0.0 units lattice
        min_style ${style}
        min_style hftn
        minimize ${etol} ${ftol} ${maxiter} ${maxeval}
        minimize 1e-12 ${ftol} ${maxiter} ${maxeval}
        minimize 1e-12 1e-08 ${maxiter} ${maxeval}
        minimize 1e-12 1e-08 10000 ${maxeval}
        minimize 1e-12 1e-08 10000 20000
WARNING: Resetting reneighboring criteria during minimization (../min.cpp:168)
Memory usage per processor = 4.85169 Mbytes
Step Temp PotEng Lx Ly Lz 
     119            0   -241.90387    2.2449075    38.901097    1.1224537 
     120            0   -241.90388    2.2449075    38.901097    1.1224537 
     121            0   -241.90388    2.2449075    38.901097    1.1224537 
Loop time of 0.00376411 on 1 procs for 1 steps with 82 atoms

Minimization stats:
  Stopping criterion = force tolerance
  Energy initial, next-to-last, final = 
        -241.903872563     -241.903872563     -241.903883592
  Force two-norm initial, final = 0.0363104 6.04881e-09
  Force max component initial, final = 0.0181552 3.14365e-09
  Final line search alpha, max atom move = 0 0
  Iterations, force evaluations = 1 138

[...]

Total # of neighbors = 718
Ave neighs/atom = 8.7561
Neighbor list builds = 0
Dangerous builds = 0
        # write_dump all atom ${dumpfile}
        next i
jump SELF loop1
        displace_atoms upper move ${xstep1} 0.0 0.0 units lattice
        displace_atoms upper move 0.002 0.0 0.0 units lattice
        min_style ${style}
        min_style hftn
        minimize ${etol} ${ftol} ${maxiter} ${maxeval}
        minimize 1e-12 ${ftol} ${maxiter} ${maxeval}
        minimize 1e-12 1e-08 ${maxiter} ${maxeval}
        minimize 1e-12 1e-08 10000 ${maxeval}
        minimize 1e-12 1e-08 10000 20000
WARNING: Resetting reneighboring criteria during minimization (../min.cpp:168)
Memory usage per processor = 4.85169 Mbytes
Step Temp PotEng Lx Ly Lz 
    2720            0   -241.99693    2.2449075    38.892447    1.1224537 
    2721            0   -241.99693    2.2449075    38.892447    1.1224537 
    2722            0   -241.99693    2.2449075    38.892447    1.1224537 
    2723            0   -241.99693    2.2449075    38.892447    1.1224537 
    2724            0   -241.99693    2.2449075    38.892447    1.1224537 
    2725            0   -241.99693    2.2449075    38.892447    1.1224537 
    2726            0   -241.99693    2.2449075    38.892447    1.1224537 
    2727            0   -241.99693    2.2449075    38.892447    1.1224537 
    2728            0   -241.99693    2.2449075    38.892447    1.1224537 
    2729            0   -241.99693    2.2449075    38.892447    1.1224537 
Loop time of 0.00340197 on 1 procs for 8 steps with 82 atoms

Minimization stats:
  Stopping criterion = energy tolerance
  Energy initial, next-to-last, final = 
        -241.996933786     -241.996933786     -241.996933866
  Force two-norm initial, final = 0.0076597 0.00486203
  Force max component initial, final = 0.00381132 0.00236577
  Final line search alpha, max atom move = 0 0
  Iterations, force evaluations = 8 155

Pair  time (%) = 0.00252001 (74.0749)
Neigh time (%) = 0 (0)
Comm  time (%) = 0.000180416 (5.30329)
Outpt time (%) = 4.58803e-05 (1.34864)
Other time (%) = 0.000655667 (19.2732)

Nlocal:    82 ave 82 max 82 min
Histogram: 1 0 0 0 0 0 0 0 0 0
Nghost:    185 ave 185 max 185 min
Histogram: 1 0 0 0 0 0 0 0 0 0
Neighs:    718 ave 718 max 718 min
Histogram: 1 0 0 0 0 0 0 0 0 0

Total # of neighbors = 718
Ave neighs/atom = 8.7561
Neighbor list builds = 0
Dangerous builds = 0
        # write_dump all atom ${dumpfile}
        next i
jump SELF loop1
        displace_atoms upper move ${xstep1} 0.0 0.0 units lattice
        displace_atoms upper move 0.002 0.0 0.0 units lattice
        min_style ${style}
        min_style hftn
        minimize ${etol} ${ftol} ${maxiter} ${maxeval}
        minimize 1e-12 ${ftol} ${maxiter} ${maxeval}
        minimize 1e-12 1e-08 ${maxiter} ${maxeval}
        minimize 1e-12 1e-08 10000 ${maxeval}
        minimize 1e-12 1e-08 10000 20000
WARNING: Resetting reneighboring criteria during minimization (../min.cpp:168)
Memory usage per processor = 4.85169 Mbytes
Step Temp PotEng Lx Ly Lz 
    2729            0   -241.99773    2.2449075    38.892447    1.1224537 
    2730            0   -241.99773    2.2449075    38.892447    1.1224537 
    2731            0   -241.99773    2.2449075    38.892447    1.1224537 
    2732            0   -241.99773    2.2449075    38.892447    1.1224537 
    2733            0   -241.99774    2.2449075    38.892447    1.1224537 
    2734            0   -241.99774    2.2449075    38.892447    1.1224537 
    2735            0   -241.99774    2.2449075    38.892447    1.1224537 
    2736            0   -241.99774    2.2449075    38.892447    1.1224537 
    2737            0   -241.99774    2.2449075    38.892447    1.1224537 
    2738            0   -241.99774    2.2449075    38.892447    1.1224537 
    2739            0   -241.99774    2.2449075    38.892447    1.1224537 
    2740            0   -241.99774    2.2449075    38.892447    1.1224537 
    2741            0   -241.99774    2.2449075    38.892447    1.1224537 
    2742            0   -241.99774    2.2449075    38.892447    1.1224537 
Loop time of 0.00591288 on 1 procs for 12 steps with 82 atoms

Minimization stats:
  Stopping criterion = energy tolerance
  Energy initial, next-to-last, final = 
        -241.997732381     -241.997735523      -241.99773556
  Force two-norm initial, final = 0.0114269 0.000975046
  Force max component initial, final = 0.00568709 0.000219562
  Final line search alpha, max atom move = 0 0
  Iterations, force evaluations = 12 213

Pair  time (%) = 0.00389211 (65.8243)
Neigh time (%) = 0 (0)
Comm  time (%) = 0.000313492 (5.30185)
Outpt time (%) = 9.72097e-05 (1.64403)
Other time (%) = 0.00161007 (27.2298)

Nlocal:    82 ave 82 max 82 min
Histogram: 1 0 0 0 0 0 0 0 0 0
Nghost:    185 ave 185 max 185 min
Histogram: 1 0 0 0 0 0 0 0 0 0
Neighs:    718 ave 718 max 718 min
Histogram: 1 0 0 0 0 0 0 0 0 0

Total # of neighbors = 718
Ave neighs/atom = 8.7561
Neighbor list builds = 0
Dangerous builds = 0
        # write_dump all atom ${dumpfile}
        next i
jump SELF loop1
        displace_atoms upper move ${xstep1} 0.0 0.0 units lattice
        displace_atoms upper move 0.002 0.0 0.0 units lattice
        min_style ${style}
        min_style hftn
        minimize ${etol} ${ftol} ${maxiter} ${maxeval}
        minimize 1e-12 ${ftol} ${maxiter} ${maxeval}
        minimize 1e-12 1e-08 ${maxiter} ${maxeval}
        minimize 1e-12 1e-08 10000 ${maxeval}
        minimize 1e-12 1e-08 10000 20000
WARNING: Resetting reneighboring criteria during minimization (../min.cpp:168)
Memory usage per processor = 4.85169 Mbytes
Step Temp PotEng Lx Ly Lz 
    2742            0   -241.99841    2.2449075     38.89229    1.1224537 
    2743            0   -241.99841    2.2449075     38.89229    1.1224537 
    2744            0   -241.99841    2.2449075     38.89229    1.1224537 
    2745            0   -241.99841    2.2449075     38.89229    1.1224537 
    2746            0   -241.99841    2.2449075     38.89229    1.1224537 
    2747            0   -241.99841    2.2449075     38.89229    1.1224537 
    2748            0   -241.99841    2.2449075     38.89229    1.1224537 
    2749            0   -241.99841    2.2449075     38.89229    1.1224537 
    2750            0   -241.99841    2.2449075     38.89229    1.1224537 
    2751            0   -241.99841    2.2449075     38.89229    1.1224537 
    2752            0   -241.99841    2.2449075     38.89229    1.1224537 
    2753            0   -241.99841    2.2449075     38.89229    1.1224537 
Loop time of 0.00398399 on 1 procs for 10 steps with 82 atoms

Minimization stats:
  Stopping criterion = energy tolerance
  Energy initial, next-to-last, final = 
        -241.998414189     -241.998414189     -241.998414351
  Force two-norm initial, final = 0.00570856 0.00514791
  Force max component initial, final = 0.0028141 0.00253255
  Final line search alpha, max atom move = 0 0
  Iterations, force evaluations = 10 171

Pair  time (%) = 0.00308284 (77.3805)
Neigh time (%) = 0 (0)
Comm  time (%) = 0.000199376 (5.00443)
Outpt time (%) = 5.0879e-05 (1.27708)
Other time (%) = 0.000650903 (16.338)

Nlocal:    82 ave 82 max 82 min
Histogram: 1 0 0 0 0 0 0 0 0 0
Nghost:    185 ave 185 max 185 min
Histogram: 1 0 0 0 0 0 0 0 0 0
Neighs:    718 ave 718 max 718 min
Histogram: 1 0 0 0 0 0 0 0 0 0

Total # of neighbors = 718
Ave neighs/atom = 8.7561
Neighbor list builds = 0
Dangerous builds = 0
        # write_dump all atom ${dumpfile}
        next i
jump SELF loop1
        displace_atoms upper move ${xstep1} 0.0 0.0 units lattice
        displace_atoms upper move 0.002 0.0 0.0 units lattice
        min_style ${style}
        min_style hftn
        minimize ${etol} ${ftol} ${maxiter} ${maxeval}
        minimize 1e-12 ${ftol} ${maxiter} ${maxeval}
        minimize 1e-12 1e-08 ${maxiter} ${maxeval}
        minimize 1e-12 1e-08 10000 ${maxeval}
        minimize 1e-12 1e-08 10000 20000
WARNING: Resetting reneighboring criteria during minimization (../min.cpp:168)
Memory usage per processor = 4.85169 Mbytes
Step Temp PotEng Lx Ly Lz 
    2753            0   -241.99897    2.2449075    38.892289    1.1224537 
    2754            0   -241.99897    2.2449075    38.892289    1.1224537 
    2755            0   -241.99897    2.2449075    38.892289    1.1224537 
    2756            0   -241.99897    2.2449075    38.892289    1.1224537 
    2757            0   -241.99897    2.2449075    38.892289    1.1224537 
    2758            0   -241.99897    2.2449075    38.892289    1.1224537 
    2759            0   -241.99897    2.2449075    38.892289    1.1224537 
    2760            0   -241.99897    2.2449075    38.892289    1.1224537 
    2761            0   -241.99897    2.2449075    38.892289    1.1224537 
    2762            0   -241.99897    2.2449075    38.892289    1.1224537 
    2763            0   -241.99897    2.2449075    38.892289    1.1224537 
Loop time of 0.00493601 on 1 procs for 9 steps with 82 atoms

Minimization stats:
  Stopping criterion = energy tolerance
  Energy initial, next-to-last, final = 
        -241.998967841     -241.998967841     -241.998967841
  Force two-norm initial, final = 0.00971089 0.0097107
  Force max component initial, final = 0.00483444 0.00483435
  Final line search alpha, max atom move = 0 0
  Iterations, force evaluations = 9 158

Pair  time (%) = 0.00377191 (76.4162)
Neigh time (%) = 0 (0)
Comm  time (%) = 0.000297518 (6.02751)
Outpt time (%) = 0.000120372 (2.43865)
Other time (%) = 0.000746208 (15.1177)

Nlocal:    82 ave 82 max 82 min
Histogram: 1 0 0 0 0 0 0 0 0 0
Nghost:    185 ave 185 max 185 min
Histogram: 1 0 0 0 0 0 0 0 0 0
Neighs:    718 ave 718 max 718 min
Histogram: 1 0 0 0 0 0 0 0 0 0

Total # of neighbors = 718
Ave neighs/atom = 8.7561
Neighbor list builds = 0
Dangerous builds = 0
        # write_dump all atom ${dumpfile}
        next i
jump SELF loop1
        displace_atoms upper move ${xstep1} 0.0 0.0 units lattice
        displace_atoms upper move 0.002 0.0 0.0 units lattice
        min_style ${style}
        min_style hftn
        minimize ${etol} ${ftol} ${maxiter} ${maxeval}
        minimize 1e-12 ${ftol} ${maxiter} ${maxeval}
        minimize 1e-12 1e-08 ${maxiter} ${maxeval}
        minimize 1e-12 1e-08 10000 ${maxeval}
        minimize 1e-12 1e-08 10000 20000
WARNING: Resetting reneighboring criteria during minimization (../min.cpp:168)
Memory usage per processor = 4.85169 Mbytes
Step Temp PotEng Lx Ly Lz 
    2763            0    -241.9994    2.2449075    38.892289    1.1224537 
    2764            0    -241.9994    2.2449075    38.892289    1.1224537 
    2765            0    -241.9994    2.2449075    38.892289    1.1224537 
    2766            0    -241.9994    2.2449075    38.892289    1.1224537 
    2767            0    -241.9994    2.2449075    38.892289    1.1224537 
    2768            0    -241.9994    2.2449075    38.892289    1.1224537 
    2769            0    -241.9994    2.2449075    38.892289    1.1224537 
    2770            0    -241.9994    2.2449075    38.892289    1.1224537 
    2771            0    -241.9994    2.2449075    38.892289    1.1224537 
    2772            0    -241.9994    2.2449075    38.892289    1.1224537 
    2773            0    -241.9994    2.2449075    38.892289    1.1224537 
Loop time of 0.0040061 on 1 procs for 9 steps with 82 atoms

Minimization stats:
  Stopping criterion = energy tolerance
  Energy initial, next-to-last, final = 
        -241.999397916     -241.999397916     -241.999397916
  Force two-norm initial, final = 0.0132745 0.0132735
  Force max component initial, final = 0.00662236 0.00662187
  Final line search alpha, max atom move = 0 0
  Iterations, force evaluations = 9 150

Pair  time (%) = 0.0028465 (71.0542)
Neigh time (%) = 0 (0)
Comm  time (%) = 0.000324068 (8.08936)
Outpt time (%) = 8.6031e-05 (2.1475)
Other time (%) = 0.0007495 (18.709)

Nlocal:    82 ave 82 max 82 min
Histogram: 1 0 0 0 0 0 0 0 0 0
Nghost:    185 ave 185 max 185 min
Histogram: 1 0 0 0 0 0 0 0 0 0
Neighs:    718 ave 718 max 718 min
Histogram: 1 0 0 0 0 0 0 0 0 0

Total # of neighbors = 718
Ave neighs/atom = 8.7561
Neighbor list builds = 0
Dangerous builds = 0
        # write_dump all atom ${dumpfile}
        next i
jump SELF loop1
        displace_atoms upper move ${xstep1} 0.0 0.0 units lattice
        displace_atoms upper move 0.002 0.0 0.0 units lattice
        min_style ${style}
        min_style hftn
        minimize ${etol} ${ftol} ${maxiter} ${maxeval}
        minimize 1e-12 ${ftol} ${maxiter} ${maxeval}
        minimize 1e-12 1e-08 ${maxiter} ${maxeval}
        minimize 1e-12 1e-08 10000 ${maxeval}
        minimize 1e-12 1e-08 10000 20000
WARNING: Resetting reneighboring criteria during minimization (../min.cpp:168)
Memory usage per processor = 4.85169 Mbytes
Step Temp PotEng Lx Ly Lz 
    2773            0    -241.9997    2.2449075    38.892289    1.1224537 
    2774            0    -241.9997    2.2449075    38.892289    1.1224537 
    2775            0   -241.99971    2.2449075    38.892289    1.1224537 
    2776            0   -241.99971    2.2449075    38.892289    1.1224537 
    2777            0   -241.99971    2.2449075    38.892289    1.1224537 
    2778            0   -241.99971    2.2449075    38.892289    1.1224537 
    2779            0   -241.99971    2.2449075    38.892289    1.1224537 
    2780            0   -241.99971    2.2449075    38.892289    1.1224537 
    2781            0   -241.99971    2.2449075    38.892289    1.1224537 
    2782            0   -241.99971    2.2449075    38.892289    1.1224537 
    2783            0   -241.99971    2.2449075    38.892289    1.1224537 
    2784            0   -241.99971    2.2449075    38.892289    1.1224537 
    2785            0   -241.99971    2.2449075    38.892289    1.1224537 
    2786            0   -241.99971    2.2449075    38.892289    1.1224537 
    2787            0   -241.99971    2.2449075    38.892289    1.1224537 
Loop time of 0.00941692 on 1 procs for 13 steps with 82 atoms

Minimization stats:
  Stopping criterion = energy tolerance
  Energy initial, next-to-last, final = 
        -241.999704876     -241.999708253     -241.999708255
  Force two-norm initial, final = 0.0158191 0.000858903
  Force max component initial, final = 0.00789736 0.000187541
  Final line search alpha, max atom move = 0 0
  Iterations, force evaluations = 13 204

Pair  time (%) = 0.00787696 (83.6469)
Neigh time (%) = 0 (0)
Comm  time (%) = 0.000284475 (3.02089)
Outpt time (%) = 0.000384842 (4.08671)
Other time (%) = 0.000870645 (9.24554)

Nlocal:    82 ave 82 max 82 min
Histogram: 1 0 0 0 0 0 0 0 0 0
Nghost:    185 ave 185 max 185 min
Histogram: 1 0 0 0 0 0 0 0 0 0
Neighs:    718 ave 718 max 718 min
Histogram: 1 0 0 0 0 0 0 0 0 0

Total # of neighbors = 718
Ave neighs/atom = 8.7561
Neighbor list builds = 0
Dangerous builds = 0
        # write_dump all atom ${dumpfile}
        next i
jump SELF loop1
        displace_atoms upper move ${xstep1} 0.0 0.0 units lattice
        displace_atoms upper move 0.002 0.0 0.0 units lattice
        min_style ${style}
        min_style hftn
        minimize ${etol} ${ftol} ${maxiter} ${maxeval}
        minimize 1e-12 ${ftol} ${maxiter} ${maxeval}
        minimize 1e-12 1e-08 ${maxiter} ${maxeval}
        minimize 1e-12 1e-08 10000 ${maxeval}
        minimize 1e-12 1e-08 10000 20000
WARNING: Resetting reneighboring criteria during minimization (../min.cpp:168)
Memory usage per processor = 4.85169 Mbytes
Step Temp PotEng Lx Ly Lz 
    2787            0   -241.99989    2.2449075    38.892105    1.1224537 
    2788            0   -241.99989    2.2449075    38.892105    1.1224537 
    2789            0   -241.99989    2.2449075    38.892105    1.1224537 
    2790            0   -241.99989    2.2449075    38.892105    1.1224537 
    2791            0   -241.99989    2.2449075    38.892105    1.1224537 
    2792            0   -241.99989    2.2449075    38.892105    1.1224537 
    2793            0   -241.99989    2.2449075    38.892105    1.1224537 
    2794            0   -241.99989    2.2449075    38.892105    1.1224537 
    2795            0   -241.99989    2.2449075    38.892105    1.1224537 
    2796            0   -241.99989    2.2449075    38.892105    1.1224537 
Loop time of 0.00234092 on 1 procs for 8 steps with 82 atoms

Minimization stats:
  Stopping criterion = energy tolerance
  Energy initial, next-to-last, final = 
        -241.999894607     -241.999894607     -241.999894689
  Force two-norm initial, final = 0.00174068 0.00138456
  Force max component initial, final = 0.000759261 0.000552063
  Final line search alpha, max atom move = 0 0
  Iterations, force evaluations = 8 95

Pair  time (%) = 0.00177958 (76.0207)
Neigh time (%) = 0 (0)
Comm  time (%) = 0.000127733 (5.45656)
Outpt time (%) = 5.4777e-05 (2.33998)
Other time (%) = 0.000378825 (16.1828)

Nlocal:    82 ave 82 max 82 min
Histogram: 1 0 0 0 0 0 0 0 0 0
Nghost:    185 ave 185 max 185 min
Histogram: 1 0 0 0 0 0 0 0 0 0
Neighs:    718 ave 718 max 718 min
Histogram: 1 0 0 0 0 0 0 0 0 0

Total # of neighbors = 718
Ave neighs/atom = 8.7561
Neighbor list builds = 0
Dangerous builds = 0
        # write_dump all atom ${dumpfile}
        next i
jump SELF loop1
        displace_atoms upper move ${xstep1} 0.0 0.0 units lattice
        displace_atoms upper move 0.002 0.0 0.0 units lattice
        min_style ${style}
        min_style hftn
        minimize ${etol} ${ftol} ${maxiter} ${maxeval}
        minimize 1e-12 ${ftol} ${maxiter} ${maxeval}
        minimize 1e-12 1e-08 ${maxiter} ${maxeval}
        minimize 1e-12 1e-08 10000 ${maxeval}
        minimize 1e-12 1e-08 10000 20000
WARNING: Resetting reneighboring criteria during minimization (../min.cpp:168)
Memory usage per processor = 4.85169 Mbytes
Step Temp PotEng Lx Ly Lz 
    2796            0   -241.99996    2.2449075    38.892104    1.1224537 
    2797            0   -241.99996    2.2449075    38.892104    1.1224537 
    2798            0   -241.99996    2.2449075    38.892104    1.1224537 
    2799            0   -241.99996    2.2449075    38.892104    1.1224537 
    2800            0   -241.99996    2.2449075    38.892104    1.1224537 
    2801            0   -241.99996    2.2449075    38.892104    1.1224537 
    2802            0   -241.99996    2.2449075    38.892104    1.1224537 
    2803            0   -241.99996    2.2449075    38.892104    1.1224537 
    2804            0   -241.99996    2.2449075    38.892104    1.1224537 
    2805            0   -241.99996    2.2449075    38.892104    1.1224537 
    2806            0   -241.99996    2.2449075    38.892104    1.1224537 
    2807            0   -241.99996    2.2449075    38.892104    1.1224537 
    2808            0   -241.99996    2.2449075    38.892104    1.1224537 
    2809            0   -241.99996    2.2449075    38.892104    1.1224537 
    2810            0   -241.99996    2.2449075    38.892104    1.1224537 
    2811            0   -241.99996    2.2449075    38.892104    1.1224537 
Loop time of 0.00315202 on 1 procs for 14 steps with 82 atoms

Minimization stats:
  Stopping criterion = energy tolerance
  Energy initial, next-to-last, final = 
        -241.999957519     -241.999958145     -241.999958161
  Force two-norm initial, final = 0.0018309 0.00068531
  Force max component initial, final = 0.00081524 0.000108798
  Final line search alpha, max atom move = 0 0
  Iterations, force evaluations = 14 139

Pair  time (%) = 0.00235719 (74.7833)
Neigh time (%) = 0 (0)
Comm  time (%) = 0.000183796 (5.83106)
Outpt time (%) = 9.07931e-05 (2.88047)
Other time (%) = 0.000520246 (16.5051)

Nlocal:    82 ave 82 max 82 min
Histogram: 1 0 0 0 0 0 0 0 0 0
Nghost:    185 ave 185 max 185 min
Histogram: 1 0 0 0 0 0 0 0 0 0
Neighs:    718 ave 718 max 718 min
Histogram: 1 0 0 0 0 0 0 0 0 0

Total # of neighbors = 718
Ave neighs/atom = 8.7561
Neighbor list builds = 0
Dangerous builds = 0
        # write_dump all atom ${dumpfile}
        next i
jump SELF loop1


