LAMMPS (28 Jun 2014)
# attempt at getting generalized stacking fault (GSF) energy curve

#file prefix
variable prefix string gsf_V_inter3
variable dumpfile string ${prefix}.*.dump
variable dumpfile string gsf_V_inter3.*.dump
variable restartfile string ${prefix}.*.equil
variable restartfile string gsf_V_inter3.*.equil

#Mass (g/mol)
variable m equal 1

# lattice constant (in Angstroms) and orientation of axes (given by lattice vectors)
variable rho equal 0.9165
variable x1 equal 1
variable x2 equal 0
variable x3 equal 0
variable y1 equal 0
variable y2 equal 1
variable y3 equal 0
# length of lattice in different directions (using orientation of lattice vectors)
variable ax equal sqrt(${x1}*${x1}+${x2}*${x2}+${x3}*${x3})
variable ax equal sqrt(1*${x1}+${x2}*${x2}+${x3}*${x3})
variable ax equal sqrt(1*1+${x2}*${x2}+${x3}*${x3})
variable ax equal sqrt(1*1+0*${x2}+${x3}*${x3})
variable ax equal sqrt(1*1+0*0+${x3}*${x3})
variable ax equal sqrt(1*1+0*0+0*${x3})
variable ax equal sqrt(1*1+0*0+0*0)
variable ay equal sqrt(${y1}*${y1}+${y2}*${y2}+${y3}*${y3})
variable ay equal sqrt(0*${y1}+${y2}*${y2}+${y3}*${y3})
variable ay equal sqrt(0*0+${y2}*${y2}+${y3}*${y3})
variable ay equal sqrt(0*0+1*${y2}+${y3}*${y3})
variable ay equal sqrt(0*0+1*1+${y3}*${y3})
variable ay equal sqrt(0*0+1*1+0*${y3})
variable ay equal sqrt(0*0+1*1+0*0)
variable az equal 1

# size of box in lattice units
variable lxpos equal 1
variable lxneg equal -1*${lxpos}
variable lxneg equal -1*1
variable lypos equal 10
variable lyneg equal -1*${lypos}
variable lyneg equal -1*10
variable lzpos equal 0
variable lzneg equal -1

# Define minimization parameters and damping
variable etol equal 1.0e-12
variable ftol equal 1.0e-8
variable maxiter equal 10000
variable maxeval equal 20000
variable style string hftn

# boundary conditions
dimension	2
boundary	p s p
atom_style	atomic

# create geometry
units		lj
lattice         hex ${rho}
lattice         hex 0.9165
Lattice spacing in x,y,z = 1.12245 1.94415 1.12245
region		myregion block ${lxneg} ${lxpos} ${lyneg} ${lypos} ${lzneg} ${lzpos} units lattice
region		myregion block -1 ${lxpos} ${lyneg} ${lypos} ${lzneg} ${lzpos} units lattice
region		myregion block -1 1 ${lyneg} ${lypos} ${lzneg} ${lzpos} units lattice
region		myregion block -1 1 -10 ${lypos} ${lzneg} ${lzpos} units lattice
region		myregion block -1 1 -10 10 ${lzneg} ${lzpos} units lattice
region		myregion block -1 1 -10 10 -1 ${lzpos} units lattice
region		myregion block -1 1 -10 10 -1 0 units lattice
create_box	3 myregion
Created orthogonal box = (-1.12245 -19.4415 -1.12245) to (1.12245 19.4415 0)
  1 by 1 by 1 MPI processor grid
create_atoms	1 box
Created 82 atoms

# define masses
mass * $m
mass * 1

# my fake/morse potential
pair_style      table linear 3001
pair_coeff      * * vpotential_inter3 dummy
neighbor	0.3 bin
neigh_modify	delay 5

# define groups
region	    upper block INF INF 0.01 ${lypos} INF INF units lattice
region	    upper block INF INF 0.01 10 INF INF units lattice
group		upper region upper
40 atoms in group upper

# Setup output
thermo 1
thermo_style custom step temp pe lx ly lz
thermo_modify norm no

# Compute initial state by relaxing box
min_style ${style}
min_style hftn
minimize ${etol} ${ftol} ${maxiter} ${maxeval}
minimize 1e-12 ${ftol} ${maxiter} ${maxeval}
minimize 1e-12 1e-08 ${maxiter} ${maxeval}
minimize 1e-12 1e-08 10000 ${maxeval}
minimize 1e-12 1e-08 10000 20000
WARNING: Resetting reneighboring criteria during minimization (../min.cpp:168)
Memory usage per processor = 4.85169 Mbytes
Step Temp PotEng Lx Ly Lz 
       0            0   -241.99993    2.2449075    38.890715    1.1224537 
       1            0   -241.99994    2.2449075    38.890715    1.1224537 
       2            0   -241.99994    2.2449075    38.890715    1.1224537 
       3            0   -241.99994    2.2449075    38.890715    1.1224537 
       4            0   -241.99994    2.2449075    38.890715    1.1224537 
       5            0   -241.99994    2.2449075    38.890715    1.1224537 
Loop time of 0.00382307 on 1 procs for 4 steps with 82 atoms

Minimization stats:
  Stopping criterion = force tolerance
  Energy initial, next-to-last, final = 
        -241.999927696     -241.999927696     -241.999937101
  Force two-norm initial, final = 0.000778805 9.97316e-09
  Force max component initial, final = 0.000389403 4.81429e-09
  Final line search alpha, max atom move = 0 0
  Iterations, force evaluations = 4 103

Pair  time (%) = 0.00191272 (50.0309)
Neigh time (%) = 0 (0)
Comm  time (%) = 0.000156133 (4.08397)
Outpt time (%) = 0.00126517 (33.093)
Other time (%) = 0.000489052 (12.7921)

Nlocal:    82 ave 82 max 82 min
Histogram: 1 0 0 0 0 0 0 0 0 0
Nghost:    185 ave 185 max 185 min
Histogram: 1 0 0 0 0 0 0 0 0 0
Neighs:    718 ave 718 max 718 min
Histogram: 1 0 0 0 0 0 0 0 0 0

Total # of neighbors = 718
Ave neighs/atom = 8.7561
Neighbor list builds = 0
Dangerous builds = 0

# don't allow atoms to relax in x-direction
fix 2 all setforce 0.0 NULL 0.0

# GSF energy curve will have 100*2 steps
variable nsteps equal 500
variable sstep1 equal 1.
variable xstep1 equal ${sstep1}/(${ax}*${nsteps})
variable xstep1 equal 1/(${ax}*${nsteps})
variable xstep1 equal 1/(1*${nsteps})
variable xstep1 equal 1/(1*500)

variable i loop ${nsteps}
variable i loop 500
label loop1
        displace_atoms upper move ${xstep1} 0.0 0.0 units lattice
        displace_atoms upper move 0.002 0.0 0.0 units lattice
        min_style ${style}
        min_style hftn
        minimize ${etol} ${ftol} ${maxiter} ${maxeval}
        minimize 1e-12 ${ftol} ${maxiter} ${maxeval}
        minimize 1e-12 1e-08 ${maxiter} ${maxeval}
        minimize 1e-12 1e-08 10000 ${maxeval}
        minimize 1e-12 1e-08 10000 20000
WARNING: Resetting reneighboring criteria during minimization (../min.cpp:168)
Memory usage per processor = 4.85169 Mbytes
Step Temp PotEng Lx Ly Lz 
       5            0   -241.99987    2.2449075    38.891137    1.1224537 
       6            0   -241.99987    2.2449075    38.891137    1.1224537 
Loop time of 0.00209702 on 1 procs for 0 steps with 82 atoms

Minimization stats:
  Stopping criterion = force tolerance
  Energy initial, next-to-last, final = 
        -241.999874687     -241.999874687     -241.999874668
  Force two-norm initial, final = 0.000521569 5.56619e-09
  Force max component initial, final = 0.000260785 1.92432e-09
  Final line search alpha, max atom move = 0 0
  Iterations, force evaluations = 0 83

Pair  time (%) = 0.00150972 (71.9936)
Neigh time (%) = 0 (0)
Comm  time (%) = 0.000119852 (5.71536)
Outpt time (%) = 0 (0)
Other time (%) = 0.000467448 (22.291)

Nlocal:    82 ave 82 max 82 min
Histogram: 1 0 0 0 0 0 0 0 0 0
Nghost:    185 ave 185 max 185 min
Histogram: 1 0 0 0 0 0 0 0 0 0
Neighs:    718 ave 718 max 718 min
Histogram: 1 0 0 0 0 0 0 0 0 0

Total # of neighbors = 718
Ave neighs/atom = 8.7561
Neighbor list builds = 0
Dangerous builds = 0
        # write_dump all atom ${dumpfile}
        next i
jump SELF loop1
        displace_atoms upper move ${xstep1} 0.0 0.0 units lattice
        displace_atoms upper move 0.002 0.0 0.0 units lattice
        min_style ${style}
        min_style hftn
        minimize ${etol} ${ftol} ${maxiter} ${maxeval}
        minimize 1e-12 ${ftol} ${maxiter} ${maxeval}
        minimize 1e-12 1e-08 ${maxiter} ${maxeval}
        minimize 1e-12 1e-08 10000 ${maxeval}
        minimize 1e-12 1e-08 10000 20000
WARNING: Resetting reneighboring criteria during minimization (../min.cpp:168)
Memory usage per processor = 4.85169 Mbytes
Step Temp PotEng Lx Ly Lz 
       6            0   -241.99969    2.2449075    38.891144    1.1224537 
       7            0   -241.99969    2.2449075    38.891144    1.1224537 
       8            0   -241.99969    2.2449075    38.891144    1.1224537 
       9            0   -241.99969    2.2449075    38.891144    1.1224537 
      10            0   -241.99969    2.2449075    38.891144    1.1224537 
      11            0   -241.99969    2.2449075    38.891144    1.1224537 
      12            0   -241.99969    2.2449075    38.891144    1.1224537 
      13            0   -241.99969    2.2449075    38.891144    1.1224537 
Loop time of 0.00320194 on 1 procs for 6 steps with 82 atoms

Minimization stats:
  Stopping criterion = energy tolerance
  Energy initial, next-to-last, final = 
        -241.999688201     -241.999688201     -241.999688201
  Force two-norm initial, final = 0.00155567 0.00155482
  Force max component initial, final = 0.000777834 0.000777411
  Final line search alpha, max atom move = 0 0
  Iterations, force evaluations = 6 131

Pair  time (%) = 0.00220146 (68.7539)
Neigh time (%) = 0 (0)
Comm  time (%) = 0.000188548 (5.88855)
Outpt time (%) = 0.000236033 (7.37155)
Other time (%) = 0.000575901 (17.986)

Nlocal:    82 ave 82 max 82 min
Histogram: 1 0 0 0 0 0 0 0 0 0
Nghost:    185 ave 185 max 185 min
Histogram: 1 0 0 0 0 0 0 0 0 0
Neighs:    718 ave 718 max 718 min
Histogram: 1 0 0 0 0 0 0 0 0 0

Total # of neighbors = 718
Ave neighs/atom = 8.7561
Neighbor list builds = 0
Dangerous builds = 0
        # write_dump all atom ${dumpfile}
        next i
jump SELF loop1
        displace_atoms upper move ${xstep1} 0.0 0.0 units lattice
        displace_atoms upper move 0.002 0.0 0.0 units lattice
        min_style ${style}
        min_style hftn
        minimize ${etol} ${ftol} ${maxiter} ${maxeval}
        minimize 1e-12 ${ftol} ${maxiter} ${maxeval}
        minimize 1e-12 1e-08 ${maxiter} ${maxeval}
        minimize 1e-12 1e-08 10000 ${maxeval}
        minimize 1e-12 1e-08 10000 20000
WARNING: Resetting reneighboring criteria during minimization (../min.cpp:168)
Memory usage per processor = 4.85169 Mbytes
Step Temp PotEng Lx Ly Lz 
      13            0   -241.99938    2.2449075    38.891144    1.1224537 
      14            0   -241.99938    2.2449075    38.891144    1.1224537 
      15            0   -241.99938    2.2449075    38.891144    1.1224537 
Loop time of 0.00762093 on 1 procs for 1 steps with 82 atoms

Minimization stats:
  Stopping criterion = force tolerance
  Energy initial, next-to-last, final = 
        -241.999378717     -241.999378717     -241.999378885
  Force two-norm initial, final = 0.00413213 6.12584e-09
  Force max component initial, final = 0.00206606 2.2868e-09
  Final line search alpha, max atom move = 0 0
  Iterations, force evaluations = 1 183

Pair  time (%) = 0.00373896 (49.0617)
Neigh time (%) = 0 (0)
Comm  time (%) = 0.00292183 (38.3396)
Outpt time (%) = 1.3998e-05 (0.183679)
Other time (%) = 0.000946139 (12.415)

Nlocal:    82 ave 82 max 82 min
Histogram: 1 0 0 0 0 0 0 0 0 0
Nghost:    185 ave 185 max 185 min
Histogram: 1 0 0 0 0 0 0 0 0 0
Neighs:    718 ave 718 max 718 min
Histogram: 1 0 0 0 0 0 0 0 0 0

Total # of neighbors = 718
Ave neighs/atom = 8.7561
Neighbor list builds = 0
Dangerous builds = 0
        # write_dump all atom ${dumpfile}
        next i
jump SELF loop1
        displace_atoms upper move ${xstep1} 0.0 0.0 units lattice
        displace_atoms upper move 0.002 0.0 0.0 units lattice
        min_style ${style}
        min_style hftn
        minimize ${etol} ${ftol} ${maxiter} ${maxeval}
        minimize 1e-12 ${ftol} ${maxiter} ${maxeval}
        minimize 1e-12 1e-08 ${maxiter} ${maxeval}
        minimize 1e-12 1e-08 10000 ${maxeval}
        minimize 1e-12 1e-08 10000 20000
WARNING: Resetting reneighboring criteria during minimization (../min.cpp:168)
Memory usage per processor = 4.85169 Mbytes
Step Temp PotEng Lx Ly Lz 
      15            0   -241.99895    2.2449075      38.8912    1.1224537 
      16            0   -241.99895    2.2449075      38.8912    1.1224537 
      17            0   -241.99895    2.2449075      38.8912    1.1224537 
Loop time of 0.00310994 on 1 procs for 1 steps with 82 atoms

Minimization stats:
  Stopping criterion = force tolerance
  Energy initial, next-to-last, final = 
        -241.998948408     -241.998948408     -241.998948485
  Force two-norm initial, final = 0.000942166 6.8901e-10
  Force max component initial, final = 0.000471085 3.26997e-10
  Final line search alpha, max atom move = 0 0
  Iterations, force evaluations = 1 111

Pair  time (%) = 0.00238591 (76.7188)
Neigh time (%) = 0 (0)
Comm  time (%) = 0.000135395 (4.35361)
Outpt time (%) = 4.70786e-05 (1.51381)
Other time (%) = 0.000541558 (17.4138)

Nlocal:    82 ave 82 max 82 min
Histogram: 1 0 0 0 0 0 0 0 0 0
Nghost:    185 ave 185 max 185 min
Histogram: 1 0 0 0 0 0 0 0 0 0
Neighs:    718 ave 718 max 718 min
Histogram: 1 0 0 0 0 0 0 0 0 0

Total # of neighbors = 718
Ave neighs/atom = 8.7561
Neighbor list builds = 0
Dangerous builds = 0
        # write_dump all atom ${dumpfile}
        next i
jump SELF loop1
        displace_atoms upper move ${xstep1} 0.0 0.0 units lattice
        displace_atoms upper move 0.002 0.0 0.0 units lattice
        min_style ${style}
        min_style hftn
        minimize ${etol} ${ftol} ${maxiter} ${maxeval}
        minimize 1e-12 ${ftol} ${maxiter} ${maxeval}
        minimize 1e-12 1e-08 ${maxiter} ${maxeval}
        minimize 1e-12 1e-08 10000 ${maxeval}
        minimize 1e-12 1e-08 10000 20000
WARNING: Resetting reneighboring criteria during minimization (../min.cpp:168)
Memory usage per processor = 4.85169 Mbytes
Step Temp PotEng Lx Ly Lz 
      17            0   -241.99842    2.2449075    38.891213    1.1224537 
      18            0   -241.99842    2.2449075    38.891213    1.1224537 
      19            0   -241.99842    2.2449075    38.891213    1.1224537 
      20            0   -241.99842    2.2449075    38.891213    1.1224537 
      21            0   -241.99842    2.2449075    38.891213    1.1224537 
Loop time of 0.00578608 on 1 procs for 3 steps with 82 atoms

Minimization stats:
  Stopping criterion = force tolerance
  Energy initial, next-to-last, final = 
        -241.998419844      -241.99842062     -241.998419654
  Force two-norm initial, final = 0.0037139 5.08687e-10
  Force max component initial, final = 0.00185695 1.656e-10
  Final line search alpha, max atom move = 0 0
  Iterations, force evaluations = 3 204

Pair  time (%) = 0.00377226 (65.1955)
Neigh time (%) = 0 (0)
Comm  time (%) = 0.000867931 (15.0003)
Outpt time (%) = 0.000116852 (2.01954)
Other time (%) = 0.00102903 (17.7846)

Nlocal:    82 ave 82 max 82 min
Histogram: 1 0 0 0 0 0 0 0 0 0
Nghost:    185 ave 185 max 185 min
Histogram: 1 0 0 0 0 0 0 0 0 0
Neighs:    718 ave 718 max 718 min
Histogram: 1 0 0 0 0 0 0 0 0 0

Total # of neighbors = 718
Ave neighs/atom = 8.7561
Neighbor list builds = 0
Dangerous builds = 0
        # write_dump all atom ${dumpfile}
        next i
jump SELF loop1
        displace_atoms upper move ${xstep1} 0.0 0.0 units lattice
        displace_atoms upper move 0.002 0.0 0.0 units lattice
        min_style ${style}
        min_style hftn
        minimize ${etol} ${ftol} ${maxiter} ${maxeval}
        minimize 1e-12 ${ftol} ${maxiter} ${maxeval}
        minimize 1e-12 1e-08 ${maxiter} ${maxeval}
        minimize 1e-12 1e-08 10000 ${maxeval}
        minimize 1e-12 1e-08 10000 20000
WARNING: Resetting reneighboring criteria during minimization (../min.cpp:168)
Memory usage per processor = 4.85169 Mbytes
Step Temp PotEng Lx Ly Lz 
      21            0    -241.9978    2.2449075    38.891161    1.1224537 
      22            0    -241.9978    2.2449075    38.891161    1.1224537 
      23            0    -241.9978    2.2449075    38.891161    1.1224537 
      24            0    -241.9978    2.2449075    38.891161    1.1224537 
      25            0    -241.9978    2.2449075    38.891161    1.1224537 
Loop time of 0.00485092 on 1 procs for 3 steps with 82 atoms

Minimization stats:
  Stopping criterion = force tolerance
  Energy initial, next-to-last, final = 
        -241.997800478     -241.997801067     -241.997800363
  Force two-norm initial, final = 0.00273138 2.96716e-10
  Force max component initial, final = 0.00136569 9.5449e-11
  Final line search alpha, max atom move = 0 0
  Iterations, force evaluations = 3 204

Pair  time (%) = 0.00351793 (72.5209)
Neigh time (%) = 0 (0)
Comm  time (%) = 0.000289859 (5.97534)
Outpt time (%) = 3.21609e-05 (0.662986)
Other time (%) = 0.00101097 (20.8408)

Nlocal:    82 ave 82 max 82 min
Histogram: 1 0 0 0 0 0 0 0 0 0
Nghost:    185 ave 185 max 185 min
Histogram: 1 0 0 0 0 0 0 0 0 0
Neighs:    718 ave 718 max 718 min
Histogram: 1 0 0 0 0 0 0 0 0 0

Total # of neighbors = 718
Ave neighs/atom = 8.7561
Neighbor list builds = 0
Dangerous builds = 0
        # write_dump all atom ${dumpfile}
        next i
jump SELF loop1
        displace_atoms upper move ${xstep1} 0.0 0.0 units lattice
        displace_atoms upper move 0.002 0.0 0.0 units lattice
        min_style ${style}
        min_style hftn
        minimize ${etol} ${ftol} ${maxiter} ${maxeval}
        minimize 1e-12 ${ftol} ${maxiter} ${maxeval}
        minimize 1e-12 1e-08 ${maxiter} ${maxeval}
        minimize 1e-12 1e-08 10000 ${maxeval}
        minimize 1e-12 1e-08 10000 20000
WARNING: Resetting reneighboring criteria during minimization (../min.cpp:168)
Memory usage per processor = 4.85169 Mbytes
Step Temp PotEng Lx Ly Lz 
      25            0   -241.99709    2.2449075    38.891123    1.1224537 
      26            0   -241.99709    2.2449075    38.891123    1.1224537 
      27            0   -241.99709    2.2449075    38.891123    1.1224537 
      28            0   -241.99709    2.2449075    38.891123    1.1224537 
      29            0   -241.99709    2.2449075    38.891123    1.1224537 
Loop time of 0.00518089 on 1 procs for 3 steps with 82 atoms

Minimization stats:
  Stopping criterion = force tolerance
  Energy initial, next-to-last, final = 
        -241.997090911     -241.997091237     -241.997090781
  Force two-norm initial, final = 0.00172845 1.35119e-10
  Force max component initial, final = 0.000864223 3.78658e-11
  Final line search alpha, max atom move = 0 0
  Iterations, force evaluations = 3 204

Pair  time (%) = 0.00328242 (63.3563)
Neigh time (%) = 0 (0)
Comm  time (%) = 0.00032991 (6.36783)
Outpt time (%) = 3.22149e-05 (0.621802)
Other time (%) = 0.00153635 (29.6541)

Nlocal:    82 ave 82 max 82 min
Histogram: 1 0 0 0 0 0 0 0 0 0
Nghost:    185 ave 185 max 185 min
Histogram: 1 0 0 0 0 0 0 0 0 0
Neighs:    718 ave 718 max 718 min
Histogram: 1 0 0 0 0 0 0 0 0 0

Total # of neighbors = 718
Ave neighs/atom = 8.7561
Neighbor list builds = 0
Dangerous builds = 0
        # write_dump all atom ${dumpfile}
        next i
jump SELF loop1
        displace_atoms upper move ${xstep1} 0.0 0.0 units lattice
        displace_atoms upper move 0.002 0.0 0.0 units lattice
        min_style ${style}
        min_style hftn
        minimize ${etol} ${ftol} ${maxiter} ${maxeval}
        minimize 1e-12 ${ftol} ${maxiter} ${maxeval}
        minimize 1e-12 1e-08 ${maxiter} ${maxeval}
        minimize 1e-12 1e-08 10000 ${maxeval}
        minimize 1e-12 1e-08 10000 20000
WARNING: Resetting reneighboring criteria during minimization (../min.cpp:168)
Memory usage per processor = 4.85169 Mbytes
Step Temp PotEng Lx Ly Lz 
      29            0   -241.99629    2.2449075    38.891099    1.1224537 
      30            0   -241.99629    2.2449075    38.891099    1.1224537 
      31            0   -241.99629    2.2449075    38.891099    1.1224537 
      32            0   -241.99629    2.2449075    38.891099    1.1224537 
      33            0   -241.99629    2.2449075    38.891099    1.1224537 
      34            0   -241.99629    2.2449075    38.891099    1.1224537 
      35            0   -241.99629    2.2449075    38.891099    1.1224537 
      36            0   -241.99629    2.2449075    38.891099    1.1224537 
      37            0   -241.99629    2.2449075    38.891099    1.1224537 
      38            0   -241.99629    2.2449075    38.891099    1.1224537 
      39            0   -241.99629    2.2449075    38.891099    1.1224537 
      40            0   -241.99629    2.2449075    38.891099    1.1224537 
Loop time of 0.00490411 on 1 procs for 10 steps with 82 atoms

Minimization stats:
  Stopping criterion = trust region too small
  Energy initial, next-to-last, final = 
        -241.996290708     -241.996290708     -241.996290826
  Force two-norm initial, final = 0.00072476 1.00383e-06
  Force max component initial, final = 0.00036238 5.01921e-07
  Final line search alpha, max atom move = 0 0
  Iterations, force evaluations = 10 183

Pair  time (%) = 0.00359234 (73.2517)
Neigh time (%) = 0 (0)
Comm  time (%) = 0.000371794 (7.58128)
Outpt time (%) = 8.30851e-05 (1.6942)
Other time (%) = 0.000856885 (17.4728)

Nlocal:    82 ave 82 max 82 min
Histogram: 1 0 0 0 0 0 0 0 0 0
Nghost:    185 ave 185 max 185 min
Histogram: 1 0 0 0 0 0 0 0 0 0
Neighs:    718 ave 718 max 718 min
Histogram: 1 0 0 0 0 0 0 0 0 0

Total # of neighbors = 718
Ave neighs/atom = 8.7561
Neighbor list builds = 0
Dangerous builds = 0
        # write_dump all atom ${dumpfile}
        next i
jump SELF loop1
        displace_atoms upper move ${xstep1} 0.0 0.0 units lattice
        displace_atoms upper move 0.002 0.0 0.0 units lattice
        min_style ${style}
        min_style hftn
        minimize ${etol} ${ftol} ${maxiter} ${maxeval}
        minimize 1e-12 ${ftol} ${maxiter} ${maxeval}
        minimize 1e-12 1e-08 ${maxiter} ${maxeval}
        minimize 1e-12 1e-08 10000 ${maxeval}
        minimize 1e-12 1e-08 10000 20000
WARNING: Resetting reneighboring criteria during minimization (../min.cpp:168)
Memory usage per processor = 4.85169 Mbytes
Step Temp PotEng Lx Ly Lz 
      40            0    -241.9954    2.2449075    38.891089    1.1224537 
      41            0    -241.9954    2.2449075    38.891089    1.1224537 
Loop time of 0.00530503 on 1 procs for 0 steps with 82 atoms

Minimization stats:
  Stopping criterion = force tolerance
  Energy initial, next-to-last, final = 
        -241.995397253     -241.995397253     -241.995397187
  Force two-norm initial, final = 0.000310612 1.83944e-09
  Force max component initial, final = 0.000155306 7.40203e-10
  Final line search alpha, max atom move = 0 0
  Iterations, force evaluations = 0 83

Pair  time (%) = 0.00482676 (90.9845)
Neigh time (%) = 0 (0)
Comm  time (%) = 9.71229e-05 (1.83077)
Outpt time (%) = 0 (0)
Other time (%) = 0.000381151 (7.1847)

Nlocal:    82 ave 82 max 82 min
Histogram: 1 0 0 0 0 0 0 0 0 0
Nghost:    185 ave 185 max 185 min
Histogram: 1 0 0 0 0 0 0 0 0 0
Neighs:    718 ave 718 max 718 min
Histogram: 1 0 0 0 0 0 0 0 0 0

Total # of neighbors = 718
Ave neighs/atom = 8.7561
Neighbor list builds = 0
Dangerous builds = 0
        # write_dump all atom ${dumpfile}
        next i
jump SELF loop1
        displace_atoms upper move ${xstep1} 0.0 0.0 units lattice
        displace_atoms upper move 0.002 0.0 0.0 units lattice
        min_style ${style}
        min_style hftn
        minimize ${etol} ${ftol} ${maxiter} ${maxeval}
        minimize 1e-12 ${ftol} ${maxiter} ${maxeval}
        minimize 1e-12 1e-08 ${maxiter} ${maxeval}
        minimize 1e-12 1e-08 10000 ${maxeval}
        minimize 1e-12 1e-08 10000 20000
WARNING: Resetting reneighboring criteria during minimization (../min.cpp:168)
Memory usage per processor = 4.85169 Mbytes
Step Temp PotEng Lx Ly Lz 
      41            0   -241.99441    2.2449075    38.891093    1.1224537 
      42            0   -241.99441    2.2449075    38.891093    1.1224537 
      43            0   -241.99441    2.2449075    38.891093    1.1224537 
      44            0   -241.99441    2.2449075    38.891093    1.1224537 
      45            0   -241.99441    2.2449075    38.891093    1.1224537 
      46            0   -241.99441    2.2449075    38.891093    1.1224537 
      47            0   -241.99441    2.2449075    38.891093    1.1224537 
      48            0   -241.99441    2.2449075    38.891093    1.1224537 
Loop time of 0.00303605 on 1 procs for 6 steps with 82 atoms

Minimization stats:
  Stopping criterion = energy tolerance
  Energy initial, next-to-last, final = 
        -241.994413534     -241.994413534     -241.994413534
  Force two-norm initial, final = 0.00130841 0.00130784
  Force max component initial, final = 0.000654206 0.000653919
  Final line search alpha, max atom move = 0 0
  Iterations, force evaluations = 6 129

Pair  time (%) = 0.00211105 (69.5327)
Neigh time (%) = 0 (0)
Comm  time (%) = 0.000186744 (6.1509)
Outpt time (%) = 0.00018737 (6.17149)
Other time (%) = 0.000550887 (18.1449)

Nlocal:    82 ave 82 max 82 min
Histogram: 1 0 0 0 0 0 0 0 0 0
Nghost:    185 ave 185 max 185 min
Histogram: 1 0 0 0 0 0 0 0 0 0
Neighs:    718 ave 718 max 718 min
Histogram: 1 0 0 0 0 0 0 0 0 0

Total # of neighbors = 718
Ave neighs/atom = 8.7561
Neighbor list builds = 0
Dangerous builds = 0
        # write_dump all atom ${dumpfile}
        next i
jump SELF loop1
        displace_atoms upper move ${xstep1} 0.0 0.0 units lattice
        displace_atoms upper move 0.002 0.0 0.0 units lattice
        min_style ${style}
        min_style hftn
        minimize ${etol} ${ftol} ${maxiter} ${maxeval}
        minimize 1e-12 ${ftol} ${maxiter} ${maxeval}
        minimize 1e-12 1e-08 ${maxiter} ${maxeval}
        minimize 1e-12 1e-08 10000 ${maxeval}
        minimize 1e-12 1e-08 10000 20000
WARNING: Resetting reneighboring criteria during minimization (../min.cpp:168)
Memory usage per processor = 4.85169 Mbytes
Step Temp PotEng Lx Ly Lz 
      48            0   -241.99334    2.2449075    38.891093    1.1224537 
      49            0   -241.99334    2.2449075    38.891093    1.1224537 
      50            0   -241.99334    2.2449075    38.891093    1.1224537 
      51            0   -241.99334    2.2449075    38.891093    1.1224537 
      52            0   -241.99334    2.2449075    38.891093    1.1224537 
      53            0   -241.99334    2.2449075    38.891093    1.1224537 
      54            0   -241.99334    2.2449075    38.891093    1.1224537 
      55            0   -241.99334    2.2449075    38.891093    1.1224537 
      56            0   -241.99334    2.2449075    38.891093    1.1224537 
Loop time of 0.00375905 on 1 procs for 7 steps with 82 atoms

Minimization stats:
  Stopping criterion = energy tolerance
  Energy initial, next-to-last, final = 
        -241.993339688     -241.993339688     -241.993339688
  Force two-norm initial, final = 0.00361184 0.00361152
  Force max component initial, final = 0.00180592 0.00180576
  Final line search alpha, max atom move = 0 0
  Iterations, force evaluations = 7 136

Pair  time (%) = 0.00282759 (75.2208)
Neigh time (%) = 0 (0)
Comm  time (%) = 0.000224719 (5.97808)
Outpt time (%) = 7.79354e-05 (2.07327)
Other time (%) = 0.000628808 (16.7278)

Nlocal:    82 ave 82 max 82 min
Histogram: 1 0 0 0 0 0 0 0 0 0
Nghost:    185 ave 185 max 185 min
Histogram: 1 0 0 0 0 0 0 0 0 0
Neighs:    718 ave 718 max 718 min
Histogram: 1 0 0 0 0 0 0 0 0 0

Total # of neighbors = 718
Ave neighs/atom = 8.7561
Neighbor list builds = 0
Dangerous builds = 0
        # write_dump all atom ${dumpfile}
        next i
jump SELF loop1
        displace_atoms upper move ${xstep1} 0.0 0.0 units lattice
        displace_atoms upper move 0.002 0.0 0.0 units lattice
        min_style ${style}
        min_style hftn
        minimize ${etol} ${ftol} ${maxiter} ${maxeval}
        minimize 1e-12 ${ftol} ${maxiter} ${maxeval}
        minimize 1e-12 1e-08 ${maxiter} ${maxeval}
        minimize 1e-12 1e-08 10000 ${maxeval}
        minimize 1e-12 1e-08 10000 20000
WARNING: Resetting reneighboring criteria during minimization (../min.cpp:168)
Memory usage per processor = 4.85169 Mbytes
Step Temp PotEng Lx Ly Lz 
      56            0   -241.99218    2.2449075    38.891093    1.1224537 
      57            0   -241.99218    2.2449075    38.891093    1.1224537 
      58            0   -241.99218    2.2449075    38.891093    1.1224537 
Loop time of 0.00313103 on 1 procs for 1 steps with 82 atoms

Minimization stats:
  Stopping criterion = force tolerance
  Energy initial, next-to-last, final = 
        -241.992176118     -241.992176118     -241.992176714
  Force two-norm initial, final = 0.00690883 1.24941e-11
  Force max component initial, final = 0.00345441 5.5132e-12
  Final line search alpha, max atom move = 0 0
  Iterations, force evaluations = 1 154

Pair  time (%) = 0.00229752 (73.379)
Neigh time (%) = 0 (0)
Comm  time (%) = 0.000173576 (5.54373)
Outpt time (%) = 1.20858e-05 (0.386)
Other time (%) = 0.00064785 (20.6913)

Nlocal:    82 ave 82 max 82 min
Histogram: 1 0 0 0 0 0 0 0 0 0
Nghost:    185 ave 185 max 185 min
Histogram: 1 0 0 0 0 0 0 0 0 0
Neighs:    718 ave 718 max 718 min
Histogram: 1 0 0 0 0 0 0 0 0 0

Total # of neighbors = 718
Ave neighs/atom = 8.7561
Neighbor list builds = 0
Dangerous builds = 0
        # write_dump all atom ${dumpfile}
        next i
jump SELF loop1
        displace_atoms upper move ${xstep1} 0.0 0.0 units lattice
        displace_atoms upper move 0.002 0.0 0.0 units lattice
        min_style ${style}
        min_style hftn
        minimize ${etol} ${ftol} ${maxiter} ${maxeval}
        minimize 1e-12 ${ftol} ${maxiter} ${maxeval}
        minimize 1e-12 1e-08 ${maxiter} ${maxeval}
        minimize 1e-12 1e-08 10000 ${maxeval}
        minimize 1e-12 1e-08 10000 20000
WARNING: Resetting reneighboring criteria during minimization (../min.cpp:168)
Memory usage per processor = 4.85169 Mbytes
Step Temp PotEng Lx Ly Lz 
      58            0   -241.99092    2.2449075    38.891189    1.1224537 
      59            0   -241.99092    2.2449075    38.891189    1.1224537 
      60            0   -241.99092    2.2449075    38.891189    1.1224537 
      61            0   -241.99092    2.2449075    38.891189    1.1224537 
      62            0   -241.99092    2.2449075    38.891189    1.1224537 
      63            0   -241.99092    2.2449075    38.891189    1.1224537 
      64            0   -241.99092    2.2449075    38.891189    1.1224537 
      65            0   -241.99092    2.2449075    38.891189    1.1224537 
      66            0   -241.99092    2.2449075    38.891189    1.1224537 
Loop time of 0.00448407 on 1 procs for 7 steps with 82 atoms

Minimization stats:
  Stopping criterion = energy tolerance
  Energy initial, next-to-last, final = 
        -241.990922735     -241.990922735     -241.990922735
  Force two-norm initial, final = 0.00429158 0.00429121
  Force max component initial, final = 0.00214579 0.0021456
  Final line search alpha, max atom move = 0 0
  Iterations, force evaluations = 7 132

Pair  time (%) = 0.00282213 (62.9369)
Neigh time (%) = 0 (0)
Comm  time (%) = 0.000298965 (6.66728)
Outpt time (%) = 0.000100287 (2.23652)
Other time (%) = 0.00126268 (28.1593)

Nlocal:    82 ave 82 max 82 min
Histogram: 1 0 0 0 0 0 0 0 0 0
Nghost:    185 ave 185 max 185 min
Histogram: 1 0 0 0 0 0 0 0 0 0
Neighs:    718 ave 718 max 718 min
Histogram: 1 0 0 0 0 0 0 0 0 0

Total # of neighbors = 718
Ave neighs/atom = 8.7561
Neighbor list builds = 0
Dangerous builds = 0
        # write_dump all atom ${dumpfile}
        next i
jump SELF loop1
        displace_atoms upper move ${xstep1} 0.0 0.0 units lattice
        displace_atoms upper move 0.002 0.0 0.0 units lattice
        min_style ${style}
        min_style hftn
        minimize ${etol} ${ftol} ${maxiter} ${maxeval}
        minimize 1e-12 ${ftol} ${maxiter} ${maxeval}
        minimize 1e-12 1e-08 ${maxiter} ${maxeval}
        minimize 1e-12 1e-08 10000 ${maxeval}
        minimize 1e-12 1e-08 10000 20000
WARNING: Resetting reneighboring criteria during minimization (../min.cpp:168)
Memory usage per processor = 4.85169 Mbytes
Step Temp PotEng Lx Ly Lz 
      66            0   -241.98958    2.2449075    38.891189    1.1224537 
      67            0   -241.98958    2.2449075    38.891189    1.1224537 
      68            0   -241.98958    2.2449075    38.891189    1.1224537 
      69            0   -241.98958    2.2449075    38.891189    1.1224537 
      70            0   -241.98958    2.2449075    38.891189    1.1224537 
      71            0   -241.98958    2.2449075    38.891189    1.1224537 
      72            0   -241.98958    2.2449075    38.891189    1.1224537 
      73            0   -241.98958    2.2449075    38.891189    1.1224537 
      74            0   -241.98958    2.2449075    38.891189    1.1224537 
Loop time of 0.00313705 on 1 procs for 7 steps with 82 atoms

Minimization stats:
  Stopping criterion = energy tolerance
  Energy initial, next-to-last, final = 
        -241.989577035     -241.989577035     -241.989577035
  Force two-norm initial, final = 0.00959833 0.00959728
  Force max component initial, final = 0.00479916 0.00479864
  Final line search alpha, max atom move = 0 0
  Iterations, force evaluations = 7 122

Pair  time (%) = 0.00237204 (75.6135)
Neigh time (%) = 0 (0)
Comm  time (%) = 0.000163 (5.19596)
Outpt time (%) = 6.6506e-05 (2.12001)
Other time (%) = 0.000535511 (17.0705)

Nlocal:    82 ave 82 max 82 min
Histogram: 1 0 0 0 0 0 0 0 0 0
Nghost:    185 ave 185 max 185 min
Histogram: 1 0 0 0 0 0 0 0 0 0
Neighs:    718 ave 718 max 718 min
Histogram: 1 0 0 0 0 0 0 0 0 0

Total # of neighbors = 718
Ave neighs/atom = 8.7561
Neighbor list builds = 0
Dangerous builds = 0
        # write_dump all atom ${dumpfile}
        next i
jump SELF loop1
        displace_atoms upper move ${xstep1} 0.0 0.0 units lattice
        displace_atoms upper move 0.002 0.0 0.0 units lattice
        min_style ${style}
        min_style hftn
        minimize ${etol} ${ftol} ${maxiter} ${maxeval}
        minimize 1e-12 ${ftol} ${maxiter} ${maxeval}
        minimize 1e-12 1e-08 ${maxiter} ${maxeval}
        minimize 1e-12 1e-08 10000 ${maxeval}
        minimize 1e-12 1e-08 10000 20000
WARNING: Resetting reneighboring criteria during minimization (../min.cpp:168)
Memory usage per processor = 4.85169 Mbytes
Step Temp PotEng Lx Ly Lz 
      74            0   -241.98814    2.2449075    38.891189    1.1224537 
      75            0   -241.98814    2.2449075    38.891189    1.1224537 
      76            0   -241.98814    2.2449075    38.891189    1.1224537 
Loop time of 0.00716002 on 1 procs for 1 steps with 82 atoms

Minimization stats:
  Stopping criterion = force tolerance
  Energy initial, next-to-last, final = 
        -241.988142336     -241.988142336      -241.98814465
  Force two-norm initial, final = 0.0158905 2.74844e-10
  Force max component initial, final = 0.00794526 1.32529e-10
  Final line search alpha, max atom move = 0 0
  Iterations, force evaluations = 1 144

Pair  time (%) = 0.00233565 (32.6208)
Neigh time (%) = 0 (0)
Comm  time (%) = 0.0002105 (2.93994)
Outpt time (%) = 9.93116e-06 (0.138703)
Other time (%) = 0.00460393 (64.3006)

Nlocal:    82 ave 82 max 82 min
Histogram: 1 0 0 0 0 0 0 0 0 0
Nghost:    185 ave 185 max 185 min
Histogram: 1 0 0 0 0 0 0 0 0 0
Neighs:    718 ave 718 max 718 min
Histogram: 1 0 0 0 0 0 0 0 0 0

Total # of neighbors = 718
Ave neighs/atom = 8.7561
Neighbor list builds = 0
Dangerous builds = 0
        # write_dump all atom ${dumpfile}
        next i
jump SELF loop1
        displace_atoms upper move ${xstep1} 0.0 0.0 units lattice
        displace_atoms upper move 0.002 0.0 0.0 units lattice
        min_style ${style}
        min_style hftn
        minimize ${etol} ${ftol} ${maxiter} ${maxeval}
        minimize 1e-12 ${ftol} ${maxiter} ${maxeval}
        minimize 1e-12 1e-08 ${maxiter} ${maxeval}
        minimize 1e-12 1e-08 10000 ${maxeval}
        minimize 1e-12 1e-08 10000 20000
WARNING: Resetting reneighboring criteria during minimization (../min.cpp:168)
Memory usage per processor = 4.85169 Mbytes
Step Temp PotEng Lx Ly Lz 
      76            0   -241.98662    2.2449075    38.891409    1.1224537 
      77            0   -241.98662    2.2449075    38.891409    1.1224537 
      78            0   -241.98662    2.2449075    38.891409    1.1224537 
      79            0   -241.98662    2.2449075    38.891409    1.1224537 
      80            0   -241.98662    2.2449075    38.891409    1.1224537 
      81            0   -241.98662    2.2449075    38.891409    1.1224537 
      82            0   -241.98662    2.2449075    38.891409    1.1224537 
      83            0   -241.98662    2.2449075    38.891409    1.1224537 
      84            0   -241.98662    2.2449075    38.891409    1.1224537 
Loop time of 0.00324401 on 1 procs for 7 steps with 82 atoms

Minimization stats:
  Stopping criterion = energy tolerance
  Energy initial, next-to-last, final = 
        -241.986623047     -241.986623047     -241.986623046
  Force two-norm initial, final = 0.00724402 0.00724339
  Force max component initial, final = 0.00362201 0.0036217
  Final line search alpha, max atom move = 0 0
  Iterations, force evaluations = 7 124

Pair  time (%) = 0.00232574 (71.6932)
Neigh time (%) = 0 (0)
Comm  time (%) = 0.000262499 (8.09181)
Outpt time (%) = 7.89288e-05 (2.43306)
Other time (%) = 0.000576848 (17.7819)

Nlocal:    82 ave 82 max 82 min
Histogram: 1 0 0 0 0 0 0 0 0 0
Nghost:    185 ave 185 max 185 min
Histogram: 1 0 0 0 0 0 0 0 0 0
Neighs:    718 ave 718 max 718 min
Histogram: 1 0 0 0 0 0 0 0 0 0

Total # of neighbors = 718
Ave neighs/atom = 8.7561
Neighbor list builds = 0
Dangerous builds = 0
        # write_dump all atom ${dumpfile}
        next i
jump SELF loop1
        displace_atoms upper move ${xstep1} 0.0 0.0 units lattice
        displace_atoms upper move 0.002 0.0 0.0 units lattice
        min_style ${style}
        min_style hftn
        minimize ${etol} ${ftol} ${maxiter} ${maxeval}
        minimize 1e-12 ${ftol} ${maxiter} ${maxeval}
        minimize 1e-12 1e-08 ${maxiter} ${maxeval}
        minimize 1e-12 1e-08 10000 ${maxeval}
        minimize 1e-12 1e-08 10000 20000
WARNING: Resetting reneighboring criteria during minimization (../min.cpp:168)
Memory usage per processor = 4.85169 Mbytes
Step Temp PotEng Lx Ly Lz 
      84            0   -241.98501    2.2449075    38.891409    1.1224537 
      85            0   -241.98501    2.2449075    38.891409    1.1224537 
      86            0   -241.98501    2.2449075    38.891409    1.1224537 
Loop time of 0.00335894 on 1 procs for 1 steps with 82 atoms

Minimization stats:
  Stopping criterion = force tolerance
  Energy initial, next-to-last, final = 
        -241.985009558     -241.985009558     -241.985011855
  Force two-norm initial, final = 0.0155037 2.59953e-10
  Force max component initial, final = 0.00775185 1.27242e-10
  Final line search alpha, max atom move = 0 0
  Iterations, force evaluations = 1 144

Pair  time (%) = 0.00243789 (72.5793)
Neigh time (%) = 0 (0)
Comm  time (%) = 0.00018751 (5.58243)
Outpt time (%) = 9.01544e-06 (0.268402)
Other time (%) = 0.000724517 (21.5698)

Nlocal:    82 ave 82 max 82 min
Histogram: 1 0 0 0 0 0 0 0 0 0
Nghost:    185 ave 185 max 185 min
Histogram: 1 0 0 0 0 0 0 0 0 0
Neighs:    718 ave 718 max 718 min
Histogram: 1 0 0 0 0 0 0 0 0 0

Total # of neighbors = 718
Ave neighs/atom = 8.7561
Neighbor list builds = 0
Dangerous builds = 0
        # write_dump all atom ${dumpfile}
        next i
jump SELF loop1
        displace_atoms upper move ${xstep1} 0.0 0.0 units lattice
        displace_atoms upper move 0.002 0.0 0.0 units lattice
        min_style ${style}
        min_style hftn
        minimize ${etol} ${ftol} ${maxiter} ${maxeval}
        minimize 1e-12 ${ftol} ${maxiter} ${maxeval}
        minimize 1e-12 1e-08 ${maxiter} ${maxeval}
        minimize 1e-12 1e-08 10000 ${maxeval}
        minimize 1e-12 1e-08 10000 20000
WARNING: Resetting reneighboring criteria during minimization (../min.cpp:168)
Memory usage per processor = 4.85169 Mbytes
Step Temp PotEng Lx Ly Lz 
      86            0   -241.98331    2.2449075    38.891623    1.1224537 
      87            0   -241.98332    2.2449075    38.891623    1.1224537 
      88            0   -241.98332    2.2449075    38.891623    1.1224537 
Loop time of 0.00453098 on 1 procs for 1 steps with 82 atoms

Minimization stats:
  Stopping criterion = force tolerance
  Energy initial, next-to-last, final = 
        -241.983314261     -241.983314261     -241.983315821
  Force two-norm initial, final = 0.00918241 6.29743e-11
  Force max component initial, final = 0.0045912 2.24466e-11
  Final line search alpha, max atom move = 0 0
  Iterations, force evaluations = 1 150

Pair  time (%) = 0.00258232 (56.9925)
Neigh time (%) = 0 (0)
Comm  time (%) = 0.000302037 (6.66603)
Outpt time (%) = -3.29455e-08 (-0.000727117)
Other time (%) = 0.00164666 (36.3422)

Nlocal:    82 ave 82 max 82 min
Histogram: 1 0 0 0 0 0 0 0 0 0
Nghost:    185 ave 185 max 185 min
Histogram: 1 0 0 0 0 0 0 0 0 0
Neighs:    718 ave 718 max 718 min
Histogram: 1 0 0 0 0 0 0 0 0 0

Total # of neighbors = 718
Ave neighs/atom = 8.7561
Neighbor list builds = 0
Dangerous builds = 0
        # write_dump all atom ${dumpfile}
        next i
jump SELF loop1
        displace_atoms upper move ${xstep1} 0.0 0.0 units lattice
        displace_atoms upper move 0.002 0.0 0.0 units lattice
        min_style ${style}
        min_style hftn
        minimize ${etol} ${ftol} ${maxiter} ${maxeval}
        minimize 1e-12 ${ftol} ${maxiter} ${maxeval}
        minimize 1e-12 1e-08 ${maxiter} ${maxeval}
        minimize 1e-12 1e-08 10000 ${maxeval}
        minimize 1e-12 1e-08 10000 20000
WARNING: Resetting reneighboring criteria during minimization (../min.cpp:168)
Memory usage per processor = 4.85169 Mbytes
Step Temp PotEng Lx Ly Lz 
      88            0   -241.98153    2.2449075     38.89175    1.1224537 
      89            0   -241.98153    2.2449075     38.89175    1.1224537 
      90            0   -241.98153    2.2449075     38.89175    1.1224537 
      91            0   -241.98153    2.2449075     38.89175    1.1224537 
      92            0   -241.98153    2.2449075     38.89175    1.1224537 
      93            0   -241.98153    2.2449075     38.89175    1.1224537 
      94            0   -241.98153    2.2449075     38.89175    1.1224537 
      95            0   -241.98153    2.2449075     38.89175    1.1224537 
      96            0   -241.98153    2.2449075     38.89175    1.1224537 
      97            0   -241.98153    2.2449075     38.89175    1.1224537 
Loop time of 0.00278795 on 1 procs for 8 steps with 82 atoms

Minimization stats:
  Stopping criterion = energy tolerance
  Energy initial, next-to-last, final = 
         -241.98152746      -241.98152746      -241.98152746
  Force two-norm initial, final = 0.0101833 0.0101831
  Force max component initial, final = 0.00509166 0.00509155
  Final line search alpha, max atom move = 0 0
  Iterations, force evaluations = 8 129

Pair  time (%) = 0.00207192 (74.3169)
Neigh time (%) = 0 (0)
Comm  time (%) = 0.000160433 (5.75453)
Outpt time (%) = 5.0961e-05 (1.8279)
Other time (%) = 0.000504637 (18.1006)

Nlocal:    82 ave 82 max 82 min
Histogram: 1 0 0 0 0 0 0 0 0 0
Nghost:    185 ave 185 max 185 min
Histogram: 1 0 0 0 0 0 0 0 0 0
Neighs:    718 ave 718 max 718 min
Histogram: 1 0 0 0 0 0 0 0 0 0

Total # of neighbors = 718
Ave neighs/atom = 8.7561
Neighbor list builds = 0
Dangerous builds = 0
        # write_dump all atom ${dumpfile}
        next i
jump SELF loop1
        displace_atoms upper move ${xstep1} 0.0 0.0 units lattice
        displace_atoms upper move 0.002 0.0 0.0 units lattice
        min_style ${style}
        min_style hftn
        minimize ${etol} ${ftol} ${maxiter} ${maxeval}
        minimize 1e-12 ${ftol} ${maxiter} ${maxeval}
        minimize 1e-12 1e-08 ${maxiter} ${maxeval}
        minimize 1e-12 1e-08 10000 ${maxeval}
        minimize 1e-12 1e-08 10000 20000
WARNING: Resetting reneighboring criteria during minimization (../min.cpp:168)
Memory usage per processor = 4.85169 Mbytes
Step Temp PotEng Lx Ly Lz 
      97            0   -241.97965    2.2449075     38.89175    1.1224537 
      98            0   -241.97966    2.2449075     38.89175    1.1224537 
      99            0   -241.97966    2.2449075     38.89175    1.1224537 
Loop time of 0.00291791 on 1 procs for 1 steps with 82 atoms

Minimization stats:
  Stopping criterion = force tolerance
  Energy initial, next-to-last, final = 
        -241.979652012     -241.979652012     -241.979656947
  Force two-norm initial, final = 0.0213323 7.58453e-10
  Force max component initial, final = 0.0106662 3.87849e-10
  Final line search alpha, max atom move = 0 0
  Iterations, force evaluations = 1 142

Pair  time (%) = 0.0021464 (73.5594)
Neigh time (%) = 0 (0)
Comm  time (%) = 0.00016749 (5.74007)
Outpt time (%) = 9.01334e-06 (0.308897)
Other time (%) = 0.000595009 (20.3916)

Nlocal:    82 ave 82 max 82 min
Histogram: 1 0 0 0 0 0 0 0 0 0
Nghost:    185 ave 185 max 185 min
Histogram: 1 0 0 0 0 0 0 0 0 0
Neighs:    718 ave 718 max 718 min
Histogram: 1 0 0 0 0 0 0 0 0 0

Total # of neighbors = 718
Ave neighs/atom = 8.7561
Neighbor list builds = 0
Dangerous builds = 0
        # write_dump all atom ${dumpfile}
        next i
jump SELF loop1
        displace_atoms upper move ${xstep1} 0.0 0.0 units lattice
        displace_atoms upper move 0.002 0.0 0.0 units lattice
        min_style ${style}
        min_style hftn
        minimize ${etol} ${ftol} ${maxiter} ${maxeval}
        minimize 1e-12 ${ftol} ${maxiter} ${maxeval}
        minimize 1e-12 1e-08 ${maxiter} ${maxeval}
        minimize 1e-12 1e-08 10000 ${maxeval}
        minimize 1e-12 1e-08 10000 20000
WARNING: Resetting reneighboring criteria during minimization (../min.cpp:168)
Memory usage per processor = 4.85169 Mbytes
Step Temp PotEng Lx Ly Lz 
      99            0    -241.9777    2.2449075    38.892043    1.1224537 
     100            0    -241.9777    2.2449075    38.892043    1.1224537 
     101            0    -241.9777    2.2449075    38.892043    1.1224537 
Loop time of 0.00316706 on 1 procs for 1 steps with 82 atoms

Minimization stats:
  Stopping criterion = force tolerance
  Energy initial, next-to-last, final = 
        -241.977695889     -241.977695889     -241.977696763
  Force two-norm initial, final = 0.0120873 8.16368e-11
  Force max component initial, final = 0.00604366 3.52019e-11
  Final line search alpha, max atom move = 0 0
  Iterations, force evaluations = 1 148

Pair  time (%) = 0.00231948 (73.2377)
Neigh time (%) = 0 (0)
Comm  time (%) = 0.000190343 (6.0101)
Outpt time (%) = 8.99832e-06 (0.284122)
Other time (%) = 0.000648238 (20.4681)

Nlocal:    82 ave 82 max 82 min
Histogram: 1 0 0 0 0 0 0 0 0 0
Nghost:    185 ave 185 max 185 min
Histogram: 1 0 0 0 0 0 0 0 0 0
Neighs:    718 ave 718 max 718 min
Histogram: 1 0 0 0 0 0 0 0 0 0

Total # of neighbors = 718
Ave neighs/atom = 8.7561
Neighbor list builds = 0
Dangerous builds = 0
        # write_dump all atom ${dumpfile}
        next i
jump SELF loop1
        displace_atoms upper move ${xstep1} 0.0 0.0 units lattice
        displace_atoms upper move 0.002 0.0 0.0 units lattice
        min_style ${style}
        min_style hftn
        minimize ${etol} ${ftol} ${maxiter} ${maxeval}
        minimize 1e-12 ${ftol} ${maxiter} ${maxeval}
        minimize 1e-12 1e-08 ${maxiter} ${maxeval}
        minimize 1e-12 1e-08 10000 ${maxeval}
        minimize 1e-12 1e-08 10000 20000
WARNING: Resetting reneighboring criteria during minimization (../min.cpp:168)
Memory usage per processor = 4.85169 Mbytes
Step Temp PotEng Lx Ly Lz 
     101            0   -241.97565    2.2449075     38.89221    1.1224537 
     102            0   -241.97566    2.2449075     38.89221    1.1224537 
     103            0   -241.97566    2.2449075     38.89221    1.1224537 
Loop time of 0.00322205 on 1 procs for 1 steps with 82 atoms

Minimization stats:
  Stopping criterion = force tolerance
  Energy initial, next-to-last, final = 
         -241.97565322      -241.97565322     -241.975655845
  Force two-norm initial, final = 0.0129977 1.67352e-10
  Force max component initial, final = 0.00649885 4.39055e-11
  Final line search alpha, max atom move = 0 0
  Iterations, force evaluations = 1 146

Pair  time (%) = 0.00236307 (73.3407)
Neigh time (%) = 0 (0)
Comm  time (%) = 0.000196848 (6.10941)
Outpt time (%) = 1.00859e-05 (0.313027)
Other time (%) = 0.000652043 (20.2369)

Nlocal:    82 ave 82 max 82 min
Histogram: 1 0 0 0 0 0 0 0 0 0
Nghost:    185 ave 185 max 185 min
Histogram: 1 0 0 0 0 0 0 0 0 0
Neighs:    718 ave 718 max 718 min
Histogram: 1 0 0 0 0 0 0 0 0 0

Total # of neighbors = 718
Ave neighs/atom = 8.7561
Neighbor list builds = 0
Dangerous builds = 0
        # write_dump all atom ${dumpfile}
        next i
jump SELF loop1
        displace_atoms upper move ${xstep1} 0.0 0.0 units lattice
        displace_atoms upper move 0.002 0.0 0.0 units lattice
        min_style ${style}
        min_style hftn
        minimize ${etol} ${ftol} ${maxiter} ${maxeval}
        minimize 1e-12 ${ftol} ${maxiter} ${maxeval}
        minimize 1e-12 1e-08 ${maxiter} ${maxeval}
        minimize 1e-12 1e-08 10000 ${maxeval}
        minimize 1e-12 1e-08 10000 20000
WARNING: Resetting reneighboring criteria during minimization (../min.cpp:168)
Memory usage per processor = 4.85169 Mbytes
Step Temp PotEng Lx Ly Lz 
     103            0   -241.97352    2.2449075    38.892388    1.1224537 
     104            0   -241.97352    2.2449075    38.892388    1.1224537 
     105            0   -241.97352    2.2449075    38.892388    1.1224537 
Loop time of 0.00344395 on 1 procs for 1 steps with 82 atoms

Minimization stats:
  Stopping criterion = force tolerance
  Energy initial, next-to-last, final = 
         -241.97352416      -241.97352416     -241.973524719
  Force two-norm initial, final = 0.0139708 1.48074e-10
  Force max component initial, final = 0.00698541 7.24718e-11
  Final line search alpha, max atom move = 0 0
  Iterations, force evaluations = 1 146

Pair  time (%) = 0.0024663 (71.6124)
Neigh time (%) = 0 (0)
Comm  time (%) = 0.000215332 (6.25247)
Outpt time (%) = 1.40482e-05 (0.407909)
Other time (%) = 0.000748276 (21.7272)

Nlocal:    82 ave 82 max 82 min
Histogram: 1 0 0 0 0 0 0 0 0 0
Nghost:    185 ave 185 max 185 min
Histogram: 1 0 0 0 0 0 0 0 0 0
Neighs:    718 ave 718 max 718 min
Histogram: 1 0 0 0 0 0 0 0 0 0

Total # of neighbors = 718
Ave neighs/atom = 8.7561
Neighbor list builds = 0
Dangerous builds = 0
        # write_dump all atom ${dumpfile}
        next i
jump SELF loop1
        displace_atoms upper move ${xstep1} 0.0 0.0 units lattice
        displace_atoms upper move 0.002 0.0 0.0 units lattice
        min_style ${style}
        min_style hftn
        minimize ${etol} ${ftol} ${maxiter} ${maxeval}
        minimize 1e-12 ${ftol} ${maxiter} ${maxeval}
        minimize 1e-12 1e-08 ${maxiter} ${maxeval}
        minimize 1e-12 1e-08 10000 ${maxeval}
        minimize 1e-12 1e-08 10000 20000
WARNING: Resetting reneighboring criteria during minimization (../min.cpp:168)
Memory usage per processor = 4.85169 Mbytes
Step Temp PotEng Lx Ly Lz 
     105            0   -241.97131    2.2449075     38.89258    1.1224537 
     106            0   -241.97132    2.2449075     38.89258    1.1224537 
     107            0   -241.97132    2.2449075     38.89258    1.1224537 
Loop time of 0.00326002 on 1 procs for 1 steps with 82 atoms

Minimization stats:
  Stopping criterion = force tolerance
  Energy initial, next-to-last, final = 
        -241.971313122     -241.971313122     -241.971315247
  Force two-norm initial, final = 0.0148512 1.89751e-10
  Force max component initial, final = 0.00742562 6.01945e-11
  Final line search alpha, max atom move = 0 0
  Iterations, force evaluations = 1 146

Pair  time (%) = 0.00238456 (73.1455)
Neigh time (%) = 0 (0)
Comm  time (%) = 0.000207309 (6.35915)
Outpt time (%) = 8.90135e-06 (0.273046)
Other time (%) = 0.000659249 (20.2223)

Nlocal:    82 ave 82 max 82 min
Histogram: 1 0 0 0 0 0 0 0 0 0
Nghost:    185 ave 185 max 185 min
Histogram: 1 0 0 0 0 0 0 0 0 0
Neighs:    718 ave 718 max 718 min
Histogram: 1 0 0 0 0 0 0 0 0 0

Total # of neighbors = 718
Ave neighs/atom = 8.7561
Neighbor list builds = 0
Dangerous builds = 0
        # write_dump all atom ${dumpfile}
        next i
jump SELF loop1
        displace_atoms upper move ${xstep1} 0.0 0.0 units lattice
        displace_atoms upper move 0.002 0.0 0.0 units lattice
        min_style ${style}
        min_style hftn
        minimize ${etol} ${ftol} ${maxiter} ${maxeval}
        minimize 1e-12 ${ftol} ${maxiter} ${maxeval}
        minimize 1e-12 1e-08 ${maxiter} ${maxeval}
        minimize 1e-12 1e-08 10000 ${maxeval}
        minimize 1e-12 1e-08 10000 20000
WARNING: Resetting reneighboring criteria during minimization (../min.cpp:168)
Memory usage per processor = 4.85169 Mbytes
Step Temp PotEng Lx Ly Lz 
     107            0   -241.96902    2.2449075    38.892784    1.1224537 
     108            0   -241.96902    2.2449075    38.892784    1.1224537 
     109            0   -241.96902    2.2449075    38.892784    1.1224537 
Loop time of 0.0044701 on 1 procs for 1 steps with 82 atoms

Minimization stats:
  Stopping criterion = force tolerance
  Energy initial, next-to-last, final = 
        -241.969018269     -241.969018269     -241.969019984
  Force two-norm initial, final = 0.0157962 3.15672e-10
  Force max component initial, final = 0.00789808 1.45091e-10
  Final line search alpha, max atom move = 0 0
  Iterations, force evaluations = 1 144

Pair  time (%) = 0.00362533 (81.1017)
Neigh time (%) = 0 (0)
Comm  time (%) = 0.000172507 (3.85913)
Outpt time (%) = 1.10092e-05 (0.246284)
Other time (%) = 0.000661256 (14.7929)

Nlocal:    82 ave 82 max 82 min
Histogram: 1 0 0 0 0 0 0 0 0 0
Nghost:    175 ave 175 max 175 min
Histogram: 1 0 0 0 0 0 0 0 0 0
Neighs:    718 ave 718 max 718 min
Histogram: 1 0 0 0 0 0 0 0 0 0

Total # of neighbors = 718
Ave neighs/atom = 8.7561
Neighbor list builds = 0
Dangerous builds = 0
        # write_dump all atom ${dumpfile}
        next i
jump SELF loop1
        displace_atoms upper move ${xstep1} 0.0 0.0 units lattice
        displace_atoms upper move 0.002 0.0 0.0 units lattice
        min_style ${style}
        min_style hftn
        minimize ${etol} ${ftol} ${maxiter} ${maxeval}
        minimize 1e-12 ${ftol} ${maxiter} ${maxeval}
        minimize 1e-12 1e-08 ${maxiter} ${maxeval}
        minimize 1e-12 1e-08 10000 ${maxeval}
        minimize 1e-12 1e-08 10000 20000
WARNING: Resetting reneighboring criteria during minimization (../min.cpp:168)
Memory usage per processor = 4.85169 Mbytes
Step Temp PotEng Lx Ly Lz 
     109            0   -241.96664    2.2449075       38.893    1.1224537 
     110            0   -241.96664    2.2449075       38.893    1.1224537 
     111            0   -241.96664    2.2449075       38.893    1.1224537 
     112            0   -241.96664    2.2449075       38.893    1.1224537 
     113            0   -241.96664    2.2449075       38.893    1.1224537 
     114            0   -241.96664    2.2449075       38.893    1.1224537 
     115            0   -241.96664    2.2449075       38.893    1.1224537 
     116            0   -241.96664    2.2449075       38.893    1.1224537 
     117            0   -241.96664    2.2449075       38.893    1.1224537 
     118            0   -241.96664    2.2449075       38.893    1.1224537 
Loop time of 0.00256008 on 1 procs for 8 steps with 82 atoms

Minimization stats:
  Stopping criterion = energy tolerance
  Energy initial, next-to-last, final = 
        -241.966643125     -241.966643125     -241.966643125
  Force two-norm initial, final = 0.016682 0.0166817
  Force max component initial, final = 0.00834101 0.00834083
  Final line search alpha, max atom move = 0 0
  Iterations, force evaluations = 8 123

Pair  time (%) = 0.00189248 (73.9229)
Neigh time (%) = 0 (0)
Comm  time (%) = 0.000138314 (5.4027)
Outpt time (%) = 4.67524e-05 (1.82621)
Other time (%) = 0.00048253 (18.8482)

Nlocal:    82 ave 82 max 82 min
Histogram: 1 0 0 0 0 0 0 0 0 0
Nghost:    175 ave 175 max 175 min
Histogram: 1 0 0 0 0 0 0 0 0 0
Neighs:    718 ave 718 max 718 min
Histogram: 1 0 0 0 0 0 0 0 0 0

Total # of neighbors = 718
Ave neighs/atom = 8.7561
Neighbor list builds = 0
Dangerous builds = 0
        # write_dump all atom ${dumpfile}
        next i
jump SELF loop1
        displace_atoms upper move ${xstep1} 0.0 0.0 units lattice
        displace_atoms upper move 0.002 0.0 0.0 units lattice
        min_style ${style}
        min_style hftn
        minimize ${etol} ${ftol} ${maxiter} ${maxeval}
        minimize 1e-12 ${ftol} ${maxiter} ${maxeval}
        minimize 1e-12 1e-08 ${maxiter} ${maxeval}
        minimize 1e-12 1e-08 10000 ${maxeval}
        minimize 1e-12 1e-08 10000 20000
WARNING: Resetting reneighboring criteria during minimization (../min.cpp:168)
Memory usage per processor = 4.85169 Mbytes
Step Temp PotEng Lx Ly Lz 
     118            0   -241.96418    2.2449075       38.893    1.1224537 
     119            0   -241.96419    2.2449075       38.893    1.1224537 
     120            0   -241.96419    2.2449075       38.893    1.1224537 
Loop time of 0.00325488 on 1 procs for 1 steps with 82 atoms

Minimization stats:
  Stopping criterion = force tolerance
  Energy initial, next-to-last, final = 
        -241.964177933     -241.964177933      -241.96418873
  Force two-norm initial, final = 0.0343486 5.09389e-09
  Force max component initial, final = 0.0171743 2.65579e-09
  Final line search alpha, max atom move = 0 0
  Iterations, force evaluations = 1 138

Pair  time (%) = 0.00241632 (74.2367)
Neigh time (%) = 0 (0)
Comm  time (%) = 0.000175122 (5.3803)
Outpt time (%) = 1.00867e-05 (0.309894)
Other time (%) = 0.000653355 (20.0731)

Nlocal:    82 ave 82 max 82 min
Histogram: 1 0 0 0 0 0 0 0 0 0
Nghost:    175 ave 175 max 175 min
Histogram: 1 0 0 0 0 0 0 0 0 0
Neighs:    718 ave 718 max 718 min
Histogram: 1 0 0 0 0 0 0 0 0 0

Total # of neighbors = 718
Ave neighs/atom = 8.7561
Neighbor list builds = 0
Dangerous builds = 0
        # write_dump all atom ${dumpfile}
        next i
jump SELF loop1
        displace_atoms upper move ${xstep1} 0.0 0.0 units lattice
        displace_atoms upper move 0.002 0.0 0.0 units lattice
        min_style ${style}
        min_style hftn
        minimize ${etol} ${ftol} ${maxiter} ${maxeval}
        minimize 1e-12 ${ftol} ${maxiter} ${maxeval}
        minimize 1e-12 1e-08 ${maxiter} ${maxeval}
        minimize 1e-12 1e-08 10000 ${maxeval}
        minimize 1e-12 1e-08 10000 20000
WARNING: Resetting reneighboring criteria during minimization (../min.cpp:168)
Memory usage per processor = 4.85169 Mbytes
Step Temp PotEng Lx Ly Lz 
     120            0   -241.96165    2.2449075    38.893469    1.1224537 
     121            0   -241.96165    2.2449075    38.893469    1.1224537 
     122            0   -241.96165    2.2449075    38.893469    1.1224537 
Loop time of 0.00340412 on 1 procs for 1 steps with 82 atoms

Minimization stats:
  Stopping criterion = force tolerance
  Energy initial, next-to-last, final = 
        -241.961647252     -241.961647252     -241.961649887
  Force two-norm initial, final = 0.0185072 5.58956e-10
  Force max component initial, final = 0.00925358 2.82611e-10
  Final line search alpha, max atom move = 0 0
  Iterations, force evaluations = 1 142

Pair  time (%) = 0.00248724 (73.0656)
Neigh time (%) = 0 (0)
Comm  time (%) = 0.000179957 (5.28645)
Outpt time (%) = 1.00652e-05 (0.295676)
Other time (%) = 0.000726858 (21.3523)

Nlocal:    82 ave 82 max 82 min
Histogram: 1 0 0 0 0 0 0 0 0 0
Nghost:    175 ave 175 max 175 min
Histogram: 1 0 0 0 0 0 0 0 0 0
Neighs:    718 ave 718 max 718 min
Histogram: 1 0 0 0 0 0 0 0 0 0

Total # of neighbors = 718
Ave neighs/atom = 8.7561
Neighbor list builds = 0
Dangerous builds = 0
        # write_dump all atom ${dumpfile}
        next i
jump SELF loop1
        displace_atoms upper move ${xstep1} 0.0 0.0 units lattice
        displace_atoms upper move 0.002 0.0 0.0 units lattice
        min_style ${style}
        min_style hftn
        minimize ${etol} ${ftol} ${maxiter} ${maxeval}
        minimize 1e-12 ${ftol} ${maxiter} ${maxeval}
        minimize 1e-12 1e-08 ${maxiter} ${maxeval}
        minimize 1e-12 1e-08 10000 ${maxeval}
        minimize 1e-12 1e-08 10000 20000
WARNING: Resetting reneighboring criteria during minimization (../min.cpp:168)
Memory usage per processor = 4.85169 Mbytes
Step Temp PotEng Lx Ly Lz 
     122            0   -241.95903    2.2449075    38.893721    1.1224537 
     123            0   -241.95903    2.2449075    38.893721    1.1224537 
     124            0   -241.95903    2.2449075    38.893721    1.1224537 
Loop time of 0.00838096 on 1 procs for 1 steps with 82 atoms

Minimization stats:
  Stopping criterion = force tolerance
  Energy initial, next-to-last, final = 
        -241.959033156     -241.959033156     -241.959034267
  Force two-norm initial, final = 0.019342 6.09367e-10
  Force max component initial, final = 0.00967101 3.05315e-10
  Final line search alpha, max atom move = 0 0
  Iterations, force evaluations = 1 142

Pair  time (%) = 0.00232156 (27.7004)
Neigh time (%) = 0 (0)
Comm  time (%) = 0.000187684 (2.23941)
Outpt time (%) = 1.10288e-05 (0.131594)
Other time (%) = 0.00586069 (69.9286)

Nlocal:    82 ave 82 max 82 min
Histogram: 1 0 0 0 0 0 0 0 0 0
Nghost:    175 ave 175 max 175 min
Histogram: 1 0 0 0 0 0 0 0 0 0
Neighs:    718 ave 718 max 718 min
Histogram: 1 0 0 0 0 0 0 0 0 0

Total # of neighbors = 718
Ave neighs/atom = 8.7561
Neighbor list builds = 0
Dangerous builds = 0
        # write_dump all atom ${dumpfile}
        next i
jump SELF loop1
        displace_atoms upper move ${xstep1} 0.0 0.0 units lattice
        displace_atoms upper move 0.002 0.0 0.0 units lattice
        min_style ${style}
        min_style hftn
        minimize ${etol} ${ftol} ${maxiter} ${maxeval}
        minimize 1e-12 ${ftol} ${maxiter} ${maxeval}
        minimize 1e-12 1e-08 ${maxiter} ${maxeval}
        minimize 1e-12 1e-08 10000 ${maxeval}
        minimize 1e-12 1e-08 10000 20000
WARNING: Resetting reneighboring criteria during minimization (../min.cpp:168)
Memory usage per processor = 4.85169 Mbytes
Step Temp PotEng Lx Ly Lz 
     124            0   -241.95634    2.2449075    38.893985    1.1224537 
     125            0   -241.95634    2.2449075    38.893985    1.1224537 
     126            0   -241.95634    2.2449075    38.893985    1.1224537 
Loop time of 0.00288611 on 1 procs for 1 steps with 82 atoms

Minimization stats:
  Stopping criterion = force tolerance
  Energy initial, next-to-last, final = 
        -241.956338862     -241.956338862     -241.956341092
  Force two-norm initial, final = 0.0202181 7.09474e-10
  Force max component initial, final = 0.0101091 2.78911e-10
  Final line search alpha, max atom move = 0 0
  Iterations, force evaluations = 1 142

Pair  time (%) = 0.0021143 (73.2577)
Neigh time (%) = 0 (0)
Comm  time (%) = 0.000164473 (5.69878)
Outpt time (%) = 1.09895e-05 (0.380772)
Other time (%) = 0.000596348 (20.6627)

Nlocal:    82 ave 82 max 82 min
Histogram: 1 0 0 0 0 0 0 0 0 0
Nghost:    175 ave 175 max 175 min
Histogram: 1 0 0 0 0 0 0 0 0 0
Neighs:    718 ave 718 max 718 min
Histogram: 1 0 0 0 0 0 0 0 0 0

Total # of neighbors = 718
Ave neighs/atom = 8.7561
Neighbor list builds = 0
Dangerous builds = 0
        # write_dump all atom ${dumpfile}
        next i
jump SELF loop1
        displace_atoms upper move ${xstep1} 0.0 0.0 units lattice
        displace_atoms upper move 0.002 0.0 0.0 units lattice
        min_style ${style}
        min_style hftn
        minimize ${etol} ${ftol} ${maxiter} ${maxeval}
        minimize 1e-12 ${ftol} ${maxiter} ${maxeval}
        minimize 1e-12 1e-08 ${maxiter} ${maxeval}
        minimize 1e-12 1e-08 10000 ${maxeval}
        minimize 1e-12 1e-08 10000 20000
WARNING: Resetting reneighboring criteria during minimization (../min.cpp:168)
Memory usage per processor = 4.85169 Mbytes
Step Temp PotEng Lx Ly Lz 
     126            0   -241.95357    2.2449075    38.894261    1.1224537 
     127            0   -241.95357    2.2449075    38.894261    1.1224537 
     128            0   -241.95357    2.2449075    38.894261    1.1224537 
Loop time of 0.00376309 on 1 procs for 1 steps with 82 atoms

Minimization stats:
  Stopping criterion = force tolerance
  Energy initial, next-to-last, final = 
        -241.953567146     -241.953567146     -241.953573364
  Force two-norm initial, final = 0.021092 7.12198e-10
  Force max component initial, final = 0.010546 3.53527e-10
  Final line search alpha, max atom move = 0 0
  Iterations, force evaluations = 1 142

Pair  time (%) = 0.00229391 (60.9581)
Neigh time (%) = 0 (0)
Comm  time (%) = 0.000770049 (20.4632)
Outpt time (%) = 1.09775e-05 (0.291715)
Other time (%) = 0.000688154 (18.287)

Nlocal:    82 ave 82 max 82 min
Histogram: 1 0 0 0 0 0 0 0 0 0
Nghost:    175 ave 175 max 175 min
Histogram: 1 0 0 0 0 0 0 0 0 0
Neighs:    718 ave 718 max 718 min
Histogram: 1 0 0 0 0 0 0 0 0 0

Total # of neighbors = 718
Ave neighs/atom = 8.7561
Neighbor list builds = 0
Dangerous builds = 0
        # write_dump all atom ${dumpfile}
        next i
jump SELF loop1
        displace_atoms upper move ${xstep1} 0.0 0.0 units lattice
        displace_atoms upper move 0.002 0.0 0.0 units lattice
        min_style ${style}
        min_style hftn
        minimize ${etol} ${ftol} ${maxiter} ${maxeval}
        minimize 1e-12 ${ftol} ${maxiter} ${maxeval}
        minimize 1e-12 1e-08 ${maxiter} ${maxeval}
        minimize 1e-12 1e-08 10000 ${maxeval}
        minimize 1e-12 1e-08 10000 20000
WARNING: Resetting reneighboring criteria during minimization (../min.cpp:168)
Memory usage per processor = 4.85169 Mbytes
Step Temp PotEng Lx Ly Lz 
     128            0   -241.95072    2.2449075    38.894548    1.1224537 
     129            0   -241.95073    2.2449075    38.894548    1.1224537 
     130            0   -241.95073    2.2449075    38.894548    1.1224537 
Loop time of 0.00353599 on 1 procs for 1 steps with 82 atoms

Minimization stats:
  Stopping criterion = force tolerance
  Energy initial, next-to-last, final = 
        -241.950721684     -241.950721684     -241.950725335
  Force two-norm initial, final = 0.0219605 7.87875e-10
  Force max component initial, final = 0.0109802 4.03929e-10
  Final line search alpha, max atom move = 0 0
  Iterations, force evaluations = 1 142

Pair  time (%) = 0.00213175 (60.2874)
Neigh time (%) = 0 (0)
Comm  time (%) = 0.000184869 (5.22822)
Outpt time (%) = 1.09081e-05 (0.308489)
Other time (%) = 0.00120846 (34.1759)

Nlocal:    82 ave 82 max 82 min
Histogram: 1 0 0 0 0 0 0 0 0 0
Nghost:    175 ave 175 max 175 min
Histogram: 1 0 0 0 0 0 0 0 0 0
Neighs:    718 ave 718 max 718 min
Histogram: 1 0 0 0 0 0 0 0 0 0

Total # of neighbors = 718
Ave neighs/atom = 8.7561
Neighbor list builds = 0
Dangerous builds = 0
        # write_dump all atom ${dumpfile}
        next i
jump SELF loop1
        displace_atoms upper move ${xstep1} 0.0 0.0 units lattice
        displace_atoms upper move 0.002 0.0 0.0 units lattice
        min_style ${style}
        min_style hftn
        minimize ${etol} ${ftol} ${maxiter} ${maxeval}
        minimize 1e-12 ${ftol} ${maxiter} ${maxeval}
        minimize 1e-12 1e-08 ${maxiter} ${maxeval}
        minimize 1e-12 1e-08 10000 ${maxeval}
        minimize 1e-12 1e-08 10000 20000
WARNING: Resetting reneighboring criteria during minimization (../min.cpp:168)
Memory usage per processor = 4.85169 Mbytes
Step Temp PotEng Lx Ly Lz 
     130            0    -241.9478    2.2449075    38.894846    1.1224537 
     131            0    -241.9478    2.2449075    38.894846    1.1224537 
     132            0    -241.9478    2.2449075    38.894846    1.1224537 
Loop time of 0.00326396 on 1 procs for 1 steps with 82 atoms

Minimization stats:
  Stopping criterion = force tolerance
  Energy initial, next-to-last, final = 
        -241.947803294     -241.947803294     -241.947804559
  Force two-norm initial, final = 0.0227462 8.32446e-10
  Force max component initial, final = 0.0113731 3.87592e-10
  Final line search alpha, max atom move = 0 0
  Iterations, force evaluations = 1 142

Pair  time (%) = 0.00238293 (73.0074)
Neigh time (%) = 0 (0)
Comm  time (%) = 0.00020852 (6.38856)
Outpt time (%) = 9.99041e-06 (0.306083)
Other time (%) = 0.000662517 (20.298)

Nlocal:    82 ave 82 max 82 min
Histogram: 1 0 0 0 0 0 0 0 0 0
Nghost:    175 ave 175 max 175 min
Histogram: 1 0 0 0 0 0 0 0 0 0
Neighs:    718 ave 718 max 718 min
Histogram: 1 0 0 0 0 0 0 0 0 0

Total # of neighbors = 718
Ave neighs/atom = 8.7561
Neighbor list builds = 0
Dangerous builds = 0
        # write_dump all atom ${dumpfile}
        next i
jump SELF loop1
        displace_atoms upper move ${xstep1} 0.0 0.0 units lattice
        displace_atoms upper move 0.002 0.0 0.0 units lattice
        min_style ${style}
        min_style hftn
        minimize ${etol} ${ftol} ${maxiter} ${maxeval}
        minimize 1e-12 ${ftol} ${maxiter} ${maxeval}
        minimize 1e-12 1e-08 ${maxiter} ${maxeval}
        minimize 1e-12 1e-08 10000 ${maxeval}
        minimize 1e-12 1e-08 10000 20000
WARNING: Resetting reneighboring criteria during minimization (../min.cpp:168)
Memory usage per processor = 4.85169 Mbytes
Step Temp PotEng Lx Ly Lz 
     132            0   -241.94481    2.2449075    38.895155    1.1224537 
     133            0   -241.94481    2.2449075    38.895155    1.1224537 
     134            0   -241.94481    2.2449075    38.895155    1.1224537 
Loop time of 0.00298992 on 1 procs for 1 steps with 82 atoms

Minimization stats:
  Stopping criterion = force tolerance
  Energy initial, next-to-last, final = 
        -241.944809826     -241.944809826      -241.94481208
  Force two-norm initial, final = 0.0235626 1.62084e-09
  Force max component initial, final = 0.0117813 6.93875e-10
  Final line search alpha, max atom move = 0 0
  Iterations, force evaluations = 1 140

Pair  time (%) = 0.00220501 (73.7482)
Neigh time (%) = 0 (0)
Comm  time (%) = 0.000169117 (5.65626)
Outpt time (%) = 9.11241e-06 (0.304771)
Other time (%) = 0.000606676 (20.2907)

Nlocal:    82 ave 82 max 82 min
Histogram: 1 0 0 0 0 0 0 0 0 0
Nghost:    175 ave 175 max 175 min
Histogram: 1 0 0 0 0 0 0 0 0 0
Neighs:    718 ave 718 max 718 min
Histogram: 1 0 0 0 0 0 0 0 0 0

Total # of neighbors = 718
Ave neighs/atom = 8.7561
Neighbor list builds = 0
Dangerous builds = 0
        # write_dump all atom ${dumpfile}
        next i
jump SELF loop1
        displace_atoms upper move ${xstep1} 0.0 0.0 units lattice
        displace_atoms upper move 0.002 0.0 0.0 units lattice
        min_style ${style}
        min_style hftn
        minimize ${etol} ${ftol} ${maxiter} ${maxeval}
        minimize 1e-12 ${ftol} ${maxiter} ${maxeval}
        minimize 1e-12 1e-08 ${maxiter} ${maxeval}
        minimize 1e-12 1e-08 10000 ${maxeval}
        minimize 1e-12 1e-08 10000 20000
WARNING: Resetting reneighboring criteria during minimization (../min.cpp:168)
Memory usage per processor = 4.85169 Mbytes
Step Temp PotEng Lx Ly Lz 
     134            0   -241.94174    2.2449075    38.895475    1.1224537 
     135            0   -241.94175    2.2449075    38.895475    1.1224537 
     136            0   -241.94175    2.2449075    38.895475    1.1224537 
Loop time of 0.00391599 on 1 procs for 1 steps with 82 atoms

Minimization stats:
  Stopping criterion = force tolerance
  Energy initial, next-to-last, final = 
        -241.941743941     -241.941743941     -241.941746888
  Force two-norm initial, final = 0.0243865 1.51382e-09
  Force max component initial, final = 0.0121933 7.85338e-10
  Final line search alpha, max atom move = 0 0
  Iterations, force evaluations = 1 140

Pair  time (%) = 0.00280595 (71.6536)
Neigh time (%) = 0 (0)
Comm  time (%) = 0.000350568 (8.95222)
Outpt time (%) = 1.10707e-05 (0.282706)
Other time (%) = 0.000748405 (19.1115)

Nlocal:    82 ave 82 max 82 min
Histogram: 1 0 0 0 0 0 0 0 0 0
Nghost:    175 ave 175 max 175 min
Histogram: 1 0 0 0 0 0 0 0 0 0
Neighs:    718 ave 718 max 718 min
Histogram: 1 0 0 0 0 0 0 0 0 0

Total # of neighbors = 718
Ave neighs/atom = 8.7561
Neighbor list builds = 0
Dangerous builds = 0
        # write_dump all atom ${dumpfile}
        next i
jump SELF loop1
        displace_atoms upper move ${xstep1} 0.0 0.0 units lattice
        displace_atoms upper move 0.002 0.0 0.0 units lattice
        min_style ${style}
        min_style hftn
        minimize ${etol} ${ftol} ${maxiter} ${maxeval}
        minimize 1e-12 ${ftol} ${maxiter} ${maxeval}
        minimize 1e-12 1e-08 ${maxiter} ${maxeval}
        minimize 1e-12 1e-08 10000 ${maxeval}
        minimize 1e-12 1e-08 10000 20000
WARNING: Resetting reneighboring criteria during minimization (../min.cpp:168)
Memory usage per processor = 4.85169 Mbytes
Step Temp PotEng Lx Ly Lz 
     136            0   -241.93861    2.2449075    38.895806    1.1224537 
     137            0   -241.93861    2.2449075    38.895806    1.1224537 
     138            0   -241.93861    2.2449075    38.895806    1.1224537 
Loop time of 0.00880409 on 1 procs for 1 steps with 82 atoms

Minimization stats:
  Stopping criterion = force tolerance
  Energy initial, next-to-last, final = 
        -241.938606516     -241.938606516     -241.938612516
  Force two-norm initial, final = 0.0252002 1.61659e-09
  Force max component initial, final = 0.0126001 8.58951e-10
  Final line search alpha, max atom move = 0 0
  Iterations, force evaluations = 1 140

Pair  time (%) = 0.00262986 (29.871)
Neigh time (%) = 0 (0)
Comm  time (%) = 0.000407837 (4.63236)
Outpt time (%) = 2.10411e-05 (0.238993)
Other time (%) = 0.00574534 (65.2577)

Nlocal:    82 ave 82 max 82 min
Histogram: 1 0 0 0 0 0 0 0 0 0
Nghost:    175 ave 175 max 175 min
Histogram: 1 0 0 0 0 0 0 0 0 0
Neighs:    718 ave 718 max 718 min
Histogram: 1 0 0 0 0 0 0 0 0 0

Total # of neighbors = 718
Ave neighs/atom = 8.7561
Neighbor list builds = 0
Dangerous builds = 0
        # write_dump all atom ${dumpfile}
        next i
jump SELF loop1
        displace_atoms upper move ${xstep1} 0.0 0.0 units lattice
        displace_atoms upper move 0.002 0.0 0.0 units lattice
        min_style ${style}
        min_style hftn
        minimize ${etol} ${ftol} ${maxiter} ${maxeval}
        minimize 1e-12 ${ftol} ${maxiter} ${maxeval}
        minimize 1e-12 1e-08 ${maxiter} ${maxeval}
        minimize 1e-12 1e-08 10000 ${maxeval}
        minimize 1e-12 1e-08 10000 20000
WARNING: Resetting reneighboring criteria during minimization (../min.cpp:168)
Memory usage per processor = 4.85169 Mbytes
Step Temp PotEng Lx Ly Lz 
     138            0    -241.9354    2.2449075    38.896147    1.1224537 
     139            0   -241.93541    2.2449075    38.896147    1.1224537 
     140            0   -241.93541    2.2449075    38.896147    1.1224537 
Loop time of 0.00324596 on 1 procs for 1 steps with 82 atoms

Minimization stats:
  Stopping criterion = force tolerance
  Energy initial, next-to-last, final = 
        -241.935400782     -241.935400782     -241.935408703
  Force two-norm initial, final = 0.0260063 1.71185e-09
  Force max component initial, final = 0.0130032 8.79913e-10
  Final line search alpha, max atom move = 0 0
  Iterations, force evaluations = 1 140

Pair  time (%) = 0.00231687 (71.3771)
Neigh time (%) = 0 (0)
Comm  time (%) = 0.000172802 (5.3236)
Outpt time (%) = 3.91051e-05 (1.20473)
Other time (%) = 0.000717181 (22.0946)

Nlocal:    82 ave 82 max 82 min
Histogram: 1 0 0 0 0 0 0 0 0 0
Nghost:    175 ave 175 max 175 min
Histogram: 1 0 0 0 0 0 0 0 0 0
Neighs:    718 ave 718 max 718 min
Histogram: 1 0 0 0 0 0 0 0 0 0

Total # of neighbors = 718
Ave neighs/atom = 8.7561
Neighbor list builds = 0
Dangerous builds = 0
        # write_dump all atom ${dumpfile}
        next i
jump SELF loop1
        displace_atoms upper move ${xstep1} 0.0 0.0 units lattice
        displace_atoms upper move 0.002 0.0 0.0 units lattice
        min_style ${style}
        min_style hftn
        minimize ${etol} ${ftol} ${maxiter} ${maxeval}
        minimize 1e-12 ${ftol} ${maxiter} ${maxeval}
        minimize 1e-12 1e-08 ${maxiter} ${maxeval}
        minimize 1e-12 1e-08 10000 ${maxeval}
        minimize 1e-12 1e-08 10000 20000
WARNING: Resetting reneighboring criteria during minimization (../min.cpp:168)
Memory usage per processor = 4.85169 Mbytes
Step Temp PotEng Lx Ly Lz 
     140            0   -241.93213    2.2449075    38.896498    1.1224537 
     141            0   -241.93213    2.2449075    38.896498    1.1224537 
     142            0   -241.93213    2.2449075    38.896498    1.1224537 
Loop time of 0.00416789 on 1 procs for 1 steps with 82 atoms

Minimization stats:
  Stopping criterion = force tolerance
  Energy initial, next-to-last, final = 
        -241.932128086     -241.932128086     -241.932134738
  Force two-norm initial, final = 0.0267848 1.79411e-09
  Force max component initial, final = 0.0133924 9.12306e-10
  Final line search alpha, max atom move = 0 0
  Iterations, force evaluations = 1 140

Pair  time (%) = 0.00317631 (76.2092)
Neigh time (%) = 0 (0)
Comm  time (%) = 0.00023935 (5.74272)
Outpt time (%) = 4.91088e-05 (1.17826)
Other time (%) = 0.000703118 (16.8699)

Nlocal:    82 ave 82 max 82 min
Histogram: 1 0 0 0 0 0 0 0 0 0
Nghost:    175 ave 175 max 175 min
Histogram: 1 0 0 0 0 0 0 0 0 0
Neighs:    718 ave 718 max 718 min
Histogram: 1 0 0 0 0 0 0 0 0 0

Total # of neighbors = 718
Ave neighs/atom = 8.7561
Neighbor list builds = 0
Dangerous builds = 0
        # write_dump all atom ${dumpfile}
        next i
jump SELF loop1
        displace_atoms upper move ${xstep1} 0.0 0.0 units lattice
        displace_atoms upper move 0.002 0.0 0.0 units lattice
        min_style ${style}
        min_style hftn
        minimize ${etol} ${ftol} ${maxiter} ${maxeval}
        minimize 1e-12 ${ftol} ${maxiter} ${maxeval}
        minimize 1e-12 1e-08 ${maxiter} ${maxeval}
        minimize 1e-12 1e-08 10000 ${maxeval}
        minimize 1e-12 1e-08 10000 20000
WARNING: Resetting reneighboring criteria during minimization (../min.cpp:168)
Memory usage per processor = 4.85169 Mbytes
Step Temp PotEng Lx Ly Lz 
     142            0   -241.92879    2.2449075     38.89686    1.1224537 
     143            0   -241.92879    2.2449075     38.89686    1.1224537 
     144            0   -241.92879    2.2449075     38.89686    1.1224537 
Loop time of 0.00281896 on 1 procs for 1 steps with 82 atoms

Minimization stats:
  Stopping criterion = force tolerance
  Energy initial, next-to-last, final = 
        -241.928787421     -241.928787421     -241.928794319
  Force two-norm initial, final = 0.0275414 1.93121e-09
  Force max component initial, final = 0.0137707 1.00448e-09
  Final line search alpha, max atom move = 0 0
  Iterations, force evaluations = 1 140

Pair  time (%) = 0.00205353 (72.8469)
Neigh time (%) = 0 (0)
Comm  time (%) = 0.000166546 (5.90807)
Outpt time (%) = 1.09088e-05 (0.38698)
Other time (%) = 0.000587981 (20.8581)

Nlocal:    82 ave 82 max 82 min
Histogram: 1 0 0 0 0 0 0 0 0 0
Nghost:    175 ave 175 max 175 min
Histogram: 1 0 0 0 0 0 0 0 0 0
Neighs:    718 ave 718 max 718 min
Histogram: 1 0 0 0 0 0 0 0 0 0

Total # of neighbors = 718
Ave neighs/atom = 8.7561
Neighbor list builds = 0
Dangerous builds = 0
        # write_dump all atom ${dumpfile}
        next i
jump SELF loop1
        displace_atoms upper move ${xstep1} 0.0 0.0 units lattice
        displace_atoms upper move 0.002 0.0 0.0 units lattice
        min_style ${style}
        min_style hftn
        minimize ${etol} ${ftol} ${maxiter} ${maxeval}
        minimize 1e-12 ${ftol} ${maxiter} ${maxeval}
        minimize 1e-12 1e-08 ${maxiter} ${maxeval}
        minimize 1e-12 1e-08 10000 ${maxeval}
        minimize 1e-12 1e-08 10000 20000
WARNING: Resetting reneighboring criteria during minimization (../min.cpp:168)
Memory usage per processor = 4.85169 Mbytes
Step Temp PotEng Lx Ly Lz 
     144            0   -241.92538    2.2449075    38.897231    1.1224537 
     145            0   -241.92539    2.2449075    38.897231    1.1224537 
     146            0   -241.92539    2.2449075    38.897231    1.1224537 
Loop time of 0.00282192 on 1 procs for 1 steps with 82 atoms

Minimization stats:
  Stopping criterion = force tolerance
  Energy initial, next-to-last, final = 
[...]
        next i
jump SELF loop1
        displace_atoms upper move ${xstep1} 0.0 0.0 units lattice
        displace_atoms upper move 0.002 0.0 0.0 units lattice
        min_style ${style}
        min_style hftn
        minimize ${etol} ${ftol} ${maxiter} ${maxeval}
        minimize 1e-12 ${ftol} ${maxiter} ${maxeval}
        minimize 1e-12 1e-08 ${maxiter} ${maxeval}
        minimize 1e-12 1e-08 10000 ${maxeval}
        minimize 1e-12 1e-08 10000 20000
WARNING: Resetting reneighboring criteria during minimization (../min.cpp:168)
Memory usage per processor = 4.85169 Mbytes
Step Temp PotEng Lx Ly Lz 
    2694            0   -241.99441    2.2449075    38.891144    1.1224537 
    2695            0   -241.99441    2.2449075    38.891144    1.1224537 
    2696            0   -241.99441    2.2449075    38.891144    1.1224537 
Loop time of 0.00260593 on 1 procs for 1 steps with 82 atoms

Minimization stats:
  Stopping criterion = force tolerance
  Energy initial, next-to-last, final = 
         -241.99441302      -241.99441302     -241.994413347
  Force two-norm initial, final = 0.00229653 4.43591e-09
  Force max component initial, final = 0.00114827 2.21481e-09
  Final line search alpha, max atom move = 0 0
  Iterations, force evaluations = 1 111

Pair  time (%) = 0.00190852 (73.2376)
Neigh time (%) = 0 (0)
Comm  time (%) = 0.000138051 (5.29759)
Outpt time (%) = 1.10611e-05 (0.424459)
Other time (%) = 0.000548296 (21.0403)

Nlocal:    82 ave 82 max 82 min
Histogram: 1 0 0 0 0 0 0 0 0 0
Nghost:    185 ave 185 max 185 min
Histogram: 1 0 0 0 0 0 0 0 0 0
Neighs:    718 ave 718 max 718 min
Histogram: 1 0 0 0 0 0 0 0 0 0

Total # of neighbors = 718
Ave neighs/atom = 8.7561
Neighbor list builds = 0
Dangerous builds = 0
        # write_dump all atom ${dumpfile}
        next i
jump SELF loop1
        displace_atoms upper move ${xstep1} 0.0 0.0 units lattice
        displace_atoms upper move 0.002 0.0 0.0 units lattice
        min_style ${style}
        min_style hftn
        minimize ${etol} ${ftol} ${maxiter} ${maxeval}
        minimize 1e-12 ${ftol} ${maxiter} ${maxeval}
        minimize 1e-12 1e-08 ${maxiter} ${maxeval}
        minimize 1e-12 1e-08 10000 ${maxeval}
        minimize 1e-12 1e-08 10000 20000
WARNING: Resetting reneighboring criteria during minimization (../min.cpp:168)
Memory usage per processor = 4.85169 Mbytes
Step Temp PotEng Lx Ly Lz 
    2696            0    -241.9954    2.2449075    38.891112    1.1224537 
    2697            0    -241.9954    2.2449075    38.891112    1.1224537 
    2698            0    -241.9954    2.2449075    38.891112    1.1224537 
Loop time of 0.0025829 on 1 procs for 1 steps with 82 atoms

Minimization stats:
  Stopping criterion = force tolerance
  Energy initial, next-to-last, final = 
        -241.995396906     -241.995396906     -241.995397187
  Force two-norm initial, final = 0.00130596 1.38312e-09
  Force max component initial, final = 0.000652981 6.84333e-10
  Final line search alpha, max atom move = 0 0
  Iterations, force evaluations = 1 111

Pair  time (%) = 0.00192932 (74.696)
Neigh time (%) = 0 (0)
Comm  time (%) = 0.000141748 (5.48793)
Outpt time (%) = 1.29679e-05 (0.502066)
Other time (%) = 0.000498861 (19.314)

Nlocal:    82 ave 82 max 82 min
Histogram: 1 0 0 0 0 0 0 0 0 0
Nghost:    185 ave 185 max 185 min
Histogram: 1 0 0 0 0 0 0 0 0 0
Neighs:    718 ave 718 max 718 min
Histogram: 1 0 0 0 0 0 0 0 0 0

Total # of neighbors = 718
Ave neighs/atom = 8.7561
Neighbor list builds = 0
Dangerous builds = 0
        # write_dump all atom ${dumpfile}
        next i
jump SELF loop1
        displace_atoms upper move ${xstep1} 0.0 0.0 units lattice
        displace_atoms upper move 0.002 0.0 0.0 units lattice
        min_style ${style}
        min_style hftn
        minimize ${etol} ${ftol} ${maxiter} ${maxeval}
        minimize 1e-12 ${ftol} ${maxiter} ${maxeval}
        minimize 1e-12 1e-08 ${maxiter} ${maxeval}
        minimize 1e-12 1e-08 10000 ${maxeval}
        minimize 1e-12 1e-08 10000 20000
WARNING: Resetting reneighboring criteria during minimization (../min.cpp:168)
Memory usage per processor = 4.85169 Mbytes
Step Temp PotEng Lx Ly Lz 
    2698            0   -241.99629    2.2449075    38.891093    1.1224537 
    2699            0   -241.99629    2.2449075    38.891093    1.1224537 
    2700            0   -241.99629    2.2449075    38.891093    1.1224537 
    2701            0   -241.99629    2.2449075    38.891093    1.1224537 
    2702            0   -241.99629    2.2449075    38.891093    1.1224537 
    2703            0   -241.99629    2.2449075    38.891093    1.1224537 
Loop time of 0.010713 on 1 procs for 4 steps with 82 atoms

Minimization stats:
  Stopping criterion = force tolerance
  Energy initial, next-to-last, final = 
        -241.996290827     -241.996281981     -241.996290826
  Force two-norm initial, final = 0.000310101 2.5416e-09
  Force max component initial, final = 0.000155051 1.17822e-09
  Final line search alpha, max atom move = 0 0
  Iterations, force evaluations = 4 281

Pair  time (%) = 0.00566486 (52.8782)
Neigh time (%) = 0 (0)
Comm  time (%) = 0.000407904 (3.80755)
Outpt time (%) = 0.000187166 (1.74708)
Other time (%) = 0.00445311 (41.5672)

Nlocal:    82 ave 82 max 82 min
Histogram: 1 0 0 0 0 0 0 0 0 0
Nghost:    185 ave 185 max 185 min
Histogram: 1 0 0 0 0 0 0 0 0 0
Neighs:    718 ave 718 max 718 min
Histogram: 1 0 0 0 0 0 0 0 0 0

Total # of neighbors = 718
Ave neighs/atom = 8.7561
Neighbor list builds = 0
Dangerous builds = 0
        # write_dump all atom ${dumpfile}
        next i
jump SELF loop1
        displace_atoms upper move ${xstep1} 0.0 0.0 units lattice
        displace_atoms upper move 0.002 0.0 0.0 units lattice
        min_style ${style}
        min_style hftn
        minimize ${etol} ${ftol} ${maxiter} ${maxeval}
        minimize 1e-12 ${ftol} ${maxiter} ${maxeval}
        minimize 1e-12 1e-08 ${maxiter} ${maxeval}
        minimize 1e-12 1e-08 10000 ${maxeval}
        minimize 1e-12 1e-08 10000 20000
WARNING: Resetting reneighboring criteria during minimization (../min.cpp:168)
Memory usage per processor = 4.85169 Mbytes
Step Temp PotEng Lx Ly Lz 
    2703            0   -241.99709    2.2449075    38.891089    1.1224537 
    2704            0   -241.99709    2.2449075    38.891089    1.1224537 
    2705            0   -241.99709    2.2449075    38.891089    1.1224537 
Loop time of 0.00331995 on 1 procs for 1 steps with 82 atoms

Minimization stats:
  Stopping criterion = force tolerance
  Energy initial, next-to-last, final = 
        -241.997090726     -241.997090726     -241.997090781
  Force two-norm initial, final = 0.000725885 3.90781e-10
  Force max component initial, final = 0.000362943 1.69254e-10
  Final line search alpha, max atom move = 0 0
  Iterations, force evaluations = 1 111

Pair  time (%) = 0.00254813 (76.7519)
Neigh time (%) = 0 (0)
Comm  time (%) = 0.000155577 (4.68613)
Outpt time (%) = 4.09328e-05 (1.23293)
Other time (%) = 0.000575315 (17.329)

Nlocal:    82 ave 82 max 82 min
Histogram: 1 0 0 0 0 0 0 0 0 0
Nghost:    185 ave 185 max 185 min
Histogram: 1 0 0 0 0 0 0 0 0 0
Neighs:    718 ave 718 max 718 min
Histogram: 1 0 0 0 0 0 0 0 0 0

Total # of neighbors = 718
Ave neighs/atom = 8.7561
Neighbor list builds = 0
Dangerous builds = 0
        # write_dump all atom ${dumpfile}
        next i
jump SELF loop1
        displace_atoms upper move ${xstep1} 0.0 0.0 units lattice
        displace_atoms upper move 0.002 0.0 0.0 units lattice
        min_style ${style}
        min_style hftn
        minimize ${etol} ${ftol} ${maxiter} ${maxeval}
        minimize 1e-12 ${ftol} ${maxiter} ${maxeval}
        minimize 1e-12 1e-08 ${maxiter} ${maxeval}
        minimize 1e-12 1e-08 10000 ${maxeval}
        minimize 1e-12 1e-08 10000 20000
WARNING: Resetting reneighboring criteria during minimization (../min.cpp:168)
Memory usage per processor = 4.85169 Mbytes
Step Temp PotEng Lx Ly Lz 
    2705            0    -241.9978    2.2449075    38.891099    1.1224537 
    2706            0    -241.9978    2.2449075    38.891099    1.1224537 
    2707            0    -241.9978    2.2449075    38.891099    1.1224537 
Loop time of 0.00261898 on 1 procs for 1 steps with 82 atoms

Minimization stats:
  Stopping criterion = force tolerance
  Energy initial, next-to-last, final = 
         -241.99780029      -241.99780029     -241.997800363
  Force two-norm initial, final = 0.00172616 2.4734e-09
  Force max component initial, final = 0.000863079 1.2325e-09
  Final line search alpha, max atom move = 0 0
  Iterations, force evaluations = 1 111

Pair  time (%) = 0.00188191 (71.8563)
Neigh time (%) = 0 (0)
Comm  time (%) = 0.000147606 (5.63601)
Outpt time (%) = 4.59674e-05 (1.75516)
Other time (%) = 0.000543506 (20.7526)

Nlocal:    82 ave 82 max 82 min
Histogram: 1 0 0 0 0 0 0 0 0 0
Nghost:    185 ave 185 max 185 min
Histogram: 1 0 0 0 0 0 0 0 0 0
Neighs:    718 ave 718 max 718 min
Histogram: 1 0 0 0 0 0 0 0 0 0

Total # of neighbors = 718
Ave neighs/atom = 8.7561
Neighbor list builds = 0
Dangerous builds = 0
        # write_dump all atom ${dumpfile}
        next i
jump SELF loop1
        displace_atoms upper move ${xstep1} 0.0 0.0 units lattice
        displace_atoms upper move 0.002 0.0 0.0 units lattice
        min_style ${style}
        min_style hftn
        minimize ${etol} ${ftol} ${maxiter} ${maxeval}
        minimize 1e-12 ${ftol} ${maxiter} ${maxeval}
        minimize 1e-12 1e-08 ${maxiter} ${maxeval}
        minimize 1e-12 1e-08 10000 ${maxeval}
        minimize 1e-12 1e-08 10000 20000
WARNING: Resetting reneighboring criteria during minimization (../min.cpp:168)
Memory usage per processor = 4.85169 Mbytes
Step Temp PotEng Lx Ly Lz 
    2707            0   -241.99842    2.2449075    38.891123    1.1224537 
    2708            0   -241.99842    2.2449075    38.891123    1.1224537 
    2709            0   -241.99842    2.2449075    38.891123    1.1224537 
Loop time of 0.00278795 on 1 procs for 1 steps with 82 atoms

Minimization stats:
  Stopping criterion = force tolerance
  Energy initial, next-to-last, final = 
        -241.998419516     -241.998419516     -241.998419655
  Force two-norm initial, final = 0.0027284 6.35066e-09
  Force max component initial, final = 0.0013642 3.17393e-09
  Final line search alpha, max atom move = 0 0
  Iterations, force evaluations = 1 111

Pair  time (%) = 0.00207644 (74.4789)
Neigh time (%) = 0 (0)
Comm  time (%) = 0.000151302 (5.42698)
Outpt time (%) = 3.49387e-05 (1.2532)
Other time (%) = 0.000525277 (18.841)

Nlocal:    82 ave 82 max 82 min
Histogram: 1 0 0 0 0 0 0 0 0 0
Nghost:    185 ave 185 max 185 min
Histogram: 1 0 0 0 0 0 0 0 0 0
Neighs:    718 ave 718 max 718 min
Histogram: 1 0 0 0 0 0 0 0 0 0

Total # of neighbors = 718
Ave neighs/atom = 8.7561
Neighbor list builds = 0
Dangerous builds = 0
        # write_dump all atom ${dumpfile}
        next i
jump SELF loop1
        displace_atoms upper move ${xstep1} 0.0 0.0 units lattice
        displace_atoms upper move 0.002 0.0 0.0 units lattice
        min_style ${style}
        min_style hftn
        minimize ${etol} ${ftol} ${maxiter} ${maxeval}
        minimize 1e-12 ${ftol} ${maxiter} ${maxeval}
        minimize 1e-12 1e-08 ${maxiter} ${maxeval}
        minimize 1e-12 1e-08 10000 ${maxeval}
        minimize 1e-12 1e-08 10000 20000
WARNING: Resetting reneighboring criteria during minimization (../min.cpp:168)
Memory usage per processor = 4.85169 Mbytes
Step Temp PotEng Lx Ly Lz 
    2709            0   -241.99895    2.2449075    38.891161    1.1224537 
    2710            0   -241.99895    2.2449075    38.891161    1.1224537 
    2711            0   -241.99895    2.2449075    38.891161    1.1224537 
    2712            0   -241.99895    2.2449075    38.891161    1.1224537 
    2713            0   -241.99895    2.2449075    38.891161    1.1224537 
Loop time of 0.00362196 on 1 procs for 3 steps with 82 atoms

Minimization stats:
  Stopping criterion = force tolerance
  Energy initial, next-to-last, final = 
         -241.99894818     -241.998945695     -241.998948485
  Force two-norm initial, final = 0.00372135 7.05374e-09
  Force max component initial, final = 0.00186068 2.44936e-09
  Final line search alpha, max atom move = 0 0
  Iterations, force evaluations = 3 159

Pair  time (%) = 0.00262796 (72.5563)
Neigh time (%) = 0 (0)
Comm  time (%) = 0.000218321 (6.0277)
Outpt time (%) = 2.61012e-05 (0.720638)
Other time (%) = 0.000749577 (20.6953)

Nlocal:    82 ave 82 max 82 min
Histogram: 1 0 0 0 0 0 0 0 0 0
Nghost:    185 ave 185 max 185 min
Histogram: 1 0 0 0 0 0 0 0 0 0
Neighs:    718 ave 718 max 718 min
Histogram: 1 0 0 0 0 0 0 0 0 0

Total # of neighbors = 718
Ave neighs/atom = 8.7561
Neighbor list builds = 0
Dangerous builds = 0
        # write_dump all atom ${dumpfile}
        next i
jump SELF loop1
        displace_atoms upper move ${xstep1} 0.0 0.0 units lattice
        displace_atoms upper move 0.002 0.0 0.0 units lattice
        min_style ${style}
        min_style hftn
        minimize ${etol} ${ftol} ${maxiter} ${maxeval}
        minimize 1e-12 ${ftol} ${maxiter} ${maxeval}
        minimize 1e-12 1e-08 ${maxiter} ${maxeval}
        minimize 1e-12 1e-08 10000 ${maxeval}
        minimize 1e-12 1e-08 10000 20000
WARNING: Resetting reneighboring criteria during minimization (../min.cpp:168)
Memory usage per processor = 4.85169 Mbytes
Step Temp PotEng Lx Ly Lz 
    2713            0   -241.99938    2.2449075    38.891213    1.1224537 
    2714            0   -241.99938    2.2449075    38.891213    1.1224537 
    2715            0   -241.99938    2.2449075    38.891213    1.1224537 
    2716            0   -241.99938    2.2449075    38.891213    1.1224537 
    2717            0   -241.99938    2.2449075    38.891213    1.1224537 
Loop time of 0.00880793 on 1 procs for 3 steps with 82 atoms

Minimization stats:
  Stopping criterion = force tolerance
  Energy initial, next-to-last, final = 
        -241.999378925     -241.999379129     -241.999378885
  Force two-norm initial, final = 0.000967146 8.03396e-11
  Force max component initial, final = 0.000483573 1.55215e-11
  Final line search alpha, max atom move = 0 0
  Iterations, force evaluations = 3 204

Pair  time (%) = 0.00694131 (78.8075)
Neigh time (%) = 0 (0)
Comm  time (%) = 0.000767595 (8.71482)
Outpt time (%) = 2.48493e-05 (0.282124)
Other time (%) = 0.00107417 (12.1955)

Nlocal:    82 ave 82 max 82 min
Histogram: 1 0 0 0 0 0 0 0 0 0
Nghost:    185 ave 185 max 185 min
Histogram: 1 0 0 0 0 0 0 0 0 0
Neighs:    718 ave 718 max 718 min
Histogram: 1 0 0 0 0 0 0 0 0 0

Total # of neighbors = 718
Ave neighs/atom = 8.7561
Neighbor list builds = 0
Dangerous builds = 0
        # write_dump all atom ${dumpfile}
        next i
jump SELF loop1
        displace_atoms upper move ${xstep1} 0.0 0.0 units lattice
        displace_atoms upper move 0.002 0.0 0.0 units lattice
        min_style ${style}
        min_style hftn
        minimize ${etol} ${ftol} ${maxiter} ${maxeval}
        minimize 1e-12 ${ftol} ${maxiter} ${maxeval}
        minimize 1e-12 1e-08 ${maxiter} ${maxeval}
        minimize 1e-12 1e-08 10000 ${maxeval}
        minimize 1e-12 1e-08 10000 20000
WARNING: Resetting reneighboring criteria during minimization (../min.cpp:168)
Memory usage per processor = 4.85169 Mbytes
Step Temp PotEng Lx Ly Lz 
    2717            0   -241.99969    2.2449075      38.8912    1.1224537 
    2718            0   -241.99969    2.2449075      38.8912    1.1224537 
    2719            0   -241.99969    2.2449075      38.8912    1.1224537 
Loop time of 0.00267199 on 1 procs for 1 steps with 82 atoms

Minimization stats:
  Stopping criterion = force tolerance
  Energy initial, next-to-last, final = 
         -241.99968817      -241.99968817     -241.999688189
  Force two-norm initial, final = 0.00257544 5.33382e-09
  Force max component initial, final = 0.00128772 2.63893e-09
  Final line search alpha, max atom move = 0 0
  Iterations, force evaluations = 1 111

Pair  time (%) = 0.00190441 (71.2729)
Neigh time (%) = 0 (0)
Comm  time (%) = 0.000159497 (5.96919)
Outpt time (%) = 4.59433e-05 (1.71944)
Other time (%) = 0.000562147 (21.0385)

Nlocal:    82 ave 82 max 82 min
Histogram: 1 0 0 0 0 0 0 0 0 0
Nghost:    185 ave 185 max 185 min
Histogram: 1 0 0 0 0 0 0 0 0 0
Neighs:    718 ave 718 max 718 min
Histogram: 1 0 0 0 0 0 0 0 0 0

Total # of neighbors = 718
Ave neighs/atom = 8.7561
Neighbor list builds = 0
Dangerous builds = 0
        # write_dump all atom ${dumpfile}
        next i
jump SELF loop1
        displace_atoms upper move ${xstep1} 0.0 0.0 units lattice
        displace_atoms upper move 0.002 0.0 0.0 units lattice
        min_style ${style}
        min_style hftn
        minimize ${etol} ${ftol} ${maxiter} ${maxeval}
        minimize 1e-12 ${ftol} ${maxiter} ${maxeval}
        minimize 1e-12 1e-08 ${maxiter} ${maxeval}
        minimize 1e-12 1e-08 10000 ${maxeval}
        minimize 1e-12 1e-08 10000 20000
WARNING: Resetting reneighboring criteria during minimization (../min.cpp:168)
Memory usage per processor = 4.85169 Mbytes
Step Temp PotEng Lx Ly Lz 
    2719            0   -241.99987    2.2449075    38.891165    1.1224537 
    2720            0   -241.99987    2.2449075    38.891165    1.1224537 
    2721            0   -241.99987    2.2449075    38.891165    1.1224537 
Loop time of 0.0034331 on 1 procs for 1 steps with 82 atoms

Minimization stats:
  Stopping criterion = force tolerance
  Energy initial, next-to-last, final = 
        -241.999874615     -241.999874615     -241.999874668
  Force two-norm initial, final = 0.00155528 1.87258e-09
  Force max component initial, final = 0.000777641 8.6068e-10
  Final line search alpha, max atom move = 0 0
  Iterations, force evaluations = 1 111

Pair  time (%) = 0.00179402 (52.2565)
Neigh time (%) = 0 (0)
Comm  time (%) = 0.000139566 (4.06529)
Outpt time (%) = 4.30923e-05 (1.2552)
Other time (%) = 0.00145643 (42.423)

Nlocal:    82 ave 82 max 82 min
Histogram: 1 0 0 0 0 0 0 0 0 0
Nghost:    185 ave 185 max 185 min
Histogram: 1 0 0 0 0 0 0 0 0 0
Neighs:    718 ave 718 max 718 min
Histogram: 1 0 0 0 0 0 0 0 0 0

Total # of neighbors = 718
Ave neighs/atom = 8.7561
Neighbor list builds = 0
Dangerous builds = 0
        # write_dump all atom ${dumpfile}
        next i
jump SELF loop1
        displace_atoms upper move ${xstep1} 0.0 0.0 units lattice
        displace_atoms upper move 0.002 0.0 0.0 units lattice
        min_style ${style}
        min_style hftn
        minimize ${etol} ${ftol} ${maxiter} ${maxeval}
        minimize 1e-12 ${ftol} ${maxiter} ${maxeval}
        minimize 1e-12 1e-08 ${maxiter} ${maxeval}
        minimize 1e-12 1e-08 10000 ${maxeval}
        minimize 1e-12 1e-08 10000 20000
WARNING: Resetting reneighboring criteria during minimization (../min.cpp:168)
Memory usage per processor = 4.85169 Mbytes
Step Temp PotEng Lx Ly Lz 
    2721            0   -241.99994    2.2449075    38.891144    1.1224537 
    2722            0   -241.99994    2.2449075    38.891144    1.1224537 
Loop time of 0.00216593 on 1 procs for 0 steps with 82 atoms

Minimization stats:
  Stopping criterion = force tolerance
  Energy initial, next-to-last, final = 
        -241.999937259     -241.999937259     -241.999937101
  Force two-norm initial, final = 0.00052358 5.9174e-09
  Force max component initial, final = 0.00026179 1.8094e-09
  Final line search alpha, max atom move = 0 0
  Iterations, force evaluations = 0 83

Pair  time (%) = 0.00158192 (73.0365)
Neigh time (%) = 0 (0)
Comm  time (%) = 0.000125966 (5.81577)
Outpt time (%) = 0 (0)
Other time (%) = 0.000458045 (21.1477)

Nlocal:    82 ave 82 max 82 min
Histogram: 1 0 0 0 0 0 0 0 0 0
Nghost:    185 ave 185 max 185 min
Histogram: 1 0 0 0 0 0 0 0 0 0
Neighs:    718 ave 718 max 718 min
Histogram: 1 0 0 0 0 0 0 0 0 0

Total # of neighbors = 718
Ave neighs/atom = 8.7561
Neighbor list builds = 0
Dangerous builds = 0
        # write_dump all atom ${dumpfile}
        next i
jump SELF loop1


