LAMMPS (28 Jun 2014)
# attempt at getting generalized stacking fault (GSF) energy curve

#file prefix
variable prefix string gsf_V_brittlenewlarge2
variable dumpfile string ${prefix}.*.dump
variable dumpfile string gsf_V_brittlenewlarge2.*.dump
variable restartfile string ${prefix}.*.equil
variable restartfile string gsf_V_brittlenewlarge2.*.equil

#Mass (g/mol)
variable m equal 1

# lattice constant (in Angstroms) and orientation of axes (given by lattice vectors)
variable rho equal 0.9165
variable x1 equal 1
variable x2 equal 0
variable x3 equal 0
variable y1 equal 0
variable y2 equal 1
variable y3 equal 0
# length of lattice in different directions (using orientation of lattice vectors)
variable ax equal sqrt(${x1}*${x1}+${x2}*${x2}+${x3}*${x3})
variable ax equal sqrt(1*${x1}+${x2}*${x2}+${x3}*${x3})
variable ax equal sqrt(1*1+${x2}*${x2}+${x3}*${x3})
variable ax equal sqrt(1*1+0*${x2}+${x3}*${x3})
variable ax equal sqrt(1*1+0*0+${x3}*${x3})
variable ax equal sqrt(1*1+0*0+0*${x3})
variable ax equal sqrt(1*1+0*0+0*0)
variable ay equal sqrt(${y1}*${y1}+${y2}*${y2}+${y3}*${y3})
variable ay equal sqrt(0*${y1}+${y2}*${y2}+${y3}*${y3})
variable ay equal sqrt(0*0+${y2}*${y2}+${y3}*${y3})
variable ay equal sqrt(0*0+1*${y2}+${y3}*${y3})
variable ay equal sqrt(0*0+1*1+${y3}*${y3})
variable ay equal sqrt(0*0+1*1+0*${y3})
variable ay equal sqrt(0*0+1*1+0*0)
variable az equal 1

# size of box in lattice units
variable lxpos equal 2
variable lxneg equal -1*${lxpos}
variable lxneg equal -1*2
variable lypos equal 20
variable lyneg equal -1*${lypos}
variable lyneg equal -1*20
variable lzpos equal 0
variable lzneg equal -1

# Define minimization parameters and damping
variable etol equal 1.0e-12
variable ftol equal 1.0e-8
variable maxiter equal 10000
variable maxeval equal 20000
variable style string cg

# boundary conditions
dimension	2
boundary	p s p
atom_style	atomic

# create geometry
units		lj
lattice         hex ${rho}
lattice         hex 0.9165
Lattice spacing in x,y,z = 1.12245 1.94415 1.12245
region		myregion block ${lxneg} ${lxpos} ${lyneg} ${lypos} ${lzneg} ${lzpos} units lattice
region		myregion block -2 ${lxpos} ${lyneg} ${lypos} ${lzneg} ${lzpos} units lattice
region		myregion block -2 2 ${lyneg} ${lypos} ${lzneg} ${lzpos} units lattice
region		myregion block -2 2 -20 ${lypos} ${lzneg} ${lzpos} units lattice
region		myregion block -2 2 -20 20 ${lzneg} ${lzpos} units lattice
region		myregion block -2 2 -20 20 -1 ${lzpos} units lattice
region		myregion block -2 2 -20 20 -1 0 units lattice
create_box	3 myregion
Created orthogonal box = (-2.24491 -38.8829 -1.12245) to (2.24491 38.8829 0)
  1 by 1 by 1 MPI processor grid
create_atoms	1 box
Created 324 atoms

# define masses
mass * $m
mass * 1

# my fake/morse potential
pair_style      table linear 3001
pair_coeff      * * vpotential_brittlenew dummy
neighbor	0.3 bin
neigh_modify	delay 5

# define groups
region	    upper block INF INF 0.01 ${lypos} INF INF units lattice
region	    upper block INF INF 0.01 20 INF INF units lattice
group		upper region upper
160 atoms in group upper

# Setup output
thermo 1
thermo_style custom step temp pe lx ly lz
thermo_modify norm no

# Compute initial state by relaxing box
min_style ${style}
min_style cg
minimize ${etol} ${ftol} ${maxiter} ${maxeval}
minimize 1e-12 ${ftol} ${maxiter} ${maxeval}
minimize 1e-12 1e-08 ${maxiter} ${maxeval}
minimize 1e-12 1e-08 10000 ${maxeval}
minimize 1e-12 1e-08 10000 20000
WARNING: Resetting reneighboring criteria during minimization (../min.cpp:168)
Memory usage per processor = 3.35815 Mbytes
Step Temp PotEng Lx Ly Lz 
       0            0   -963.99971    4.4898149    77.781429    1.1224537 
       1            0   -963.99972    4.4898149    77.781429    1.1224537 
       2            0   -963.99972    4.4898149    77.781429    1.1224537 
Loop time of 0.001936 on 1 procs for 2 steps with 324 atoms

Minimization stats:
  Stopping criterion = linesearch alpha is zero
  Energy initial, next-to-last, final = 
        -963.999711978     -963.999716314     -963.999716314
  Force two-norm initial, final = 0.0011014 0.00644873
  Force max component initial, final = 0.000389403 0.00179508
  Final line search alpha, max atom move = 0.000244141 4.38253e-07
  Iterations, force evaluations = 2 17

Pair  time (%) = 0.00165753 (85.6161)
Neigh time (%) = 0 (0)
Comm  time (%) = 6.70349e-05 (3.46254)
Outpt time (%) = 4.19063e-05 (2.16458)
Other time (%) = 0.000169531 (8.75675)

Nlocal:    324 ave 324 max 324 min
Histogram: 1 0 0 0 0 0 0 0 0 0
Nghost:    365 ave 365 max 365 min
Histogram: 1 0 0 0 0 0 0 0 0 0
Neighs:    2876 ave 2876 max 2876 min
Histogram: 1 0 0 0 0 0 0 0 0 0

Total # of neighbors = 2876
Ave neighs/atom = 8.87654
Neighbor list builds = 0
Dangerous builds = 0

# don't allow atoms to relax in x-direction
fix 2 all setforce 0.0 NULL 0.0

# GSF energy curve will have 100*2 steps
variable nsteps equal 300
variable sstep1 equal 1.
variable xstep1 equal ${sstep1}/(${ax}*${nsteps})
variable xstep1 equal 1/(${ax}*${nsteps})
variable xstep1 equal 1/(1*${nsteps})
variable xstep1 equal 1/(1*300)

variable i loop ${nsteps}
variable i loop 300
label loop1
        displace_atoms upper move ${xstep1} 0.0 0.0 units lattice
        displace_atoms upper move 0.00333333333333333 0.0 0.0 units lattice
        min_style ${style}
        min_style cg
        minimize ${etol} ${ftol} ${maxiter} ${maxeval}
        minimize 1e-12 ${ftol} ${maxiter} ${maxeval}
        minimize 1e-12 1e-08 ${maxiter} ${maxeval}
        minimize 1e-12 1e-08 10000 ${maxeval}
        minimize 1e-12 1e-08 10000 20000
WARNING: Resetting reneighboring criteria during minimization (../min.cpp:168)
Memory usage per processor = 3.35815 Mbytes
Step Temp PotEng Lx Ly Lz 
       2            0   -963.99937    4.4898149    77.781526    1.1224537 
       3            0   -963.99937    4.4898149    77.781526    1.1224537 
Loop time of 0.00108006 on 1 procs for 1 steps with 324 atoms

Minimization stats:
  Stopping criterion = linesearch alpha is zero
  Energy initial, next-to-last, final = 
        -963.999371385     -963.999371385     -963.999371385
  Force two-norm initial, final = 0.00676177 0.00676177
  Force max component initial, final = 0.00179508 0.00179508
  Final line search alpha, max atom move = 0.000244141 4.38253e-07
  Iterations, force evaluations = 1 13

Pair  time (%) = 0.000905136 (83.8046)
Neigh time (%) = 0 (0)
Comm  time (%) = 4.16534e-05 (3.8566)
Outpt time (%) = 0 (0)
Other time (%) = 0.000133266 (12.3388)

Nlocal:    324 ave 324 max 324 min
Histogram: 1 0 0 0 0 0 0 0 0 0
Nghost:    365 ave 365 max 365 min
Histogram: 1 0 0 0 0 0 0 0 0 0
Neighs:    2876 ave 2876 max 2876 min
Histogram: 1 0 0 0 0 0 0 0 0 0

Total # of neighbors = 2876
Ave neighs/atom = 8.87654
Neighbor list builds = 0
Dangerous builds = 0
        # write_dump all atom ${dumpfile}
        next i
jump SELF loop1
        displace_atoms upper move ${xstep1} 0.0 0.0 units lattice
        displace_atoms upper move 0.00333333333333333 0.0 0.0 units lattice
        min_style ${style}
        min_style cg
        minimize ${etol} ${ftol} ${maxiter} ${maxeval}
        minimize 1e-12 ${ftol} ${maxiter} ${maxeval}
        minimize 1e-12 1e-08 ${maxiter} ${maxeval}
        minimize 1e-12 1e-08 10000 ${maxeval}
        minimize 1e-12 1e-08 10000 20000
WARNING: Resetting reneighboring criteria during minimization (../min.cpp:168)
Memory usage per processor = 3.35815 Mbytes
Step Temp PotEng Lx Ly Lz 
       3            0   -963.99834    4.4898149    77.781526    1.1224537 
       4            0   -963.99834    4.4898149    77.781526    1.1224537 
Loop time of 0.00117595 on 1 procs for 1 steps with 324 atoms

Minimization stats:
  Stopping criterion = linesearch alpha is zero
  Energy initial, next-to-last, final = 
        -963.998339612     -963.998339612     -963.998339612
  Force two-norm initial, final = 0.0103624 0.0103624
  Force max component initial, final = 0.00286779 0.00286779
  Final line search alpha, max atom move = 6.10352e-05 1.75036e-07
  Iterations, force evaluations = 1 15

Pair  time (%) = 0.00102384 (87.0649)
Neigh time (%) = 0 (0)
Comm  time (%) = 3.06108e-05 (2.60307)
Outpt time (%) = 0 (0)
Other time (%) = 0.000121499 (10.332)

Nlocal:    324 ave 324 max 324 min
Histogram: 1 0 0 0 0 0 0 0 0 0
Nghost:    365 ave 365 max 365 min
Histogram: 1 0 0 0 0 0 0 0 0 0
Neighs:    2876 ave 2876 max 2876 min
Histogram: 1 0 0 0 0 0 0 0 0 0

Total # of neighbors = 2876
Ave neighs/atom = 8.87654
Neighbor list builds = 0
Dangerous builds = 0
        # write_dump all atom ${dumpfile}
        next i
jump SELF loop1
        displace_atoms upper move ${xstep1} 0.0 0.0 units lattice
        displace_atoms upper move 0.00333333333333333 0.0 0.0 units lattice
        min_style ${style}
        min_style cg
        minimize ${etol} ${ftol} ${maxiter} ${maxeval}
        minimize 1e-12 ${ftol} ${maxiter} ${maxeval}
        minimize 1e-12 1e-08 ${maxiter} ${maxeval}
        minimize 1e-12 1e-08 10000 ${maxeval}
        minimize 1e-12 1e-08 10000 20000
WARNING: Resetting reneighboring criteria during minimization (../min.cpp:168)
Memory usage per processor = 3.35815 Mbytes
Step Temp PotEng Lx Ly Lz 
       4            0   -963.99662    4.4898149    77.781526    1.1224537 
       5            0   -963.99662    4.4898149    77.781526    1.1224537 
Loop time of 0.00135391 on 1 procs for 1 steps with 324 atoms

Minimization stats:
  Stopping criterion = linesearch alpha is zero
  Energy initial, next-to-last, final = 
        -963.996623897     -963.996623897     -963.996623897
  Force two-norm initial, final = 0.0193181 0.0193181
  Force max component initial, final = 0.00643821 0.00643821
  Final line search alpha, max atom move = 3.05176e-05 1.96478e-07
  Iterations, force evaluations = 1 16

Pair  time (%) = 0.0011972 (88.4249)
Neigh time (%) = 0 (0)
Comm  time (%) = 3.69955e-05 (2.73249)
Outpt time (%) = 0 (0)
Other time (%) = 0.000119721 (8.84262)

Nlocal:    324 ave 324 max 324 min
Histogram: 1 0 0 0 0 0 0 0 0 0
Nghost:    365 ave 365 max 365 min
Histogram: 1 0 0 0 0 0 0 0 0 0
Neighs:    2876 ave 2876 max 2876 min
Histogram: 1 0 0 0 0 0 0 0 0 0

Total # of neighbors = 2876
Ave neighs/atom = 8.87654
Neighbor list builds = 0
Dangerous builds = 0
        # write_dump all atom ${dumpfile}
        next i
jump SELF loop1
        displace_atoms upper move ${xstep1} 0.0 0.0 units lattice
        displace_atoms upper move 0.00333333333333333 0.0 0.0 units lattice
        min_style ${style}
        min_style cg
        minimize ${etol} ${ftol} ${maxiter} ${maxeval}
        minimize 1e-12 ${ftol} ${maxiter} ${maxeval}
        minimize 1e-12 1e-08 ${maxiter} ${maxeval}
        minimize 1e-12 1e-08 10000 ${maxeval}
        minimize 1e-12 1e-08 10000 20000
WARNING: Resetting reneighboring criteria during minimization (../min.cpp:168)
Memory usage per processor = 3.35815 Mbytes
Step Temp PotEng Lx Ly Lz 
       5            0   -963.99423    4.4898149    77.781526    1.1224537 
       6            0   -963.99423    4.4898149    77.781526    1.1224537 
Loop time of 0.0013251 on 1 procs for 1 steps with 324 atoms

Minimization stats:
  Stopping criterion = linesearch alpha is zero
  Energy initial, next-to-last, final = 
        -963.994225004     -963.994225004     -963.994225004
  Force two-norm initial, final = 0.0329613 0.0329613
  Force max component initial, final = 0.0114284 0.0114284
  Final line search alpha, max atom move = 7.62939e-06 8.71915e-08
  Iterations, force evaluations = 1 18

Pair  time (%) = 0.00115255 (86.9783)
Neigh time (%) = 0 (0)
Comm  time (%) = 3.64266e-05 (2.74898)
Outpt time (%) = 0 (0)
Other time (%) = 0.000136123 (10.2727)

Nlocal:    324 ave 324 max 324 min
Histogram: 1 0 0 0 0 0 0 0 0 0
Nghost:    365 ave 365 max 365 min
Histogram: 1 0 0 0 0 0 0 0 0 0
Neighs:    2876 ave 2876 max 2876 min
Histogram: 1 0 0 0 0 0 0 0 0 0

Total # of neighbors = 2876
Ave neighs/atom = 8.87654
Neighbor list builds = 0
Dangerous builds = 0
        # write_dump all atom ${dumpfile}
        next i
jump SELF loop1
        displace_atoms upper move ${xstep1} 0.0 0.0 units lattice
        displace_atoms upper move 0.00333333333333333 0.0 0.0 units lattice
        min_style ${style}
        min_style cg
        minimize ${etol} ${ftol} ${maxiter} ${maxeval}
        minimize 1e-12 ${ftol} ${maxiter} ${maxeval}
        minimize 1e-12 1e-08 ${maxiter} ${maxeval}
        minimize 1e-12 1e-08 10000 ${maxeval}
        minimize 1e-12 1e-08 10000 20000
WARNING: Resetting reneighboring criteria during minimization (../min.cpp:168)
Memory usage per processor = 3.35815 Mbytes
Step Temp PotEng Lx Ly Lz 
       6            0   -963.99114    4.4898149    77.781526    1.1224537 
       7            0   -963.99115    4.4898149    77.781526    1.1224537 
       8            0   -963.99115    4.4898149    77.781526    1.1224537 
       9            0   -963.99115    4.4898149    77.781526    1.1224537 
Loop time of 0.00341093 on 1 procs for 3 steps with 324 atoms

Minimization stats:
  Stopping criterion = linesearch alpha is zero
  Energy initial, next-to-last, final = 
         -963.99114372     -963.991145453     -963.991145453
  Force two-norm initial, final = 0.0508587 0.0442155
  Force max component initial, final = 0.0178361 0.015482
  Final line search alpha, max atom move = 3.8147e-06 5.90591e-08
  Iterations, force evaluations = 3 43

Pair  time (%) = 0.00308385 (90.4107)
Neigh time (%) = 0 (0)
Comm  time (%) = 7.37344e-05 (2.16171)
Outpt time (%) = 4.19035e-05 (1.22851)
Other time (%) = 0.000211445 (6.19905)

Nlocal:    324 ave 324 max 324 min
Histogram: 1 0 0 0 0 0 0 0 0 0
Nghost:    365 ave 365 max 365 min
Histogram: 1 0 0 0 0 0 0 0 0 0
Neighs:    2876 ave 2876 max 2876 min
Histogram: 1 0 0 0 0 0 0 0 0 0

Total # of neighbors = 2876
Ave neighs/atom = 8.87654
Neighbor list builds = 0
Dangerous builds = 0
        # write_dump all atom ${dumpfile}
        next i
jump SELF loop1
        displace_atoms upper move ${xstep1} 0.0 0.0 units lattice
        displace_atoms upper move 0.00333333333333333 0.0 0.0 units lattice
        min_style ${style}
        min_style cg
        minimize ${etol} ${ftol} ${maxiter} ${maxeval}
        minimize 1e-12 ${ftol} ${maxiter} ${maxeval}
        minimize 1e-12 1e-08 ${maxiter} ${maxeval}
        minimize 1e-12 1e-08 10000 ${maxeval}
        minimize 1e-12 1e-08 10000 20000
WARNING: Resetting reneighboring criteria during minimization (../min.cpp:168)
Memory usage per processor = 3.35815 Mbytes
Step Temp PotEng Lx Ly Lz 
       9            0   -963.98738    4.4898149    77.781523    1.1224537 
      10            0   -963.98739    4.4898149    77.781523    1.1224537 
      11            0   -963.98739    4.4898149    77.781523    1.1224537 
Loop time of 0.00171201 on 1 procs for 2 steps with 324 atoms

Minimization stats:
  Stopping criterion = linesearch alpha is zero
  Energy initial, next-to-last, final = 
        -963.987376892     -963.987391073     -963.987391073
  Force two-norm initial, final = 0.0662531 0.0221943
  Force max component initial, final = 0.0233238 0.00704691
  Final line search alpha, max atom move = 1.52588e-05 1.07527e-07
  Iterations, force evaluations = 2 25

Pair  time (%) = 0.00150031 (87.6342)
Neigh time (%) = 0 (0)
Comm  time (%) = 5.74986e-05 (3.35854)
Outpt time (%) = 7.88912e-06 (0.460809)
Other time (%) = 0.000146316 (8.54642)

Nlocal:    324 ave 324 max 324 min
Histogram: 1 0 0 0 0 0 0 0 0 0
Nghost:    365 ave 365 max 365 min
Histogram: 1 0 0 0 0 0 0 0 0 0
Neighs:    2876 ave 2876 max 2876 min
Histogram: 1 0 0 0 0 0 0 0 0 0

Total # of neighbors = 2876
Ave neighs/atom = 8.87654
Neighbor list builds = 0
Dangerous builds = 0
        # write_dump all atom ${dumpfile}
        next i
jump SELF loop1
        displace_atoms upper move ${xstep1} 0.0 0.0 units lattice
        displace_atoms upper move 0.00333333333333333 0.0 0.0 units lattice
        min_style ${style}
        min_style cg
        minimize ${etol} ${ftol} ${maxiter} ${maxeval}
        minimize 1e-12 ${ftol} ${maxiter} ${maxeval}
        minimize 1e-12 1e-08 ${maxiter} ${maxeval}
        minimize 1e-12 1e-08 10000 ${maxeval}
        minimize 1e-12 1e-08 10000 20000
WARNING: Resetting reneighboring criteria during minimization (../min.cpp:168)
Memory usage per processor = 3.35815 Mbytes
Step Temp PotEng Lx Ly Lz 
      11            0   -963.98296    4.4898149    77.781503    1.1224537 
      12            0   -963.98296    4.4898149    77.781503    1.1224537 
      13            0   -963.98296    4.4898149    77.781503    1.1224537 
Loop time of 0.00504994 on 1 procs for 2 steps with 324 atoms

Minimization stats:
  Stopping criterion = linesearch alpha is zero
  Energy initial, next-to-last, final = 
        -963.982958089     -963.982958474     -963.982958474
  Force two-norm initial, final = 0.0408511 0.0394659
  Force max component initial, final = 0.0125837 0.0120304
  Final line search alpha, max atom move = 7.62939e-06 9.17846e-08
  Iterations, force evaluations = 2 30

Pair  time (%) = 0.00187315 (37.0925)
Neigh time (%) = 0 (0)
Comm  time (%) = 0.00226073 (44.7673)
Outpt time (%) = 3.89301e-05 (0.770902)
Other time (%) = 0.00087714 (17.3693)

Nlocal:    324 ave 324 max 324 min
Histogram: 1 0 0 0 0 0 0 0 0 0
Nghost:    365 ave 365 max 365 min
Histogram: 1 0 0 0 0 0 0 0 0 0
Neighs:    2876 ave 2876 max 2876 min
Histogram: 1 0 0 0 0 0 0 0 0 0

Total # of neighbors = 2876
Ave neighs/atom = 8.87654
Neighbor list builds = 0
Dangerous builds = 0
        # write_dump all atom ${dumpfile}
        next i
jump SELF loop1
        displace_atoms upper move ${xstep1} 0.0 0.0 units lattice
        displace_atoms upper move 0.00333333333333333 0.0 0.0 units lattice
        min_style ${style}
        min_style cg
        minimize ${etol} ${ftol} ${maxiter} ${maxeval}
        minimize 1e-12 ${ftol} ${maxiter} ${maxeval}
        minimize 1e-12 1e-08 ${maxiter} ${maxeval}
        minimize 1e-12 1e-08 10000 ${maxeval}
        minimize 1e-12 1e-08 10000 20000
WARNING: Resetting reneighboring criteria during minimization (../min.cpp:168)
Memory usage per processor = 3.35815 Mbytes
Step Temp PotEng Lx Ly Lz 
      13            0   -963.97784    4.4898149    77.781503    1.1224537 
      14            0   -963.97786    4.4898149    77.781503    1.1224537 
      15            0   -963.97786    4.4898149    77.781503    1.1224537 
      16            0   -963.97786    4.4898149    77.781503    1.1224537 
      17            0   -963.97786    4.4898149    77.781503    1.1224537 
      18            0   -963.97786    4.4898149    77.781503    1.1224537 
Loop time of 0.00404496 on 1 procs for 5 steps with 324 atoms

Minimization stats:
  Stopping criterion = linesearch alpha is zero
  Energy initial, next-to-last, final = 
        -963.977844402     -963.977861748     -963.977861748
  Force two-norm initial, final = 0.0671597 0.0254507
  Force max component initial, final = 0.022668 0.00742926
  Final line search alpha, max atom move = 1.52588e-05 1.13362e-07
  Iterations, force evaluations = 5 57

Pair  time (%) = 0.00342718 (84.7271)
Neigh time (%) = 0 (0)
Comm  time (%) = 0.000117627 (2.90798)
Outpt time (%) = 0.000159953 (3.95439)
Other time (%) = 0.0003402 (8.41048)

Nlocal:    324 ave 324 max 324 min
Histogram: 1 0 0 0 0 0 0 0 0 0
Nghost:    365 ave 365 max 365 min
Histogram: 1 0 0 0 0 0 0 0 0 0
Neighs:    2876 ave 2876 max 2876 min
Histogram: 1 0 0 0 0 0 0 0 0 0

Total # of neighbors = 2876
Ave neighs/atom = 8.87654
Neighbor list builds = 0
Dangerous builds = 0
        # write_dump all atom ${dumpfile}
        next i
jump SELF loop1
        displace_atoms upper move ${xstep1} 0.0 0.0 units lattice
        displace_atoms upper move 0.00333333333333333 0.0 0.0 units lattice
        min_style ${style}
        min_style cg
        minimize ${etol} ${ftol} ${maxiter} ${maxeval}
        minimize 1e-12 ${ftol} ${maxiter} ${maxeval}
        minimize 1e-12 1e-08 ${maxiter} ${maxeval}
        minimize 1e-12 1e-08 10000 ${maxeval}
        minimize 1e-12 1e-08 10000 20000
WARNING: Resetting reneighboring criteria during minimization (../min.cpp:168)
Memory usage per processor = 3.35815 Mbytes
Step Temp PotEng Lx Ly Lz 
      18            0   -963.97209    4.4898149    77.781494    1.1224537 
      19            0   -963.97211    4.4898149    77.781494    1.1224537 
      20            0   -963.97211    4.4898149    77.781494    1.1224537 
Loop time of 0.00224004 on 1 procs for 2 steps with 324 atoms

Minimization stats:
  Stopping criterion = linesearch alpha is zero
  Energy initial, next-to-last, final = 
        -963.972089737     -963.972105838     -963.972105838
  Force two-norm initial, final = 0.0506866 0.0370638
  Force max component initial, final = 0.0160058 0.00985142
  Final line search alpha, max atom move = 7.62939e-06 7.51603e-08
  Iterations, force evaluations = 2 25

Pair  time (%) = 0.00196431 (87.6905)
Neigh time (%) = 0 (0)
Comm  time (%) = 5.23346e-05 (2.33632)
Outpt time (%) = 3.88818e-05 (1.73576)
Other time (%) = 0.000184523 (8.23746)

Nlocal:    324 ave 324 max 324 min
Histogram: 1 0 0 0 0 0 0 0 0 0
Nghost:    365 ave 365 max 365 min
Histogram: 1 0 0 0 0 0 0 0 0 0
Neighs:    2876 ave 2876 max 2876 min
Histogram: 1 0 0 0 0 0 0 0 0 0

Total # of neighbors = 2876
Ave neighs/atom = 8.87654
Neighbor list builds = 0
Dangerous builds = 0
        # write_dump all atom ${dumpfile}
        next i
jump SELF loop1
        displace_atoms upper move ${xstep1} 0.0 0.0 units lattice
        displace_atoms upper move 0.00333333333333333 0.0 0.0 units lattice
        min_style ${style}
        min_style cg
        minimize ${etol} ${ftol} ${maxiter} ${maxeval}
        minimize 1e-12 ${ftol} ${maxiter} ${maxeval}
        minimize 1e-12 1e-08 ${maxiter} ${maxeval}
        minimize 1e-12 1e-08 10000 ${maxeval}
        minimize 1e-12 1e-08 10000 20000
WARNING: Resetting reneighboring criteria during minimization (../min.cpp:168)
Memory usage per processor = 3.35815 Mbytes
Step Temp PotEng Lx Ly Lz 
      20            0   -963.96569    4.4898149    77.781489    1.1224537 
      21            0   -963.96569    4.4898149    77.781489    1.1224537 
Loop time of 0.00130496 on 1 procs for 1 steps with 324 atoms

Minimization stats:
  Stopping criterion = linesearch alpha is zero
  Energy initial, next-to-last, final = 
        -963.965688132     -963.965688132     -963.965688132
  Force two-norm initial, final = 0.0348976 0.0348976
  Force max component initial, final = 0.00985142 0.00985142
  Final line search alpha, max atom move = 7.62939e-06 7.51603e-08
  Iterations, force evaluations = 1 18

Pair  time (%) = 0.00116872 (89.5599)
Neigh time (%) = 0 (0)
Comm  time (%) = 3.70886e-05 (2.84212)
Outpt time (%) = 0 (0)
Other time (%) = 9.91512e-05 (7.59801)

Nlocal:    324 ave 324 max 324 min
Histogram: 1 0 0 0 0 0 0 0 0 0
Nghost:    365 ave 365 max 365 min
Histogram: 1 0 0 0 0 0 0 0 0 0
Neighs:    2876 ave 2876 max 2876 min
Histogram: 1 0 0 0 0 0 0 0 0 0

Total # of neighbors = 2876
Ave neighs/atom = 8.87654
Neighbor list builds = 0
Dangerous builds = 0
        # write_dump all atom ${dumpfile}
        next i
jump SELF loop1
        displace_atoms upper move ${xstep1} 0.0 0.0 units lattice
        displace_atoms upper move 0.00333333333333333 0.0 0.0 units lattice
        min_style ${style}
        min_style cg
        minimize ${etol} ${ftol} ${maxiter} ${maxeval}
        minimize 1e-12 ${ftol} ${maxiter} ${maxeval}
        minimize 1e-12 1e-08 ${maxiter} ${maxeval}
        minimize 1e-12 1e-08 10000 ${maxeval}
        minimize 1e-12 1e-08 10000 20000
WARNING: Resetting reneighboring criteria during minimization (../min.cpp:168)
Memory usage per processor = 3.35815 Mbytes
Step Temp PotEng Lx Ly Lz 
      21            0   -963.95861    4.4898149    77.781489    1.1224537 
      22            0   -963.95864    4.4898149    77.781489    1.1224537 
      23            0   -963.95864    4.4898149    77.781489    1.1224537 
Loop time of 0.00149708 on 1 procs for 2 steps with 324 atoms

Minimization stats:
  Stopping criterion = linesearch alpha is zero
  Energy initial, next-to-last, final = 
        -963.958606099     -963.958641766     -963.958641766
  Force two-norm initial, final = 0.0659614 0.0485274
  Force max component initial, final = 0.0206625 0.0127603
  Final line search alpha, max atom move = 3.8147e-06 4.86766e-08
  Iterations, force evaluations = 2 26

Pair  time (%) = 0.00132097 (88.236)
Neigh time (%) = 0 (0)
Comm  time (%) = 4.1568e-05 (2.77659)
Outpt time (%) = 6.90296e-06 (0.461094)
Other time (%) = 0.000127646 (8.5263)

Nlocal:    324 ave 324 max 324 min
Histogram: 1 0 0 0 0 0 0 0 0 0
Nghost:    365 ave 365 max 365 min
Histogram: 1 0 0 0 0 0 0 0 0 0
Neighs:    2876 ave 2876 max 2876 min
Histogram: 1 0 0 0 0 0 0 0 0 0

Total # of neighbors = 2876
Ave neighs/atom = 8.87654
Neighbor list builds = 0
Dangerous builds = 0
        # write_dump all atom ${dumpfile}
        next i
jump SELF loop1
        displace_atoms upper move ${xstep1} 0.0 0.0 units lattice
        displace_atoms upper move 0.00333333333333333 0.0 0.0 units lattice
        min_style ${style}
        min_style cg
        minimize ${etol} ${ftol} ${maxiter} ${maxeval}
        minimize 1e-12 ${ftol} ${maxiter} ${maxeval}
        minimize 1e-12 1e-08 ${maxiter} ${maxeval}
        minimize 1e-12 1e-08 10000 ${maxeval}
        minimize 1e-12 1e-08 10000 20000
WARNING: Resetting reneighboring criteria during minimization (../min.cpp:168)
Memory usage per processor = 3.35815 Mbytes
Step Temp PotEng Lx Ly Lz 
      23            0   -963.95094    4.4898149    77.781489    1.1224537 
      24            0   -963.95094    4.4898149    77.781489    1.1224537 
Loop time of 0.00136992 on 1 procs for 1 steps with 324 atoms

Minimization stats:
  Stopping criterion = linesearch alpha is zero
  Energy initial, next-to-last, final = 
        -963.950935996     -963.950935996     -963.950935996
  Force two-norm initial, final = 0.0445959 0.0445959
  Force max component initial, final = 0.0127603 0.0127603
  Final line search alpha, max atom move = 3.8147e-06 4.86766e-08
  Iterations, force evaluations = 1 19

Pair  time (%) = 0.00122694 (89.5628)
Neigh time (%) = 0 (0)
Comm  time (%) = 3.86434e-05 (2.82084)
Outpt time (%) = 0 (0)
Other time (%) = 0.000104338 (7.61633)

Nlocal:    324 ave 324 max 324 min
Histogram: 1 0 0 0 0 0 0 0 0 0
Nghost:    365 ave 365 max 365 min
Histogram: 1 0 0 0 0 0 0 0 0 0
Neighs:    2876 ave 2876 max 2876 min
Histogram: 1 0 0 0 0 0 0 0 0 0

Total # of neighbors = 2876
Ave neighs/atom = 8.87654
Neighbor list builds = 0
Dangerous builds = 0
        # write_dump all atom ${dumpfile}
        next i
jump SELF loop1
        displace_atoms upper move ${xstep1} 0.0 0.0 units lattice
        displace_atoms upper move 0.00333333333333333 0.0 0.0 units lattice
        min_style ${style}
        min_style cg
        minimize ${etol} ${ftol} ${maxiter} ${maxeval}
        minimize 1e-12 ${ftol} ${maxiter} ${maxeval}
        minimize 1e-12 1e-08 ${maxiter} ${maxeval}
        minimize 1e-12 1e-08 10000 ${maxeval}
        minimize 1e-12 1e-08 10000 20000
WARNING: Resetting reneighboring criteria during minimization (../min.cpp:168)
Memory usage per processor = 3.35815 Mbytes
Step Temp PotEng Lx Ly Lz 
      24            0   -963.94257    4.4898149    77.781489    1.1224537 
      25            0    -963.9426    4.4898149    77.781489    1.1224537 
      26            0   -963.94264    4.4898149    77.781489    1.1224537 
      27            0   -963.94264    4.4898149    77.781489    1.1224537 
Loop time of 0.00301107 on 1 procs for 3 steps with 324 atoms

Minimization stats:
  Stopping criterion = linesearch alpha is zero
  Energy initial, next-to-last, final = 
        -963.942568079     -963.942636043     -963.942636043
  Force two-norm initial, final = 0.0789794 0.03521
  Force max component initial, final = 0.0239662 0.0106393
  Final line search alpha, max atom move = 7.62939e-06 8.11716e-08
  Iterations, force evaluations = 3 32

Pair  time (%) = 0.00251804 (83.6261)
Neigh time (%) = 0 (0)
Comm  time (%) = 0.000197649 (6.56408)
Outpt time (%) = 6.99458e-06 (0.232296)
Other time (%) = 0.000288384 (9.57748)

Nlocal:    324 ave 324 max 324 min
Histogram: 1 0 0 0 0 0 0 0 0 0
Nghost:    365 ave 365 max 365 min
Histogram: 1 0 0 0 0 0 0 0 0 0
Neighs:    2876 ave 2876 max 2876 min
Histogram: 1 0 0 0 0 0 0 0 0 0

Total # of neighbors = 2876
Ave neighs/atom = 8.87654
Neighbor list builds = 0
Dangerous builds = 0
        # write_dump all atom ${dumpfile}
        next i
jump SELF loop1
        displace_atoms upper move ${xstep1} 0.0 0.0 units lattice
        displace_atoms upper move 0.00333333333333333 0.0 0.0 units lattice
        min_style ${style}
        min_style cg
        minimize ${etol} ${ftol} ${maxiter} ${maxeval}
        minimize 1e-12 ${ftol} ${maxiter} ${maxeval}
        minimize 1e-12 1e-08 ${maxiter} ${maxeval}
        minimize 1e-12 1e-08 10000 ${maxeval}
        minimize 1e-12 1e-08 10000 20000
WARNING: Resetting reneighboring criteria during minimization (../min.cpp:168)
Memory usage per processor = 3.35815 Mbytes
Step Temp PotEng Lx Ly Lz 
      27            0   -963.93368    4.4898149    77.781492    1.1224537 
      28            0   -963.93369    4.4898149    77.781492    1.1224537 
      29            0   -963.93369    4.4898149    77.781492    1.1224537 
Loop time of 0.00216689 on 1 procs for 2 steps with 324 atoms

Minimization stats:
  Stopping criterion = linesearch alpha is zero
  Energy initial, next-to-last, final = 
        -963.933675917      -963.93369207      -963.93369207
  Force two-norm initial, final = 0.0619165 0.0319864
  Force max component initial, final = 0.0180164 0.00716171
  Final line search alpha, max atom move = 7.62939e-06 5.46395e-08
  Iterations, force evaluations = 2 26

Pair  time (%) = 0.00193174 (89.1478)
Neigh time (%) = 0 (0)
Comm  time (%) = 5.5006e-05 (2.53848)
Outpt time (%) = 1.10092e-05 (0.508063)
Other time (%) = 0.000169139 (7.80562)

Nlocal:    324 ave 324 max 324 min
Histogram: 1 0 0 0 0 0 0 0 0 0
Nghost:    365 ave 365 max 365 min
Histogram: 1 0 0 0 0 0 0 0 0 0
Neighs:    2876 ave 2876 max 2876 min
Histogram: 1 0 0 0 0 0 0 0 0 0

Total # of neighbors = 2876
Ave neighs/atom = 8.87654
Neighbor list builds = 0
Dangerous builds = 0
        # write_dump all atom ${dumpfile}
        next i
jump SELF loop1
        displace_atoms upper move ${xstep1} 0.0 0.0 units lattice
        displace_atoms upper move 0.00333333333333333 0.0 0.0 units lattice
        min_style ${style}
        min_style cg
        minimize ${etol} ${ftol} ${maxiter} ${maxeval}
        minimize 1e-12 ${ftol} ${maxiter} ${maxeval}
        minimize 1e-12 1e-08 ${maxiter} ${maxeval}
        minimize 1e-12 1e-08 10000 ${maxeval}
        minimize 1e-12 1e-08 10000 20000
WARNING: Resetting reneighboring criteria during minimization (../min.cpp:168)
Memory usage per processor = 3.35815 Mbytes
Step Temp PotEng Lx Ly Lz 
      29            0    -963.9241    4.4898149    77.781493    1.1224537 
      30            0   -963.92412    4.4898149    77.781493    1.1224537 
      31            0   -963.92416    4.4898149    77.781493    1.1224537 
      32            0   -963.92416    4.4898149    77.781493    1.1224537 
Loop time of 0.00228495 on 1 procs for 3 steps with 324 atoms

Minimization stats:
  Stopping criterion = linesearch alpha is zero
  Energy initial, next-to-last, final = 
        -963.924103306     -963.924159307     -963.924159307
  Force two-norm initial, final = 0.0688025 0.0337245
  Force max component initial, final = 0.0216031 0.0101916
  Final line search alpha, max atom move = 7.62939e-06 7.77558e-08
  Iterations, force evaluations = 3 32

Pair  time (%) = 0.00200803 (87.881)
Neigh time (%) = 0 (0)
Comm  time (%) = 5.83042e-05 (2.55167)
Outpt time (%) = 1.71438e-05 (0.750293)
Other time (%) = 0.000201464 (8.81703)

Nlocal:    324 ave 324 max 324 min
Histogram: 1 0 0 0 0 0 0 0 0 0
Nghost:    345 ave 345 max 345 min
Histogram: 1 0 0 0 0 0 0 0 0 0
Neighs:    2876 ave 2876 max 2876 min
Histogram: 1 0 0 0 0 0 0 0 0 0

Total # of neighbors = 2876
Ave neighs/atom = 8.87654
Neighbor list builds = 0
Dangerous builds = 0
        # write_dump all atom ${dumpfile}
        next i
jump SELF loop1
        displace_atoms upper move ${xstep1} 0.0 0.0 units lattice
        displace_atoms upper move 0.00333333333333333 0.0 0.0 units lattice
        min_style ${style}
        min_style cg
        minimize ${etol} ${ftol} ${maxiter} ${maxeval}
        minimize 1e-12 ${ftol} ${maxiter} ${maxeval}
        minimize 1e-12 1e-08 ${maxiter} ${maxeval}
        minimize 1e-12 1e-08 10000 ${maxeval}
        minimize 1e-12 1e-08 10000 20000
WARNING: Resetting reneighboring criteria during minimization (../min.cpp:168)
Memory usage per processor = 3.35815 Mbytes
Step Temp PotEng Lx Ly Lz 
      32            0   -963.91398    4.4898149    77.781497    1.1224537 
      33            0   -963.91399    4.4898149    77.781497    1.1224537 
      34            0   -963.91402    4.4898149    77.781497    1.1224537 
      35            0   -963.91402    4.4898149    77.781497    1.1224537 
Loop time of 0.00458811 on 1 procs for 3 steps with 324 atoms

Minimization stats:
  Stopping criterion = linesearch alpha is zero
  Energy initial, next-to-last, final = 
        -963.913975834     -963.914022245     -963.914022245
  Force two-norm initial, final = 0.0697177 0.0310941
  Force max component initial, final = 0.0215775 0.00888964
  Final line search alpha, max atom move = 7.62939e-06 6.78226e-08
  Iterations, force evaluations = 3 32

Pair  time (%) = 0.00435108 (94.8339)
Neigh time (%) = 0 (0)
Comm  time (%) = 5.35517e-05 (1.16719)
Outpt time (%) = 2.20415e-05 (0.480405)
Other time (%) = 0.000161434 (3.51853)

Nlocal:    324 ave 324 max 324 min
Histogram: 1 0 0 0 0 0 0 0 0 0
Nghost:    345 ave 345 max 345 min
Histogram: 1 0 0 0 0 0 0 0 0 0
Neighs:    2876 ave 2876 max 2876 min
Histogram: 1 0 0 0 0 0 0 0 0 0

Total # of neighbors = 2876
Ave neighs/atom = 8.87654
Neighbor list builds = 0
Dangerous builds = 0
        # write_dump all atom ${dumpfile}
        next i
jump SELF loop1
        displace_atoms upper move ${xstep1} 0.0 0.0 units lattice
        displace_atoms upper move 0.00333333333333333 0.0 0.0 units lattice
        min_style ${style}
        min_style cg
        minimize ${etol} ${ftol} ${maxiter} ${maxeval}
        minimize 1e-12 ${ftol} ${maxiter} ${maxeval}
        minimize 1e-12 1e-08 ${maxiter} ${maxeval}
        minimize 1e-12 1e-08 10000 ${maxeval}
        minimize 1e-12 1e-08 10000 20000
WARNING: Resetting reneighboring criteria during minimization (../min.cpp:168)
Memory usage per processor = 3.35815 Mbytes
Step Temp PotEng Lx Ly Lz 
      35            0   -963.90325    4.4898149    77.781502    1.1224537 
      36            0   -963.90327    4.4898149    77.781502    1.1224537 
      37            0    -963.9033    4.4898149    77.781502    1.1224537 
      38            0    -963.9033    4.4898149    77.781502    1.1224537 
      39            0    -963.9033    4.4898149    77.781502    1.1224537 
Loop time of 0.00242609 on 1 procs for 4 steps with 324 atoms

Minimization stats:
  Stopping criterion = linesearch alpha is zero
  Energy initial, next-to-last, final = 
        -963.903249213     -963.903304533     -963.903304533
  Force two-norm initial, final = 0.0735439 0.0248532
  Force max component initial, final = 0.0235958 0.00508407
  Final line search alpha, max atom move = 1.52588e-05 7.75767e-08
  Iterations, force evaluations = 4 39

Pair  time (%) = 0.00215452 (88.8062)
Neigh time (%) = 0 (0)
Comm  time (%) = 6.60405e-05 (2.7221)
Outpt time (%) = 1.49369e-05 (0.615678)
Other time (%) = 0.000190595 (7.85605)

Nlocal:    324 ave 324 max 324 min
Histogram: 1 0 0 0 0 0 0 0 0 0
Nghost:    345 ave 345 max 345 min
Histogram: 1 0 0 0 0 0 0 0 0 0
Neighs:    2876 ave 2876 max 2876 min
Histogram: 1 0 0 0 0 0 0 0 0 0

Total # of neighbors = 2876
Ave neighs/atom = 8.87654
Neighbor list builds = 0
Dangerous builds = 0
        # write_dump all atom ${dumpfile}
        next i
jump SELF loop1
        displace_atoms upper move ${xstep1} 0.0 0.0 units lattice
        displace_atoms upper move 0.00333333333333333 0.0 0.0 units lattice
        min_style ${style}
        min_style cg
        minimize ${etol} ${ftol} ${maxiter} ${maxeval}
        minimize 1e-12 ${ftol} ${maxiter} ${maxeval}
        minimize 1e-12 1e-08 ${maxiter} ${maxeval}
        minimize 1e-12 1e-08 10000 ${maxeval}
        minimize 1e-12 1e-08 10000 20000
WARNING: Resetting reneighboring criteria during minimization (../min.cpp:168)
Memory usage per processor = 3.35815 Mbytes
Step Temp PotEng Lx Ly Lz 
      39            0   -963.89196    4.4898149    77.781508    1.1224537 
      40            0   -963.89198    4.4898149    77.781508    1.1224537 
      41            0   -963.89198    4.4898149    77.781508    1.1224537 
Loop time of 0.00189512 on 1 procs for 2 steps with 324 atoms

Minimization stats:
  Stopping criterion = linesearch alpha is zero
  Energy initial, next-to-last, final = 
        -963.891962016     -963.891978243     -963.891978243
  Force two-norm initial, final = 0.0688165 0.0452142
  Force max component initial, final = 0.0227032 0.0129171
  Final line search alpha, max atom move = 3.8147e-06 4.92749e-08
  Iterations, force evaluations = 2 28

Pair  time (%) = 0.00167882 (88.5868)
Neigh time (%) = 0 (0)
Comm  time (%) = 5.41426e-05 (2.85695)
Outpt time (%) = 9.95968e-06 (0.525544)
Other time (%) = 0.000152192 (8.03073)

Nlocal:    324 ave 324 max 324 min
Histogram: 1 0 0 0 0 0 0 0 0 0
Nghost:    345 ave 345 max 345 min
Histogram: 1 0 0 0 0 0 0 0 0 0
Neighs:    2876 ave 2876 max 2876 min
Histogram: 1 0 0 0 0 0 0 0 0 0

Total # of neighbors = 2876
Ave neighs/atom = 8.87654
Neighbor list builds = 0
Dangerous builds = 0
        # write_dump all atom ${dumpfile}
        next i
jump SELF loop1
        displace_atoms upper move ${xstep1} 0.0 0.0 units lattice
        displace_atoms upper move 0.00333333333333333 0.0 0.0 units lattice
        min_style ${style}
        min_style cg
        minimize ${etol} ${ftol} ${maxiter} ${maxeval}
        minimize 1e-12 ${ftol} ${maxiter} ${maxeval}
        minimize 1e-12 1e-08 ${maxiter} ${maxeval}
        minimize 1e-12 1e-08 10000 ${maxeval}
        minimize 1e-12 1e-08 10000 20000
WARNING: Resetting reneighboring criteria during minimization (../min.cpp:168)
Memory usage per processor = 3.35815 Mbytes
Step Temp PotEng Lx Ly Lz 
      41            0   -963.88002    4.4898149    77.781508    1.1224537 
      42            0   -963.88007    4.4898149    77.781508    1.1224537 
      43            0    -963.8801    4.4898149    77.781508    1.1224537 
      44            0   -963.88016    4.4898149    77.781508    1.1224537 
      45            0   -963.88017    4.4898149    77.781508    1.1224537 
      46            0   -963.88017    4.4898149    77.781508    1.1224537 
Loop time of 0.00442302 on 1 procs for 5 steps with 324 atoms

Minimization stats:
  Stopping criterion = linesearch alpha is zero
  Energy initial, next-to-last, final = 
        -963.880022472     -963.880171321     -963.880171321
  Force two-norm initial, final = 0.109953 0.0272339
  Force max component initial, final = 0.0377164 0.00654887
  Final line search alpha, max atom move = 1.52588e-05 9.99278e-08
  Iterations, force evaluations = 5 46

Pair  time (%) = 0.00386594 (87.405)
Neigh time (%) = 0 (0)
Comm  time (%) = 0.000157469 (3.56021)
Outpt time (%) = 5.80514e-05 (1.31248)
Other time (%) = 0.000341561 (7.72235)

Nlocal:    324 ave 324 max 324 min
Histogram: 1 0 0 0 0 0 0 0 0 0
Nghost:    345 ave 345 max 345 min
Histogram: 1 0 0 0 0 0 0 0 0 0
Neighs:    2876 ave 2876 max 2876 min
Histogram: 1 0 0 0 0 0 0 0 0 0

Total # of neighbors = 2876
Ave neighs/atom = 8.87654
Neighbor list builds = 0
Dangerous builds = 0
        # write_dump all atom ${dumpfile}
        next i
jump SELF loop1
        displace_atoms upper move ${xstep1} 0.0 0.0 units lattice
        displace_atoms upper move 0.00333333333333333 0.0 0.0 units lattice
        min_style ${style}
        min_style cg
        minimize ${etol} ${ftol} ${maxiter} ${maxeval}
        minimize 1e-12 ${ftol} ${maxiter} ${maxeval}
        minimize 1e-12 1e-08 ${maxiter} ${maxeval}
        minimize 1e-12 1e-08 10000 ${maxeval}
        minimize 1e-12 1e-08 10000 20000
WARNING: Resetting reneighboring criteria during minimization (../min.cpp:168)
Memory usage per processor = 3.35815 Mbytes
Step Temp PotEng Lx Ly Lz 
      46            0   -963.86771    4.4898149    77.781517    1.1224537 
      47            0   -963.86772    4.4898149    77.781517    1.1224537 
      48            0   -963.86772    4.4898149    77.781517    1.1224537 
Loop time of 0.00357209 on 1 procs for 2 steps with 324 atoms

Minimization stats:
  Stopping criterion = linesearch alpha is zero
  Energy initial, next-to-last, final = 
        -963.867714443     -963.867716096     -963.867716096
  Force two-norm initial, final = 0.0727708 0.0693059
  Force max component initial, final = 0.0239333 0.0226351
  Final line search alpha, max atom move = 1.90735e-06 4.31731e-08
  Iterations, force evaluations = 2 32

Pair  time (%) = 0.00242013 (67.751)
Neigh time (%) = 0 (0)
Comm  time (%) = 0.000163206 (4.56892)
Outpt time (%) = 2.38866e-05 (0.668699)
Other time (%) = 0.000964872 (27.0114)

Nlocal:    324 ave 324 max 324 min
Histogram: 1 0 0 0 0 0 0 0 0 0
Nghost:    345 ave 345 max 345 min
Histogram: 1 0 0 0 0 0 0 0 0 0
Neighs:    2876 ave 2876 max 2876 min
Histogram: 1 0 0 0 0 0 0 0 0 0

Total # of neighbors = 2876
Ave neighs/atom = 8.87654
Neighbor list builds = 0
Dangerous builds = 0
        # write_dump all atom ${dumpfile}
        next i
jump SELF loop1
        displace_atoms upper move ${xstep1} 0.0 0.0 units lattice
        displace_atoms upper move 0.00333333333333333 0.0 0.0 units lattice
        min_style ${style}
        min_style cg
        minimize ${etol} ${ftol} ${maxiter} ${maxeval}
        minimize 1e-12 ${ftol} ${maxiter} ${maxeval}
        minimize 1e-12 1e-08 ${maxiter} ${maxeval}
        minimize 1e-12 1e-08 10000 ${maxeval}
        minimize 1e-12 1e-08 10000 20000
WARNING: Resetting reneighboring criteria during minimization (../min.cpp:168)
Memory usage per processor = 3.35815 Mbytes
Step Temp PotEng Lx Ly Lz 
      48            0   -963.85465    4.4898149    77.781517    1.1224537 
      49            0   -963.85472    4.4898149    77.781517    1.1224537 
      50            0   -963.85474    4.4898149    77.781517    1.1224537 
      51            0   -963.85477    4.4898149    77.781517    1.1224537 
      52            0   -963.85482    4.4898149    77.781517    1.1224537 
      53            0   -963.85484    4.4898149    77.781517    1.1224537 
      54            0   -963.85486    4.4898149    77.781517    1.1224537 
      55            0   -963.85486    4.4898149    77.781517    1.1224537 
Loop time of 0.00416411 on 1 procs for 7 steps with 324 atoms

Minimization stats:
  Stopping criterion = linesearch alpha is zero
  Energy initial, next-to-last, final = 
        -963.854646263     -963.854861768     -963.854861768
  Force two-norm initial, final = 0.143129 0.0351993
  Force max component initial, final = 0.0497261 0.00605257
  Final line search alpha, max atom move = 7.62939e-06 4.61774e-08
  Iterations, force evaluations = 7 60

Pair  time (%) = 0.00366832 (88.0937)
Neigh time (%) = 0 (0)
Comm  time (%) = 0.000110884 (2.66286)
Outpt time (%) = 4.02397e-05 (0.966344)
Other time (%) = 0.000344669 (8.27712)

Nlocal:    324 ave 324 max 324 min
Histogram: 1 0 0 0 0 0 0 0 0 0
Nghost:    345 ave 345 max 345 min
Histogram: 1 0 0 0 0 0 0 0 0 0
Neighs:    2876 ave 2876 max 2876 min
Histogram: 1 0 0 0 0 0 0 0 0 0

Total # of neighbors = 2876
Ave neighs/atom = 8.87654
Neighbor list builds = 0
Dangerous builds = 0
        # write_dump all atom ${dumpfile}
        next i
jump SELF loop1
        displace_atoms upper move ${xstep1} 0.0 0.0 units lattice
        displace_atoms upper move 0.00333333333333333 0.0 0.0 units lattice
        min_style ${style}
        min_style cg
        minimize ${etol} ${ftol} ${maxiter} ${maxeval}
        minimize 1e-12 ${ftol} ${maxiter} ${maxeval}
        minimize 1e-12 1e-08 ${maxiter} ${maxeval}
        minimize 1e-12 1e-08 10000 ${maxeval}
        minimize 1e-12 1e-08 10000 20000
WARNING: Resetting reneighboring criteria during minimization (../min.cpp:168)
Memory usage per processor = 3.35815 Mbytes
Step Temp PotEng Lx Ly Lz 
      55            0   -963.84139    4.4898149    77.781544    1.1224537 
      56            0   -963.84141    4.4898149    77.781544    1.1224537 
      57            0   -963.84141    4.4898149    77.781544    1.1224537 
Loop time of 0.0017859 on 1 procs for 2 steps with 324 atoms

Minimization stats:
  Stopping criterion = linesearch alpha is zero
  Energy initial, next-to-last, final = 
        -963.841386274     -963.841414497     -963.841414497
  Force two-norm initial, final = 0.0755178 0.026899
  Force max component initial, final = 0.0239509 0.00436026
  Final line search alpha, max atom move = 1.52588e-05 6.65322e-08
  Iterations, force evaluations = 2 25

Pair  time (%) = 0.00158751 (88.8911)
Neigh time (%) = 0 (0)
Comm  time (%) = 4.99176e-05 (2.79509)
Outpt time (%) = 7.06187e-06 (0.395423)
Other time (%) = 0.000141414 (7.91835)

Nlocal:    324 ave 324 max 324 min
Histogram: 1 0 0 0 0 0 0 0 0 0
Nghost:    345 ave 345 max 345 min
Histogram: 1 0 0 0 0 0 0 0 0 0
Neighs:    2876 ave 2876 max 2876 min
Histogram: 1 0 0 0 0 0 0 0 0 0

Total # of neighbors = 2876
Ave neighs/atom = 8.87654
Neighbor list builds = 0
Dangerous builds = 0
        # write_dump all atom ${dumpfile}
        next i
jump SELF loop1
        displace_atoms upper move ${xstep1} 0.0 0.0 units lattice
        displace_atoms upper move 0.00333333333333333 0.0 0.0 units lattice
        min_style ${style}
        min_style cg
        minimize ${etol} ${ftol} ${maxiter} ${maxeval}
        minimize 1e-12 ${ftol} ${maxiter} ${maxeval}
        minimize 1e-12 1e-08 ${maxiter} ${maxeval}
        minimize 1e-12 1e-08 10000 ${maxeval}
        minimize 1e-12 1e-08 10000 20000
WARNING: Resetting reneighboring criteria during minimization (../min.cpp:168)
Memory usage per processor = 3.35815 Mbytes
Step Temp PotEng Lx Ly Lz 
      57            0   -963.82739    4.4898149    77.781544    1.1224537 
      58            0   -963.82743    4.4898149    77.781544    1.1224537 
      59            0   -963.82744    4.4898149    77.781544    1.1224537 
      60            0   -963.82745    4.4898149    77.781544    1.1224537 
      61            0   -963.82746    4.4898149    77.781544    1.1224537 
      62            0   -963.82746    4.4898149    77.781544    1.1224537 
      63            0   -963.82746    4.4898149    77.781544    1.1224537 
Loop time of 0.00428096 on 1 procs for 6 steps with 324 atoms

Minimization stats:
  Stopping criterion = linesearch alpha is zero
  Energy initial, next-to-last, final = 
        -963.827389524     -963.827461555     -963.827461555
  Force two-norm initial, final = 0.090564 0.0193538
  Force max component initial, final = 0.0306151 0.00271836
  Final line search alpha, max atom move = 3.05176e-05 8.29578e-08
  Iterations, force evaluations = 6 54

Pair  time (%) = 0.00369216 (86.246)
Neigh time (%) = 0 (0)
Comm  time (%) = 0.000148663 (3.47265)
Outpt time (%) = 7.0916e-05 (1.65654)
Other time (%) = 0.000369224 (8.62478)

Nlocal:    324 ave 324 max 324 min
Histogram: 1 0 0 0 0 0 0 0 0 0
Nghost:    345 ave 345 max 345 min
Histogram: 1 0 0 0 0 0 0 0 0 0
Neighs:    2876 ave 2876 max 2876 min
Histogram: 1 0 0 0 0 0 0 0 0 0

Total # of neighbors = 2876
Ave neighs/atom = 8.87654
Neighbor list builds = 0
Dangerous builds = 0
        # write_dump all atom ${dumpfile}
        next i
jump SELF loop1
        displace_atoms upper move ${xstep1} 0.0 0.0 units lattice
        displace_atoms upper move 0.00333333333333333 0.0 0.0 units lattice
        min_style ${style}
        min_style cg
        minimize ${etol} ${ftol} ${maxiter} ${maxeval}
        minimize 1e-12 ${ftol} ${maxiter} ${maxeval}
        minimize 1e-12 1e-08 ${maxiter} ${maxeval}
        minimize 1e-12 1e-08 10000 ${maxeval}
        minimize 1e-12 1e-08 10000 20000
WARNING: Resetting reneighboring criteria during minimization (../min.cpp:168)
Memory usage per processor = 3.35815 Mbytes
Step Temp PotEng Lx Ly Lz 
      63            0   -963.81293    4.4898149    77.781549    1.1224537 
      64            0   -963.81295    4.4898149    77.781549    1.1224537 
      65            0   -963.81295    4.4898149    77.781549    1.1224537 
      66            0   -963.81295    4.4898149    77.781549    1.1224537 
Loop time of 0.00250707 on 1 procs for 3 steps with 324 atoms

Minimization stats:
  Stopping criterion = linesearch alpha is zero
  Energy initial, next-to-last, final = 
        -963.812931592     -963.812954652     -963.812954652
  Force two-norm initial, final = 0.0902598 0.0470864
  Force max component initial, final = 0.0311896 0.0141438
  Final line search alpha, max atom move = 3.8147e-06 5.39543e-08
  Iterations, force evaluations = 3 38

Pair  time (%) = 0.0022028 (87.8637)
Neigh time (%) = 0 (0)
Comm  time (%) = 7.08373e-05 (2.8255)
Outpt time (%) = 1.81145e-05 (0.722535)
Other time (%) = 0.000215315 (8.5883)

Nlocal:    324 ave 324 max 324 min
Histogram: 1 0 0 0 0 0 0 0 0 0
Nghost:    345 ave 345 max 345 min
Histogram: 1 0 0 0 0 0 0 0 0 0
Neighs:    2876 ave 2876 max 2876 min
Histogram: 1 0 0 0 0 0 0 0 0 0

Total # of neighbors = 2876
Ave neighs/atom = 8.87654
Neighbor list builds = 0
Dangerous builds = 0
        # write_dump all atom ${dumpfile}
        next i
jump SELF loop1
        displace_atoms upper move ${xstep1} 0.0 0.0 units lattice
        displace_atoms upper move 0.00333333333333333 0.0 0.0 units lattice
        min_style ${style}
        min_style cg
        minimize ${etol} ${ftol} ${maxiter} ${maxeval}
        minimize 1e-12 ${ftol} ${maxiter} ${maxeval}
        minimize 1e-12 1e-08 ${maxiter} ${maxeval}
        minimize 1e-12 1e-08 10000 ${maxeval}
        minimize 1e-12 1e-08 10000 20000
WARNING: Resetting reneighboring criteria during minimization (../min.cpp:168)
Memory usage per processor = 3.35815 Mbytes
Step Temp PotEng Lx Ly Lz 
      66            0   -963.79788    4.4898149     77.78155    1.1224537 
      67            0   -963.79795    4.4898149     77.78155    1.1224537 
      68            0   -963.79795    4.4898149     77.78155    1.1224537 
      69            0   -963.79798    4.4898149     77.78155    1.1224537 
      70            0   -963.79801    4.4898149     77.78155    1.1224537 
      71            0   -963.79804    4.4898149     77.78155    1.1224537 
      72            0   -963.79808    4.4898149     77.78155    1.1224537 
      73            0    -963.7981    4.4898149     77.78155    1.1224537 
      74            0    -963.7981    4.4898149     77.78155    1.1224537 
      75            0    -963.7981    4.4898149     77.78155    1.1224537 
Loop time of 0.00579692 on 1 procs for 9 steps with 324 atoms

Minimization stats:
  Stopping criterion = linesearch alpha is zero
  Energy initial, next-to-last, final = 
        -963.797877477     -963.798102703     -963.798102703
  Force two-norm initial, final = 0.126733 0.0190772
  Force max component initial, final = 0.0439381 0.00363917
  Final line search alpha, max atom move = 3.05176e-05 1.11059e-07
  Iterations, force evaluations = 9 74

Pair  time (%) = 0.00504017 (86.9456)
Neigh time (%) = 0 (0)
Comm  time (%) = 0.000203509 (3.51064)
Outpt time (%) = 7.59568e-05 (1.3103)
Other time (%) = 0.000477287 (8.23346)

Nlocal:    324 ave 324 max 324 min
Histogram: 1 0 0 0 0 0 0 0 0 0
Nghost:    345 ave 345 max 345 min
Histogram: 1 0 0 0 0 0 0 0 0 0
Neighs:    2868 ave 2868 max 2868 min
Histogram: 1 0 0 0 0 0 0 0 0 0

Total # of neighbors = 2868
Ave neighs/atom = 8.85185
Neighbor list builds = 0
Dangerous builds = 0
        # write_dump all atom ${dumpfile}
        next i
jump SELF loop1
        displace_atoms upper move ${xstep1} 0.0 0.0 units lattice
        displace_atoms upper move 0.00333333333333333 0.0 0.0 units lattice
        min_style ${style}
        min_style cg
        minimize ${etol} ${ftol} ${maxiter} ${maxeval}
        minimize 1e-12 ${ftol} ${maxiter} ${maxeval}
        minimize 1e-12 1e-08 ${maxiter} ${maxeval}
        minimize 1e-12 1e-08 10000 ${maxeval}
        minimize 1e-12 1e-08 10000 20000
WARNING: Resetting reneighboring criteria during minimization (../min.cpp:168)
Memory usage per processor = 3.35815 Mbytes
Step Temp PotEng Lx Ly Lz 
      75            0   -963.78259    4.4898149    77.781566    1.1224537 
      76            0    -963.7826    4.4898149    77.781566    1.1224537 
      77            0    -963.7826    4.4898149    77.781566    1.1224537 
Loop time of 0.00348307 on 1 procs for 2 steps with 324 atoms

Minimization stats:
  Stopping criterion = linesearch alpha is zero
  Energy initial, next-to-last, final = 
        -963.782588323     -963.782604403     -963.782604403
  Force two-norm initial, final = 0.0830414 0.049723
  Force max component initial, final = 0.0285798 0.0157973
  Final line search alpha, max atom move = 3.8147e-06 6.02618e-08
  Iterations, force evaluations = 2 28

Pair  time (%) = 0.00309799 (88.9444)
Neigh time (%) = 0 (0)
Comm  time (%) = 0.000139515 (4.00554)
Outpt time (%) = 1.29796e-05 (0.372649)
Other time (%) = 0.000232577 (6.67737)

Nlocal:    324 ave 324 max 324 min
Histogram: 1 0 0 0 0 0 0 0 0 0
Nghost:    345 ave 345 max 345 min
Histogram: 1 0 0 0 0 0 0 0 0 0
Neighs:    2868 ave 2868 max 2868 min
Histogram: 1 0 0 0 0 0 0 0 0 0

Total # of neighbors = 2868
Ave neighs/atom = 8.85185
Neighbor list builds = 0
Dangerous builds = 0
        # write_dump all atom ${dumpfile}
        next i
jump SELF loop1
        displace_atoms upper move ${xstep1} 0.0 0.0 units lattice
        displace_atoms upper move 0.00333333333333333 0.0 0.0 units lattice
        min_style ${style}
        min_style cg
        minimize ${etol} ${ftol} ${maxiter} ${maxeval}
        minimize 1e-12 ${ftol} ${maxiter} ${maxeval}
        minimize 1e-12 1e-08 ${maxiter} ${maxeval}
        minimize 1e-12 1e-08 10000 ${maxeval}
        minimize 1e-12 1e-08 10000 20000
WARNING: Resetting reneighboring criteria during minimization (../min.cpp:168)
Memory usage per processor = 3.35815 Mbytes
Step Temp PotEng Lx Ly Lz 
      77            0   -963.76652    4.4898149    77.781566    1.1224537 
      78            0   -963.76659    4.4898149    77.781566    1.1224537 
      79            0   -963.76659    4.4898149    77.781566    1.1224537 
Loop time of 0.00195106 on 1 procs for 2 steps with 324 atoms

Minimization stats:
  Stopping criterion = linesearch alpha is zero
  Energy initial, next-to-last, final = 
        -963.766517895     -963.766585079     -963.766585079
  Force two-norm initial, final = 0.131069 0.0493937
  Force max component initial, final = 0.0456935 0.01502
  Final line search alpha, max atom move = 3.8147e-06 5.72966e-08
  Iterations, force evaluations = 2 27

Pair  time (%) = 0.00173648 (89.002)
Neigh time (%) = 0 (0)
Comm  time (%) = 5.61936e-05 (2.88015)
Outpt time (%) = 1.00487e-05 (0.51504)
Other time (%) = 0.000148336 (7.60284)

Nlocal:    324 ave 324 max 324 min
Histogram: 1 0 0 0 0 0 0 0 0 0
Nghost:    345 ave 345 max 345 min
Histogram: 1 0 0 0 0 0 0 0 0 0
Neighs:    2868 ave 2868 max 2868 min
Histogram: 1 0 0 0 0 0 0 0 0 0

Total # of neighbors = 2868
Ave neighs/atom = 8.85185
Neighbor list builds = 0
Dangerous builds = 0
        # write_dump all atom ${dumpfile}
        next i
jump SELF loop1
        displace_atoms upper move ${xstep1} 0.0 0.0 units lattice
        displace_atoms upper move 0.00333333333333333 0.0 0.0 units lattice
        min_style ${style}
        min_style cg
        minimize ${etol} ${ftol} ${maxiter} ${maxeval}
        minimize 1e-12 ${ftol} ${maxiter} ${maxeval}
        minimize 1e-12 1e-08 ${maxiter} ${maxeval}
        minimize 1e-12 1e-08 10000 ${maxeval}
        minimize 1e-12 1e-08 10000 20000
WARNING: Resetting reneighboring criteria during minimization (../min.cpp:168)
Memory usage per processor = 3.35815 Mbytes
Step Temp PotEng Lx Ly Lz 
      79            0   -963.75001    4.4898149    77.781567    1.1224537 
      80            0   -963.75007    4.4898149    77.781567    1.1224537 
      81            0   -963.75009    4.4898149    77.781567    1.1224537 
      82            0   -963.75009    4.4898149    77.781567    1.1224537 
      83            0   -963.75009    4.4898149    77.781567    1.1224537 
Loop time of 0.00285003 on 1 procs for 4 steps with 324 atoms

Minimization stats:
  Stopping criterion = linesearch alpha is zero
  Energy initial, next-to-last, final = 
        -963.750007365     -963.750090599     -963.750090599
  Force two-norm initial, final = 0.112764 0.0441639
  Force max component initial, final = 0.0363277 0.0105383
  Final line search alpha, max atom move = 3.8147e-06 4.02004e-08
  Iterations, force evaluations = 4 45

Pair  time (%) = 0.00251912 (88.3892)
Neigh time (%) = 0 (0)
Comm  time (%) = 9.57116e-05 (3.35826)
Outpt time (%) = 1.60835e-05 (0.564327)
Other time (%) = 0.000219116 (7.6882)

Nlocal:    324 ave 324 max 324 min
Histogram: 1 0 0 0 0 0 0 0 0 0
Nghost:    345 ave 345 max 345 min
Histogram: 1 0 0 0 0 0 0 0 0 0
Neighs:    2868 ave 2868 max 2868 min
Histogram: 1 0 0 0 0 0 0 0 0 0

Total # of neighbors = 2868
Ave neighs/atom = 8.85185
Neighbor list builds = 0
Dangerous builds = 0
        # write_dump all atom ${dumpfile}
        next i
jump SELF loop1
        displace_atoms upper move ${xstep1} 0.0 0.0 units lattice
        displace_atoms upper move 0.00333333333333333 0.0 0.0 units lattice
        min_style ${style}
        min_style cg
        minimize ${etol} ${ftol} ${maxiter} ${maxeval}
        minimize 1e-12 ${ftol} ${maxiter} ${maxeval}
        minimize 1e-12 1e-08 ${maxiter} ${maxeval}
        minimize 1e-12 1e-08 10000 ${maxeval}
        minimize 1e-12 1e-08 10000 20000
WARNING: Resetting reneighboring criteria during minimization (../min.cpp:168)
Memory usage per processor = 3.35815 Mbytes
Step Temp PotEng Lx Ly Lz 
      83            0     -963.733    4.4898149    77.781568    1.1224537 
      84            0   -963.73308    4.4898149    77.781568    1.1224537 
      85            0   -963.73313    4.4898149    77.781568    1.1224537 
      86            0   -963.73314    4.4898149    77.781568    1.1224537 
      87            0   -963.73316    4.4898149    77.781568    1.1224537 
      88            0   -963.73322    4.4898149    77.781568    1.1224537 
      89            0   -963.73329    4.4898149    77.781568    1.1224537 
      90            0   -963.73334    4.4898149    77.781568    1.1224537 
      91            0   -963.73335    4.4898149    77.781568    1.1224537 
      92            0   -963.73339    4.4898149    77.781568    1.1224537 
      93            0   -963.73339    4.4898149    77.781568    1.1224537 
Loop time of 0.00575088 on 1 procs for 10 steps with 324 atoms

Minimization stats:
  Stopping criterion = linesearch alpha is zero
  Energy initial, next-to-last, final = 
        -963.733003869     -963.733389516     -963.733389516
  Force two-norm initial, final = 0.110673 0.0229724
  Force max component initial, final = 0.0362717 0.00447882
  Final line search alpha, max atom move = 1.52588e-05 6.83414e-08
  Iterations, force evaluations = 10 77

Pair  time (%) = 0.0049058 (85.3051)
Neigh time (%) = 0 (0)
Comm  time (%) = 0.000208874 (3.63204)
Outpt time (%) = 0.000103847 (1.80575)
Other time (%) = 0.000532363 (9.25707)

Nlocal:    324 ave 324 max 324 min
Histogram: 1 0 0 0 0 0 0 0 0 0
Nghost:    345 ave 345 max 345 min
Histogram: 1 0 0 0 0 0 0 0 0 0
Neighs:    2868 ave 2868 max 2868 min
Histogram: 1 0 0 0 0 0 0 0 0 0

Total # of neighbors = 2868
Ave neighs/atom = 8.85185
Neighbor list builds = 0
Dangerous builds = 0
        # write_dump all atom ${dumpfile}
        next i
jump SELF loop1
        displace_atoms upper move ${xstep1} 0.0 0.0 units lattice
        displace_atoms upper move 0.00333333333333333 0.0 0.0 units lattice
        min_style ${style}
        min_style cg
        minimize ${etol} ${ftol} ${maxiter} ${maxeval}
        minimize 1e-12 ${ftol} ${maxiter} ${maxeval}
        minimize 1e-12 1e-08 ${maxiter} ${maxeval}
        minimize 1e-12 1e-08 10000 ${maxeval}
        minimize 1e-12 1e-08 10000 20000
WARNING: Resetting reneighboring criteria during minimization (../min.cpp:168)
Memory usage per processor = 3.35815 Mbytes
Step Temp PotEng Lx Ly Lz 
      93            0   -963.71592    4.4898149    77.781597    1.1224537 
      94            0   -963.71592    4.4898149    77.781597    1.1224537 
Loop time of 0.00129408 on 1 procs for 1 steps with 324 atoms

Minimization stats:
  Stopping criterion = linesearch alpha is zero
  Energy initial, next-to-last, final = 
        -963.715916442     -963.715916442     -963.715916442
  Force two-norm initial, final = 0.0834439 0.0834439
  Force max component initial, final = 0.0284831 0.0284831
  Final line search alpha, max atom move = 9.53674e-07 2.71636e-08
  Iterations, force evaluations = 1 21

Pair  time (%) = 0.00115647 (89.366)
Neigh time (%) = 0 (0)
Comm  time (%) = 3.81611e-05 (2.9489)
Outpt time (%) = 0 (0)
Other time (%) = 9.94514e-05 (7.68511)

Nlocal:    324 ave 324 max 324 min
Histogram: 1 0 0 0 0 0 0 0 0 0
Nghost:    345 ave 345 max 345 min
Histogram: 1 0 0 0 0 0 0 0 0 0
Neighs:    2868 ave 2868 max 2868 min
Histogram: 1 0 0 0 0 0 0 0 0 0

Total # of neighbors = 2868
Ave neighs/atom = 8.85185
Neighbor list builds = 0
Dangerous builds = 0
        # write_dump all atom ${dumpfile}
        next i
jump SELF loop1
        displace_atoms upper move ${xstep1} 0.0 0.0 units lattice
        displace_atoms upper move 0.00333333333333333 0.0 0.0 units lattice
        min_style ${style}
        min_style cg
        minimize ${etol} ${ftol} ${maxiter} ${maxeval}
        minimize 1e-12 ${ftol} ${maxiter} ${maxeval}
        minimize 1e-12 1e-08 ${maxiter} ${maxeval}
        minimize 1e-12 1e-08 10000 ${maxeval}
        minimize 1e-12 1e-08 10000 20000
WARNING: Resetting reneighboring criteria during minimization (../min.cpp:168)
Memory usage per processor = 3.35815 Mbytes
Step Temp PotEng Lx Ly Lz 
      94            0   -963.69786    4.4898149    77.781597    1.1224537 
      95            0   -963.69798    4.4898149    77.781597    1.1224537 
      96            0   -963.69798    4.4898149    77.781597    1.1224537 
Loop time of 0.0020149 on 1 procs for 2 steps with 324 atoms

Minimization stats:
  Stopping criterion = linesearch alpha is zero
  Energy initial, next-to-last, final = 
        -963.697859863     -963.697975923     -963.697975923
  Force two-norm initial, final = 0.172237 0.055137
  Force max component initial, final = 0.060408 0.0175741
  Final line search alpha, max atom move = 3.8147e-06 6.70399e-08
  Iterations, force evaluations = 2 27

Pair  time (%) = 0.00173922 (86.318)
Neigh time (%) = 0 (0)
Comm  time (%) = 5.34236e-05 (2.65143)
Outpt time (%) = 4.10194e-05 (2.0358)
Other time (%) = 0.000181236 (8.99481)

Nlocal:    324 ave 324 max 324 min
Histogram: 1 0 0 0 0 0 0 0 0 0
Nghost:    345 ave 345 max 345 min
Histogram: 1 0 0 0 0 0 0 0 0 0
Neighs:    2868 ave 2868 max 2868 min
Histogram: 1 0 0 0 0 0 0 0 0 0

Total # of neighbors = 2868
Ave neighs/atom = 8.85185
Neighbor list builds = 0
Dangerous builds = 0
        # write_dump all atom ${dumpfile}
        next i
jump SELF loop1
        displace_atoms upper move ${xstep1} 0.0 0.0 units lattice
        displace_atoms upper move 0.00333333333333333 0.0 0.0 units lattice
        min_style ${style}
        min_style cg
        minimize ${etol} ${ftol} ${maxiter} ${maxeval}
        minimize 1e-12 ${ftol} ${maxiter} ${maxeval}
        minimize 1e-12 1e-08 ${maxiter} ${maxeval}
        minimize 1e-12 1e-08 10000 ${maxeval}
        minimize 1e-12 1e-08 10000 20000
WARNING: Resetting reneighboring criteria during minimization (../min.cpp:168)
Memory usage per processor = 3.35815 Mbytes
Step Temp PotEng Lx Ly Lz 
      96            0   -963.67947    4.4898149    77.781597    1.1224537 
      97            0   -963.67954    4.4898149    77.781597    1.1224537 
      98            0   -963.67954    4.4898149    77.781597    1.1224537 
      99            0   -963.67954    4.4898149    77.781597    1.1224537 
Loop time of 0.00345596 on 1 procs for 3 steps with 324 atoms

Minimization stats:
  Stopping criterion = linesearch alpha is zero
  Energy initial, next-to-last, final = 
        -963.679466591     -963.679544367     -963.679544367
  Force two-norm initial, final = 0.119352 0.0574185
  Force max component initial, final = 0.0378269 0.0167069
  Final line search alpha, max atom move = 1.90735e-06 3.18659e-08
  Iterations, force evaluations = 3 38

Pair  time (%) = 0.00311089 (90.0151)
Neigh time (%) = 0 (0)
Comm  time (%) = 9.70482e-05 (2.80814)
Outpt time (%) = 1.80212e-05 (0.521453)
Other time (%) = 0.000230004 (6.65528)

Nlocal:    324 ave 324 max 324 min
Histogram: 1 0 0 0 0 0 0 0 0 0
Nghost:    345 ave 345 max 345 min
Histogram: 1 0 0 0 0 0 0 0 0 0
Neighs:    2868 ave 2868 max 2868 min
Histogram: 1 0 0 0 0 0 0 0 0 0

Total # of neighbors = 2868
Ave neighs/atom = 8.85185
Neighbor list builds = 0
Dangerous builds = 0
        # write_dump all atom ${dumpfile}
        next i
jump SELF loop1
        displace_atoms upper move ${xstep1} 0.0 0.0 units lattice
        displace_atoms upper move 0.00333333333333333 0.0 0.0 units lattice
        min_style ${style}
        min_style cg
        minimize ${etol} ${ftol} ${maxiter} ${maxeval}
        minimize 1e-12 ${ftol} ${maxiter} ${maxeval}
        minimize 1e-12 1e-08 ${maxiter} ${maxeval}
        minimize 1e-12 1e-08 10000 ${maxeval}
        minimize 1e-12 1e-08 10000 20000
WARNING: Resetting reneighboring criteria during minimization (../min.cpp:168)
Memory usage per processor = 3.35815 Mbytes
Step Temp PotEng Lx Ly Lz 
      99            0   -963.66056    4.4898149    77.781598    1.1224537 
     100            0   -963.66063    4.4898149    77.781598    1.1224537 
     101            0    -963.6607    4.4898149    77.781598    1.1224537 
     102            0    -963.6607    4.4898149    77.781598    1.1224537 
Loop time of 0.00302593 on 1 procs for 3 steps with 324 atoms

Minimization stats:
  Stopping criterion = linesearch alpha is zero
  Energy initial, next-to-last, final = 
        -963.660561667     -963.660697128     -963.660697128
  Force two-norm initial, final = 0.126596 0.0593861
  Force max component initial, final = 0.0406553 0.0166381
  Final line search alpha, max atom move = 1.90735e-06 3.17347e-08
  Iterations, force evaluations = 3 34

Pair  time (%) = 0.00274026 (90.559)
Neigh time (%) = 0 (0)
Comm  time (%) = 6.65366e-05 (2.19888)
Outpt time (%) = 1.59753e-05 (0.527947)
Other time (%) = 0.000203165 (6.71413)

Nlocal:    324 ave 324 max 324 min
Histogram: 1 0 0 0 0 0 0 0 0 0
Nghost:    345 ave 345 max 345 min
Histogram: 1 0 0 0 0 0 0 0 0 0
Neighs:    2868 ave 2868 max 2868 min
Histogram: 1 0 0 0 0 0 0 0 0 0

Total # of neighbors = 2868
Ave neighs/atom = 8.85185
Neighbor list builds = 0
Dangerous builds = 0
        # write_dump all atom ${dumpfile}
        next i
jump SELF loop1
        displace_atoms upper move ${xstep1} 0.0 0.0 units lattice
        displace_atoms upper move 0.00333333333333333 0.0 0.0 units lattice
        min_style ${style}
        min_style cg
        minimize ${etol} ${ftol} ${maxiter} ${maxeval}
        minimize 1e-12 ${ftol} ${maxiter} ${maxeval}
        minimize 1e-12 1e-08 ${maxiter} ${maxeval}
        minimize 1e-12 1e-08 10000 ${maxeval}
        minimize 1e-12 1e-08 10000 20000
WARNING: Resetting reneighboring criteria during minimization (../min.cpp:168)
Memory usage per processor = 3.35815 Mbytes
Step Temp PotEng Lx Ly Lz 
     102            0    -963.6413    4.4898149      77.7816    1.1224537 
     103            0   -963.64135    4.4898149      77.7816    1.1224537 
     104            0   -963.64139    4.4898149      77.7816    1.1224537 
     105            0   -963.64142    4.4898149      77.7816    1.1224537 
     106            0   -963.64148    4.4898149      77.7816    1.1224537 
     107            0   -963.64153    4.4898149      77.7816    1.1224537 
     108            0   -963.64155    4.4898149      77.7816    1.1224537 
     109            0    -963.6416    4.4898149      77.7816    1.1224537 
     110            0   -963.64161    4.4898149      77.7816    1.1224537 
     111            0   -963.64163    4.4898149      77.7816    1.1224537 
     112            0   -963.64165    4.4898149      77.7816    1.1224537 
     113            0   -963.64165    4.4898149      77.7816    1.1224537 
     114            0   -963.64166    4.4898149      77.7816    1.1224537 
     115            0   -963.64167    4.4898149      77.7816    1.1224537 
     116            0   -963.64168    4.4898149      77.7816    1.1224537 
     117            0   -963.64171    4.4898149      77.7816    1.1224537 
     118            0   -963.64174    4.4898149      77.7816    1.1224537 
     119            0   -963.64176    4.4898149      77.7816    1.1224537 
     120            0   -963.64176    4.4898149      77.7816    1.1224537 
Loop time of 0.00854803 on 1 procs for 18 steps with 324 atoms

Minimization stats:
  Stopping criterion = linesearch alpha is zero
  Energy initial, next-to-last, final = 
        -963.641300079     -963.641756719     -963.641756719
  Force two-norm initial, final = 0.11531 0.0155176
  Force max component initial, final = 0.0349972 0.00190243
  Final line search alpha, max atom move = 1.52588e-05 2.90287e-08
  Iterations, force evaluations = 18 132

Pair  time (%) = 0.00739746 (86.5399)
Neigh time (%) = 0 (0)
Comm  time (%) = 0.000243333 (2.84666)
Outpt time (%) = 0.000133069 (1.55672)
Other time (%) = 0.000774167 (9.05668)

Nlocal:    324 ave 324 max 324 min
Histogram: 1 0 0 0 0 0 0 0 0 0
Nghost:    345 ave 345 max 345 min
Histogram: 1 0 0 0 0 0 0 0 0 0
Neighs:    2868 ave 2868 max 2868 min
Histogram: 1 0 0 0 0 0 0 0 0 0

Total # of neighbors = 2868
Ave neighs/atom = 8.85185
Neighbor list builds = 0
Dangerous builds = 0
        # write_dump all atom ${dumpfile}
        next i
jump SELF loop1
        displace_atoms upper move ${xstep1} 0.0 0.0 units lattice
        displace_atoms upper move 0.00333333333333333 0.0 0.0 units lattice
        min_style ${style}
        min_style cg
        minimize ${etol} ${ftol} ${maxiter} ${maxeval}
        minimize 1e-12 ${ftol} ${maxiter} ${maxeval}
        minimize 1e-12 1e-08 ${maxiter} ${maxeval}
        minimize 1e-12 1e-08 10000 ${maxeval}
        minimize 1e-12 1e-08 10000 20000
WARNING: Resetting reneighboring criteria during minimization (../min.cpp:168)
Memory usage per processor = 3.35815 Mbytes
Step Temp PotEng Lx Ly Lz 
     120            0   -963.62197    4.4898149    77.781659    1.1224537 
     121            0     -963.622    4.4898149    77.781659    1.1224537 
     122            0     -963.622    4.4898149    77.781659    1.1224537 
Loop time of 0.00255495 on 1 procs for 2 steps with 324 atoms

Minimization stats:
  Stopping criterion = linesearch alpha is zero
  Energy initial, next-to-last, final = 
        -963.621972513     -963.622000543     -963.622000543
  Force two-norm initial, final = 0.0986472 0.0551121
  Force max component initial, final = 0.0344618 0.0184246
  Final line search alpha, max atom move = 3.8147e-06 7.02843e-08
  Iterations, force evaluations = 2 28

Pair  time (%) = 0.00222326 (87.0176)
Neigh time (%) = 0 (0)
Comm  time (%) = 0.000121964 (4.77364)
Outpt time (%) = 5.10295e-06 (0.199728)
Other time (%) = 0.000204626 (8.00901)

Nlocal:    324 ave 324 max 324 min
Histogram: 1 0 0 0 0 0 0 0 0 0
Nghost:    345 ave 345 max 345 min
Histogram: 1 0 0 0 0 0 0 0 0 0
Neighs:    2868 ave 2868 max 2868 min
Histogram: 1 0 0 0 0 0 0 0 0 0

Total # of neighbors = 2868
Ave neighs/atom = 8.85185
Neighbor list builds = 0
Dangerous builds = 0
        # write_dump all atom ${dumpfile}
        next i
jump SELF loop1
        displace_atoms upper move ${xstep1} 0.0 0.0 units lattice
        displace_atoms upper move 0.00333333333333333 0.0 0.0 units lattice
        min_style ${style}
        min_style cg
        minimize ${etol} ${ftol} ${maxiter} ${maxeval}
        minimize 1e-12 ${ftol} ${maxiter} ${maxeval}
        minimize 1e-12 1e-08 ${maxiter} ${maxeval}
        minimize 1e-12 1e-08 10000 ${maxeval}
        minimize 1e-12 1e-08 10000 20000
WARNING: Resetting reneighboring criteria during minimization (../min.cpp:168)
Memory usage per processor = 3.35815 Mbytes
Step Temp PotEng Lx Ly Lz 
     122            0    -963.6017    4.4898149    77.781659    1.1224537 
     123            0    -963.6018    4.4898149    77.781659    1.1224537 
     124            0    -963.6018    4.4898149    77.781659    1.1224537 
Loop time of 0.00250709 on 1 procs for 2 steps with 324 atoms

Minimization stats:
  Stopping criterion = linesearch alpha is zero
  Energy initial, next-to-last, final = 
        -963.601702086     -963.601796928     -963.601796928
  Force two-norm initial, final = 0.149233 0.051764
  Force max component initial, final = 0.0523793 0.0168312
  Final line search alpha, max atom move = 3.8147e-06 6.42059e-08
  Iterations, force evaluations = 2 27

Pair  time (%) = 0.00228893 (91.2982)
Neigh time (%) = 0 (0)
Comm  time (%) = 5.58037e-05 (2.22584)
Outpt time (%) = 7.04196e-06 (0.280882)
Other time (%) = 0.000155315 (6.19505)

Nlocal:    324 ave 324 max 324 min
Histogram: 1 0 0 0 0 0 0 0 0 0
Nghost:    345 ave 345 max 345 min
Histogram: 1 0 0 0 0 0 0 0 0 0
Neighs:    2868 ave 2868 max 2868 min
Histogram: 1 0 0 0 0 0 0 0 0 0

Total # of neighbors = 2868
Ave neighs/atom = 8.85185
Neighbor list builds = 0
Dangerous builds = 0
        # write_dump all atom ${dumpfile}
        next i
jump SELF loop1
        displace_atoms upper move ${xstep1} 0.0 0.0 units lattice
        displace_atoms upper move 0.00333333333333333 0.0 0.0 units lattice
        min_style ${style}
        min_style cg
        minimize ${etol} ${ftol} ${maxiter} ${maxeval}
        minimize 1e-12 ${ftol} ${maxiter} ${maxeval}
        minimize 1e-12 1e-08 ${maxiter} ${maxeval}
        minimize 1e-12 1e-08 10000 ${maxeval}
        minimize 1e-12 1e-08 10000 20000
WARNING: Resetting reneighboring criteria during minimization (../min.cpp:168)
Memory usage per processor = 3.35815 Mbytes
Step Temp PotEng Lx Ly Lz 
     124            0   -963.58106    4.4898149     77.78166    1.1224537 
     125            0   -963.58114    4.4898149     77.78166    1.1224537 
     126            0   -963.58115    4.4898149     77.78166    1.1224537 
     127            0   -963.58117    4.4898149     77.78166    1.1224537 
     128            0   -963.58118    4.4898149     77.78166    1.1224537 
     129            0    -963.5812    4.4898149     77.78166    1.1224537 
     130            0   -963.58123    4.4898149     77.78166    1.1224537 
     131            0   -963.58124    4.4898149     77.78166    1.1224537 
     132            0   -963.58126    4.4898149     77.78166    1.1224537 
     133            0   -963.58126    4.4898149     77.78166    1.1224537 
Loop time of 0.00816091 on 1 procs for 9 steps with 324 atoms

Minimization stats:
  Stopping criterion = linesearch alpha is zero
  Energy initial, next-to-last, final = 
        -963.581063159     -963.581259305     -963.581259305
  Force two-norm initial, final = 0.122382 0.0354318
  Force max component initial, final = 0.0395514 0.00797921
  Final line search alpha, max atom move = 7.62939e-06 6.08765e-08
  Iterations, force evaluations = 9 76

Pair  time (%) = 0.00743409 (91.094)
Neigh time (%) = 0 (0)
Comm  time (%) = 0.000169242 (2.07381)
Outpt time (%) = 7.62489e-05 (0.934319)
Other time (%) = 0.000481321 (5.89789)

Nlocal:    324 ave 324 max 324 min
Histogram: 1 0 0 0 0 0 0 0 0 0
Nghost:    345 ave 345 max 345 min
Histogram: 1 0 0 0 0 0 0 0 0 0
Neighs:    2868 ave 2868 max 2868 min
Histogram: 1 0 0 0 0 0 0 0 0 0

Total # of neighbors = 2868
Ave neighs/atom = 8.85185
Neighbor list builds = 0
Dangerous builds = 0
        # write_dump all atom ${dumpfile}
        next i
jump SELF loop1
        displace_atoms upper move ${xstep1} 0.0 0.0 units lattice
        displace_atoms upper move 0.00333333333333333 0.0 0.0 units lattice
        min_style ${style}
        min_style cg
        minimize ${etol} ${ftol} ${maxiter} ${maxeval}
        minimize 1e-12 ${ftol} ${maxiter} ${maxeval}
        minimize 1e-12 1e-08 ${maxiter} ${maxeval}
        minimize 1e-12 1e-08 10000 ${maxeval}
        minimize 1e-12 1e-08 10000 20000
WARNING: Resetting reneighboring criteria during minimization (../min.cpp:168)
Memory usage per processor = 3.35815 Mbytes
Step Temp PotEng Lx Ly Lz 
     133            0   -963.56016    4.4898149    77.781684    1.1224537 
     134            0   -963.56021    4.4898149    77.781684    1.1224537 
     135            0   -963.56022    4.4898149    77.781684    1.1224537 
     136            0   -963.56024    4.4898149    77.781684    1.1224537 
     137            0   -963.56025    4.4898149    77.781684    1.1224537 
     138            0   -963.56025    4.4898149    77.781684    1.1224537 
Loop time of 0.00319994 on 1 procs for 5 steps with 324 atoms

Minimization stats:
  Stopping criterion = linesearch alpha is zero
  Energy initial, next-to-last, final = 
         -963.56015824     -963.560250211     -963.560250211
  Force two-norm initial, final = 0.123345 0.0434905
  Force max component initial, final = 0.0425264 0.0113847
  Final line search alpha, max atom move = 3.8147e-06 4.34293e-08
  Iterations, force evaluations = 5 48

Pair  time (%) = 0.00276315 (86.3501)
Neigh time (%) = 0 (0)
Comm  time (%) = 8.66422e-05 (2.70762)
Outpt time (%) = 3.49591e-05 (1.09249)
Other time (%) = 0.000315188 (9.84983)

Nlocal:    324 ave 324 max 324 min
Histogram: 1 0 0 0 0 0 0 0 0 0
Nghost:    345 ave 345 max 345 min
Histogram: 1 0 0 0 0 0 0 0 0 0
Neighs:    2868 ave 2868 max 2868 min
Histogram: 1 0 0 0 0 0 0 0 0 0

Total # of neighbors = 2868
Ave neighs/atom = 8.85185
Neighbor list builds = 0
Dangerous builds = 0
        # write_dump all atom ${dumpfile}
        next i
jump SELF loop1
        displace_atoms upper move ${xstep1} 0.0 0.0 units lattice
        displace_atoms upper move 0.00333333333333333 0.0 0.0 units lattice
        min_style ${style}
        min_style cg
        minimize ${etol} ${ftol} ${maxiter} ${maxeval}
        minimize 1e-12 ${ftol} ${maxiter} ${maxeval}
        minimize 1e-12 1e-08 ${maxiter} ${maxeval}
        minimize 1e-12 1e-08 10000 ${maxeval}
        minimize 1e-12 1e-08 10000 20000
WARNING: Resetting reneighboring criteria during minimization (../min.cpp:168)
Memory usage per processor = 3.35815 Mbytes
Step Temp PotEng Lx Ly Lz 
     138            0   -963.53876    4.4898149      77.7817    1.1224537 
     139            0   -963.53877    4.4898149      77.7817    1.1224537 
     140            0   -963.53879    4.4898149      77.7817    1.1224537 
     141            0    -963.5388    4.4898149      77.7817    1.1224537 
     142            0    -963.5388    4.4898149      77.7817    1.1224537 
Loop time of 0.00404094 on 1 procs for 4 steps with 324 atoms

Minimization stats:
  Stopping criterion = linesearch alpha is zero
  Energy initial, next-to-last, final = 
        -963.538759215     -963.538800641     -963.538800641
  Force two-norm initial, final = 0.109585 0.0354561
  Force max component initial, final = 0.0355701 0.0100763
  Final line search alpha, max atom move = 7.62939e-06 7.6876e-08
[...]
Neighbor list builds = 0
Dangerous builds = 0
        # write_dump all atom ${dumpfile}
        next i
jump SELF loop1
        displace_atoms upper move ${xstep1} 0.0 0.0 units lattice
        displace_atoms upper move 0.00333333333333333 0.0 0.0 units lattice
        min_style ${style}
        min_style cg
        minimize ${etol} ${ftol} ${maxiter} ${maxeval}
        minimize 1e-12 ${ftol} ${maxiter} ${maxeval}
        minimize 1e-12 1e-08 ${maxiter} ${maxeval}
        minimize 1e-12 1e-08 10000 ${maxeval}
        minimize 1e-12 1e-08 10000 20000
WARNING: Resetting reneighboring criteria during minimization (../min.cpp:168)
Memory usage per processor = 3.35815 Mbytes
Step Temp PotEng Lx Ly Lz 
    1214            0   -963.96923    4.4898149    77.830491    1.1224537 
    1215            0   -963.96923    4.4898149    77.830491    1.1224537 
Loop time of 0.00103711 on 1 procs for 1 steps with 324 atoms

Minimization stats:
  Stopping criterion = linesearch alpha is zero
  Energy initial, next-to-last, final = 
        -963.969232351     -963.969232351     -963.969232351
  Force two-norm initial, final = 0.0544341 0.0544341
  Force max component initial, final = 0.010217 0.010217
  Final line search alpha, max atom move = 3.8147e-06 3.89747e-08
  Iterations, force evaluations = 1 19

Pair  time (%) = 0.000919668 (88.6761)
Neigh time (%) = 0 (0)
Comm  time (%) = 2.93594e-05 (2.83088)
Outpt time (%) = 0 (0)
Other time (%) = 8.80822e-05 (8.49304)

Nlocal:    324 ave 324 max 324 min
Histogram: 1 0 0 0 0 0 0 0 0 0
Nghost:    365 ave 365 max 365 min
Histogram: 1 0 0 0 0 0 0 0 0 0
Neighs:    2876 ave 2876 max 2876 min
Histogram: 1 0 0 0 0 0 0 0 0 0

Total # of neighbors = 2876
Ave neighs/atom = 8.87654
Neighbor list builds = 0
Dangerous builds = 0
        # write_dump all atom ${dumpfile}
        next i
jump SELF loop1
        displace_atoms upper move ${xstep1} 0.0 0.0 units lattice
        displace_atoms upper move 0.00333333333333333 0.0 0.0 units lattice
        min_style ${style}
        min_style cg
        minimize ${etol} ${ftol} ${maxiter} ${maxeval}
        minimize 1e-12 ${ftol} ${maxiter} ${maxeval}
        minimize 1e-12 1e-08 ${maxiter} ${maxeval}
        minimize 1e-12 1e-08 10000 ${maxeval}
        minimize 1e-12 1e-08 10000 20000
WARNING: Resetting reneighboring criteria during minimization (../min.cpp:168)
Memory usage per processor = 3.35815 Mbytes
Step Temp PotEng Lx Ly Lz 
    1215            0    -963.9749    4.4898149    77.830491    1.1224537 
    1216            0   -963.97493    4.4898149    77.830491    1.1224537 
    1217            0   -963.97495    4.4898149    77.830491    1.1224537 
    1218            0   -963.97498    4.4898149    77.830491    1.1224537 
    1219            0   -963.97501    4.4898149    77.830491    1.1224537 
    1220            0   -963.97506    4.4898149    77.830491    1.1224537 
    1221            0   -963.97507    4.4898149    77.830491    1.1224537 
    1222            0   -963.97507    4.4898149    77.830491    1.1224537 
Loop time of 0.00742092 on 1 procs for 7 steps with 324 atoms

Minimization stats:
  Stopping criterion = linesearch alpha is zero
  Energy initial, next-to-last, final = 
        -963.974899681     -963.975069838     -963.975069838
  Force two-norm initial, final = 0.0766984 0.0572799
  Force max component initial, final = 0.0213922 0.0107501
  Final line search alpha, max atom move = 1.90735e-06 2.05041e-08
  Iterations, force evaluations = 7 62

Pair  time (%) = 0.00671145 (90.4396)
Neigh time (%) = 0 (0)
Comm  time (%) = 0.000167264 (2.25396)
Outpt time (%) = 0.000123904 (1.66966)
Other time (%) = 0.000418302 (5.63679)

Nlocal:    324 ave 324 max 324 min
Histogram: 1 0 0 0 0 0 0 0 0 0
Nghost:    365 ave 365 max 365 min
Histogram: 1 0 0 0 0 0 0 0 0 0
Neighs:    2876 ave 2876 max 2876 min
Histogram: 1 0 0 0 0 0 0 0 0 0

Total # of neighbors = 2876
Ave neighs/atom = 8.87654
Neighbor list builds = 0
Dangerous builds = 0
        # write_dump all atom ${dumpfile}
        next i
jump SELF loop1
        displace_atoms upper move ${xstep1} 0.0 0.0 units lattice
        displace_atoms upper move 0.00333333333333333 0.0 0.0 units lattice
        min_style ${style}
        min_style cg
        minimize ${etol} ${ftol} ${maxiter} ${maxeval}
        minimize 1e-12 ${ftol} ${maxiter} ${maxeval}
        minimize 1e-12 1e-08 ${maxiter} ${maxeval}
        minimize 1e-12 1e-08 10000 ${maxeval}
        minimize 1e-12 1e-08 10000 20000
WARNING: Resetting reneighboring criteria during minimization (../min.cpp:168)
Memory usage per processor = 3.35815 Mbytes
Step Temp PotEng Lx Ly Lz 
    1222            0    -963.9801    4.4898149    77.829559    1.1224537 
    1223            0    -963.9801    4.4898149    77.829559    1.1224537 
Loop time of 0.00134889 on 1 procs for 1 steps with 324 atoms

Minimization stats:
  Stopping criterion = linesearch alpha is zero
  Energy initial, next-to-last, final = 
         -963.98010277      -963.98010277      -963.98010277
  Force two-norm initial, final = 0.0742636 0.0742636
  Force max component initial, final = 0.0185895 0.0185895
  Final line search alpha, max atom move = 1.90735e-06 3.54566e-08
  Iterations, force evaluations = 1 20

Pair  time (%) = 0.0011862 (87.9389)
Neigh time (%) = 0 (0)
Comm  time (%) = 4.00163e-05 (2.96661)
Outpt time (%) = 0 (0)
Other time (%) = 0.000122674 (9.09448)

Nlocal:    324 ave 324 max 324 min
Histogram: 1 0 0 0 0 0 0 0 0 0
Nghost:    365 ave 365 max 365 min
Histogram: 1 0 0 0 0 0 0 0 0 0
Neighs:    2876 ave 2876 max 2876 min
Histogram: 1 0 0 0 0 0 0 0 0 0

Total # of neighbors = 2876
Ave neighs/atom = 8.87654
Neighbor list builds = 0
Dangerous builds = 0
        # write_dump all atom ${dumpfile}
        next i
jump SELF loop1
        displace_atoms upper move ${xstep1} 0.0 0.0 units lattice
        displace_atoms upper move 0.00333333333333333 0.0 0.0 units lattice
        min_style ${style}
        min_style cg
        minimize ${etol} ${ftol} ${maxiter} ${maxeval}
        minimize 1e-12 ${ftol} ${maxiter} ${maxeval}
        minimize 1e-12 1e-08 ${maxiter} ${maxeval}
        minimize 1e-12 1e-08 10000 ${maxeval}
        minimize 1e-12 1e-08 10000 20000
WARNING: Resetting reneighboring criteria during minimization (../min.cpp:168)
Memory usage per processor = 3.35815 Mbytes
Step Temp PotEng Lx Ly Lz 
    1223            0   -963.98447    4.4898149    77.829559    1.1224537 
    1224            0   -963.98448    4.4898149    77.829559    1.1224537 
    1225            0    -963.9845    4.4898149    77.829559    1.1224537 
    1226            0    -963.9845    4.4898149    77.829559    1.1224537 
    1227            0    -963.9845    4.4898149    77.829559    1.1224537 
    1228            0   -963.98458    4.4898149    77.829559    1.1224537 
    1229            0   -963.98462    4.4898149    77.829559    1.1224537 
    1230            0   -963.98467    4.4898149    77.829559    1.1224537 
    1231            0   -963.98485    4.4898149    77.829559    1.1224537 
    1232            0   -963.98501    4.4898149    77.829559    1.1224537 
    1233            0   -963.98519    4.4898149    77.829559    1.1224537 
    1234            0   -963.98531    4.4898149    77.829559    1.1224537 
    1235            0   -963.98548    4.4898149    77.829559    1.1224537 
    1236            0   -963.98558    4.4898149    77.829559    1.1224537 
    1237            0   -963.98565    4.4898149    77.829559    1.1224537 
    1238            0   -963.98566    4.4898149    77.829559    1.1224537 
    1239            0   -963.98572    4.4898149    77.829559    1.1224537 
    1240            0   -963.98573    4.4898149    77.829559    1.1224537 
    1241            0   -963.98574    4.4898149    77.829559    1.1224537 
    1242            0   -963.98576    4.4898149    77.829559    1.1224537 
    1243            0   -963.98577    4.4898149    77.829559    1.1224537 
    1244            0    -963.9858    4.4898149    77.829559    1.1224537 
    1245            0    -963.9858    4.4898149    77.829559    1.1224537 
Loop time of 0.012729 on 1 procs for 22 steps with 324 atoms

Minimization stats:
  Stopping criterion = linesearch alpha is zero
  Energy initial, next-to-last, final = 
        -963.984467312     -963.985804113     -963.985804113
  Force two-norm initial, final = 0.0941815 0.0699548
  Force max component initial, final = 0.0276613 0.0119155
  Final line search alpha, max atom move = 1.90735e-06 2.2727e-08
  Iterations, force evaluations = 22 160

Pair  time (%) = 0.0105653 (83.0025)
Neigh time (%) = 0 (0)
Comm  time (%) = 0.000394097 (3.09607)
Outpt time (%) = 0.000200723 (1.5769)
Other time (%) = 0.00156879 (12.3246)

Nlocal:    324 ave 324 max 324 min
Histogram: 1 0 0 0 0 0 0 0 0 0
Nghost:    365 ave 365 max 365 min
Histogram: 1 0 0 0 0 0 0 0 0 0
Neighs:    2876 ave 2876 max 2876 min
Histogram: 1 0 0 0 0 0 0 0 0 0

Total # of neighbors = 2876
Ave neighs/atom = 8.87654
Neighbor list builds = 0
Dangerous builds = 0
        # write_dump all atom ${dumpfile}
        next i
jump SELF loop1
        displace_atoms upper move ${xstep1} 0.0 0.0 units lattice
        displace_atoms upper move 0.00333333333333333 0.0 0.0 units lattice
        min_style ${style}
        min_style cg
        minimize ${etol} ${ftol} ${maxiter} ${maxeval}
        minimize 1e-12 ${ftol} ${maxiter} ${maxeval}
        minimize 1e-12 1e-08 ${maxiter} ${maxeval}
        minimize 1e-12 1e-08 10000 ${maxeval}
        minimize 1e-12 1e-08 10000 20000
WARNING: Resetting reneighboring criteria during minimization (../min.cpp:168)
Memory usage per processor = 3.35815 Mbytes
Step Temp PotEng Lx Ly Lz 
    1245            0   -963.98953    4.4898149    77.817931    1.1224537 
    1246            0   -963.98953    4.4898149    77.817931    1.1224537 
Loop time of 0.00141406 on 1 procs for 1 steps with 324 atoms

Minimization stats:
  Stopping criterion = linesearch alpha is zero
  Energy initial, next-to-last, final = 
        -963.989529509     -963.989529509     -963.989529509
  Force two-norm initial, final = 0.0803044 0.0803044
  Force max component initial, final = 0.0164331 0.0164331
  Final line search alpha, max atom move = 1.90735e-06 3.13436e-08
  Iterations, force evaluations = 1 20

Pair  time (%) = 0.0012641 (89.3953)
Neigh time (%) = 0 (0)
Comm  time (%) = 4.12051e-05 (2.91396)
Outpt time (%) = 0 (0)
Other time (%) = 0.000108751 (7.6907)

Nlocal:    324 ave 324 max 324 min
Histogram: 1 0 0 0 0 0 0 0 0 0
Nghost:    365 ave 365 max 365 min
Histogram: 1 0 0 0 0 0 0 0 0 0
Neighs:    2876 ave 2876 max 2876 min
Histogram: 1 0 0 0 0 0 0 0 0 0

Total # of neighbors = 2876
Ave neighs/atom = 8.87654
Neighbor list builds = 0
Dangerous builds = 0
        # write_dump all atom ${dumpfile}
        next i
jump SELF loop1
        displace_atoms upper move ${xstep1} 0.0 0.0 units lattice
        displace_atoms upper move 0.00333333333333333 0.0 0.0 units lattice
        min_style ${style}
        min_style cg
        minimize ${etol} ${ftol} ${maxiter} ${maxeval}
        minimize 1e-12 ${ftol} ${maxiter} ${maxeval}
        minimize 1e-12 1e-08 ${maxiter} ${maxeval}
        minimize 1e-12 1e-08 10000 ${maxeval}
        minimize 1e-12 1e-08 10000 20000
WARNING: Resetting reneighboring criteria during minimization (../min.cpp:168)
Memory usage per processor = 3.35815 Mbytes
Step Temp PotEng Lx Ly Lz 
    1246            0   -963.99258    4.4898149    77.817931    1.1224537 
    1247            0    -963.9926    4.4898149    77.817931    1.1224537 
    1248            0   -963.99261    4.4898149    77.817931    1.1224537 
    1249            0   -963.99261    4.4898149    77.817931    1.1224537 
    1250            0   -963.99261    4.4898149    77.817931    1.1224537 
    1251            0   -963.99261    4.4898149    77.817931    1.1224537 
Loop time of 0.00393197 on 1 procs for 5 steps with 324 atoms

Minimization stats:
  Stopping criterion = linesearch alpha is zero
  Energy initial, next-to-last, final = 
        -963.992579265     -963.992606121     -963.992606121
  Force two-norm initial, final = 0.0918502 0.019957
  Force max component initial, final = 0.0227738 0.00330273
  Final line search alpha, max atom move = 3.05176e-05 1.00791e-07
  Iterations, force evaluations = 5 58

Pair  time (%) = 0.00346433 (88.1069)
Neigh time (%) = 0 (0)
Comm  time (%) = 0.000110134 (2.801)
Outpt time (%) = 3.48849e-05 (0.887213)
Other time (%) = 0.000322615 (8.20492)

Nlocal:    324 ave 324 max 324 min
Histogram: 1 0 0 0 0 0 0 0 0 0
Nghost:    365 ave 365 max 365 min
Histogram: 1 0 0 0 0 0 0 0 0 0
Neighs:    2876 ave 2876 max 2876 min
Histogram: 1 0 0 0 0 0 0 0 0 0

Total # of neighbors = 2876
Ave neighs/atom = 8.87654
Neighbor list builds = 0
Dangerous builds = 0
        # write_dump all atom ${dumpfile}
        next i
jump SELF loop1
        displace_atoms upper move ${xstep1} 0.0 0.0 units lattice
        displace_atoms upper move 0.00333333333333333 0.0 0.0 units lattice
        min_style ${style}
        min_style cg
        minimize ${etol} ${ftol} ${maxiter} ${maxeval}
        minimize 1e-12 ${ftol} ${maxiter} ${maxeval}
        minimize 1e-12 1e-08 ${maxiter} ${maxeval}
        minimize 1e-12 1e-08 10000 ${maxeval}
        minimize 1e-12 1e-08 10000 20000
WARNING: Resetting reneighboring criteria during minimization (../min.cpp:168)
Memory usage per processor = 3.35815 Mbytes
Step Temp PotEng Lx Ly Lz 
    1251            0   -963.99499    4.4898149    77.817908    1.1224537 
    1252            0     -963.995    4.4898149    77.817908    1.1224537 
    1253            0     -963.995    4.4898149    77.817908    1.1224537 
    1254            0     -963.995    4.4898149    77.817908    1.1224537 
    1255            0     -963.995    4.4898149    77.817908    1.1224537 
Loop time of 0.00578396 on 1 procs for 4 steps with 324 atoms

Minimization stats:
  Stopping criterion = linesearch alpha is zero
  Energy initial, next-to-last, final = 
        -963.994985986     -963.995004241     -963.995004241
  Force two-norm initial, final = 0.0265205 0.0441652
  Force max component initial, final = 0.00633856 0.0121552
  Final line search alpha, max atom move = 3.8147e-06 4.63683e-08
  Iterations, force evaluations = 4 42

Pair  time (%) = 0.00204654 (35.3831)
Neigh time (%) = 0 (0)
Comm  time (%) = 0.00349961 (60.5055)
Outpt time (%) = 2.60475e-05 (0.45034)
Other time (%) = 0.000211757 (3.66111)

Nlocal:    324 ave 324 max 324 min
Histogram: 1 0 0 0 0 0 0 0 0 0
Nghost:    365 ave 365 max 365 min
Histogram: 1 0 0 0 0 0 0 0 0 0
Neighs:    2876 ave 2876 max 2876 min
Histogram: 1 0 0 0 0 0 0 0 0 0

Total # of neighbors = 2876
Ave neighs/atom = 8.87654
Neighbor list builds = 0
Dangerous builds = 0
        # write_dump all atom ${dumpfile}
        next i
jump SELF loop1
        displace_atoms upper move ${xstep1} 0.0 0.0 units lattice
        displace_atoms upper move 0.00333333333333333 0.0 0.0 units lattice
        min_style ${style}
        min_style cg
        minimize ${etol} ${ftol} ${maxiter} ${maxeval}
        minimize 1e-12 ${ftol} ${maxiter} ${maxeval}
        minimize 1e-12 1e-08 ${maxiter} ${maxeval}
        minimize 1e-12 1e-08 10000 ${maxeval}
        minimize 1e-12 1e-08 10000 20000
WARNING: Resetting reneighboring criteria during minimization (../min.cpp:168)
Memory usage per processor = 3.35815 Mbytes
Step Temp PotEng Lx Ly Lz 
    1255            0   -963.99671    4.4898149    77.817732    1.1224537 
    1256            0   -963.99671    4.4898149    77.817732    1.1224537 
Loop time of 0.001386 on 1 procs for 1 steps with 324 atoms

Minimization stats:
  Stopping criterion = linesearch alpha is zero
  Energy initial, next-to-last, final = 
        -963.996709666     -963.996709666     -963.996709666
  Force two-norm initial, final = 0.0369132 0.0369132
  Force max component initial, final = 0.00861048 0.00861048
  Final line search alpha, max atom move = 7.62939e-06 6.56927e-08
  Iterations, force evaluations = 1 18

Pair  time (%) = 0.00124495 (89.8237)
Neigh time (%) = 0 (0)
Comm  time (%) = 4.14515e-05 (2.99074)
Outpt time (%) = 0 (0)
Other time (%) = 9.95918e-05 (7.18557)

Nlocal:    324 ave 324 max 324 min
Histogram: 1 0 0 0 0 0 0 0 0 0
Nghost:    365 ave 365 max 365 min
Histogram: 1 0 0 0 0 0 0 0 0 0
Neighs:    2876 ave 2876 max 2876 min
Histogram: 1 0 0 0 0 0 0 0 0 0

Total # of neighbors = 2876
Ave neighs/atom = 8.87654
Neighbor list builds = 0
Dangerous builds = 0
        # write_dump all atom ${dumpfile}
        next i
jump SELF loop1
        displace_atoms upper move ${xstep1} 0.0 0.0 units lattice
        displace_atoms upper move 0.00333333333333333 0.0 0.0 units lattice
        min_style ${style}
        min_style cg
        minimize ${etol} ${ftol} ${maxiter} ${maxeval}
        minimize 1e-12 ${ftol} ${maxiter} ${maxeval}
        minimize 1e-12 1e-08 ${maxiter} ${maxeval}
        minimize 1e-12 1e-08 10000 ${maxeval}
        minimize 1e-12 1e-08 10000 20000
WARNING: Resetting reneighboring criteria during minimization (../min.cpp:168)
Memory usage per processor = 3.35815 Mbytes
Step Temp PotEng Lx Ly Lz 
    1256            0   -963.99773    4.4898149    77.817732    1.1224537 
    1257            0   -963.99773    4.4898149    77.817732    1.1224537 
Loop time of 0.001283 on 1 procs for 1 steps with 324 atoms

Minimization stats:
  Stopping criterion = linesearch alpha is zero
  Energy initial, next-to-last, final = 
        -963.997733113     -963.997733113     -963.997733113
  Force two-norm initial, final = 0.0332604 0.0332604
  Force max component initial, final = 0.0064833 0.0064833
  Final line search alpha, max atom move = 7.62939e-06 4.94636e-08
  Iterations, force evaluations = 1 18

Pair  time (%) = 0.00114691 (89.3932)
Neigh time (%) = 0 (0)
Comm  time (%) = 3.61179e-05 (2.81512)
Outpt time (%) = 0 (0)
Other time (%) = 9.99672e-05 (7.7917)

Nlocal:    324 ave 324 max 324 min
Histogram: 1 0 0 0 0 0 0 0 0 0
Nghost:    365 ave 365 max 365 min
Histogram: 1 0 0 0 0 0 0 0 0 0
Neighs:    2876 ave 2876 max 2876 min
Histogram: 1 0 0 0 0 0 0 0 0 0

Total # of neighbors = 2876
Ave neighs/atom = 8.87654
Neighbor list builds = 0
Dangerous builds = 0
        # write_dump all atom ${dumpfile}
        next i
jump SELF loop1
        displace_atoms upper move ${xstep1} 0.0 0.0 units lattice
        displace_atoms upper move 0.00333333333333333 0.0 0.0 units lattice
        min_style ${style}
        min_style cg
        minimize ${etol} ${ftol} ${maxiter} ${maxeval}
        minimize 1e-12 ${ftol} ${maxiter} ${maxeval}
        minimize 1e-12 1e-08 ${maxiter} ${maxeval}
        minimize 1e-12 1e-08 10000 ${maxeval}
        minimize 1e-12 1e-08 10000 20000
WARNING: Resetting reneighboring criteria during minimization (../min.cpp:168)
Memory usage per processor = 3.35815 Mbytes
Step Temp PotEng Lx Ly Lz 
    1257            0   -963.99807    4.4898149    77.817732    1.1224537 
    1258            0   -963.99807    4.4898149    77.817732    1.1224537 
Loop time of 0.00167499 on 1 procs for 1 steps with 324 atoms

Minimization stats:
  Stopping criterion = linesearch alpha is zero
  Energy initial, next-to-last, final = 
        -963.998074311     -963.998074311     -963.998074311
  Force two-norm initial, final = 0.0322008 0.0322008
  Force max component initial, final = 0.00577414 0.00577414
  Final line search alpha, max atom move = 7.62939e-06 4.40532e-08
  Iterations, force evaluations = 1 18

Pair  time (%) = 0.00143121 (85.4455)
Neigh time (%) = 0 (0)
Comm  time (%) = 6.02746e-05 (3.5985)
Outpt time (%) = 0 (0)
Other time (%) = 0.000183513 (10.956)

Nlocal:    324 ave 324 max 324 min
Histogram: 1 0 0 0 0 0 0 0 0 0
Nghost:    365 ave 365 max 365 min
Histogram: 1 0 0 0 0 0 0 0 0 0
Neighs:    2876 ave 2876 max 2876 min
Histogram: 1 0 0 0 0 0 0 0 0 0

Total # of neighbors = 2876
Ave neighs/atom = 8.87654
Neighbor list builds = 0
Dangerous builds = 0
        # write_dump all atom ${dumpfile}
        next i
jump SELF loop1


