LAMMPS (28 Jun 2014)
# attempt at getting generalized stacking fault (GSF) energy curve

#file prefix
variable prefix string gsf_morse
variable dumpfile string ${prefix}.*.dump
variable dumpfile string gsf_morse.*.dump
variable restartfile string ${prefix}.*.equil
variable restartfile string gsf_morse.*.equil

#Mass (g/mol)
variable m equal 1

# lattice constant (in Angstroms) and orientation of axes (given by lattice vectors)
variable rho equal 0.9165
variable x1 equal 1
variable x2 equal 0
variable x3 equal 0
variable y1 equal 0
variable y2 equal 1
variable y3 equal 0
# length of lattice in different directions (using orientation of lattice vectors)
variable ax equal sqrt(${x1}*${x1}+${x2}*${x2}+${x3}*${x3})
variable ax equal sqrt(1*${x1}+${x2}*${x2}+${x3}*${x3})
variable ax equal sqrt(1*1+${x2}*${x2}+${x3}*${x3})
variable ax equal sqrt(1*1+0*${x2}+${x3}*${x3})
variable ax equal sqrt(1*1+0*0+${x3}*${x3})
variable ax equal sqrt(1*1+0*0+0*${x3})
variable ax equal sqrt(1*1+0*0+0*0)
variable ay equal sqrt(${y1}*${y1}+${y2}*${y2}+${y3}*${y3})
variable ay equal sqrt(0*${y1}+${y2}*${y2}+${y3}*${y3})
variable ay equal sqrt(0*0+${y2}*${y2}+${y3}*${y3})
variable ay equal sqrt(0*0+1*${y2}+${y3}*${y3})
variable ay equal sqrt(0*0+1*1+${y3}*${y3})
variable ay equal sqrt(0*0+1*1+0*${y3})
variable ay equal sqrt(0*0+1*1+0*0)
variable az equal 1

# size of box in lattice units
variable lxpos equal 1
variable lxneg equal -1*${lxpos}
variable lxneg equal -1*1
variable lypos equal 10
variable lyneg equal -1*${lypos}
variable lyneg equal -1*10
variable lzpos equal 0
variable lzneg equal -1

# Define minimization parameters and damping
variable etol equal 1.0e-12
variable ftol equal 1.0e-8
variable maxiter equal 10000
variable maxeval equal 20000
variable style string cg

# boundary conditions
dimension	2
boundary	p s p
atom_style	atomic

# create geometry
units		lj
lattice         hex ${rho}
lattice         hex 0.9165
Lattice spacing in x,y,z = 1.12245 1.94415 1.12245
region		myregion block ${lxneg} ${lxpos} ${lyneg} ${lypos} ${lzneg} ${lzpos} units lattice
region		myregion block -1 ${lxpos} ${lyneg} ${lypos} ${lzneg} ${lzpos} units lattice
region		myregion block -1 1 ${lyneg} ${lypos} ${lzneg} ${lzpos} units lattice
region		myregion block -1 1 -10 ${lypos} ${lzneg} ${lzpos} units lattice
region		myregion block -1 1 -10 10 ${lzneg} ${lzpos} units lattice
region		myregion block -1 1 -10 10 -1 ${lzpos} units lattice
region		myregion block -1 1 -10 10 -1 0 units lattice
create_box	3 myregion
Created orthogonal box = (-1.12245 -19.4415 -1.12245) to (1.12245 19.4415 0)
  1 by 1 by 1 MPI processor grid
create_atoms	1 box
Created 82 atoms

# define masses
mass * $m
mass * 1

# my fake/morse potential
pair_style      table linear 1000
pair_coeff      * * da_potential_brittle dummy
neighbor	0.3 bin
neigh_modify	delay 5

# define groups
region	    upper block INF INF 0.01 ${lypos} INF INF units lattice
region	    upper block INF INF 0.01 10 INF INF units lattice
group		upper region upper
40 atoms in group upper

# Setup output
thermo 1
thermo_style custom step temp pe lx ly lz
thermo_modify norm no

# Compute initial state by relaxing box
min_style ${style}
min_style cg
minimize ${etol} ${ftol} ${maxiter} ${maxeval}
minimize 1e-12 ${ftol} ${maxiter} ${maxeval}
minimize 1e-12 1e-08 ${maxiter} ${maxeval}
minimize 1e-12 1e-08 10000 ${maxeval}
minimize 1e-12 1e-08 10000 20000
WARNING: Resetting reneighboring criteria during minimization (../min.cpp:168)
Memory usage per processor = 3.35153 Mbytes
Step Temp PotEng Lx Ly Lz 
       0            0   -241.99543    2.2449075    38.890715    1.1224537 
       1            0   -241.99543    2.2449075    38.890715    1.1224537 
Loop time of 0.00127303 on 1 procs for 1 steps with 82 atoms

Minimization stats:
  Stopping criterion = linesearch alpha is zero
  Energy initial, next-to-last, final = 
        -241.995429162     -241.995429162     -241.995429162
  Force two-norm initial, final = 0.0701576 0.0701576
  Force max component initial, final = 0.0350788 0.0350788
  Final line search alpha, max atom move = 1.90735e-06 6.69075e-08
  Iterations, force evaluations = 1 20

Pair  time (%) = 0.0012076 (94.8606)
Neigh time (%) = 0 (0)
Comm  time (%) = 2.75068e-05 (2.16074)
Outpt time (%) = 0 (0)
Other time (%) = 3.79195e-05 (2.97868)

Nlocal:    82 ave 82 max 82 min
Histogram: 1 0 0 0 0 0 0 0 0 0
Nghost:    185 ave 185 max 185 min
Histogram: 1 0 0 0 0 0 0 0 0 0
Neighs:    718 ave 718 max 718 min
Histogram: 1 0 0 0 0 0 0 0 0 0

Total # of neighbors = 718
Ave neighs/atom = 8.7561
Neighbor list builds = 0
Dangerous builds = 0

# don't allow atoms to relax in x-direction
fix 2 all setforce 0.0 NULL 0.0

# GSF energy curve will have 100*2 steps
variable nsteps equal 300
variable sstep1 equal 1.
variable xstep1 equal ${sstep1}/(${ax}*${nsteps})
variable xstep1 equal 1/(${ax}*${nsteps})
variable xstep1 equal 1/(1*${nsteps})
variable xstep1 equal 1/(1*300)

variable i loop ${nsteps}
variable i loop 300
label loop1
        displace_atoms upper move ${xstep1} 0.0 0.0 units lattice
        displace_atoms upper move 0.00333333333333333 0.0 0.0 units lattice
        min_style ${style}
        min_style cg
        minimize ${etol} ${ftol} ${maxiter} ${maxeval}
        minimize 1e-12 ${ftol} ${maxiter} ${maxeval}
        minimize 1e-12 1e-08 ${maxiter} ${maxeval}
        minimize 1e-12 1e-08 10000 ${maxeval}
        minimize 1e-12 1e-08 10000 20000
WARNING: Resetting reneighboring criteria during minimization (../min.cpp:168)
Memory usage per processor = 3.35153 Mbytes
Step Temp PotEng Lx Ly Lz 
       1            0   -241.99528    2.2449075    38.890715    1.1224537 
       2            0   -241.99528    2.2449075    38.890715    1.1224537 
Loop time of 0.000588026 on 1 procs for 1 steps with 82 atoms

Minimization stats:
  Stopping criterion = linesearch alpha is zero
  Energy initial, next-to-last, final = 
        -241.995277295     -241.995277295     -241.995277295
  Force two-norm initial, final = 0.0701678 0.0701678
  Force max component initial, final = 0.0350788 0.0350788
  Final line search alpha, max atom move = 1.90735e-06 6.69075e-08
  Iterations, force evaluations = 1 20

Pair  time (%) = 0.00048198 (81.9658)
Neigh time (%) = 0 (0)
Comm  time (%) = 3.02893e-05 (5.15101)
Outpt time (%) = 0 (0)
Other time (%) = 7.57567e-05 (12.8832)

Nlocal:    82 ave 82 max 82 min
Histogram: 1 0 0 0 0 0 0 0 0 0
Nghost:    185 ave 185 max 185 min
Histogram: 1 0 0 0 0 0 0 0 0 0
Neighs:    718 ave 718 max 718 min
Histogram: 1 0 0 0 0 0 0 0 0 0

Total # of neighbors = 718
Ave neighs/atom = 8.7561
Neighbor list builds = 0
Dangerous builds = 0
        # write_dump all atom ${dumpfile}
        next i
jump SELF loop1
        displace_atoms upper move ${xstep1} 0.0 0.0 units lattice
        displace_atoms upper move 0.00333333333333333 0.0 0.0 units lattice
        min_style ${style}
        min_style cg
        minimize ${etol} ${ftol} ${maxiter} ${maxeval}
        minimize 1e-12 ${ftol} ${maxiter} ${maxeval}
        minimize 1e-12 1e-08 ${maxiter} ${maxeval}
        minimize 1e-12 1e-08 10000 ${maxeval}
        minimize 1e-12 1e-08 10000 20000
WARNING: Resetting reneighboring criteria during minimization (../min.cpp:168)
Memory usage per processor = 3.35153 Mbytes
Step Temp PotEng Lx Ly Lz 
       2            0    -241.9948    2.2449075    38.890715    1.1224537 
       3            0    -241.9948    2.2449075    38.890715    1.1224537 
Loop time of 0.000614061 on 1 procs for 1 steps with 82 atoms

Minimization stats:
  Stopping criterion = linesearch alpha is zero
  Energy initial, next-to-last, final = 
        -241.994799958     -241.994799958     -241.994799958
  Force two-norm initial, final = 0.0703375 0.0703375
  Force max component initial, final = 0.0350788 0.0350788
  Final line search alpha, max atom move = 1.90735e-06 6.69075e-08
  Iterations, force evaluations = 1 20

Pair  time (%) = 0.000480716 (78.2847)
Neigh time (%) = 0 (0)
Comm  time (%) = 4.92837e-05 (8.02587)
Outpt time (%) = 0 (0)
Other time (%) = 8.40612e-05 (13.6894)

Nlocal:    82 ave 82 max 82 min
Histogram: 1 0 0 0 0 0 0 0 0 0
Nghost:    185 ave 185 max 185 min
Histogram: 1 0 0 0 0 0 0 0 0 0
Neighs:    718 ave 718 max 718 min
Histogram: 1 0 0 0 0 0 0 0 0 0

Total # of neighbors = 718
Ave neighs/atom = 8.7561
Neighbor list builds = 0
Dangerous builds = 0
        # write_dump all atom ${dumpfile}
        next i
jump SELF loop1
        displace_atoms upper move ${xstep1} 0.0 0.0 units lattice
        displace_atoms upper move 0.00333333333333333 0.0 0.0 units lattice
        min_style ${style}
        min_style cg
        minimize ${etol} ${ftol} ${maxiter} ${maxeval}
        minimize 1e-12 ${ftol} ${maxiter} ${maxeval}
        minimize 1e-12 1e-08 ${maxiter} ${maxeval}
        minimize 1e-12 1e-08 10000 ${maxeval}
        minimize 1e-12 1e-08 10000 20000
WARNING: Resetting reneighboring criteria during minimization (../min.cpp:168)
Memory usage per processor = 3.35153 Mbytes
Step Temp PotEng Lx Ly Lz 
       3            0    -241.9939    2.2449075    38.890715    1.1224537 
       4            0    -241.9939    2.2449075    38.890715    1.1224537 
Loop time of 0.000556985 on 1 procs for 1 steps with 82 atoms

Minimization stats:
  Stopping criterion = linesearch alpha is zero
  Energy initial, next-to-last, final = 
        -241.993904725     -241.993904725     -241.993904725
  Force two-norm initial, final = 0.07127 0.07127
  Force max component initial, final = 0.0350788 0.0350788
  Final line search alpha, max atom move = 1.90735e-06 6.69075e-08
  Iterations, force evaluations = 1 20

Pair  time (%) = 0.000481732 (86.4892)
Neigh time (%) = 0 (0)
Comm  time (%) = 3.19845e-05 (5.74244)
Outpt time (%) = 0 (0)
Other time (%) = 4.32685e-05 (7.76835)

Nlocal:    82 ave 82 max 82 min
Histogram: 1 0 0 0 0 0 0 0 0 0
Nghost:    195 ave 195 max 195 min
Histogram: 1 0 0 0 0 0 0 0 0 0
Neighs:    718 ave 718 max 718 min
Histogram: 1 0 0 0 0 0 0 0 0 0

Total # of neighbors = 718
Ave neighs/atom = 8.7561
Neighbor list builds = 0
Dangerous builds = 0
        # write_dump all atom ${dumpfile}
        next i
jump SELF loop1
        displace_atoms upper move ${xstep1} 0.0 0.0 units lattice
        displace_atoms upper move 0.00333333333333333 0.0 0.0 units lattice
        min_style ${style}
        min_style cg
        minimize ${etol} ${ftol} ${maxiter} ${maxeval}
        minimize 1e-12 ${ftol} ${maxiter} ${maxeval}
        minimize 1e-12 1e-08 ${maxiter} ${maxeval}
        minimize 1e-12 1e-08 10000 ${maxeval}
        minimize 1e-12 1e-08 10000 20000
WARNING: Resetting reneighboring criteria during minimization (../min.cpp:168)
Memory usage per processor = 3.35153 Mbytes
Step Temp PotEng Lx Ly Lz 
       4            0   -241.99269    2.2449075    38.890715    1.1224537 
       5            0   -241.99269    2.2449075    38.890715    1.1224537 
Loop time of 0.000556999 on 1 procs for 1 steps with 82 atoms

Minimization stats:
  Stopping criterion = linesearch alpha is zero
  Energy initial, next-to-last, final = 
        -241.992687958     -241.992687958     -241.992687958
  Force two-norm initial, final = 0.0737244 0.0737244
  Force max component initial, final = 0.0350788 0.0350788
  Final line search alpha, max atom move = 1.90735e-06 6.69075e-08
  Iterations, force evaluations = 1 20

Pair  time (%) = 0.000478637 (85.9315)
Neigh time (%) = 0 (0)
Comm  time (%) = 3.13249e-05 (5.62388)
Outpt time (%) = 0 (0)
Other time (%) = 4.70366e-05 (8.44465)

Nlocal:    82 ave 82 max 82 min
Histogram: 1 0 0 0 0 0 0 0 0 0
Nghost:    195 ave 195 max 195 min
Histogram: 1 0 0 0 0 0 0 0 0 0
Neighs:    718 ave 718 max 718 min
Histogram: 1 0 0 0 0 0 0 0 0 0

Total # of neighbors = 718
Ave neighs/atom = 8.7561
Neighbor list builds = 0
Dangerous builds = 0
        # write_dump all atom ${dumpfile}
        next i
jump SELF loop1
        displace_atoms upper move ${xstep1} 0.0 0.0 units lattice
        displace_atoms upper move 0.00333333333333333 0.0 0.0 units lattice
        min_style ${style}
        min_style cg
        minimize ${etol} ${ftol} ${maxiter} ${maxeval}
        minimize 1e-12 ${ftol} ${maxiter} ${maxeval}
        minimize 1e-12 1e-08 ${maxiter} ${maxeval}
        minimize 1e-12 1e-08 10000 ${maxeval}
        minimize 1e-12 1e-08 10000 20000
WARNING: Resetting reneighboring criteria during minimization (../min.cpp:168)
Memory usage per processor = 3.35153 Mbytes
Step Temp PotEng Lx Ly Lz 
       5            0   -241.99117    2.2449075    38.890715    1.1224537 
       6            0   -241.99117    2.2449075    38.890715    1.1224537 
Loop time of 0.00284496 on 1 procs for 1 steps with 82 atoms

Minimization stats:
  Stopping criterion = linesearch alpha is zero
  Energy initial, next-to-last, final = 
         -241.99116983      -241.99116983      -241.99116983
  Force two-norm initial, final = 0.0784626 0.0784626
  Force max component initial, final = 0.0350788 0.0350788
  Final line search alpha, max atom move = 1.90735e-06 6.69075e-08
  Iterations, force evaluations = 1 20

Pair  time (%) = 0.0027243 (95.7588)
Neigh time (%) = 0 (0)
Comm  time (%) = 2.78428e-05 (0.978673)
Outpt time (%) = 0 (0)
Other time (%) = 9.28168e-05 (3.2625)

Nlocal:    82 ave 82 max 82 min
Histogram: 1 0 0 0 0 0 0 0 0 0
Nghost:    195 ave 195 max 195 min
Histogram: 1 0 0 0 0 0 0 0 0 0
Neighs:    718 ave 718 max 718 min
Histogram: 1 0 0 0 0 0 0 0 0 0

Total # of neighbors = 718
Ave neighs/atom = 8.7561
Neighbor list builds = 0
Dangerous builds = 0
        # write_dump all atom ${dumpfile}
        next i
jump SELF loop1
        displace_atoms upper move ${xstep1} 0.0 0.0 units lattice
        displace_atoms upper move 0.00333333333333333 0.0 0.0 units lattice
        min_style ${style}
        min_style cg
        minimize ${etol} ${ftol} ${maxiter} ${maxeval}
        minimize 1e-12 ${ftol} ${maxiter} ${maxeval}
        minimize 1e-12 1e-08 ${maxiter} ${maxeval}
        minimize 1e-12 1e-08 10000 ${maxeval}
        minimize 1e-12 1e-08 10000 20000
WARNING: Resetting reneighboring criteria during minimization (../min.cpp:168)
Memory usage per processor = 3.35153 Mbytes
Step Temp PotEng Lx Ly Lz 
       6            0    -241.9893    2.2449075    38.890715    1.1224537 
       7            0    -241.9893    2.2449075    38.890715    1.1224537 
Loop time of 0.000615981 on 1 procs for 1 steps with 82 atoms

Minimization stats:
  Stopping criterion = linesearch alpha is zero
  Energy initial, next-to-last, final = 
        -241.989298264     -241.989298264     -241.989298264
  Force two-norm initial, final = 0.0864792 0.0864792
  Force max component initial, final = 0.0350788 0.0350788
  Final line search alpha, max atom move = 9.53674e-07 3.34537e-08
  Iterations, force evaluations = 1 21

Pair  time (%) = 0.00050275 (81.6177)
Neigh time (%) = 0 (0)
Comm  time (%) = 4.07083e-05 (6.6087)
Outpt time (%) = 0 (0)
Other time (%) = 7.25233e-05 (11.7736)

Nlocal:    82 ave 82 max 82 min
Histogram: 1 0 0 0 0 0 0 0 0 0
Nghost:    195 ave 195 max 195 min
Histogram: 1 0 0 0 0 0 0 0 0 0
Neighs:    718 ave 718 max 718 min
Histogram: 1 0 0 0 0 0 0 0 0 0

Total # of neighbors = 718
Ave neighs/atom = 8.7561
Neighbor list builds = 0
Dangerous builds = 0
        # write_dump all atom ${dumpfile}
        next i
jump SELF loop1
        displace_atoms upper move ${xstep1} 0.0 0.0 units lattice
        displace_atoms upper move 0.00333333333333333 0.0 0.0 units lattice
        min_style ${style}
        min_style cg
        minimize ${etol} ${ftol} ${maxiter} ${maxeval}
        minimize 1e-12 ${ftol} ${maxiter} ${maxeval}
        minimize 1e-12 1e-08 ${maxiter} ${maxeval}
        minimize 1e-12 1e-08 10000 ${maxeval}
        minimize 1e-12 1e-08 10000 20000
WARNING: Resetting reneighboring criteria during minimization (../min.cpp:168)
Memory usage per processor = 3.35153 Mbytes
Step Temp PotEng Lx Ly Lz 
       7            0   -241.98706    2.2449075    38.890715    1.1224537 
       8            0   -241.98707    2.2449075    38.890715    1.1224537 
       9            0   -241.98707    2.2449075    38.890715    1.1224537 
Loop time of 0.000874089 on 1 procs for 2 steps with 82 atoms

Minimization stats:
  Stopping criterion = linesearch alpha is zero
  Energy initial, next-to-last, final = 
        -241.987058426      -241.98707457      -241.98707457
  Force two-norm initial, final = 0.0984834 0.0732515
  Force max component initial, final = 0.0350788 0.0300777
  Final line search alpha, max atom move = 1.90735e-06 5.73687e-08
  Iterations, force evaluations = 2 29

Pair  time (%) = 0.000692062 (79.1753)
Neigh time (%) = 0 (0)
Comm  time (%) = 4.43279e-05 (5.07133)
Outpt time (%) = 3.70014e-05 (4.23314)
Other time (%) = 0.000100697 (11.5202)

Nlocal:    82 ave 82 max 82 min
Histogram: 1 0 0 0 0 0 0 0 0 0
Nghost:    195 ave 195 max 195 min
Histogram: 1 0 0 0 0 0 0 0 0 0
Neighs:    718 ave 718 max 718 min
Histogram: 1 0 0 0 0 0 0 0 0 0

Total # of neighbors = 718
Ave neighs/atom = 8.7561
Neighbor list builds = 0
Dangerous builds = 0
        # write_dump all atom ${dumpfile}
        next i
jump SELF loop1
        displace_atoms upper move ${xstep1} 0.0 0.0 units lattice
        displace_atoms upper move 0.00333333333333333 0.0 0.0 units lattice
        min_style ${style}
        min_style cg
        minimize ${etol} ${ftol} ${maxiter} ${maxeval}
        minimize 1e-12 ${ftol} ${maxiter} ${maxeval}
        minimize 1e-12 1e-08 ${maxiter} ${maxeval}
        minimize 1e-12 1e-08 10000 ${maxeval}
        minimize 1e-12 1e-08 10000 20000
WARNING: Resetting reneighboring criteria during minimization (../min.cpp:168)
Memory usage per processor = 3.35153 Mbytes
Step Temp PotEng Lx Ly Lz 
       9            0   -241.98451    2.2449075    38.890441    1.1224537 
      10            0   -241.98457    2.2449075    38.890441    1.1224537 
      11            0   -241.98457    2.2449075    38.890441    1.1224537 
Loop time of 0.000827883 on 1 procs for 2 steps with 82 atoms

Minimization stats:
  Stopping criterion = linesearch alpha is zero
  Energy initial, next-to-last, final = 
        -241.984514782     -241.984568349     -241.984568349
  Force two-norm initial, final = 0.0864872 0.0562212
  Force max component initial, final = 0.0302664 0.0229312
  Final line search alpha, max atom move = 3.8147e-06 8.74757e-08
  Iterations, force evaluations = 2 27

Pair  time (%) = 0.000661341 (79.8833)
Neigh time (%) = 0 (0)
Comm  time (%) = 3.9826e-05 (4.81059)
Outpt time (%) = 3.71145e-05 (4.48306)
Other time (%) = 8.9602e-05 (10.823)

Nlocal:    82 ave 82 max 82 min
Histogram: 1 0 0 0 0 0 0 0 0 0
Nghost:    195 ave 195 max 195 min
Histogram: 1 0 0 0 0 0 0 0 0 0
Neighs:    718 ave 718 max 718 min
Histogram: 1 0 0 0 0 0 0 0 0 0

Total # of neighbors = 718
Ave neighs/atom = 8.7561
Neighbor list builds = 0
Dangerous builds = 0
        # write_dump all atom ${dumpfile}
        next i
jump SELF loop1
        displace_atoms upper move ${xstep1} 0.0 0.0 units lattice
        displace_atoms upper move 0.00333333333333333 0.0 0.0 units lattice
        min_style ${style}
        min_style cg
        minimize ${etol} ${ftol} ${maxiter} ${maxeval}
        minimize 1e-12 ${ftol} ${maxiter} ${maxeval}
        minimize 1e-12 1e-08 ${maxiter} ${maxeval}
        minimize 1e-12 1e-08 10000 ${maxeval}
        minimize 1e-12 1e-08 10000 20000
WARNING: Resetting reneighboring criteria during minimization (../min.cpp:168)
Memory usage per processor = 3.35153 Mbytes
Step Temp PotEng Lx Ly Lz 
      11            0   -241.98163    2.2449075    38.889971    1.1224537 
      12            0   -241.98163    2.2449075    38.889971    1.1224537 
Loop time of 0.000628066 on 1 procs for 1 steps with 82 atoms

Minimization stats:
  Stopping criterion = linesearch alpha is zero
  Energy initial, next-to-last, final = 
        -241.981629751     -241.981629751     -241.981629751
  Force two-norm initial, final = 0.0655236 0.0655236
  Force max component initial, final = 0.0229312 0.0229312
  Final line search alpha, max atom move = 1.90735e-06 4.37378e-08
  Iterations, force evaluations = 1 20

Pair  time (%) = 0.000513137 (81.7011)
Neigh time (%) = 0 (0)
Comm  time (%) = 4.84898e-05 (7.72049)
Outpt time (%) = 0 (0)
Other time (%) = 6.64396e-05 (10.5784)

Nlocal:    82 ave 82 max 82 min
Histogram: 1 0 0 0 0 0 0 0 0 0
Nghost:    195 ave 195 max 195 min
Histogram: 1 0 0 0 0 0 0 0 0 0
Neighs:    718 ave 718 max 718 min
Histogram: 1 0 0 0 0 0 0 0 0 0

Total # of neighbors = 718
Ave neighs/atom = 8.7561
Neighbor list builds = 0
Dangerous builds = 0
        # write_dump all atom ${dumpfile}
        next i
jump SELF loop1
        displace_atoms upper move ${xstep1} 0.0 0.0 units lattice
        displace_atoms upper move 0.00333333333333333 0.0 0.0 units lattice
        min_style ${style}
        min_style cg
        minimize ${etol} ${ftol} ${maxiter} ${maxeval}
        minimize 1e-12 ${ftol} ${maxiter} ${maxeval}
        minimize 1e-12 1e-08 ${maxiter} ${maxeval}
        minimize 1e-12 1e-08 10000 ${maxeval}
        minimize 1e-12 1e-08 10000 20000
WARNING: Resetting reneighboring criteria during minimization (../min.cpp:168)
Memory usage per processor = 3.35153 Mbytes
Step Temp PotEng Lx Ly Lz 
      12            0   -241.97839    2.2449075    38.889971    1.1224537 
      13            0   -241.97847    2.2449075    38.889971    1.1224537 
      14            0   -241.97847    2.2449075    38.889971    1.1224537 
Loop time of 0.000767117 on 1 procs for 2 steps with 82 atoms

Minimization stats:
  Stopping criterion = linesearch alpha is zero
  Energy initial, next-to-last, final = 
        -241.978390246     -241.978467699     -241.978467699
  Force two-norm initial, final = 0.083128 0.0644511
  Force max component initial, final = 0.0311022 0.0170135
  Final line search alpha, max atom move = 1.90735e-06 3.24508e-08
  Iterations, force evaluations = 2 27

Pair  time (%) = 0.000645653 (84.1661)
Neigh time (%) = 0 (0)
Comm  time (%) = 4.64306e-05 (6.05261)
Outpt time (%) = 1.00839e-05 (1.31452)
Other time (%) = 6.49499e-05 (8.46675)

Nlocal:    82 ave 82 max 82 min
Histogram: 1 0 0 0 0 0 0 0 0 0
Nghost:    195 ave 195 max 195 min
Histogram: 1 0 0 0 0 0 0 0 0 0
Neighs:    718 ave 718 max 718 min
Histogram: 1 0 0 0 0 0 0 0 0 0

Total # of neighbors = 718
Ave neighs/atom = 8.7561
Neighbor list builds = 0
Dangerous builds = 0
        # write_dump all atom ${dumpfile}
        next i
jump SELF loop1
        displace_atoms upper move ${xstep1} 0.0 0.0 units lattice
        displace_atoms upper move 0.00333333333333333 0.0 0.0 units lattice
        min_style ${style}
        min_style cg
        minimize ${etol} ${ftol} ${maxiter} ${maxeval}
        minimize 1e-12 ${ftol} ${maxiter} ${maxeval}
        minimize 1e-12 1e-08 ${maxiter} ${maxeval}
        minimize 1e-12 1e-08 10000 ${maxeval}
        minimize 1e-12 1e-08 10000 20000
WARNING: Resetting reneighboring criteria during minimization (../min.cpp:168)
Memory usage per processor = 3.35153 Mbytes
Step Temp PotEng Lx Ly Lz 
      14            0   -241.97491    2.2449075    38.889254    1.1224537 
      15            0   -241.97491    2.2449075    38.889254    1.1224537 
Loop time of 0.000538042 on 1 procs for 1 steps with 82 atoms

Minimization stats:
  Stopping criterion = linesearch alpha is zero
  Energy initial, next-to-last, final = 
         -241.97490796      -241.97490796      -241.97490796
  Force two-norm initial, final = 0.0555713 0.0555713
  Force max component initial, final = 0.0170135 0.0170135
  Final line search alpha, max atom move = 3.8147e-06 6.49015e-08
  Iterations, force evaluations = 1 19

Pair  time (%) = 0.000457223 (84.979)
Neigh time (%) = 0 (0)
Comm  time (%) = 2.89015e-05 (5.37161)
Outpt time (%) = 0 (0)
Other time (%) = 5.19176e-05 (9.64936)

Nlocal:    82 ave 82 max 82 min
Histogram: 1 0 0 0 0 0 0 0 0 0
Nghost:    195 ave 195 max 195 min
Histogram: 1 0 0 0 0 0 0 0 0 0
Neighs:    718 ave 718 max 718 min
Histogram: 1 0 0 0 0 0 0 0 0 0

Total # of neighbors = 718
Ave neighs/atom = 8.7561
Neighbor list builds = 0
Dangerous builds = 0
        # write_dump all atom ${dumpfile}
        next i
jump SELF loop1
        displace_atoms upper move ${xstep1} 0.0 0.0 units lattice
        displace_atoms upper move 0.00333333333333333 0.0 0.0 units lattice
        min_style ${style}
        min_style cg
        minimize ${etol} ${ftol} ${maxiter} ${maxeval}
        minimize 1e-12 ${ftol} ${maxiter} ${maxeval}
        minimize 1e-12 1e-08 ${maxiter} ${maxeval}
        minimize 1e-12 1e-08 10000 ${maxeval}
        minimize 1e-12 1e-08 10000 20000
WARNING: Resetting reneighboring criteria during minimization (../min.cpp:168)
Memory usage per processor = 3.35153 Mbytes
Step Temp PotEng Lx Ly Lz 
      15            0   -241.97103    2.2449075    38.889254    1.1224537 
      16            0   -241.97103    2.2449075    38.889254    1.1224537 
Loop time of 0.000576941 on 1 procs for 1 steps with 82 atoms

Minimization stats:
  Stopping criterion = linesearch alpha is zero
  Energy initial, next-to-last, final = 
        -241.971026018     -241.971026018     -241.971026018
  Force two-norm initial, final = 0.0624992 0.0624992
  Force max component initial, final = 0.0170135 0.0170135
  Final line search alpha, max atom move = 1.90735e-06 3.24508e-08
  Iterations, force evaluations = 1 20

Pair  time (%) = 0.000494984 (85.7945)
Neigh time (%) = 0 (0)
Comm  time (%) = 3.57601e-05 (6.19823)
Outpt time (%) = 0 (0)
Other time (%) = 4.6197e-05 (8.00723)

Nlocal:    82 ave 82 max 82 min
Histogram: 1 0 0 0 0 0 0 0 0 0
Nghost:    195 ave 195 max 195 min
Histogram: 1 0 0 0 0 0 0 0 0 0
Neighs:    718 ave 718 max 718 min
Histogram: 1 0 0 0 0 0 0 0 0 0

Total # of neighbors = 718
Ave neighs/atom = 8.7561
Neighbor list builds = 0
Dangerous builds = 0
        # write_dump all atom ${dumpfile}
        next i
jump SELF loop1
        displace_atoms upper move ${xstep1} 0.0 0.0 units lattice
        displace_atoms upper move 0.00333333333333333 0.0 0.0 units lattice
        min_style ${style}
        min_style cg
        minimize ${etol} ${ftol} ${maxiter} ${maxeval}
        minimize 1e-12 ${ftol} ${maxiter} ${maxeval}
        minimize 1e-12 1e-08 ${maxiter} ${maxeval}
        minimize 1e-12 1e-08 10000 ${maxeval}
        minimize 1e-12 1e-08 10000 20000
WARNING: Resetting reneighboring criteria during minimization (../min.cpp:168)
Memory usage per processor = 3.35153 Mbytes
Step Temp PotEng Lx Ly Lz 
      16            0   -241.96686    2.2449075    38.889254    1.1224537 
      17            0   -241.96691    2.2449075    38.889254    1.1224537 
      18            0   -241.96691    2.2449075    38.889254    1.1224537 
Loop time of 0.000773934 on 1 procs for 2 steps with 82 atoms

Minimization stats:
  Stopping criterion = linesearch alpha is zero
  Energy initial, next-to-last, final = 
        -241.966860142     -241.966912626     -241.966912626
  Force two-norm initial, final = 0.0840259 0.0629547
  Force max component initial, final = 0.0315564 0.0189714
  Final line search alpha, max atom move = 1.90735e-06 3.6185e-08
  Iterations, force evaluations = 2 27

Pair  time (%) = 0.000663569 (85.7397)
Neigh time (%) = 0 (0)
Comm  time (%) = 3.37065e-05 (4.35522)
Outpt time (%) = 7.10692e-06 (0.918285)
Other time (%) = 6.95519e-05 (8.98679)

Nlocal:    82 ave 82 max 82 min
Histogram: 1 0 0 0 0 0 0 0 0 0
Nghost:    195 ave 195 max 195 min
Histogram: 1 0 0 0 0 0 0 0 0 0
Neighs:    718 ave 718 max 718 min
Histogram: 1 0 0 0 0 0 0 0 0 0

Total # of neighbors = 718
Ave neighs/atom = 8.7561
Neighbor list builds = 0
Dangerous builds = 0
        # write_dump all atom ${dumpfile}
        next i
jump SELF loop1
        displace_atoms upper move ${xstep1} 0.0 0.0 units lattice
        displace_atoms upper move 0.00333333333333333 0.0 0.0 units lattice
        min_style ${style}
        min_style cg
        minimize ${etol} ${ftol} ${maxiter} ${maxeval}
        minimize 1e-12 ${ftol} ${maxiter} ${maxeval}
        minimize 1e-12 1e-08 ${maxiter} ${maxeval}
        minimize 1e-12 1e-08 10000 ${maxeval}
        minimize 1e-12 1e-08 10000 20000
WARNING: Resetting reneighboring criteria during minimization (../min.cpp:168)
Memory usage per processor = 3.35153 Mbytes
Step Temp PotEng Lx Ly Lz 
      18            0    -241.9624    2.2449075    38.888755    1.1224537 
      19            0    -241.9624    2.2449075    38.888755    1.1224537 
Loop time of 0.000579961 on 1 procs for 1 steps with 82 atoms

Minimization stats:
  Stopping criterion = linesearch alpha is zero
  Energy initial, next-to-last, final = 
        -241.962404729     -241.962404729     -241.962404729
  Force two-norm initial, final = 0.0584712 0.0584712
  Force max component initial, final = 0.0189714 0.0189714
  Final line search alpha, max atom move = 1.90735e-06 3.6185e-08
  Iterations, force evaluations = 1 20

Pair  time (%) = 0.000478107 (82.4378)
Neigh time (%) = 0 (0)
Comm  time (%) = 2.55045e-05 (4.39762)
Outpt time (%) = 0 (0)
Other time (%) = 7.63494e-05 (13.1646)

Nlocal:    82 ave 82 max 82 min
Histogram: 1 0 0 0 0 0 0 0 0 0
Nghost:    195 ave 195 max 195 min
Histogram: 1 0 0 0 0 0 0 0 0 0
Neighs:    718 ave 718 max 718 min
Histogram: 1 0 0 0 0 0 0 0 0 0

Total # of neighbors = 718
Ave neighs/atom = 8.7561
Neighbor list builds = 0
Dangerous builds = 0
        # write_dump all atom ${dumpfile}
        next i
jump SELF loop1
        displace_atoms upper move ${xstep1} 0.0 0.0 units lattice
        displace_atoms upper move 0.00333333333333333 0.0 0.0 units lattice
        min_style ${style}
        min_style cg
        minimize ${etol} ${ftol} ${maxiter} ${maxeval}
        minimize 1e-12 ${ftol} ${maxiter} ${maxeval}
        minimize 1e-12 1e-08 ${maxiter} ${maxeval}
        minimize 1e-12 1e-08 10000 ${maxeval}
        minimize 1e-12 1e-08 10000 20000
WARNING: Resetting reneighboring criteria during minimization (../min.cpp:168)
Memory usage per processor = 3.35153 Mbytes
Step Temp PotEng Lx Ly Lz 
      19            0   -241.95762    2.2449075    38.888755    1.1224537 
      20            0   -241.95768    2.2449075    38.888755    1.1224537 
      21            0   -241.95768    2.2449075    38.888755    1.1224537 
Loop time of 0.000740107 on 1 procs for 2 steps with 82 atoms

Minimization stats:
  Stopping criterion = linesearch alpha is zero
  Energy initial, next-to-last, final = 
        -241.957620539     -241.957682439     -241.957682439
  Force two-norm initial, final = 0.076583 0.0574731
  Force max component initial, final = 0.0253699 0.0171141
  Final line search alpha, max atom move = 1.90735e-06 3.26425e-08
  Iterations, force evaluations = 2 27

Pair  time (%) = 0.000624719 (84.4093)
Neigh time (%) = 0 (0)
Comm  time (%) = 4.85374e-05 (6.55816)
Outpt time (%) = 6.99505e-06 (0.94514)
Other time (%) = 5.98556e-05 (8.08743)

Nlocal:    82 ave 82 max 82 min
Histogram: 1 0 0 0 0 0 0 0 0 0
Nghost:    195 ave 195 max 195 min
Histogram: 1 0 0 0 0 0 0 0 0 0
Neighs:    718 ave 718 max 718 min
Histogram: 1 0 0 0 0 0 0 0 0 0

Total # of neighbors = 718
Ave neighs/atom = 8.7561
Neighbor list builds = 0
Dangerous builds = 0
        # write_dump all atom ${dumpfile}
        next i
jump SELF loop1
        displace_atoms upper move ${xstep1} 0.0 0.0 units lattice
        displace_atoms upper move 0.00333333333333333 0.0 0.0 units lattice
        min_style ${style}
        min_style cg
        minimize ${etol} ${ftol} ${maxiter} ${maxeval}
        minimize 1e-12 ${ftol} ${maxiter} ${maxeval}
        minimize 1e-12 1e-08 ${maxiter} ${maxeval}
        minimize 1e-12 1e-08 10000 ${maxeval}
        minimize 1e-12 1e-08 10000 20000
WARNING: Resetting reneighboring criteria during minimization (../min.cpp:168)
Memory usage per processor = 3.35153 Mbytes
Step Temp PotEng Lx Ly Lz 
      21            0   -241.95255    2.2449075    38.888319    1.1224537 
      22            0    -241.9526    2.2449075    38.888319    1.1224537 
      23            0    -241.9526    2.2449075    38.888319    1.1224537 
Loop time of 0.000572077 on 1 procs for 2 steps with 82 atoms

Minimization stats:
  Stopping criterion = linesearch alpha is zero
  Energy initial, next-to-last, final = 
        -241.952550741     -241.952599801     -241.952599801
  Force two-norm initial, final = 0.0618636 0.0530498
  Force max component initial, final = 0.0171141 0.0139405
  Final line search alpha, max atom move = 1.90735e-06 2.65894e-08
  Iterations, force evaluations = 2 26

Pair  time (%) = 0.000482087 (84.2696)
Neigh time (%) = 0 (0)
Comm  time (%) = 3.05031e-05 (5.332)
Outpt time (%) = 9.04151e-06 (1.58047)
Other time (%) = 5.04451e-05 (8.81789)

Nlocal:    82 ave 82 max 82 min
Histogram: 1 0 0 0 0 0 0 0 0 0
Nghost:    195 ave 195 max 195 min
Histogram: 1 0 0 0 0 0 0 0 0 0
Neighs:    718 ave 718 max 718 min
Histogram: 1 0 0 0 0 0 0 0 0 0

Total # of neighbors = 718
Ave neighs/atom = 8.7561
Neighbor list builds = 0
Dangerous builds = 0
        # write_dump all atom ${dumpfile}
        next i
jump SELF loop1
        displace_atoms upper move ${xstep1} 0.0 0.0 units lattice
        displace_atoms upper move 0.00333333333333333 0.0 0.0 units lattice
        min_style ${style}
        min_style cg
        minimize ${etol} ${ftol} ${maxiter} ${maxeval}
        minimize 1e-12 ${ftol} ${maxiter} ${maxeval}
        minimize 1e-12 1e-08 ${maxiter} ${maxeval}
        minimize 1e-12 1e-08 10000 ${maxeval}
        minimize 1e-12 1e-08 10000 20000
WARNING: Resetting reneighboring criteria during minimization (../min.cpp:168)
Memory usage per processor = 3.35153 Mbytes
Step Temp PotEng Lx Ly Lz 
      23            0   -241.94725    2.2449075    38.887562    1.1224537 
      24            0   -241.94725    2.2449075    38.887562    1.1224537 
Loop time of 0.000477991 on 1 procs for 1 steps with 82 atoms

Minimization stats:
  Stopping criterion = linesearch alpha is zero
  Energy initial, next-to-last, final = 
        -241.947247186     -241.947247186     -241.947247186
  Force two-norm initial, final = 0.0479456 0.0479456
  Force max component initial, final = 0.0107871 0.0107871
  Final line search alpha, max atom move = 3.8147e-06 4.11494e-08
  Iterations, force evaluations = 1 19

Pair  time (%) = 0.000412788 (86.3589)
Neigh time (%) = 0 (0)
Comm  time (%) = 2.71386e-05 (5.67764)
Outpt time (%) = 0 (0)
Other time (%) = 3.80647e-05 (7.96347)

Nlocal:    82 ave 82 max 82 min
Histogram: 1 0 0 0 0 0 0 0 0 0
Nghost:    195 ave 195 max 195 min
Histogram: 1 0 0 0 0 0 0 0 0 0
Neighs:    718 ave 718 max 718 min
Histogram: 1 0 0 0 0 0 0 0 0 0

Total # of neighbors = 718
Ave neighs/atom = 8.7561
Neighbor list builds = 0
Dangerous builds = 0
        # write_dump all atom ${dumpfile}
        next i
jump SELF loop1
        displace_atoms upper move ${xstep1} 0.0 0.0 units lattice
        displace_atoms upper move 0.00333333333333333 0.0 0.0 units lattice
        min_style ${style}
        min_style cg
        minimize ${etol} ${ftol} ${maxiter} ${maxeval}
        minimize 1e-12 ${ftol} ${maxiter} ${maxeval}
        minimize 1e-12 1e-08 ${maxiter} ${maxeval}
        minimize 1e-12 1e-08 10000 ${maxeval}
        minimize 1e-12 1e-08 10000 20000
WARNING: Resetting reneighboring criteria during minimization (../min.cpp:168)
Memory usage per processor = 3.35153 Mbytes
Step Temp PotEng Lx Ly Lz 
      24            0   -241.94151    2.2449075    38.887562    1.1224537 
      25            0   -241.94162    2.2449075    38.887562    1.1224537 
      26            0   -241.94166    2.2449075    38.887562    1.1224537 
      27            0   -241.94166    2.2449075    38.887562    1.1224537 
Loop time of 0.00192207 on 1 procs for 3 steps with 82 atoms

Minimization stats:
  Stopping criterion = linesearch alpha is zero
  Energy initial, next-to-last, final = 
        -241.941512008      -241.94165888      -241.94165888
  Force two-norm initial, final = 0.0779619 0.125738
  Force max component initial, final = 0.0317849 0.05228
  Final line search alpha, max atom move = 4.76837e-07 2.49291e-08
  Iterations, force evaluations = 3 38

Pair  time (%) = 0.00177273 (92.2303)
Neigh time (%) = 0 (0)
Comm  time (%) = 4.94474e-05 (2.57261)
Outpt time (%) = 1.09237e-05 (0.56833)
Other time (%) = 8.89678e-05 (4.62875)

Nlocal:    82 ave 82 max 82 min
Histogram: 1 0 0 0 0 0 0 0 0 0
Nghost:    195 ave 195 max 195 min
Histogram: 1 0 0 0 0 0 0 0 0 0
Neighs:    718 ave 718 max 718 min
Histogram: 1 0 0 0 0 0 0 0 0 0

Total # of neighbors = 718
Ave neighs/atom = 8.7561
Neighbor list builds = 0
Dangerous builds = 0
        # write_dump all atom ${dumpfile}
        next i
jump SELF loop1
        displace_atoms upper move ${xstep1} 0.0 0.0 units lattice
        displace_atoms upper move 0.00333333333333333 0.0 0.0 units lattice
        min_style ${style}
        min_style cg
        minimize ${etol} ${ftol} ${maxiter} ${maxeval}
        minimize 1e-12 ${ftol} ${maxiter} ${maxeval}
        minimize 1e-12 1e-08 ${maxiter} ${maxeval}
        minimize 1e-12 1e-08 10000 ${maxeval}
        minimize 1e-12 1e-08 10000 20000
WARNING: Resetting reneighboring criteria during minimization (../min.cpp:168)
Memory usage per processor = 3.35153 Mbytes
Step Temp PotEng Lx Ly Lz 
      27            0   -241.93568    2.2449075    38.886905    1.1224537 
      28            0   -241.93568    2.2449075    38.886905    1.1224537 
Loop time of 0.00055909 on 1 procs for 1 steps with 82 atoms

Minimization stats:
  Stopping criterion = linesearch alpha is zero
  Energy initial, next-to-last, final = 
        -241.935675673     -241.935675673     -241.935675673
  Force two-norm initial, final = 0.0889515 0.0889515
  Force max component initial, final = 0.0294852 0.0294852
  Final line search alpha, max atom move = 9.53674e-07 2.81193e-08
  Iterations, force evaluations = 1 21

Pair  time (%) = 0.000481539 (86.1291)
Neigh time (%) = 0 (0)
Comm  time (%) = 3.15064e-05 (5.6353)
Outpt time (%) = 0 (0)
Other time (%) = 4.60446e-05 (8.23563)

Nlocal:    82 ave 82 max 82 min
Histogram: 1 0 0 0 0 0 0 0 0 0
Nghost:    195 ave 195 max 195 min
Histogram: 1 0 0 0 0 0 0 0 0 0
Neighs:    718 ave 718 max 718 min
Histogram: 1 0 0 0 0 0 0 0 0 0

Total # of neighbors = 718
Ave neighs/atom = 8.7561
Neighbor list builds = 0
Dangerous builds = 0
        # write_dump all atom ${dumpfile}
        next i
jump SELF loop1
        displace_atoms upper move ${xstep1} 0.0 0.0 units lattice
        displace_atoms upper move 0.00333333333333333 0.0 0.0 units lattice
        min_style ${style}
        min_style cg
        minimize ${etol} ${ftol} ${maxiter} ${maxeval}
        minimize 1e-12 ${ftol} ${maxiter} ${maxeval}
        minimize 1e-12 1e-08 ${maxiter} ${maxeval}
        minimize 1e-12 1e-08 10000 ${maxeval}
        minimize 1e-12 1e-08 10000 20000
WARNING: Resetting reneighboring criteria during minimization (../min.cpp:168)
Memory usage per processor = 3.35153 Mbytes
Step Temp PotEng Lx Ly Lz 
      28            0   -241.92944    2.2449075    38.886905    1.1224537 
      29            0   -241.92944    2.2449075    38.886905    1.1224537 
Loop time of 0.000525973 on 1 procs for 1 steps with 82 atoms

Minimization stats:
  Stopping criterion = linesearch alpha is zero
  Energy initial, next-to-last, final = 
        -241.929436886     -241.929436886     -241.929436886
  Force two-norm initial, final = 0.0699335 0.0699335
  Force max component initial, final = 0.0294852 0.0294852
  Final line search alpha, max atom move = 1.90735e-06 5.62386e-08
  Iterations, force evaluations = 1 20

Pair  time (%) = 0.000453048 (86.1353)
Neigh time (%) = 0 (0)
Comm  time (%) = 2.48902e-05 (4.73222)
Outpt time (%) = 0 (0)
Other time (%) = 4.80341e-05 (9.13244)

Nlocal:    82 ave 82 max 82 min
Histogram: 1 0 0 0 0 0 0 0 0 0
Nghost:    195 ave 195 max 195 min
Histogram: 1 0 0 0 0 0 0 0 0 0
Neighs:    718 ave 718 max 718 min
Histogram: 1 0 0 0 0 0 0 0 0 0

Total # of neighbors = 718
Ave neighs/atom = 8.7561
Neighbor list builds = 0
Dangerous builds = 0
        # write_dump all atom ${dumpfile}
        next i
jump SELF loop1
        displace_atoms upper move ${xstep1} 0.0 0.0 units lattice
        displace_atoms upper move 0.00333333333333333 0.0 0.0 units lattice
        min_style ${style}
        min_style cg
        minimize ${etol} ${ftol} ${maxiter} ${maxeval}
        minimize 1e-12 ${ftol} ${maxiter} ${maxeval}
        minimize 1e-12 1e-08 ${maxiter} ${maxeval}
        minimize 1e-12 1e-08 10000 ${maxeval}
        minimize 1e-12 1e-08 10000 20000
WARNING: Resetting reneighboring criteria during minimization (../min.cpp:168)
Memory usage per processor = 3.35153 Mbytes
Step Temp PotEng Lx Ly Lz 
      29            0   -241.92294    2.2449075    38.886905    1.1224537 
      30            0   -241.92303    2.2449075    38.886905    1.1224537 
      31            0   -241.92303    2.2449075    38.886905    1.1224537 
Loop time of 0.000700009 on 1 procs for 2 steps with 82 atoms

Minimization stats:
  Stopping criterion = linesearch alpha is zero
  Energy initial, next-to-last, final = 
        -241.922936767     -241.923032546     -241.923032546
  Force two-norm initial, final = 0.0857412 0.0919701
  Force max component initial, final = 0.0294852 0.0321129
  Final line search alpha, max atom move = 9.53674e-07 3.06253e-08
  Iterations, force evaluations = 2 27

Pair  time (%) = 0.000581023 (83.0022)
Neigh time (%) = 0 (0)
Comm  time (%) = 3.39154e-05 (4.84499)
Outpt time (%) = 6.09702e-06 (0.870991)
Other time (%) = 7.89735e-05 (11.2818)

Nlocal:    82 ave 82 max 82 min
Histogram: 1 0 0 0 0 0 0 0 0 0
Nghost:    195 ave 195 max 195 min
Histogram: 1 0 0 0 0 0 0 0 0 0
Neighs:    718 ave 718 max 718 min
Histogram: 1 0 0 0 0 0 0 0 0 0

Total # of neighbors = 718
Ave neighs/atom = 8.7561
Neighbor list builds = 0
Dangerous builds = 0
        # write_dump all atom ${dumpfile}
        next i
jump SELF loop1
        displace_atoms upper move ${xstep1} 0.0 0.0 units lattice
        displace_atoms upper move 0.00333333333333333 0.0 0.0 units lattice
        min_style ${style}
        min_style cg
        minimize ${etol} ${ftol} ${maxiter} ${maxeval}
        minimize 1e-12 ${ftol} ${maxiter} ${maxeval}
        minimize 1e-12 1e-08 ${maxiter} ${maxeval}
        minimize 1e-12 1e-08 10000 ${maxeval}
        minimize 1e-12 1e-08 10000 20000
WARNING: Resetting reneighboring criteria during minimization (../min.cpp:168)
Memory usage per processor = 3.35153 Mbytes
Step Temp PotEng Lx Ly Lz 
      31            0   -241.91631    2.2449075    38.886373    1.1224537 
      32            0   -241.91631    2.2449075    38.886373    1.1224537 
Loop time of 0.000525947 on 1 procs for 1 steps with 82 atoms

Minimization stats:
  Stopping criterion = linesearch alpha is zero
  Energy initial, next-to-last, final = 
        -241.916313827     -241.916313827     -241.916313827
  Force two-norm initial, final = 0.0742957 0.0742957
  Force max component initial, final = 0.0321129 0.0321129
  Final line search alpha, max atom move = 1.90735e-06 6.12506e-08
  Iterations, force evaluations = 1 20

Pair  time (%) = 0.000454156 (86.3501)
Neigh time (%) = 0 (0)
Comm  time (%) = 2.739e-05 (5.20774)
Outpt time (%) = 0 (0)
Other time (%) = 4.44013e-05 (8.44216)

Nlocal:    82 ave 82 max 82 min
Histogram: 1 0 0 0 0 0 0 0 0 0
Nghost:    195 ave 195 max 195 min
Histogram: 1 0 0 0 0 0 0 0 0 0
Neighs:    718 ave 718 max 718 min
Histogram: 1 0 0 0 0 0 0 0 0 0

Total # of neighbors = 718
Ave neighs/atom = 8.7561
Neighbor list builds = 0
Dangerous builds = 0
        # write_dump all atom ${dumpfile}
        next i
jump SELF loop1
        displace_atoms upper move ${xstep1} 0.0 0.0 units lattice
        displace_atoms upper move 0.00333333333333333 0.0 0.0 units lattice
        min_style ${style}
        min_style cg
        minimize ${etol} ${ftol} ${maxiter} ${maxeval}
        minimize 1e-12 ${ftol} ${maxiter} ${maxeval}
        minimize 1e-12 1e-08 ${maxiter} ${maxeval}
        minimize 1e-12 1e-08 10000 ${maxeval}
        minimize 1e-12 1e-08 10000 20000
WARNING: Resetting reneighboring criteria during minimization (../min.cpp:168)
Memory usage per processor = 3.35153 Mbytes
Step Temp PotEng Lx Ly Lz 
      32            0   -241.90922    2.2449075    38.886373    1.1224537 
      33            0   -241.90927    2.2449075    38.886373    1.1224537 
      34            0   -241.90927    2.2449075    38.886373    1.1224537 
Loop time of 0.00136108 on 1 procs for 2 steps with 82 atoms

Minimization stats:
  Stopping criterion = linesearch alpha is zero
  Energy initial, next-to-last, final = 
        -241.909218088     -241.909273602     -241.909273602
  Force two-norm initial, final = 0.0951715 0.060353
  Force max component initial, final = 0.0321129 0.0166137
  Final line search alpha, max atom move = 1.90735e-06 3.16881e-08
  Iterations, force evaluations = 2 28

Pair  time (%) = 0.00109196 (80.227)
Neigh time (%) = 0 (0)
Comm  time (%) = 0.000122614 (9.00857)
Outpt time (%) = 8.9641e-06 (0.6586)
Other time (%) = 0.000137549 (10.1058)

Nlocal:    82 ave 82 max 82 min
Histogram: 1 0 0 0 0 0 0 0 0 0
Nghost:    195 ave 195 max 195 min
Histogram: 1 0 0 0 0 0 0 0 0 0
Neighs:    718 ave 718 max 718 min
Histogram: 1 0 0 0 0 0 0 0 0 0

Total # of neighbors = 718
Ave neighs/atom = 8.7561
Neighbor list builds = 0
Dangerous builds = 0
        # write_dump all atom ${dumpfile}
        next i
jump SELF loop1
        displace_atoms upper move ${xstep1} 0.0 0.0 units lattice
        displace_atoms upper move 0.00333333333333333 0.0 0.0 units lattice
        min_style ${style}
        min_style cg
        minimize ${etol} ${ftol} ${maxiter} ${maxeval}
        minimize 1e-12 ${ftol} ${maxiter} ${maxeval}
        minimize 1e-12 1e-08 ${maxiter} ${maxeval}
        minimize 1e-12 1e-08 10000 ${maxeval}
        minimize 1e-12 1e-08 10000 20000
WARNING: Resetting reneighboring criteria during minimization (../min.cpp:168)
Memory usage per processor = 3.35153 Mbytes
Step Temp PotEng Lx Ly Lz 
      34            0   -241.90197    2.2449075     38.88625    1.1224537 
      35            0   -241.90206    2.2449075     38.88625    1.1224537 
      36            0   -241.90209    2.2449075     38.88625    1.1224537 
      37            0   -241.90209    2.2449075     38.88625    1.1224537 
Loop time of 0.0255089 on 1 procs for 3 steps with 82 atoms

Minimization stats:
  Stopping criterion = linesearch alpha is zero
  Energy initial, next-to-last, final = 
        -241.901970841      -241.90209426      -241.90209426
  Force two-norm initial, final = 0.0898303 0.0559172
  Force max component initial, final = 0.0334445 0.0161679
  Final line search alpha, max atom move = 3.8147e-06 6.16758e-08
  Iterations, force evaluations = 3 34

Pair  time (%) = 0.000746793 (2.92758)
Neigh time (%) = 0 (0)
Comm  time (%) = 4.73903e-05 (0.18578)
Outpt time (%) = 0.0246251 (96.5352)
Other time (%) = 8.96363e-05 (0.351392)

Nlocal:    82 ave 82 max 82 min
Histogram: 1 0 0 0 0 0 0 0 0 0
Nghost:    195 ave 195 max 195 min
Histogram: 1 0 0 0 0 0 0 0 0 0
Neighs:    718 ave 718 max 718 min
Histogram: 1 0 0 0 0 0 0 0 0 0

Total # of neighbors = 718
Ave neighs/atom = 8.7561
Neighbor list builds = 0
Dangerous builds = 0
        # write_dump all atom ${dumpfile}
        next i
jump SELF loop1
        displace_atoms upper move ${xstep1} 0.0 0.0 units lattice
        displace_atoms upper move 0.00333333333333333 0.0 0.0 units lattice
        min_style ${style}
        min_style cg
        minimize ${etol} ${ftol} ${maxiter} ${maxeval}
        minimize 1e-12 ${ftol} ${maxiter} ${maxeval}
        minimize 1e-12 1e-08 ${maxiter} ${maxeval}
        minimize 1e-12 1e-08 10000 ${maxeval}
        minimize 1e-12 1e-08 10000 20000
WARNING: Resetting reneighboring criteria during minimization (../min.cpp:168)
Memory usage per processor = 3.35153 Mbytes
Step Temp PotEng Lx Ly Lz 
      37            0    -241.8945    2.2449075    38.885893    1.1224537 
      38            0   -241.89455    2.2449075    38.885893    1.1224537 
      39            0    -241.8947    2.2449075    38.885893    1.1224537 
      40            0    -241.8947    2.2449075    38.885893    1.1224537 
Loop time of 0.00132992 on 1 procs for 3 steps with 82 atoms

Minimization stats:
  Stopping criterion = linesearch alpha is zero
  Energy initial, next-to-last, final = 
        -241.894495089     -241.894696745     -241.894696745
  Force two-norm initial, final = 0.0920176 0.0769953
  Force max component initial, final = 0.0369811 0.0243724
  Final line search alpha, max atom move = 9.53674e-07 2.32433e-08
  Iterations, force evaluations = 3 34

Pair  time (%) = 0.00102082 (76.758)
Neigh time (%) = 0 (0)
Comm  time (%) = 0.000104582 (7.86381)
Outpt time (%) = 4.30873e-05 (3.23985)
Other time (%) = 0.00016143 (12.1384)

Nlocal:    82 ave 82 max 82 min
Histogram: 1 0 0 0 0 0 0 0 0 0
Nghost:    195 ave 195 max 195 min
Histogram: 1 0 0 0 0 0 0 0 0 0
Neighs:    718 ave 718 max 718 min
Histogram: 1 0 0 0 0 0 0 0 0 0

Total # of neighbors = 718
Ave neighs/atom = 8.7561
Neighbor list builds = 0
Dangerous builds = 0
        # write_dump all atom ${dumpfile}
        next i
jump SELF loop1
        displace_atoms upper move ${xstep1} 0.0 0.0 units lattice
        displace_atoms upper move 0.00333333333333333 0.0 0.0 units lattice
        min_style ${style}
        min_style cg
        minimize ${etol} ${ftol} ${maxiter} ${maxeval}
        minimize 1e-12 ${ftol} ${maxiter} ${maxeval}
        minimize 1e-12 1e-08 ${maxiter} ${maxeval}
        minimize 1e-12 1e-08 10000 ${maxeval}
        minimize 1e-12 1e-08 10000 20000
WARNING: Resetting reneighboring criteria during minimization (../min.cpp:168)
Memory usage per processor = 3.35153 Mbytes
Step Temp PotEng Lx Ly Lz 
      40            0    -241.8869    2.2449075    38.884894    1.1224537 
      41            0   -241.88694    2.2449075    38.884894    1.1224537 
      42            0   -241.88694    2.2449075    38.884894    1.1224537 
Loop time of 0.000674934 on 1 procs for 2 steps with 82 atoms

Minimization stats:
  Stopping criterion = linesearch alpha is zero
  Energy initial, next-to-last, final = 
        -241.886898094     -241.886943048     -241.886943048
  Force two-norm initial, final = 0.0983007 0.0458364
  Force max component initial, final = 0.0305931 0.0125604
  Final line search alpha, max atom move = 3.8147e-06 4.79142e-08
  Iterations, force evaluations = 2 27

Pair  time (%) = 0.000574675 (85.1453)
Neigh time (%) = 0 (0)
Comm  time (%) = 3.56096e-05 (5.27601)
Outpt time (%) = 6.05348e-06 (0.896899)
Other time (%) = 5.85963e-05 (8.68177)

Nlocal:    82 ave 82 max 82 min
Histogram: 1 0 0 0 0 0 0 0 0 0
Nghost:    195 ave 195 max 195 min
Histogram: 1 0 0 0 0 0 0 0 0 0
Neighs:    718 ave 718 max 718 min
Histogram: 1 0 0 0 0 0 0 0 0 0

Total # of neighbors = 718
Ave neighs/atom = 8.7561
Neighbor list builds = 0
Dangerous builds = 0
        # write_dump all atom ${dumpfile}
        next i
jump SELF loop1
        displace_atoms upper move ${xstep1} 0.0 0.0 units lattice
        displace_atoms upper move 0.00333333333333333 0.0 0.0 units lattice
        min_style ${style}
        min_style cg
        minimize ${etol} ${ftol} ${maxiter} ${maxeval}
        minimize 1e-12 ${ftol} ${maxiter} ${maxeval}
        minimize 1e-12 1e-08 ${maxiter} ${maxeval}
        minimize 1e-12 1e-08 10000 ${maxeval}
        minimize 1e-12 1e-08 10000 20000
WARNING: Resetting reneighboring criteria during minimization (../min.cpp:168)
Memory usage per processor = 3.35153 Mbytes
Step Temp PotEng Lx Ly Lz 
      42            0   -241.87899    2.2449075    38.884798    1.1224537 
      43            0   -241.87904    2.2449075    38.884798    1.1224537 
      44            0   -241.87904    2.2449075    38.884798    1.1224537 
Loop time of 0.000675985 on 1 procs for 2 steps with 82 atoms

Minimization stats:
  Stopping criterion = linesearch alpha is zero
  Energy initial, next-to-last, final = 
        -241.878993991     -241.879036391     -241.879036391
  Force two-norm initial, final = 0.0758631 0.0510791
  Force max component initial, final = 0.0303086 0.0127791
  Final line search alpha, max atom move = 3.8147e-06 4.87483e-08
  Iterations, force evaluations = 2 27

Pair  time (%) = 0.00057302 (84.7681)
Neigh time (%) = 0 (0)
Comm  time (%) = 3.20147e-05 (4.736)
Outpt time (%) = 5.91227e-06 (0.874615)
Other time (%) = 6.50383e-05 (9.62127)

Nlocal:    82 ave 82 max 82 min
Histogram: 1 0 0 0 0 0 0 0 0 0
Nghost:    195 ave 195 max 195 min
Histogram: 1 0 0 0 0 0 0 0 0 0
Neighs:    718 ave 718 max 718 min
Histogram: 1 0 0 0 0 0 0 0 0 0

Total # of neighbors = 718
Ave neighs/atom = 8.7561
Neighbor list builds = 0
Dangerous builds = 0
        # write_dump all atom ${dumpfile}
        next i
jump SELF loop1
        displace_atoms upper move ${xstep1} 0.0 0.0 units lattice
        displace_atoms upper move 0.00333333333333333 0.0 0.0 units lattice
        min_style ${style}
        min_style cg
        minimize ${etol} ${ftol} ${maxiter} ${maxeval}
        minimize 1e-12 ${ftol} ${maxiter} ${maxeval}
        minimize 1e-12 1e-08 ${maxiter} ${maxeval}
        minimize 1e-12 1e-08 10000 ${maxeval}
        minimize 1e-12 1e-08 10000 20000
WARNING: Resetting reneighboring criteria during minimization (../min.cpp:168)
Memory usage per processor = 3.35153 Mbytes
Step Temp PotEng Lx Ly Lz 
      44            0   -241.87076    2.2449075    38.884703    1.1224537 
      45            0   -241.87082    2.2449075    38.884703    1.1224537 
      46            0     -241.871    2.2449075    38.884703    1.1224537 
      47            0     -241.871    2.2449075    38.884703    1.1224537 
Loop time of 0.000769089 on 1 procs for 3 steps with 82 atoms

Minimization stats:
  Stopping criterion = linesearch alpha is zero
  Energy initial, next-to-last, final = 
        -241.870756404     -241.871002573     -241.871002573
  Force two-norm initial, final = 0.093989 0.0662732
  Force max component initial, final = 0.0398823 0.0207426
  Final line search alpha, max atom move = 1.90735e-06 3.95634e-08
  Iterations, force evaluations = 3 34

Pair  time (%) = 0.000659137 (85.7035)
Neigh time (%) = 0 (0)
Comm  time (%) = 4.27554e-05 (5.55922)
Outpt time (%) = 1.10549e-05 (1.4374)
Other time (%) = 5.61422e-05 (7.29983)

Nlocal:    82 ave 82 max 82 min
Histogram: 1 0 0 0 0 0 0 0 0 0
Nghost:    195 ave 195 max 195 min
Histogram: 1 0 0 0 0 0 0 0 0 0
Neighs:    718 ave 718 max 718 min
Histogram: 1 0 0 0 0 0 0 0 0 0

Total # of neighbors = 718
Ave neighs/atom = 8.7561
Neighbor list builds = 0
Dangerous builds = 0
        # write_dump all atom ${dumpfile}
        next i
jump SELF loop1
        displace_atoms upper move ${xstep1} 0.0 0.0 units lattice
        displace_atoms upper move 0.00333333333333333 0.0 0.0 units lattice
        min_style ${style}
        min_style cg
        minimize ${etol} ${ftol} ${maxiter} ${maxeval}
        minimize 1e-12 ${ftol} ${maxiter} ${maxeval}
        minimize 1e-12 1e-08 ${maxiter} ${maxeval}
        minimize 1e-12 1e-08 10000 ${maxeval}
        minimize 1e-12 1e-08 10000 20000
WARNING: Resetting reneighboring criteria during minimization (../min.cpp:168)
Memory usage per processor = 3.35153 Mbytes
Step Temp PotEng Lx Ly Lz 
      47            0   -241.86254    2.2449075    38.884184    1.1224537 
      48            0   -241.86255    2.2449075    38.884184    1.1224537 
      49            0   -241.86255    2.2449075    38.884184    1.1224537 
      50            0   -241.86255    2.2449075    38.884184    1.1224537 
Loop time of 0.00104692 on 1 procs for 3 steps with 82 atoms

Minimization stats:
  Stopping criterion = linesearch alpha is zero
  Energy initial, next-to-last, final = 
        -241.862536799     -241.862547642     -241.862547642
  Force two-norm initial, final = 0.0651896 0.0583894
  Force max component initial, final = 0.0207426 0.0179822
  Final line search alpha, max atom move = 1.90735e-06 3.42983e-08
  Iterations, force evaluations = 3 42

Pair  time (%) = 0.000887747 (84.796)
Neigh time (%) = 0 (0)
Comm  time (%) = 5.41223e-05 (5.16967)
Outpt time (%) = 1.412e-05 (1.34872)
Other time (%) = 9.09311e-05 (8.68557)

Nlocal:    82 ave 82 max 82 min
Histogram: 1 0 0 0 0 0 0 0 0 0
Nghost:    195 ave 195 max 195 min
Histogram: 1 0 0 0 0 0 0 0 0 0
Neighs:    718 ave 718 max 718 min
Histogram: 1 0 0 0 0 0 0 0 0 0

Total # of neighbors = 718
Ave neighs/atom = 8.7561
Neighbor list builds = 0
Dangerous builds = 0
        # write_dump all atom ${dumpfile}
        next i
jump SELF loop1
        displace_atoms upper move ${xstep1} 0.0 0.0 units lattice
        displace_atoms upper move 0.00333333333333333 0.0 0.0 units lattice
        min_style ${style}
        min_style cg
        minimize ${etol} ${ftol} ${maxiter} ${maxeval}
        minimize 1e-12 ${ftol} ${maxiter} ${maxeval}
        minimize 1e-12 1e-08 ${maxiter} ${maxeval}
        minimize 1e-12 1e-08 10000 ${maxeval}
        minimize 1e-12 1e-08 10000 20000
WARNING: Resetting reneighboring criteria during minimization (../min.cpp:168)
Memory usage per processor = 3.35153 Mbytes
Step Temp PotEng Lx Ly Lz 
      50            0    -241.8539    2.2449075    38.884156    1.1224537 
      51            0   -241.85393    2.2449075    38.884156    1.1224537 
      52            0   -241.85393    2.2449075    38.884156    1.1224537 
Loop time of 0.000722953 on 1 procs for 2 steps with 82 atoms

Minimization stats:
  Stopping criterion = linesearch alpha is zero
  Energy initial, next-to-last, final = 
        -241.853903438      -241.85392805      -241.85392805
  Force two-norm initial, final = 0.109401 0.0767191
  Force max component initial, final = 0.0479297 0.0271736
  Final line search alpha, max atom move = 1.90735e-06 5.18296e-08
  Iterations, force evaluations = 2 29

Pair  time (%) = 0.00061701 (85.3458)
Neigh time (%) = 0 (0)
Comm  time (%) = 4.02717e-05 (5.57044)
Outpt time (%) = 6.94545e-06 (0.960707)
Other time (%) = 5.87258e-05 (8.12305)

Nlocal:    82 ave 82 max 82 min
Histogram: 1 0 0 0 0 0 0 0 0 0
Nghost:    195 ave 195 max 195 min
Histogram: 1 0 0 0 0 0 0 0 0 0
Neighs:    718 ave 718 max 718 min
Histogram: 1 0 0 0 0 0 0 0 0 0

Total # of neighbors = 718
Ave neighs/atom = 8.7561
Neighbor list builds = 0
Dangerous builds = 0
        # write_dump all atom ${dumpfile}
        next i
jump SELF loop1
        displace_atoms upper move ${xstep1} 0.0 0.0 units lattice
        displace_atoms upper move 0.00333333333333333 0.0 0.0 units lattice
        min_style ${style}
        min_style cg
        minimize ${etol} ${ftol} ${maxiter} ${maxeval}
        minimize 1e-12 ${ftol} ${maxiter} ${maxeval}
        minimize 1e-12 1e-08 ${maxiter} ${maxeval}
        minimize 1e-12 1e-08 10000 ${maxeval}
        minimize 1e-12 1e-08 10000 20000
WARNING: Resetting reneighboring criteria during minimization (../min.cpp:168)
Memory usage per processor = 3.35153 Mbytes
Step Temp PotEng Lx Ly Lz 
      52            0   -241.84495    2.2449075    38.884113    1.1224537 
      53            0   -241.84498    2.2449075    38.884113    1.1224537 
      54            0    -241.8451    2.2449075    38.884113    1.1224537 
      55            0   -241.84521    2.2449075    38.884113    1.1224537 
      56            0   -241.84537    2.2449075    38.884113    1.1224537 
      57            0    -241.8454    2.2449075    38.884113    1.1224537 
      58            0    -241.8454    2.2449075    38.884113    1.1224537 
Loop time of 0.022613 on 1 procs for 6 steps with 82 atoms

Minimization stats:
  Stopping criterion = linesearch alpha is zero
  Energy initial, next-to-last, final = 
        -241.844951757     -241.845395267     -241.845395267
  Force two-norm initial, final = 0.13904 0.0502575
  Force max component initial, final = 0.0640308 0.0129952
  Final line search alpha, max atom move = 3.8147e-06 4.95726e-08
  Iterations, force evaluations = 6 56

Pair  time (%) = 0.00221116 (9.77825)
Neigh time (%) = 0 (0)
Comm  time (%) = 0.000110162 (0.487161)
Outpt time (%) = 3.48955e-05 (0.154316)
Other time (%) = 0.0202568 (89.5803)

Nlocal:    82 ave 82 max 82 min
Histogram: 1 0 0 0 0 0 0 0 0 0
Nghost:    195 ave 195 max 195 min
Histogram: 1 0 0 0 0 0 0 0 0 0
Neighs:    718 ave 718 max 718 min
Histogram: 1 0 0 0 0 0 0 0 0 0

Total # of neighbors = 718
Ave neighs/atom = 8.7561
Neighbor list builds = 0
Dangerous builds = 0
        # write_dump all atom ${dumpfile}
        next i
jump SELF loop1
        displace_atoms upper move ${xstep1} 0.0 0.0 units lattice
        displace_atoms upper move 0.00333333333333333 0.0 0.0 units lattice
        min_style ${style}
        min_style cg
        minimize ${etol} ${ftol} ${maxiter} ${maxeval}
        minimize 1e-12 ${ftol} ${maxiter} ${maxeval}
        minimize 1e-12 1e-08 ${maxiter} ${maxeval}
        minimize 1e-12 1e-08 10000 ${maxeval}
        minimize 1e-12 1e-08 10000 20000
WARNING: Resetting reneighboring criteria during minimization (../min.cpp:168)
Memory usage per processor = 3.35153 Mbytes
Step Temp PotEng Lx Ly Lz 
      58            0    -241.8364    2.2449075    38.882712    1.1224537 
      59            0   -241.83647    2.2449075    38.882712    1.1224537 
      60            0   -241.83647    2.2449075    38.882712    1.1224537 
Loop time of 0.000712076 on 1 procs for 2 steps with 82 atoms

Minimization stats:
  Stopping criterion = linesearch alpha is zero
  Energy initial, next-to-last, final = 
        -241.836402173     -241.836471284     -241.836471284
  Force two-norm initial, final = 0.0793888 0.0770227
  Force max component initial, final = 0.0312287 0.0283013
  Final line search alpha, max atom move = 3.8147e-06 1.07961e-07
  Iterations, force evaluations = 2 26

Pair  time (%) = 0.000568884 (79.8909)
Neigh time (%) = 0 (0)
Comm  time (%) = 4.57836e-05 (6.42959)
Outpt time (%) = 9.05502e-06 (1.27164)
Other time (%) = 8.83533e-05 (12.4078)

Nlocal:    82 ave 82 max 82 min
Histogram: 1 0 0 0 0 0 0 0 0 0
Nghost:    195 ave 195 max 195 min
Histogram: 1 0 0 0 0 0 0 0 0 0
Neighs:    718 ave 718 max 718 min
Histogram: 1 0 0 0 0 0 0 0 0 0

Total # of neighbors = 718
Ave neighs/atom = 8.7561
Neighbor list builds = 0
Dangerous builds = 0
        # write_dump all atom ${dumpfile}
        next i
jump SELF loop1
        displace_atoms upper move ${xstep1} 0.0 0.0 units lattice
        displace_atoms upper move 0.00333333333333333 0.0 0.0 units lattice
        min_style ${style}
        min_style cg
        minimize ${etol} ${ftol} ${maxiter} ${maxeval}
        minimize 1e-12 ${ftol} ${maxiter} ${maxeval}
        minimize 1e-12 1e-08 ${maxiter} ${maxeval}
        minimize 1e-12 1e-08 10000 ${maxeval}
        minimize 1e-12 1e-08 10000 20000
WARNING: Resetting reneighboring criteria during minimization (../min.cpp:168)
Memory usage per processor = 3.35153 Mbytes
Step Temp PotEng Lx Ly Lz 
      60            0   -241.82725    2.2449075    38.882566    1.1224537 
      61            0    -241.8273    2.2449075    38.882566    1.1224537 
      62            0   -241.82743    2.2449075    38.882566    1.1224537 
      63            0   -241.82744    2.2449075    38.882566    1.1224537 
      64            0   -241.82744    2.2449075    38.882566    1.1224537 
      65            0   -241.82744    2.2449075    38.882566    1.1224537 
Loop time of 0.00111008 on 1 procs for 5 steps with 82 atoms

Minimization stats:
  Stopping criterion = linesearch alpha is zero
  Energy initial, next-to-last, final = 
        -241.827245509     -241.827440121     -241.827440121
  Force two-norm initial, final = 0.0555841 0.0711261
  Force max component initial, final = 0.0178692 0.0253698
  Final line search alpha, max atom move = 1.90735e-06 4.8389e-08
  Iterations, force evaluations = 5 56

Pair  time (%) = 0.0009408 (84.7508)
Neigh time (%) = 0 (0)
Comm  time (%) = 5.94846e-05 (5.3586)
Outpt time (%) = 1.90162e-05 (1.71305)
Other time (%) = 9.07768e-05 (8.17752)

Nlocal:    82 ave 82 max 82 min
Histogram: 1 0 0 0 0 0 0 0 0 0
Nghost:    195 ave 195 max 195 min
Histogram: 1 0 0 0 0 0 0 0 0 0
Neighs:    718 ave 718 max 718 min
Histogram: 1 0 0 0 0 0 0 0 0 0

Total # of neighbors = 718
Ave neighs/atom = 8.7561
Neighbor list builds = 0
Dangerous builds = 0
        # write_dump all atom ${dumpfile}
        next i
jump SELF loop1
        displace_atoms upper move ${xstep1} 0.0 0.0 units lattice
        displace_atoms upper move 0.00333333333333333 0.0 0.0 units lattice
        min_style ${style}
        min_style cg
        minimize ${etol} ${ftol} ${maxiter} ${maxeval}
        minimize 1e-12 ${ftol} ${maxiter} ${maxeval}
        minimize 1e-12 1e-08 ${maxiter} ${maxeval}
        minimize 1e-12 1e-08 10000 ${maxeval}
        minimize 1e-12 1e-08 10000 20000
WARNING: Resetting reneighboring criteria during minimization (../min.cpp:168)
Memory usage per processor = 3.35153 Mbytes
Step Temp PotEng Lx Ly Lz 
      65            0    -241.8181    2.2449075    38.881628    1.1224537 
      66            0   -241.81812    2.2449075    38.881628    1.1224537 
      67            0   -241.81812    2.2449075    38.881628    1.1224537 
Loop time of 0.000658022 on 1 procs for 2 steps with 82 atoms

Minimization stats:
  Stopping criterion = linesearch alpha is zero
  Energy initial, next-to-last, final = 
        -241.818096531     -241.818119863     -241.818119863
  Force two-norm initial, final = 0.0729346 0.0380851
  Force max component initial, final = 0.0253698 0.00885994
  Final line search alpha, max atom move = 7.62939e-06 6.7596e-08
  Iterations, force evaluations = 2 26

Pair  time (%) = 0.000558119 (84.8177)
Neigh time (%) = 0 (0)
Comm  time (%) = 3.60876e-05 (5.48425)
Outpt time (%) = 8.08807e-06 (1.22915)
Other time (%) = 5.57272e-05 (8.4689)

Nlocal:    82 ave 82 max 82 min
Histogram: 1 0 0 0 0 0 0 0 0 0
Nghost:    195 ave 195 max 195 min
Histogram: 1 0 0 0 0 0 0 0 0 0
Neighs:    718 ave 718 max 718 min
Histogram: 1 0 0 0 0 0 0 0 0 0

Total # of neighbors = 718
Ave neighs/atom = 8.7561
Neighbor list builds = 0
Dangerous builds = 0
        # write_dump all atom ${dumpfile}
        next i
jump SELF loop1
        displace_atoms upper move ${xstep1} 0.0 0.0 units lattice
        displace_atoms upper move 0.00333333333333333 0.0 0.0 units lattice
        min_style ${style}
        min_style cg
        minimize ${etol} ${ftol} ${maxiter} ${maxeval}
        minimize 1e-12 ${ftol} ${maxiter} ${maxeval}
        minimize 1e-12 1e-08 ${maxiter} ${maxeval}
        minimize 1e-12 1e-08 10000 ${maxeval}
        minimize 1e-12 1e-08 10000 20000
WARNING: Resetting reneighboring criteria during minimization (../min.cpp:168)
Memory usage per processor = 3.35153 Mbytes
Step Temp PotEng Lx Ly Lz 
      67            0   -241.80858    2.2449075    38.881564    1.1224537 
      68            0   -241.80861    2.2449075    38.881564    1.1224537 
      69            0   -241.80868    2.2449075    38.881564    1.1224537 
      70            0   -241.80874    2.2449075    38.881564    1.1224537 
      71            0   -241.80875    2.2449075    38.881564    1.1224537 
      72            0   -241.80875    2.2449075    38.881564    1.1224537 
Loop time of 0.0011981 on 1 procs for 5 steps with 82 atoms

Minimization stats:
  Stopping criterion = linesearch alpha is zero
  Energy initial, next-to-last, final = 
        -241.808584731     -241.808749495     -241.808749495
  Force two-norm initial, final = 0.0936171 0.0364277
  Force max component initial, final = 0.0429656 0.0102494
  Final line search alpha, max atom move = 7.62939e-06 7.81969e-08
  Iterations, force evaluations = 5 48

Pair  time (%) = 0.00101206 (84.4719)
Neigh time (%) = 0 (0)
Comm  time (%) = 7.31421e-05 (6.10484)
Outpt time (%) = 2.09755e-05 (1.75073)
Other time (%) = 9.1925e-05 (7.67257)

Nlocal:    82 ave 82 max 82 min
Histogram: 1 0 0 0 0 0 0 0 0 0
Nghost:    195 ave 195 max 195 min
Histogram: 1 0 0 0 0 0 0 0 0 0
Neighs:    718 ave 718 max 718 min
Histogram: 1 0 0 0 0 0 0 0 0 0

Total # of neighbors = 718
Ave neighs/atom = 8.7561
Neighbor list builds = 0
Dangerous builds = 0
        # write_dump all atom ${dumpfile}
        next i
jump SELF loop1
        displace_atoms upper move ${xstep1} 0.0 0.0 units lattice
        displace_atoms upper move 0.00333333333333333 0.0 0.0 units lattice
        min_style ${style}
        min_style cg
        minimize ${etol} ${ftol} ${maxiter} ${maxeval}
        minimize 1e-12 ${ftol} ${maxiter} ${maxeval}
        minimize 1e-12 1e-08 ${maxiter} ${maxeval}
        minimize 1e-12 1e-08 10000 ${maxeval}
        minimize 1e-12 1e-08 10000 20000
WARNING: Resetting reneighboring criteria during minimization (../min.cpp:168)
Memory usage per processor = 3.35153 Mbytes
Step Temp PotEng Lx Ly Lz 
      72            0   -241.79904    2.2449075    38.880989    1.1224537 
      73            0   -241.79906    2.2449075    38.880989    1.1224537 
      74            0   -241.79917    2.2449075    38.880989    1.1224537 
      75            0   -241.79922    2.2449075    38.880989    1.1224537 
      76            0   -241.79923    2.2449075    38.880989    1.1224537 
      77            0   -241.79923    2.2449075    38.880989    1.1224537 
Loop time of 0.00175593 on 1 procs for 5 steps with 82 atoms

Minimization stats:
  Stopping criterion = linesearch alpha is zero
  Energy initial, next-to-last, final = 
         -241.79904319     -241.799233202     -241.799233202
  Force two-norm initial, final = 0.0799136 0.0499913
  Force max component initial, final = 0.035789 0.0134139
  Final line search alpha, max atom move = 3.8147e-06 5.117e-08
  Iterations, force evaluations = 5 47

Pair  time (%) = 0.00139581 (79.491)
Neigh time (%) = 0 (0)
Comm  time (%) = 0.000141603 (8.06426)
Outpt time (%) = 3.49249e-05 (1.98897)
Other time (%) = 0.000183597 (10.4558)

Nlocal:    82 ave 82 max 82 min
Histogram: 1 0 0 0 0 0 0 0 0 0
Nghost:    195 ave 195 max 195 min
Histogram: 1 0 0 0 0 0 0 0 0 0
Neighs:    718 ave 718 max 718 min
Histogram: 1 0 0 0 0 0 0 0 0 0

Total # of neighbors = 718
Ave neighs/atom = 8.7561
Neighbor list builds = 0
Dangerous builds = 0
        # write_dump all atom ${dumpfile}
        next i
jump SELF loop1
        displace_atoms upper move ${xstep1} 0.0 0.0 units lattice
        displace_atoms upper move 0.00333333333333333 0.0 0.0 units lattice
        min_style ${style}
        min_style cg
        minimize ${etol} ${ftol} ${maxiter} ${maxeval}
        minimize 1e-12 ${ftol} ${maxiter} ${maxeval}
        minimize 1e-12 1e-08 ${maxiter} ${maxeval}
        minimize 1e-12 1e-08 10000 ${maxeval}
        minimize 1e-12 1e-08 10000 20000
WARNING: Resetting reneighboring criteria during minimization (../min.cpp:168)
Memory usage per processor = 3.35153 Mbytes
Step Temp PotEng Lx Ly Lz 
      77            0   -241.78934    2.2449075    38.880092    1.1224537 
      78            0    -241.7894    2.2449075    38.880092    1.1224537 
      79            0   -241.78942    2.2449075    38.880092    1.1224537 
      80            0    -241.7895    2.2449075    38.880092    1.1224537 
      81            0    -241.7895    2.2449075    38.880092    1.1224537 
Loop time of 0.00104792 on 1 procs for 4 steps with 82 atoms

Minimization stats:
  Stopping criterion = linesearch alpha is zero
  Energy initial, next-to-last, final = 
        -241.789341771      -241.78949742      -241.78949742
  Force two-norm initial, final = 0.0907034 0.0335427
  Force max component initial, final = 0.0379574 0.0103374
  Final line search alpha, max atom move = 7.62939e-06 7.8868e-08
  Iterations, force evaluations = 4 41

Pair  time (%) = 0.000887375 (84.6795)
Neigh time (%) = 0 (0)
Comm  time (%) = 5.35107e-05 (5.10636)
Outpt time (%) = 1.91232e-05 (1.82487)
Other time (%) = 8.79125e-05 (8.38923)

Nlocal:    82 ave 82 max 82 min
Histogram: 1 0 0 0 0 0 0 0 0 0
Nghost:    195 ave 195 max 195 min
Histogram: 1 0 0 0 0 0 0 0 0 0
Neighs:    718 ave 718 max 718 min
Histogram: 1 0 0 0 0 0 0 0 0 0

Total # of neighbors = 718
Ave neighs/atom = 8.7561
Neighbor list builds = 0
Dangerous builds = 0
        # write_dump all atom ${dumpfile}
        next i
jump SELF loop1
        displace_atoms upper move ${xstep1} 0.0 0.0 units lattice
        displace_atoms upper move 0.00333333333333333 0.0 0.0 units lattice
        min_style ${style}
        min_style cg
        minimize ${etol} ${ftol} ${maxiter} ${maxeval}
        minimize 1e-12 ${ftol} ${maxiter} ${maxeval}
        minimize 1e-12 1e-08 ${maxiter} ${maxeval}
        minimize 1e-12 1e-08 10000 ${maxeval}
        minimize 1e-12 1e-08 10000 20000
WARNING: Resetting reneighboring criteria during minimization (../min.cpp:168)
Memory usage per processor = 3.35153 Mbytes
Step Temp PotEng Lx Ly Lz 
      81            0    -241.7795    2.2449075    38.879825    1.1224537 
      82            0   -241.77951    2.2449075    38.879825    1.1224537 
      83            0   -241.77951    2.2449075    38.879825    1.1224537 
Loop time of 0.00121205 on 1 procs for 2 steps with 82 atoms

Minimization stats:
  Stopping criterion = linesearch alpha is zero
  Energy initial, next-to-last, final = 
        -241.779498805     -241.779508091     -241.779508091
  Force two-norm initial, final = 0.0831442 0.0752866
  Force max component initial, final = 0.0381635 0.0340155
  Final line search alpha, max atom move = 1.90735e-06 6.48794e-08
  Iterations, force evaluations = 2 31

Pair  time (%) = 0.00109209 (90.1034)
Neigh time (%) = 0 (0)
Comm  time (%) = 4.58494e-05 (3.78281)
Outpt time (%) = 1.39105e-05 (1.14768)
Other time (%) = 6.0192e-05 (4.96614)

Nlocal:    82 ave 82 max 82 min
Histogram: 1 0 0 0 0 0 0 0 0 0
Nghost:    195 ave 195 max 195 min
Histogram: 1 0 0 0 0 0 0 0 0 0
Neighs:    718 ave 718 max 718 min
Histogram: 1 0 0 0 0 0 0 0 0 0

Total # of neighbors = 718
Ave neighs/atom = 8.7561
Neighbor list builds = 0
Dangerous builds = 0
        # write_dump all atom ${dumpfile}
        next i
jump SELF loop1
        displace_atoms upper move ${xstep1} 0.0 0.0 units lattice
        displace_atoms upper move 0.00333333333333333 0.0 0.0 units lattice
        min_style ${style}
        min_style cg
        minimize ${etol} ${ftol} ${maxiter} ${maxeval}
        minimize 1e-12 ${ftol} ${maxiter} ${maxeval}
        minimize 1e-12 1e-08 ${maxiter} ${maxeval}
        minimize 1e-12 1e-08 10000 ${maxeval}
        minimize 1e-12 1e-08 10000 20000
WARNING: Resetting reneighboring criteria during minimization (../min.cpp:168)
Memory usage per processor = 3.35153 Mbytes
Step Temp PotEng Lx Ly Lz 
      83            0   -241.76931    2.2449075    38.879819    1.1224537 
      84            0   -241.76936    2.2449075    38.879819    1.1224537 
      85            0   -241.76938    2.2449075    38.879819    1.1224537 
      86            0   -241.76938    2.2449075    38.879819    1.1224537 
Loop time of 0.000955111 on 1 procs for 3 steps with 82 atoms

Minimization stats:
  Stopping criterion = linesearch alpha is zero
  Energy initial, next-to-last, final = 
        -241.769313704     -241.769377574     -241.769377574
  Force two-norm initial, final = 0.154266 0.0798161
  Force max component initial, final = 0.07545 0.033845
  Final line search alpha, max atom move = 1.90735e-06 6.45542e-08
  Iterations, force evaluations = 3 39

Pair  time (%) = 0.000815114 (85.3424)
Neigh time (%) = 0 (0)
Comm  time (%) = 5.21297e-05 (5.45798)
Outpt time (%) = 1.20664e-05 (1.26336)
Other time (%) = 7.58003e-05 (7.93629)

Nlocal:    82 ave 82 max 82 min
Histogram: 1 0 0 0 0 0 0 0 0 0
Nghost:    195 ave 195 max 195 min
Histogram: 1 0 0 0 0 0 0 0 0 0
Neighs:    718 ave 718 max 718 min
Histogram: 1 0 0 0 0 0 0 0 0 0

Total # of neighbors = 718
Ave neighs/atom = 8.7561
Neighbor list builds = 0
Dangerous builds = 0
        # write_dump all atom ${dumpfile}
        next i
jump SELF loop1
        displace_atoms upper move ${xstep1} 0.0 0.0 units lattice
        displace_atoms upper move 0.00333333333333333 0.0 0.0 units lattice
        min_style ${style}
        min_style cg
        minimize ${etol} ${ftol} ${maxiter} ${maxeval}
        minimize 1e-12 ${ftol} ${maxiter} ${maxeval}
        minimize 1e-12 1e-08 ${maxiter} ${maxeval}
        minimize 1e-12 1e-08 10000 ${maxeval}
        minimize 1e-12 1e-08 10000 20000
WARNING: Resetting reneighboring criteria during minimization (../min.cpp:168)
Memory usage per processor = 3.35153 Mbytes
Step Temp PotEng Lx Ly Lz 
      86            0   -241.75896    2.2449075    38.879782    1.1224537 
      87            0   -241.75907    2.2449075    38.879782    1.1224537 
      88            0   -241.75914    2.2449075    38.879782    1.1224537 
      89            0   -241.75922    2.2449075    38.879782    1.1224537 
      90            0   -241.75947    2.2449075    38.879782    1.1224537 
      91            0   -241.75947    2.2449075    38.879782    1.1224537 
Loop time of 0.00123489 on 1 procs for 5 steps with 82 atoms

Minimization stats:
  Stopping criterion = linesearch alpha is zero
  Energy initial, next-to-last, final = 
        -241.758957045     -241.759469995     -241.759469995
  Force two-norm initial, final = 0.15824 0.0709206
  Force max component initial, final = 0.0762638 0.0242022
  Final line search alpha, max atom move = 1.90735e-06 4.61621e-08
  Iterations, force evaluations = 5 47

Pair  time (%) = 0.000990855 (80.2384)
Neigh time (%) = 0 (0)
Comm  time (%) = 6.16263e-05 (4.99043)
Outpt time (%) = 2.39158e-05 (1.93667)
Other time (%) = 0.000158492 (12.8345)

Nlocal:    82 ave 82 max 82 min
Histogram: 1 0 0 0 0 0 0 0 0 0
Nghost:    195 ave 195 max 195 min
Histogram: 1 0 0 0 0 0 0 0 0 0
Neighs:    718 ave 718 max 718 min
Histogram: 1 0 0 0 0 0 0 0 0 0

Total # of neighbors = 718
Ave neighs/atom = 8.7561
Neighbor list builds = 0
Dangerous builds = 0
        # write_dump all atom ${dumpfile}
        next i
jump SELF loop1
        displace_atoms upper move ${xstep1} 0.0 0.0 units lattice
        displace_atoms upper move 0.00333333333333333 0.0 0.0 units lattice
        min_style ${style}
        min_style cg
        minimize ${etol} ${ftol} ${maxiter} ${maxeval}
        minimize 1e-12 ${ftol} ${maxiter} ${maxeval}
        minimize 1e-12 1e-08 ${maxiter} ${maxeval}
        minimize 1e-12 1e-08 10000 ${maxeval}
        minimize 1e-12 1e-08 10000 20000
WARNING: Resetting reneighboring criteria during minimization (../min.cpp:168)
Memory usage per processor = 3.35153 Mbytes
Step Temp PotEng Lx Ly Lz 
      91            0   -241.74903    2.2449075    38.879021    1.1224537 
      92            0   -241.74918    2.2449075    38.879021    1.1224537 
      93            0   -241.74921    2.2449075    38.879021    1.1224537 
      94            0   -241.74921    2.2449075    38.879021    1.1224537 
Loop time of 0.000897994 on 1 procs for 3 steps with 82 atoms

Minimization stats:
  Stopping criterion = linesearch alpha is zero
  Energy initial, next-to-last, final = 
        -241.749029743     -241.749205485     -241.749205485
  Force two-norm initial, final = 0.142856 0.0367227
  Force max component initial, final = 0.0665918 0.00830596
  Final line search alpha, max atom move = 7.62939e-06 6.33694e-08
  Iterations, force evaluations = 3 34

Pair  time (%) = 0.000766121 (85.3147)
Neigh time (%) = 0 (0)
Comm  time (%) = 4.54891e-05 (5.06563)
Outpt time (%) = 1.50867e-05 (1.68005)
Other time (%) = 7.12975e-05 (7.93964)

Nlocal:    82 ave 82 max 82 min
Histogram: 1 0 0 0 0 0 0 0 0 0
Nghost:    195 ave 195 max 195 min
Histogram: 1 0 0 0 0 0 0 0 0 0
Neighs:    718 ave 718 max 718 min
Histogram: 1 0 0 0 0 0 0 0 0 0

Total # of neighbors = 718
Ave neighs/atom = 8.7561
Neighbor list builds = 0
Dangerous builds = 0
        # write_dump all atom ${dumpfile}
        next i
jump SELF loop1
        displace_atoms upper move ${xstep1} 0.0 0.0 units lattice
        displace_atoms upper move 0.00333333333333333 0.0 0.0 units lattice
        min_style ${style}
        min_style cg
[...]
Loop time of 0.000483117 on 1 procs for 1 steps with 82 atoms

Minimization stats:
  Stopping criterion = linesearch alpha is zero
  Energy initial, next-to-last, final = 
        -241.978495243     -241.978495243     -241.978495243
  Force two-norm initial, final = 0.0741917 0.0741917
  Force max component initial, final = 0.031184 0.031184
  Final line search alpha, max atom move = 1.90735e-06 5.94787e-08
  Iterations, force evaluations = 1 20

Pair  time (%) = 0.000420262 (86.9896)
Neigh time (%) = 0 (0)
Comm  time (%) = 2.60264e-05 (5.38718)
Outpt time (%) = 0 (0)
Other time (%) = 3.68292e-05 (7.62323)

Nlocal:    82 ave 82 max 82 min
Histogram: 1 0 0 0 0 0 0 0 0 0
Nghost:    195 ave 195 max 195 min
Histogram: 1 0 0 0 0 0 0 0 0 0
Neighs:    718 ave 718 max 718 min
Histogram: 1 0 0 0 0 0 0 0 0 0

Total # of neighbors = 718
Ave neighs/atom = 8.7561
Neighbor list builds = 0
Dangerous builds = 0
        # write_dump all atom ${dumpfile}
        next i
jump SELF loop1
        displace_atoms upper move ${xstep1} 0.0 0.0 units lattice
        displace_atoms upper move 0.00333333333333333 0.0 0.0 units lattice
        min_style ${style}
        min_style cg
        minimize ${etol} ${ftol} ${maxiter} ${maxeval}
        minimize 1e-12 ${ftol} ${maxiter} ${maxeval}
        minimize 1e-12 1e-08 ${maxiter} ${maxeval}
        minimize 1e-12 1e-08 10000 ${maxeval}
        minimize 1e-12 1e-08 10000 20000
WARNING: Resetting reneighboring criteria during minimization (../min.cpp:168)
Memory usage per processor = 3.35153 Mbytes
Step Temp PotEng Lx Ly Lz 
     850            0   -241.98163    2.2449075    38.910648    1.1224537 
     851            0   -241.98163    2.2449075    38.910648    1.1224537 
Loop time of 0.000546963 on 1 procs for 1 steps with 82 atoms

Minimization stats:
  Stopping criterion = linesearch alpha is zero
  Energy initial, next-to-last, final = 
        -241.981634688     -241.981634688     -241.981634688
  Force two-norm initial, final = 0.0969822 0.0969822
  Force max component initial, final = 0.0441518 0.0441518
  Final line search alpha, max atom move = 9.53674e-07 4.21065e-08
  Iterations, force evaluations = 1 21

Pair  time (%) = 0.000467923 (85.5494)
Neigh time (%) = 0 (0)
Comm  time (%) = 3.1196e-05 (5.7035)
Outpt time (%) = 0 (0)
Other time (%) = 4.78433e-05 (8.74709)

Nlocal:    82 ave 82 max 82 min
Histogram: 1 0 0 0 0 0 0 0 0 0
Nghost:    195 ave 195 max 195 min
Histogram: 1 0 0 0 0 0 0 0 0 0
Neighs:    718 ave 718 max 718 min
Histogram: 1 0 0 0 0 0 0 0 0 0

Total # of neighbors = 718
Ave neighs/atom = 8.7561
Neighbor list builds = 0
Dangerous builds = 0
        # write_dump all atom ${dumpfile}
        next i
jump SELF loop1
        displace_atoms upper move ${xstep1} 0.0 0.0 units lattice
        displace_atoms upper move 0.00333333333333333 0.0 0.0 units lattice
        min_style ${style}
        min_style cg
        minimize ${etol} ${ftol} ${maxiter} ${maxeval}
        minimize 1e-12 ${ftol} ${maxiter} ${maxeval}
        minimize 1e-12 1e-08 ${maxiter} ${maxeval}
        minimize 1e-12 1e-08 10000 ${maxeval}
        minimize 1e-12 1e-08 10000 20000
WARNING: Resetting reneighboring criteria during minimization (../min.cpp:168)
Memory usage per processor = 3.35153 Mbytes
Step Temp PotEng Lx Ly Lz 
     851            0   -241.98446    2.2449075    38.910648    1.1224537 
     852            0   -241.98449    2.2449075    38.910648    1.1224537 
     853            0   -241.98449    2.2449075    38.910648    1.1224537 
     854            0   -241.98449    2.2449075    38.910648    1.1224537 
     855            0   -241.98449    2.2449075    38.910648    1.1224537 
     856            0   -241.98449    2.2449075    38.910648    1.1224537 
Loop time of 0.00253891 on 1 procs for 5 steps with 82 atoms

Minimization stats:
  Stopping criterion = linesearch alpha is zero
  Energy initial, next-to-last, final = 
        -241.984456999     -241.984492936     -241.984492936
  Force two-norm initial, final = 0.118598 0.0788768
  Force max component initial, final = 0.05582 0.0327432
  Final line search alpha, max atom move = 1.90735e-06 6.24527e-08
  Iterations, force evaluations = 5 79

Pair  time (%) = 0.00205217 (80.8286)
Neigh time (%) = 0 (0)
Comm  time (%) = 0.000217188 (8.55436)
Outpt time (%) = 2.90254e-05 (1.14322)
Other time (%) = 0.000240531 (9.47379)

Nlocal:    82 ave 82 max 82 min
Histogram: 1 0 0 0 0 0 0 0 0 0
Nghost:    195 ave 195 max 195 min
Histogram: 1 0 0 0 0 0 0 0 0 0
Neighs:    718 ave 718 max 718 min
Histogram: 1 0 0 0 0 0 0 0 0 0

Total # of neighbors = 718
Ave neighs/atom = 8.7561
Neighbor list builds = 0
Dangerous builds = 0
        # write_dump all atom ${dumpfile}
        next i
jump SELF loop1
        displace_atoms upper move ${xstep1} 0.0 0.0 units lattice
        displace_atoms upper move 0.00333333333333333 0.0 0.0 units lattice
        min_style ${style}
        min_style cg
        minimize ${etol} ${ftol} ${maxiter} ${maxeval}
        minimize 1e-12 ${ftol} ${maxiter} ${maxeval}
        minimize 1e-12 1e-08 ${maxiter} ${maxeval}
        minimize 1e-12 1e-08 10000 ${maxeval}
        minimize 1e-12 1e-08 10000 20000
WARNING: Resetting reneighboring criteria during minimization (../min.cpp:168)
Memory usage per processor = 3.35153 Mbytes
Step Temp PotEng Lx Ly Lz 
     856            0   -241.98693    2.2449075    38.910609    1.1224537 
     857            0   -241.98693    2.2449075    38.910609    1.1224537 
     858            0   -241.98693    2.2449075    38.910609    1.1224537 
     859            0   -241.98693    2.2449075    38.910609    1.1224537 
Loop time of 0.00119607 on 1 procs for 3 steps with 82 atoms

Minimization stats:
  Stopping criterion = linesearch alpha is zero
  Energy initial, next-to-last, final = 
        -241.986927564     -241.986930303     -241.986930303
  Force two-norm initial, final = 0.0960445 0.0909662
  Force max component initial, final = 0.0427101 0.0396738
  Final line search alpha, max atom move = 9.53674e-07 3.78359e-08
  Iterations, force evaluations = 3 46

Pair  time (%) = 0.00102642 (85.816)
Neigh time (%) = 0 (0)
Comm  time (%) = 5.79503e-05 (4.84504)
Outpt time (%) = 1.50484e-05 (1.25815)
Other time (%) = 9.66525e-05 (8.08082)

Nlocal:    82 ave 82 max 82 min
Histogram: 1 0 0 0 0 0 0 0 0 0
Nghost:    195 ave 195 max 195 min
Histogram: 1 0 0 0 0 0 0 0 0 0
Neighs:    718 ave 718 max 718 min
Histogram: 1 0 0 0 0 0 0 0 0 0

Total # of neighbors = 718
Ave neighs/atom = 8.7561
Neighbor list builds = 0
Dangerous builds = 0
        # write_dump all atom ${dumpfile}
        next i
jump SELF loop1
        displace_atoms upper move ${xstep1} 0.0 0.0 units lattice
        displace_atoms upper move 0.00333333333333333 0.0 0.0 units lattice
        min_style ${style}
        min_style cg
        minimize ${etol} ${ftol} ${maxiter} ${maxeval}
        minimize 1e-12 ${ftol} ${maxiter} ${maxeval}
        minimize 1e-12 1e-08 ${maxiter} ${maxeval}
        minimize 1e-12 1e-08 10000 ${maxeval}
        minimize 1e-12 1e-08 10000 20000
WARNING: Resetting reneighboring criteria during minimization (../min.cpp:168)
Memory usage per processor = 3.35153 Mbytes
Step Temp PotEng Lx Ly Lz 
     859            0   -241.98907    2.2449075    38.910602    1.1224537 
     860            0   -241.98908    2.2449075    38.910602    1.1224537 
     861            0   -241.98911    2.2449075    38.910602    1.1224537 
     862            0   -241.98915    2.2449075    38.910602    1.1224537 
     863            0   -241.98916    2.2449075    38.910602    1.1224537 
     864            0   -241.98923    2.2449075    38.910602    1.1224537 
     865            0   -241.98926    2.2449075    38.910602    1.1224537 
     866            0    -241.9894    2.2449075    38.910602    1.1224537 
     867            0   -241.98942    2.2449075    38.910602    1.1224537 
     868            0   -241.98942    2.2449075    38.910602    1.1224537 
Loop time of 0.00163605 on 1 procs for 9 steps with 82 atoms

Minimization stats:
  Stopping criterion = linesearch alpha is zero
  Energy initial, next-to-last, final = 
        -241.989073102     -241.989417771     -241.989417771
  Force two-norm initial, final = 0.10668 0.0523594
  Force max component initial, final = 0.0484931 0.0112272
  Final line search alpha, max atom move = 3.8147e-06 4.28283e-08
  Iterations, force evaluations = 9 77

Pair  time (%) = 0.00136491 (83.4271)
Neigh time (%) = 0 (0)
Comm  time (%) = 8.77223e-05 (5.36185)
Outpt time (%) = 3.40176e-05 (2.07926)
Other time (%) = 0.0001494 (9.13178)

Nlocal:    82 ave 82 max 82 min
Histogram: 1 0 0 0 0 0 0 0 0 0
Nghost:    195 ave 195 max 195 min
Histogram: 1 0 0 0 0 0 0 0 0 0
Neighs:    718 ave 718 max 718 min
Histogram: 1 0 0 0 0 0 0 0 0 0

Total # of neighbors = 718
Ave neighs/atom = 8.7561
Neighbor list builds = 0
Dangerous builds = 0
        # write_dump all atom ${dumpfile}
        next i
jump SELF loop1
        displace_atoms upper move ${xstep1} 0.0 0.0 units lattice
        displace_atoms upper move 0.00333333333333333 0.0 0.0 units lattice
        min_style ${style}
        min_style cg
        minimize ${etol} ${ftol} ${maxiter} ${maxeval}
        minimize 1e-12 ${ftol} ${maxiter} ${maxeval}
        minimize 1e-12 1e-08 ${maxiter} ${maxeval}
        minimize 1e-12 1e-08 10000 ${maxeval}
        minimize 1e-12 1e-08 10000 20000
WARNING: Resetting reneighboring criteria during minimization (../min.cpp:168)
Memory usage per processor = 3.35153 Mbytes
Step Temp PotEng Lx Ly Lz 
     868            0   -241.99122    2.2449075    38.908166    1.1224537 
     869            0   -241.99122    2.2449075    38.908166    1.1224537 
     870            0   -241.99122    2.2449075    38.908166    1.1224537 
Loop time of 0.00157012 on 1 procs for 2 steps with 82 atoms

Minimization stats:
  Stopping criterion = linesearch alpha is zero
  Energy initial, next-to-last, final = 
        -241.991221506     -241.991224467     -241.991224467
  Force two-norm initial, final = 0.0601475 0.0542916
  Force max component initial, final = 0.0186095 0.0151897
  Final line search alpha, max atom move = 3.8147e-06 5.79443e-08
  Iterations, force evaluations = 2 29

Pair  time (%) = 0.00137198 (87.3809)
Neigh time (%) = 0 (0)
Comm  time (%) = 7.47524e-05 (4.76095)
Outpt time (%) = 2.89034e-05 (1.84084)
Other time (%) = 9.44791e-05 (6.01733)

Nlocal:    82 ave 82 max 82 min
Histogram: 1 0 0 0 0 0 0 0 0 0
Nghost:    195 ave 195 max 195 min
Histogram: 1 0 0 0 0 0 0 0 0 0
Neighs:    718 ave 718 max 718 min
Histogram: 1 0 0 0 0 0 0 0 0 0

Total # of neighbors = 718
Ave neighs/atom = 8.7561
Neighbor list builds = 0
Dangerous builds = 0
        # write_dump all atom ${dumpfile}
        next i
jump SELF loop1
        displace_atoms upper move ${xstep1} 0.0 0.0 units lattice
        displace_atoms upper move 0.00333333333333333 0.0 0.0 units lattice
        min_style ${style}
        min_style cg
        minimize ${etol} ${ftol} ${maxiter} ${maxeval}
        minimize 1e-12 ${ftol} ${maxiter} ${maxeval}
        minimize 1e-12 1e-08 ${maxiter} ${maxeval}
        minimize 1e-12 1e-08 10000 ${maxeval}
        minimize 1e-12 1e-08 10000 20000
WARNING: Resetting reneighboring criteria during minimization (../min.cpp:168)
Memory usage per processor = 3.35153 Mbytes
Step Temp PotEng Lx Ly Lz 
     870            0   -241.99272    2.2449075    38.908147    1.1224537 
     871            0   -241.99272    2.2449075    38.908147    1.1224537 
Loop time of 0.000451942 on 1 procs for 1 steps with 82 atoms

Minimization stats:
  Stopping criterion = linesearch alpha is zero
  Energy initial, next-to-last, final = 
        -241.992721476     -241.992721476     -241.992721476
  Force two-norm initial, final = 0.0619954 0.0619954
  Force max component initial, final = 0.0213463 0.0213463
  Final line search alpha, max atom move = 1.90735e-06 4.07149e-08
  Iterations, force evaluations = 1 20

Pair  time (%) = 0.000385656 (85.3331)
Neigh time (%) = 0 (0)
Comm  time (%) = 2.34327e-05 (5.18488)
Outpt time (%) = 0 (0)
Other time (%) = 4.28531e-05 (9.48198)

Nlocal:    82 ave 82 max 82 min
Histogram: 1 0 0 0 0 0 0 0 0 0
Nghost:    195 ave 195 max 195 min
Histogram: 1 0 0 0 0 0 0 0 0 0
Neighs:    718 ave 718 max 718 min
Histogram: 1 0 0 0 0 0 0 0 0 0

Total # of neighbors = 718
Ave neighs/atom = 8.7561
Neighbor list builds = 0
Dangerous builds = 0
        # write_dump all atom ${dumpfile}
        next i
jump SELF loop1
        displace_atoms upper move ${xstep1} 0.0 0.0 units lattice
        displace_atoms upper move 0.00333333333333333 0.0 0.0 units lattice
        min_style ${style}
        min_style cg
        minimize ${etol} ${ftol} ${maxiter} ${maxeval}
        minimize 1e-12 ${ftol} ${maxiter} ${maxeval}
        minimize 1e-12 1e-08 ${maxiter} ${maxeval}
        minimize 1e-12 1e-08 10000 ${maxeval}
        minimize 1e-12 1e-08 10000 20000
WARNING: Resetting reneighboring criteria during minimization (../min.cpp:168)
Memory usage per processor = 3.35153 Mbytes
Step Temp PotEng Lx Ly Lz 
     871            0   -241.99392    2.2449075    38.908147    1.1224537 
     872            0   -241.99393    2.2449075    38.908147    1.1224537 
     873            0   -241.99394    2.2449075    38.908147    1.1224537 
     874            0   -241.99394    2.2449075    38.908147    1.1224537 
     875            0   -241.99394    2.2449075    38.908147    1.1224537 
Loop time of 0.00186305 on 1 procs for 4 steps with 82 atoms

Minimization stats:
  Stopping criterion = linesearch alpha is zero
  Energy initial, next-to-last, final = 
         -241.99391972     -241.993940329     -241.993940329
  Force two-norm initial, final = 0.0692105 0.0459174
  Force max component initial, final = 0.0263272 0.00896609
  Final line search alpha, max atom move = 3.8147e-06 3.42029e-08
  Iterations, force evaluations = 4 47

Pair  time (%) = 0.00137258 (73.6737)
Neigh time (%) = 0 (0)
Comm  time (%) = 0.000218735 (11.7407)
Outpt time (%) = 3.08551e-05 (1.65616)
Other time (%) = 0.000240882 (12.9294)

Nlocal:    82 ave 82 max 82 min
Histogram: 1 0 0 0 0 0 0 0 0 0
Nghost:    195 ave 195 max 195 min
Histogram: 1 0 0 0 0 0 0 0 0 0
Neighs:    718 ave 718 max 718 min
Histogram: 1 0 0 0 0 0 0 0 0 0

Total # of neighbors = 718
Ave neighs/atom = 8.7561
Neighbor list builds = 0
Dangerous builds = 0
        # write_dump all atom ${dumpfile}
        next i
jump SELF loop1
        displace_atoms upper move ${xstep1} 0.0 0.0 units lattice
        displace_atoms upper move 0.00333333333333333 0.0 0.0 units lattice
        min_style ${style}
        min_style cg
        minimize ${etol} ${ftol} ${maxiter} ${maxeval}
        minimize 1e-12 ${ftol} ${maxiter} ${maxeval}
        minimize 1e-12 1e-08 ${maxiter} ${maxeval}
        minimize 1e-12 1e-08 10000 ${maxeval}
        minimize 1e-12 1e-08 10000 20000
WARNING: Resetting reneighboring criteria during minimization (../min.cpp:168)
Memory usage per processor = 3.35153 Mbytes
Step Temp PotEng Lx Ly Lz 
     875            0   -241.99476    2.2449075    38.908051    1.1224537 
     876            0   -241.99476    2.2449075    38.908051    1.1224537 
Loop time of 0.000484962 on 1 procs for 1 steps with 82 atoms

Minimization stats:
  Stopping criterion = linesearch alpha is zero
  Energy initial, next-to-last, final = 
        -241.994760346     -241.994760346     -241.994760346
  Force two-norm initial, final = 0.0489065 0.0489065
  Force max component initial, final = 0.0123184 0.0123184
  Final line search alpha, max atom move = 3.8147e-06 4.69908e-08
  Iterations, force evaluations = 1 19

Pair  time (%) = 0.000414478 (85.466)
Neigh time (%) = 0 (0)
Comm  time (%) = 2.39423e-05 (4.93695)
Outpt time (%) = 0 (0)
Other time (%) = 4.6542e-05 (9.59704)

Nlocal:    82 ave 82 max 82 min
Histogram: 1 0 0 0 0 0 0 0 0 0
Nghost:    185 ave 185 max 185 min
Histogram: 1 0 0 0 0 0 0 0 0 0
Neighs:    718 ave 718 max 718 min
Histogram: 1 0 0 0 0 0 0 0 0 0

Total # of neighbors = 718
Ave neighs/atom = 8.7561
Neighbor list builds = 0
Dangerous builds = 0
        # write_dump all atom ${dumpfile}
        next i
jump SELF loop1
        displace_atoms upper move ${xstep1} 0.0 0.0 units lattice
        displace_atoms upper move 0.00333333333333333 0.0 0.0 units lattice
        min_style ${style}
        min_style cg
        minimize ${etol} ${ftol} ${maxiter} ${maxeval}
        minimize 1e-12 ${ftol} ${maxiter} ${maxeval}
        minimize 1e-12 1e-08 ${maxiter} ${maxeval}
        minimize 1e-12 1e-08 10000 ${maxeval}
        minimize 1e-12 1e-08 10000 20000
WARNING: Resetting reneighboring criteria during minimization (../min.cpp:168)
Memory usage per processor = 3.35153 Mbytes
Step Temp PotEng Lx Ly Lz 
     876            0   -241.99528    2.2449075    38.908051    1.1224537 
     877            0   -241.99528    2.2449075    38.908051    1.1224537 
Loop time of 0.000484099 on 1 procs for 1 steps with 82 atoms

Minimization stats:
  Stopping criterion = linesearch alpha is zero
  Energy initial, next-to-last, final = 
        -241.995283789     -241.995283789     -241.995283789
  Force two-norm initial, final = 0.0512392 0.0512392
  Force max component initial, final = 0.0145075 0.0145075
  Final line search alpha, max atom move = 3.8147e-06 5.53418e-08
  Iterations, force evaluations = 1 19

Pair  time (%) = 0.000412945 (85.3017)
Neigh time (%) = 0 (0)
Comm  time (%) = 2.47381e-05 (5.11014)
Outpt time (%) = 0 (0)
Other time (%) = 4.64162e-05 (9.58815)

Nlocal:    82 ave 82 max 82 min
Histogram: 1 0 0 0 0 0 0 0 0 0
Nghost:    185 ave 185 max 185 min
Histogram: 1 0 0 0 0 0 0 0 0 0
Neighs:    718 ave 718 max 718 min
Histogram: 1 0 0 0 0 0 0 0 0 0

Total # of neighbors = 718
Ave neighs/atom = 8.7561
Neighbor list builds = 0
Dangerous builds = 0
        # write_dump all atom ${dumpfile}
        next i
jump SELF loop1
        displace_atoms upper move ${xstep1} 0.0 0.0 units lattice
        displace_atoms upper move 0.00333333333333333 0.0 0.0 units lattice
        min_style ${style}
        min_style cg
        minimize ${etol} ${ftol} ${maxiter} ${maxeval}
        minimize 1e-12 ${ftol} ${maxiter} ${maxeval}
        minimize 1e-12 1e-08 ${maxiter} ${maxeval}
        minimize 1e-12 1e-08 10000 ${maxeval}
        minimize 1e-12 1e-08 10000 20000
WARNING: Resetting reneighboring criteria during minimization (../min.cpp:168)
Memory usage per processor = 3.35153 Mbytes
Step Temp PotEng Lx Ly Lz 
     877            0   -241.99545    2.2449075    38.908051    1.1224537 
     878            0   -241.99547    2.2449075    38.908051    1.1224537 
     879            0    -241.9955    2.2449075    38.908051    1.1224537 
     880            0   -241.99553    2.2449075    38.908051    1.1224537 
     881            0   -241.99556    2.2449075    38.908051    1.1224537 
     882            0   -241.99561    2.2449075    38.908051    1.1224537 
     883            0   -241.99561    2.2449075    38.908051    1.1224537 
Loop time of 0.00133297 on 1 procs for 6 steps with 82 atoms

Minimization stats:
  Stopping criterion = linesearch alpha is zero
  Energy initial, next-to-last, final = 
        -241.995445678     -241.995613245     -241.995613245
  Force two-norm initial, final = 0.0519911 0.0393779
  Force max component initial, final = 0.0151647 0.00525062
  Final line search alpha, max atom move = 3.8147e-06 2.00295e-08
  Iterations, force evaluations = 6 53

Pair  time (%) = 0.00112035 (84.0497)
Neigh time (%) = 0 (0)
Comm  time (%) = 7.11705e-05 (5.33926)
Outpt time (%) = 2.98534e-05 (2.23962)
Other time (%) = 0.000111588 (8.37139)

Nlocal:    82 ave 82 max 82 min
Histogram: 1 0 0 0 0 0 0 0 0 0
Nghost:    185 ave 185 max 185 min
Histogram: 1 0 0 0 0 0 0 0 0 0
Neighs:    718 ave 718 max 718 min
Histogram: 1 0 0 0 0 0 0 0 0 0

Total # of neighbors = 718
Ave neighs/atom = 8.7561
Neighbor list builds = 0
Dangerous builds = 0
        # write_dump all atom ${dumpfile}
        next i
jump SELF loop1


