LAMMPS (28 Jun 2014)
# attempt at getting generalized stacking fault (GSF) energy curve

#file prefix
variable prefix string gsf_morse
variable dumpfile string ${prefix}.*.dump
variable dumpfile string gsf_morse.*.dump
variable restartfile string ${prefix}.*.equil
variable restartfile string gsf_morse.*.equil

#Mass (g/mol)
variable m equal 1

# lattice constant (in Angstroms) and orientation of axes (given by lattice vectors)
variable rho equal 0.9165
variable x1 equal 1
variable x2 equal 0
variable x3 equal 0
variable y1 equal 0
variable y2 equal 1
variable y3 equal 0
# length of lattice in different directions (using orientation of lattice vectors)
variable ax equal sqrt(${x1}*${x1}+${x2}*${x2}+${x3}*${x3})
variable ax equal sqrt(1*${x1}+${x2}*${x2}+${x3}*${x3})
variable ax equal sqrt(1*1+${x2}*${x2}+${x3}*${x3})
variable ax equal sqrt(1*1+0*${x2}+${x3}*${x3})
variable ax equal sqrt(1*1+0*0+${x3}*${x3})
variable ax equal sqrt(1*1+0*0+0*${x3})
variable ax equal sqrt(1*1+0*0+0*0)
variable ay equal sqrt(${y1}*${y1}+${y2}*${y2}+${y3}*${y3})
variable ay equal sqrt(0*${y1}+${y2}*${y2}+${y3}*${y3})
variable ay equal sqrt(0*0+${y2}*${y2}+${y3}*${y3})
variable ay equal sqrt(0*0+1*${y2}+${y3}*${y3})
variable ay equal sqrt(0*0+1*1+${y3}*${y3})
variable ay equal sqrt(0*0+1*1+0*${y3})
variable ay equal sqrt(0*0+1*1+0*0)
variable az equal 1

# size of box in lattice units
variable lxpos equal 1
variable lxneg equal -1*${lxpos}
variable lxneg equal -1*1
variable lypos equal 10
variable lyneg equal -1*${lypos}
variable lyneg equal -1*10
variable lzpos equal 0
variable lzneg equal -1

# Define minimization parameters and damping
variable etol equal 1.0e-12
variable ftol equal 1.0e-8
variable maxiter equal 10000
variable maxeval equal 20000
variable style string cg

# boundary conditions
dimension	2
boundary	p s p
atom_style	atomic

# create geometry
units		lj
lattice         hex ${rho}
lattice         hex 0.9165
Lattice spacing in x,y,z = 1.12245 1.94415 1.12245
region		myregion block ${lxneg} ${lxpos} ${lyneg} ${lypos} ${lzneg} ${lzpos} units lattice
region		myregion block -1 ${lxpos} ${lyneg} ${lypos} ${lzneg} ${lzpos} units lattice
region		myregion block -1 1 ${lyneg} ${lypos} ${lzneg} ${lzpos} units lattice
region		myregion block -1 1 -10 ${lypos} ${lzneg} ${lzpos} units lattice
region		myregion block -1 1 -10 10 ${lzneg} ${lzpos} units lattice
region		myregion block -1 1 -10 10 -1 ${lzpos} units lattice
region		myregion block -1 1 -10 10 -1 0 units lattice
create_box	3 myregion
Created orthogonal box = (-1.12245 -19.4415 -1.12245) to (1.12245 19.4415 0)
  1 by 1 by 1 MPI processor grid
create_atoms	1 box
Created 82 atoms

# define masses
mass * $m
mass * 1

# my fake/morse potential
pair_style      table linear 1000
pair_coeff      * * da_potential_ductile dummy
neighbor	0.3 bin
neigh_modify	delay 5

# define groups
region	    upper block INF INF 0.01 ${lypos} INF INF units lattice
region	    upper block INF INF 0.01 10 INF INF units lattice
group		upper region upper
40 atoms in group upper

# Setup output
thermo 1
thermo_style custom step temp pe lx ly lz
thermo_modify norm no

# Compute initial state by relaxing box
min_style ${style}
min_style cg
minimize ${etol} ${ftol} ${maxiter} ${maxeval}
minimize 1e-12 ${ftol} ${maxiter} ${maxeval}
minimize 1e-12 1e-08 ${maxiter} ${maxeval}
minimize 1e-12 1e-08 10000 ${maxeval}
minimize 1e-12 1e-08 10000 20000
WARNING: Resetting reneighboring criteria during minimization (../min.cpp:168)
Memory usage per processor = 3.35153 Mbytes
Step Temp PotEng Lx Ly Lz 
       0            0   -241.99543    2.2449075    38.890715    1.1224537 
       1            0   -241.99543    2.2449075    38.890715    1.1224537 
Loop time of 0.000599919 on 1 procs for 1 steps with 82 atoms

Minimization stats:
  Stopping criterion = linesearch alpha is zero
  Energy initial, next-to-last, final = 
        -241.995429162     -241.995429162     -241.995429162
  Force two-norm initial, final = 0.0701576 0.0701576
  Force max component initial, final = 0.0350788 0.0350788
  Final line search alpha, max atom move = 1.90735e-06 6.69075e-08
  Iterations, force evaluations = 1 20

Pair  time (%) = 0.000488949 (81.5026)
Neigh time (%) = 0 (0)
Comm  time (%) = 2.92202e-05 (4.8707)
Outpt time (%) = 0 (0)
Other time (%) = 8.17493e-05 (13.6267)

Nlocal:    82 ave 82 max 82 min
Histogram: 1 0 0 0 0 0 0 0 0 0
Nghost:    185 ave 185 max 185 min
Histogram: 1 0 0 0 0 0 0 0 0 0
Neighs:    718 ave 718 max 718 min
Histogram: 1 0 0 0 0 0 0 0 0 0

Total # of neighbors = 718
Ave neighs/atom = 8.7561
Neighbor list builds = 0
Dangerous builds = 0

# don't allow atoms to relax in x-direction
fix 2 all setforce 0.0 NULL 0.0

# GSF energy curve will have 100*2 steps
variable nsteps equal 300
variable sstep1 equal 1.
variable xstep1 equal ${sstep1}/(${ax}*${nsteps})
variable xstep1 equal 1/(${ax}*${nsteps})
variable xstep1 equal 1/(1*${nsteps})
variable xstep1 equal 1/(1*300)

variable i loop ${nsteps}
variable i loop 300
label loop1
        displace_atoms upper move ${xstep1} 0.0 0.0 units lattice
        displace_atoms upper move 0.00333333333333333 0.0 0.0 units lattice
        min_style ${style}
        min_style cg
        minimize ${etol} ${ftol} ${maxiter} ${maxeval}
        minimize 1e-12 ${ftol} ${maxiter} ${maxeval}
        minimize 1e-12 1e-08 ${maxiter} ${maxeval}
        minimize 1e-12 1e-08 10000 ${maxeval}
        minimize 1e-12 1e-08 10000 20000
WARNING: Resetting reneighboring criteria during minimization (../min.cpp:168)
Memory usage per processor = 3.35153 Mbytes
Step Temp PotEng Lx Ly Lz 
       1            0   -241.99528    2.2449075    38.890715    1.1224537 
       2            0   -241.99528    2.2449075    38.890715    1.1224537 
Loop time of 0.000847057 on 1 procs for 1 steps with 82 atoms

Minimization stats:
  Stopping criterion = linesearch alpha is zero
  Energy initial, next-to-last, final = 
        -241.995277295     -241.995277295     -241.995277295
  Force two-norm initial, final = 0.0701678 0.0701678
  Force max component initial, final = 0.0350788 0.0350788
  Final line search alpha, max atom move = 1.90735e-06 6.69075e-08
  Iterations, force evaluations = 1 20

Pair  time (%) = 0.000742023 (87.6001)
Neigh time (%) = 0 (0)
Comm  time (%) = 9.54443e-06 (1.12678)
Outpt time (%) = 0 (0)
Other time (%) = 9.54897e-05 (11.2731)

Nlocal:    82 ave 82 max 82 min
Histogram: 1 0 0 0 0 0 0 0 0 0
Nghost:    185 ave 185 max 185 min
Histogram: 1 0 0 0 0 0 0 0 0 0
Neighs:    718 ave 718 max 718 min
Histogram: 1 0 0 0 0 0 0 0 0 0

Total # of neighbors = 718
Ave neighs/atom = 8.7561
Neighbor list builds = 0
Dangerous builds = 0
        # write_dump all atom ${dumpfile}
        next i
jump SELF loop1
        displace_atoms upper move ${xstep1} 0.0 0.0 units lattice
        displace_atoms upper move 0.00333333333333333 0.0 0.0 units lattice
        min_style ${style}
        min_style cg
        minimize ${etol} ${ftol} ${maxiter} ${maxeval}
        minimize 1e-12 ${ftol} ${maxiter} ${maxeval}
        minimize 1e-12 1e-08 ${maxiter} ${maxeval}
        minimize 1e-12 1e-08 10000 ${maxeval}
        minimize 1e-12 1e-08 10000 20000
WARNING: Resetting reneighboring criteria during minimization (../min.cpp:168)
Memory usage per processor = 3.35153 Mbytes
Step Temp PotEng Lx Ly Lz 
       2            0    -241.9948    2.2449075    38.890715    1.1224537 
       3            0    -241.9948    2.2449075    38.890715    1.1224537 
Loop time of 0.000600938 on 1 procs for 1 steps with 82 atoms

Minimization stats:
  Stopping criterion = linesearch alpha is zero
  Energy initial, next-to-last, final = 
        -241.994799958     -241.994799958     -241.994799958
  Force two-norm initial, final = 0.0703375 0.0703375
  Force max component initial, final = 0.0350788 0.0350788
  Final line search alpha, max atom move = 1.90735e-06 6.69075e-08
  Iterations, force evaluations = 1 20

Pair  time (%) = 0.000491688 (81.8201)
Neigh time (%) = 0 (0)
Comm  time (%) = 2.72145e-05 (4.52867)
Outpt time (%) = 0 (0)
Other time (%) = 8.20355e-05 (13.6513)

Nlocal:    82 ave 82 max 82 min
Histogram: 1 0 0 0 0 0 0 0 0 0
Nghost:    185 ave 185 max 185 min
Histogram: 1 0 0 0 0 0 0 0 0 0
Neighs:    718 ave 718 max 718 min
Histogram: 1 0 0 0 0 0 0 0 0 0

Total # of neighbors = 718
Ave neighs/atom = 8.7561
Neighbor list builds = 0
Dangerous builds = 0
        # write_dump all atom ${dumpfile}
        next i
jump SELF loop1
        displace_atoms upper move ${xstep1} 0.0 0.0 units lattice
        displace_atoms upper move 0.00333333333333333 0.0 0.0 units lattice
        min_style ${style}
        min_style cg
        minimize ${etol} ${ftol} ${maxiter} ${maxeval}
        minimize 1e-12 ${ftol} ${maxiter} ${maxeval}
        minimize 1e-12 1e-08 ${maxiter} ${maxeval}
        minimize 1e-12 1e-08 10000 ${maxeval}
        minimize 1e-12 1e-08 10000 20000
WARNING: Resetting reneighboring criteria during minimization (../min.cpp:168)
Memory usage per processor = 3.35153 Mbytes
Step Temp PotEng Lx Ly Lz 
       3            0    -241.9939    2.2449075    38.890715    1.1224537 
       4            0    -241.9939    2.2449075    38.890715    1.1224537 
Loop time of 0.000440992 on 1 procs for 1 steps with 82 atoms

Minimization stats:
  Stopping criterion = linesearch alpha is zero
  Energy initial, next-to-last, final = 
        -241.993904725     -241.993904725     -241.993904725
  Force two-norm initial, final = 0.07127 0.07127
  Force max component initial, final = 0.0350788 0.0350788
  Final line search alpha, max atom move = 1.90735e-06 6.69075e-08
  Iterations, force evaluations = 1 20

Pair  time (%) = 0.000375006 (85.0368)
Neigh time (%) = 0 (0)
Comm  time (%) = 3.11915e-05 (7.07303)
Outpt time (%) = 0 (0)
Other time (%) = 3.47948e-05 (7.89012)

Nlocal:    82 ave 82 max 82 min
Histogram: 1 0 0 0 0 0 0 0 0 0
Nghost:    195 ave 195 max 195 min
Histogram: 1 0 0 0 0 0 0 0 0 0
Neighs:    718 ave 718 max 718 min
Histogram: 1 0 0 0 0 0 0 0 0 0

Total # of neighbors = 718
Ave neighs/atom = 8.7561
Neighbor list builds = 0
Dangerous builds = 0
        # write_dump all atom ${dumpfile}
        next i
jump SELF loop1
        displace_atoms upper move ${xstep1} 0.0 0.0 units lattice
        displace_atoms upper move 0.00333333333333333 0.0 0.0 units lattice
        min_style ${style}
        min_style cg
        minimize ${etol} ${ftol} ${maxiter} ${maxeval}
        minimize 1e-12 ${ftol} ${maxiter} ${maxeval}
        minimize 1e-12 1e-08 ${maxiter} ${maxeval}
        minimize 1e-12 1e-08 10000 ${maxeval}
        minimize 1e-12 1e-08 10000 20000
WARNING: Resetting reneighboring criteria during minimization (../min.cpp:168)
Memory usage per processor = 3.35153 Mbytes
Step Temp PotEng Lx Ly Lz 
       4            0   -241.99269    2.2449075    38.890715    1.1224537 
       5            0   -241.99269    2.2449075    38.890715    1.1224537 
Loop time of 0.000558083 on 1 procs for 1 steps with 82 atoms

Minimization stats:
  Stopping criterion = linesearch alpha is zero
  Energy initial, next-to-last, final = 
        -241.992687958     -241.992687958     -241.992687958
  Force two-norm initial, final = 0.0737243 0.0737243
  Force max component initial, final = 0.0350788 0.0350788
  Final line search alpha, max atom move = 1.90735e-06 6.69075e-08
  Iterations, force evaluations = 1 20

Pair  time (%) = 0.00048118 (86.2203)
Neigh time (%) = 0 (0)
Comm  time (%) = 1.64052e-05 (2.93957)
Outpt time (%) = 0 (0)
Other time (%) = 6.04971e-05 (10.8402)

Nlocal:    82 ave 82 max 82 min
Histogram: 1 0 0 0 0 0 0 0 0 0
Nghost:    195 ave 195 max 195 min
Histogram: 1 0 0 0 0 0 0 0 0 0
Neighs:    718 ave 718 max 718 min
Histogram: 1 0 0 0 0 0 0 0 0 0

Total # of neighbors = 718
Ave neighs/atom = 8.7561
Neighbor list builds = 0
Dangerous builds = 0
        # write_dump all atom ${dumpfile}
        next i
jump SELF loop1
        displace_atoms upper move ${xstep1} 0.0 0.0 units lattice
        displace_atoms upper move 0.00333333333333333 0.0 0.0 units lattice
        min_style ${style}
        min_style cg
        minimize ${etol} ${ftol} ${maxiter} ${maxeval}
        minimize 1e-12 ${ftol} ${maxiter} ${maxeval}
        minimize 1e-12 1e-08 ${maxiter} ${maxeval}
        minimize 1e-12 1e-08 10000 ${maxeval}
        minimize 1e-12 1e-08 10000 20000
WARNING: Resetting reneighboring criteria during minimization (../min.cpp:168)
Memory usage per processor = 3.35153 Mbytes
Step Temp PotEng Lx Ly Lz 
       5            0   -241.99117    2.2449075    38.890715    1.1224537 
       6            0   -241.99117    2.2449075    38.890715    1.1224537 
Loop time of 0.000558925 on 1 procs for 1 steps with 82 atoms

Minimization stats:
  Stopping criterion = linesearch alpha is zero
  Energy initial, next-to-last, final = 
         -241.99116983      -241.99116983      -241.99116983
  Force two-norm initial, final = 0.0784626 0.0784626
  Force max component initial, final = 0.0350788 0.0350788
  Final line search alpha, max atom move = 1.90735e-06 6.69075e-08
  Iterations, force evaluations = 1 20

Pair  time (%) = 0.000480705 (86.0054)
Neigh time (%) = 0 (0)
Comm  time (%) = 2.50778e-05 (4.4868)
Outpt time (%) = 0 (0)
Other time (%) = 5.31417e-05 (9.50785)

Nlocal:    82 ave 82 max 82 min
Histogram: 1 0 0 0 0 0 0 0 0 0
Nghost:    195 ave 195 max 195 min
Histogram: 1 0 0 0 0 0 0 0 0 0
Neighs:    718 ave 718 max 718 min
Histogram: 1 0 0 0 0 0 0 0 0 0

Total # of neighbors = 718
Ave neighs/atom = 8.7561
Neighbor list builds = 0
Dangerous builds = 0
        # write_dump all atom ${dumpfile}
        next i
jump SELF loop1
        displace_atoms upper move ${xstep1} 0.0 0.0 units lattice
        displace_atoms upper move 0.00333333333333333 0.0 0.0 units lattice
        min_style ${style}
        min_style cg
        minimize ${etol} ${ftol} ${maxiter} ${maxeval}
        minimize 1e-12 ${ftol} ${maxiter} ${maxeval}
        minimize 1e-12 1e-08 ${maxiter} ${maxeval}
        minimize 1e-12 1e-08 10000 ${maxeval}
        minimize 1e-12 1e-08 10000 20000
WARNING: Resetting reneighboring criteria during minimization (../min.cpp:168)
Memory usage per processor = 3.35153 Mbytes
Step Temp PotEng Lx Ly Lz 
       6            0    -241.9893    2.2449075    38.890715    1.1224537 
       7            0    -241.9893    2.2449075    38.890715    1.1224537 
Loop time of 0.000620957 on 1 procs for 1 steps with 82 atoms

Minimization stats:
  Stopping criterion = linesearch alpha is zero
  Energy initial, next-to-last, final = 
        -241.989300473     -241.989300473     -241.989300473
  Force two-norm initial, final = 0.0860967 0.0860967
  Force max component initial, final = 0.0350788 0.0350788
  Final line search alpha, max atom move = 9.53674e-07 3.34537e-08
  Iterations, force evaluations = 1 21

Pair  time (%) = 0.000505744 (81.446)
Neigh time (%) = 0 (0)
Comm  time (%) = 3.69297e-05 (5.94723)
Outpt time (%) = 0 (0)
Other time (%) = 7.82824e-05 (12.6067)

Nlocal:    82 ave 82 max 82 min
Histogram: 1 0 0 0 0 0 0 0 0 0
Nghost:    195 ave 195 max 195 min
Histogram: 1 0 0 0 0 0 0 0 0 0
Neighs:    718 ave 718 max 718 min
Histogram: 1 0 0 0 0 0 0 0 0 0

Total # of neighbors = 718
Ave neighs/atom = 8.7561
Neighbor list builds = 0
Dangerous builds = 0
        # write_dump all atom ${dumpfile}
        next i
jump SELF loop1
        displace_atoms upper move ${xstep1} 0.0 0.0 units lattice
        displace_atoms upper move 0.00333333333333333 0.0 0.0 units lattice
        min_style ${style}
        min_style cg
        minimize ${etol} ${ftol} ${maxiter} ${maxeval}
        minimize 1e-12 ${ftol} ${maxiter} ${maxeval}
        minimize 1e-12 1e-08 ${maxiter} ${maxeval}
        minimize 1e-12 1e-08 10000 ${maxeval}
        minimize 1e-12 1e-08 10000 20000
WARNING: Resetting reneighboring criteria during minimization (../min.cpp:168)
Memory usage per processor = 3.35153 Mbytes
Step Temp PotEng Lx Ly Lz 
       7            0   -241.98713    2.2449075    38.890715    1.1224537 
       8            0   -241.98713    2.2449075    38.890715    1.1224537 
Loop time of 0.00065807 on 1 procs for 1 steps with 82 atoms

Minimization stats:
  Stopping criterion = linesearch alpha is zero
  Energy initial, next-to-last, final = 
         -241.98713348      -241.98713348      -241.98713348
  Force two-norm initial, final = 0.0876986 0.0876986
  Force max component initial, final = 0.0350788 0.0350788
  Final line search alpha, max atom move = 9.53674e-07 3.34537e-08
  Iterations, force evaluations = 1 21

Pair  time (%) = 0.000534001 (81.1465)
Neigh time (%) = 0 (0)
Comm  time (%) = 3.25018e-05 (4.93895)
Outpt time (%) = 0 (0)
Other time (%) = 9.15673e-05 (13.9145)

Nlocal:    82 ave 82 max 82 min
Histogram: 1 0 0 0 0 0 0 0 0 0
Nghost:    195 ave 195 max 195 min
Histogram: 1 0 0 0 0 0 0 0 0 0
Neighs:    718 ave 718 max 718 min
Histogram: 1 0 0 0 0 0 0 0 0 0

Total # of neighbors = 718
Ave neighs/atom = 8.7561
Neighbor list builds = 0
Dangerous builds = 0
        # write_dump all atom ${dumpfile}
        next i
jump SELF loop1
        displace_atoms upper move ${xstep1} 0.0 0.0 units lattice
        displace_atoms upper move 0.00333333333333333 0.0 0.0 units lattice
        min_style ${style}
        min_style cg
        minimize ${etol} ${ftol} ${maxiter} ${maxeval}
        minimize 1e-12 ${ftol} ${maxiter} ${maxeval}
        minimize 1e-12 1e-08 ${maxiter} ${maxeval}
        minimize 1e-12 1e-08 10000 ${maxeval}
        minimize 1e-12 1e-08 10000 20000
WARNING: Resetting reneighboring criteria during minimization (../min.cpp:168)
Memory usage per processor = 3.35153 Mbytes
Step Temp PotEng Lx Ly Lz 
       8            0   -241.98477    2.2449075    38.890715    1.1224537 
       9            0   -241.98482    2.2449075    38.890715    1.1224537 
      10            0   -241.98482    2.2449075    38.890715    1.1224537 
Loop time of 0.000739941 on 1 procs for 2 steps with 82 atoms

Minimization stats:
  Stopping criterion = linesearch alpha is zero
  Energy initial, next-to-last, final = 
        -241.984770674     -241.984823656     -241.984823656
  Force two-norm initial, final = 0.0871839 0.0678585
  Force max component initial, final = 0.0350788 0.0199916
  Final line search alpha, max atom move = 1.90735e-06 3.81309e-08
  Iterations, force evaluations = 2 27

Pair  time (%) = 0.000581336 (78.5652)
Neigh time (%) = 0 (0)
Comm  time (%) = 3.68719e-05 (4.98309)
Outpt time (%) = 3.30341e-05 (4.46443)
Other time (%) = 8.86988e-05 (11.9873)

Nlocal:    82 ave 82 max 82 min
Histogram: 1 0 0 0 0 0 0 0 0 0
Nghost:    195 ave 195 max 195 min
Histogram: 1 0 0 0 0 0 0 0 0 0
Neighs:    718 ave 718 max 718 min
Histogram: 1 0 0 0 0 0 0 0 0 0

Total # of neighbors = 718
Ave neighs/atom = 8.7561
Neighbor list builds = 0
Dangerous builds = 0
        # write_dump all atom ${dumpfile}
        next i
jump SELF loop1
        displace_atoms upper move ${xstep1} 0.0 0.0 units lattice
        displace_atoms upper move 0.00333333333333333 0.0 0.0 units lattice
        min_style ${style}
        min_style cg
        minimize ${etol} ${ftol} ${maxiter} ${maxeval}
        minimize 1e-12 ${ftol} ${maxiter} ${maxeval}
        minimize 1e-12 1e-08 ${maxiter} ${maxeval}
        minimize 1e-12 1e-08 10000 ${maxeval}
        minimize 1e-12 1e-08 10000 20000
WARNING: Resetting reneighboring criteria during minimization (../min.cpp:168)
Memory usage per processor = 3.35153 Mbytes
Step Temp PotEng Lx Ly Lz 
      10            0   -241.98222    2.2449075    38.889618    1.1224537 
      11            0   -241.98222    2.2449075    38.889618    1.1224537 
Loop time of 0.00105009 on 1 procs for 1 steps with 82 atoms

Minimization stats:
  Stopping criterion = linesearch alpha is zero
  Energy initial, next-to-last, final = 
        -241.982215113     -241.982215113     -241.982215113
  Force two-norm initial, final = 0.066662 0.066662
  Force max component initial, final = 0.0199916 0.0199916
  Final line search alpha, max atom move = 1.90735e-06 3.81309e-08
  Iterations, force evaluations = 1 20

Pair  time (%) = 0.000978081 (93.1427)
Neigh time (%) = 0 (0)
Comm  time (%) = 2.8912e-05 (2.75329)
Outpt time (%) = 0 (0)
Other time (%) = 4.3096e-05 (4.10403)

Nlocal:    82 ave 82 max 82 min
Histogram: 1 0 0 0 0 0 0 0 0 0
Nghost:    195 ave 195 max 195 min
Histogram: 1 0 0 0 0 0 0 0 0 0
Neighs:    718 ave 718 max 718 min
Histogram: 1 0 0 0 0 0 0 0 0 0

Total # of neighbors = 718
Ave neighs/atom = 8.7561
Neighbor list builds = 0
Dangerous builds = 0
        # write_dump all atom ${dumpfile}
        next i
jump SELF loop1
        displace_atoms upper move ${xstep1} 0.0 0.0 units lattice
        displace_atoms upper move 0.00333333333333333 0.0 0.0 units lattice
        min_style ${style}
        min_style cg
        minimize ${etol} ${ftol} ${maxiter} ${maxeval}
        minimize 1e-12 ${ftol} ${maxiter} ${maxeval}
        minimize 1e-12 1e-08 ${maxiter} ${maxeval}
        minimize 1e-12 1e-08 10000 ${maxeval}
        minimize 1e-12 1e-08 10000 20000
WARNING: Resetting reneighboring criteria during minimization (../min.cpp:168)
Memory usage per processor = 3.35153 Mbytes
Step Temp PotEng Lx Ly Lz 
      11            0   -241.97945    2.2449075    38.889618    1.1224537 
      12            0   -241.97945    2.2449075    38.889618    1.1224537 
Loop time of 0.000538035 on 1 procs for 1 steps with 82 atoms

Minimization stats:
  Stopping criterion = linesearch alpha is zero
  Energy initial, next-to-last, final = 
        -241.979450455     -241.979450455     -241.979450455
  Force two-norm initial, final = 0.0644643 0.0644643
  Force max component initial, final = 0.0199916 0.0199916
  Final line search alpha, max atom move = 1.90735e-06 3.81309e-08
  Iterations, force evaluations = 1 20

Pair  time (%) = 0.000450259 (83.6858)
Neigh time (%) = 0 (0)
Comm  time (%) = 3.10343e-05 (5.76809)
Outpt time (%) = 0 (0)
Other time (%) = 5.67416e-05 (10.5461)

Nlocal:    82 ave 82 max 82 min
Histogram: 1 0 0 0 0 0 0 0 0 0
Nghost:    195 ave 195 max 195 min
Histogram: 1 0 0 0 0 0 0 0 0 0
Neighs:    718 ave 718 max 718 min
Histogram: 1 0 0 0 0 0 0 0 0 0

Total # of neighbors = 718
Ave neighs/atom = 8.7561
Neighbor list builds = 0
Dangerous builds = 0
        # write_dump all atom ${dumpfile}
        next i
jump SELF loop1
        displace_atoms upper move ${xstep1} 0.0 0.0 units lattice
        displace_atoms upper move 0.00333333333333333 0.0 0.0 units lattice
        min_style ${style}
        min_style cg
        minimize ${etol} ${ftol} ${maxiter} ${maxeval}
        minimize 1e-12 ${ftol} ${maxiter} ${maxeval}
        minimize 1e-12 1e-08 ${maxiter} ${maxeval}
        minimize 1e-12 1e-08 10000 ${maxeval}
        minimize 1e-12 1e-08 10000 20000
WARNING: Resetting reneighboring criteria during minimization (../min.cpp:168)
Memory usage per processor = 3.35153 Mbytes
Step Temp PotEng Lx Ly Lz 
      12            0   -241.97654    2.2449075    38.889618    1.1224537 
      13            0   -241.97654    2.2449075    38.889618    1.1224537 
Loop time of 0.000545005 on 1 procs for 1 steps with 82 atoms

Minimization stats:
  Stopping criterion = linesearch alpha is zero
  Energy initial, next-to-last, final = 
        -241.976537817     -241.976537817     -241.976537817
  Force two-norm initial, final = 0.0617275 0.0617275
  Force max component initial, final = 0.0199916 0.0199916
  Final line search alpha, max atom move = 1.90735e-06 3.81309e-08
  Iterations, force evaluations = 1 20

Pair  time (%) = 0.000471753 (86.5594)
Neigh time (%) = 0 (0)
Comm  time (%) = 2.71334e-05 (4.97855)
Outpt time (%) = 0 (0)
Other time (%) = 4.61187e-05 (8.46207)

Nlocal:    82 ave 82 max 82 min
Histogram: 1 0 0 0 0 0 0 0 0 0
Nghost:    195 ave 195 max 195 min
Histogram: 1 0 0 0 0 0 0 0 0 0
Neighs:    718 ave 718 max 718 min
Histogram: 1 0 0 0 0 0 0 0 0 0

Total # of neighbors = 718
Ave neighs/atom = 8.7561
Neighbor list builds = 0
Dangerous builds = 0
        # write_dump all atom ${dumpfile}
        next i
jump SELF loop1
        displace_atoms upper move ${xstep1} 0.0 0.0 units lattice
        displace_atoms upper move 0.00333333333333333 0.0 0.0 units lattice
        min_style ${style}
        min_style cg
        minimize ${etol} ${ftol} ${maxiter} ${maxeval}
        minimize 1e-12 ${ftol} ${maxiter} ${maxeval}
        minimize 1e-12 1e-08 ${maxiter} ${maxeval}
        minimize 1e-12 1e-08 10000 ${maxeval}
        minimize 1e-12 1e-08 10000 20000
WARNING: Resetting reneighboring criteria during minimization (../min.cpp:168)
Memory usage per processor = 3.35153 Mbytes
Step Temp PotEng Lx Ly Lz 
      13            0   -241.97339    2.2449075    38.889618    1.1224537 
      14            0   -241.97339    2.2449075    38.889618    1.1224537 
Loop time of 0.000610051 on 1 procs for 1 steps with 82 atoms

Minimization stats:
  Stopping criterion = linesearch alpha is zero
  Energy initial, next-to-last, final = 
        -241.973391427     -241.973391427     -241.973391427
  Force two-norm initial, final = 0.0590618 0.0590618
  Force max component initial, final = 0.0199916 0.0199916
  Final line search alpha, max atom move = 1.90735e-06 3.81309e-08
  Iterations, force evaluations = 1 20

Pair  time (%) = 0.000491 (80.4851)
Neigh time (%) = 0 (0)
Comm  time (%) = 5.76137e-05 (9.44408)
Outpt time (%) = 0 (0)
Other time (%) = 6.14373e-05 (10.0708)

Nlocal:    82 ave 82 max 82 min
Histogram: 1 0 0 0 0 0 0 0 0 0
Nghost:    195 ave 195 max 195 min
Histogram: 1 0 0 0 0 0 0 0 0 0
Neighs:    718 ave 718 max 718 min
Histogram: 1 0 0 0 0 0 0 0 0 0

Total # of neighbors = 718
Ave neighs/atom = 8.7561
Neighbor list builds = 0
Dangerous builds = 0
        # write_dump all atom ${dumpfile}
        next i
jump SELF loop1
        displace_atoms upper move ${xstep1} 0.0 0.0 units lattice
        displace_atoms upper move 0.00333333333333333 0.0 0.0 units lattice
        min_style ${style}
        min_style cg
        minimize ${etol} ${ftol} ${maxiter} ${maxeval}
        minimize 1e-12 ${ftol} ${maxiter} ${maxeval}
        minimize 1e-12 1e-08 ${maxiter} ${maxeval}
        minimize 1e-12 1e-08 10000 ${maxeval}
        minimize 1e-12 1e-08 10000 20000
WARNING: Resetting reneighboring criteria during minimization (../min.cpp:168)
Memory usage per processor = 3.35153 Mbytes
Step Temp PotEng Lx Ly Lz 
      14            0   -241.97005    2.2449075    38.889618    1.1224537 
      15            0   -241.97005    2.2449075    38.889618    1.1224537 
Loop time of 0.000626041 on 1 procs for 1 steps with 82 atoms

Minimization stats:
  Stopping criterion = linesearch alpha is zero
  Energy initial, next-to-last, final = 
        -241.970049276     -241.970049276     -241.970049276
  Force two-norm initial, final = 0.0581968 0.0581968
  Force max component initial, final = 0.0199916 0.0199916
  Final line search alpha, max atom move = 1.90735e-06 3.81309e-08
  Iterations, force evaluations = 1 20

Pair  time (%) = 0.000497136 (79.4094)
Neigh time (%) = 0 (0)
Comm  time (%) = 7.06728e-05 (11.2888)
Outpt time (%) = 0 (0)
Other time (%) = 5.82327e-05 (9.30173)

Nlocal:    82 ave 82 max 82 min
Histogram: 1 0 0 0 0 0 0 0 0 0
Nghost:    195 ave 195 max 195 min
Histogram: 1 0 0 0 0 0 0 0 0 0
Neighs:    718 ave 718 max 718 min
Histogram: 1 0 0 0 0 0 0 0 0 0

Total # of neighbors = 718
Ave neighs/atom = 8.7561
Neighbor list builds = 0
Dangerous builds = 0
        # write_dump all atom ${dumpfile}
        next i
jump SELF loop1
        displace_atoms upper move ${xstep1} 0.0 0.0 units lattice
        displace_atoms upper move 0.00333333333333333 0.0 0.0 units lattice
        min_style ${style}
        min_style cg
        minimize ${etol} ${ftol} ${maxiter} ${maxeval}
        minimize 1e-12 ${ftol} ${maxiter} ${maxeval}
        minimize 1e-12 1e-08 ${maxiter} ${maxeval}
        minimize 1e-12 1e-08 10000 ${maxeval}
        minimize 1e-12 1e-08 10000 20000
WARNING: Resetting reneighboring criteria during minimization (../min.cpp:168)
Memory usage per processor = 3.35153 Mbytes
Step Temp PotEng Lx Ly Lz 
      15            0   -241.96652    2.2449075    38.889618    1.1224537 
      16            0   -241.96654    2.2449075    38.889618    1.1224537 
      17            0   -241.96654    2.2449075    38.889618    1.1224537 
Loop time of 0.00122909 on 1 procs for 2 steps with 82 atoms

Minimization stats:
  Stopping criterion = linesearch alpha is zero
  Energy initial, next-to-last, final = 
        -241.966518304     -241.966543191     -241.966543191
  Force two-norm initial, final = 0.0610212 0.0476673
  Force max component initial, final = 0.0199916 0.0178802
  Final line search alpha, max atom move = 3.8147e-06 6.82075e-08
  Iterations, force evaluations = 2 26

Pair  time (%) = 0.000834103 (67.8635)
Neigh time (%) = 0 (0)
Comm  time (%) = 0.000178758 (14.544)
Outpt time (%) = 2.39258e-05 (1.94663)
Other time (%) = 0.000192301 (15.6459)

Nlocal:    82 ave 82 max 82 min
Histogram: 1 0 0 0 0 0 0 0 0 0
Nghost:    195 ave 195 max 195 min
Histogram: 1 0 0 0 0 0 0 0 0 0
Neighs:    718 ave 718 max 718 min
Histogram: 1 0 0 0 0 0 0 0 0 0

Total # of neighbors = 718
Ave neighs/atom = 8.7561
Neighbor list builds = 0
Dangerous builds = 0
        # write_dump all atom ${dumpfile}
        next i
jump SELF loop1
        displace_atoms upper move ${xstep1} 0.0 0.0 units lattice
        displace_atoms upper move 0.00333333333333333 0.0 0.0 units lattice
        min_style ${style}
        min_style cg
        minimize ${etol} ${ftol} ${maxiter} ${maxeval}
        minimize 1e-12 ${ftol} ${maxiter} ${maxeval}
        minimize 1e-12 1e-08 ${maxiter} ${maxeval}
        minimize 1e-12 1e-08 10000 ${maxeval}
        minimize 1e-12 1e-08 10000 20000
WARNING: Resetting reneighboring criteria during minimization (../min.cpp:168)
Memory usage per processor = 3.35153 Mbytes
Step Temp PotEng Lx Ly Lz 
      17            0   -241.96277    2.2449075    38.889147    1.1224537 
      18            0   -241.96277    2.2449075    38.889147    1.1224537 
Loop time of 0.00049596 on 1 procs for 1 steps with 82 atoms

Minimization stats:
  Stopping criterion = linesearch alpha is zero
  Energy initial, next-to-last, final = 
        -241.962771999     -241.962771999     -241.962771999
  Force two-norm initial, final = 0.0527491 0.0527491
  Force max component initial, final = 0.0178802 0.0178802
  Final line search alpha, max atom move = 3.8147e-06 6.82075e-08
  Iterations, force evaluations = 1 19

Pair  time (%) = 0.000429789 (86.6581)
Neigh time (%) = 0 (0)
Comm  time (%) = 2.29293e-05 (4.62321)
Outpt time (%) = 0 (0)
Other time (%) = 4.32414e-05 (8.71873)

Nlocal:    82 ave 82 max 82 min
Histogram: 1 0 0 0 0 0 0 0 0 0
Nghost:    195 ave 195 max 195 min
Histogram: 1 0 0 0 0 0 0 0 0 0
Neighs:    718 ave 718 max 718 min
Histogram: 1 0 0 0 0 0 0 0 0 0

Total # of neighbors = 718
Ave neighs/atom = 8.7561
Neighbor list builds = 0
Dangerous builds = 0
        # write_dump all atom ${dumpfile}
        next i
jump SELF loop1
        displace_atoms upper move ${xstep1} 0.0 0.0 units lattice
        displace_atoms upper move 0.00333333333333333 0.0 0.0 units lattice
        min_style ${style}
        min_style cg
        minimize ${etol} ${ftol} ${maxiter} ${maxeval}
        minimize 1e-12 ${ftol} ${maxiter} ${maxeval}
        minimize 1e-12 1e-08 ${maxiter} ${maxeval}
        minimize 1e-12 1e-08 10000 ${maxeval}
        minimize 1e-12 1e-08 10000 20000
WARNING: Resetting reneighboring criteria during minimization (../min.cpp:168)
Memory usage per processor = 3.35153 Mbytes
Step Temp PotEng Lx Ly Lz 
      18            0   -241.95883    2.2449075    38.889147    1.1224537 
      19            0   -241.95887    2.2449075    38.889147    1.1224537 
      20            0   -241.95887    2.2449075    38.889147    1.1224537 
Loop time of 0.00374806 on 1 procs for 2 steps with 82 atoms

Minimization stats:
  Stopping criterion = linesearch alpha is zero
  Energy initial, next-to-last, final = 
        -241.958829498     -241.958874288     -241.958874288
  Force two-norm initial, final = 0.0650904 0.0606479
  Force max component initial, final = 0.0222446 0.0170152
  Final line search alpha, max atom move = 1.90735e-06 3.24539e-08
  Iterations, force evaluations = 2 27

Pair  time (%) = 0.0036403 (97.1248)
Neigh time (%) = 0 (0)
Comm  time (%) = 3.42712e-05 (0.91437)
Outpt time (%) = 5.91821e-06 (0.1579)
Other time (%) = 6.75753e-05 (1.80294)

Nlocal:    82 ave 82 max 82 min
Histogram: 1 0 0 0 0 0 0 0 0 0
Nghost:    195 ave 195 max 195 min
Histogram: 1 0 0 0 0 0 0 0 0 0
Neighs:    718 ave 718 max 718 min
Histogram: 1 0 0 0 0 0 0 0 0 0

Total # of neighbors = 718
Ave neighs/atom = 8.7561
Neighbor list builds = 0
Dangerous builds = 0
        # write_dump all atom ${dumpfile}
        next i
jump SELF loop1
        displace_atoms upper move ${xstep1} 0.0 0.0 units lattice
        displace_atoms upper move 0.00333333333333333 0.0 0.0 units lattice
        min_style ${style}
        min_style cg
        minimize ${etol} ${ftol} ${maxiter} ${maxeval}
        minimize 1e-12 ${ftol} ${maxiter} ${maxeval}
        minimize 1e-12 1e-08 ${maxiter} ${maxeval}
        minimize 1e-12 1e-08 10000 ${maxeval}
        minimize 1e-12 1e-08 10000 20000
WARNING: Resetting reneighboring criteria during minimization (../min.cpp:168)
Memory usage per processor = 3.35153 Mbytes
Step Temp PotEng Lx Ly Lz 
      20            0   -241.95476    2.2449075    38.888588    1.1224537 
      21            0   -241.95476    2.2449075    38.888588    1.1224537 
Loop time of 0.000496004 on 1 procs for 1 steps with 82 atoms

Minimization stats:
  Stopping criterion = linesearch alpha is zero
  Energy initial, next-to-last, final = 
         -241.95476271      -241.95476271      -241.95476271
  Force two-norm initial, final = 0.0541863 0.0541863
  Force max component initial, final = 0.0170152 0.0170152
  Final line search alpha, max atom move = 3.8147e-06 6.49077e-08
  Iterations, force evaluations = 1 19

Pair  time (%) = 0.000428802 (86.4514)
Neigh time (%) = 0 (0)
Comm  time (%) = 2.21936e-05 (4.47449)
Outpt time (%) = 0 (0)
Other time (%) = 4.50078e-05 (9.07408)

Nlocal:    82 ave 82 max 82 min
Histogram: 1 0 0 0 0 0 0 0 0 0
Nghost:    195 ave 195 max 195 min
Histogram: 1 0 0 0 0 0 0 0 0 0
Neighs:    718 ave 718 max 718 min
Histogram: 1 0 0 0 0 0 0 0 0 0

Total # of neighbors = 718
Ave neighs/atom = 8.7561
Neighbor list builds = 0
Dangerous builds = 0
        # write_dump all atom ${dumpfile}
        next i
jump SELF loop1
        displace_atoms upper move ${xstep1} 0.0 0.0 units lattice
        displace_atoms upper move 0.00333333333333333 0.0 0.0 units lattice
        min_style ${style}
        min_style cg
        minimize ${etol} ${ftol} ${maxiter} ${maxeval}
        minimize 1e-12 ${ftol} ${maxiter} ${maxeval}
        minimize 1e-12 1e-08 ${maxiter} ${maxeval}
        minimize 1e-12 1e-08 10000 ${maxeval}
        minimize 1e-12 1e-08 10000 20000
WARNING: Resetting reneighboring criteria during minimization (../min.cpp:168)
Memory usage per processor = 3.35153 Mbytes
Step Temp PotEng Lx Ly Lz 
      21            0   -241.95044    2.2449075    38.888588    1.1224537 
      22            0   -241.95044    2.2449075    38.888588    1.1224537 
Loop time of 0.000379948 on 1 procs for 1 steps with 82 atoms

Minimization stats:
  Stopping criterion = linesearch alpha is zero
  Energy initial, next-to-last, final = 
        -241.950439871     -241.950439871     -241.950439871
  Force two-norm initial, final = 0.0589191 0.0589191
  Force max component initial, final = 0.0170152 0.0170152
  Final line search alpha, max atom move = 1.90735e-06 3.24539e-08
  Iterations, force evaluations = 1 20

Pair  time (%) = 0.000332761 (87.5808)
Neigh time (%) = 0 (0)
Comm  time (%) = 2.02333e-05 (5.3253)
Outpt time (%) = 0 (0)
Other time (%) = 2.69532e-05 (7.09392)

Nlocal:    82 ave 82 max 82 min
Histogram: 1 0 0 0 0 0 0 0 0 0
Nghost:    195 ave 195 max 195 min
Histogram: 1 0 0 0 0 0 0 0 0 0
Neighs:    718 ave 718 max 718 min
Histogram: 1 0 0 0 0 0 0 0 0 0

Total # of neighbors = 718
Ave neighs/atom = 8.7561
Neighbor list builds = 0
Dangerous builds = 0
        # write_dump all atom ${dumpfile}
        next i
jump SELF loop1
        displace_atoms upper move ${xstep1} 0.0 0.0 units lattice
        displace_atoms upper move 0.00333333333333333 0.0 0.0 units lattice
        min_style ${style}
        min_style cg
        minimize ${etol} ${ftol} ${maxiter} ${maxeval}
        minimize 1e-12 ${ftol} ${maxiter} ${maxeval}
        minimize 1e-12 1e-08 ${maxiter} ${maxeval}
        minimize 1e-12 1e-08 10000 ${maxeval}
        minimize 1e-12 1e-08 10000 20000
WARNING: Resetting reneighboring criteria during minimization (../min.cpp:168)
Memory usage per processor = 3.35153 Mbytes
Step Temp PotEng Lx Ly Lz 
      22            0   -241.94598    2.2449075    38.888588    1.1224537 
      23            0   -241.94602    2.2449075    38.888588    1.1224537 
      24            0   -241.94602    2.2449075    38.888588    1.1224537 
Loop time of 0.000709094 on 1 procs for 2 steps with 82 atoms

Minimization stats:
  Stopping criterion = linesearch alpha is zero
  Energy initial, next-to-last, final = 
        -241.945984175     -241.946021859     -241.946021859
  Force two-norm initial, final = 0.075293 0.0561751
  Force max component initial, final = 0.0261971 0.0137725
  Final line search alpha, max atom move = 1.90735e-06 2.6269e-08
  Iterations, force evaluations = 2 27

Pair  time (%) = 0.000608976 (85.8809)
Neigh time (%) = 0 (0)
Comm  time (%) = 3.60715e-05 (5.08699)
Outpt time (%) = 5.94894e-06 (0.838949)
Other time (%) = 5.80975e-05 (8.19321)

Nlocal:    82 ave 82 max 82 min
Histogram: 1 0 0 0 0 0 0 0 0 0
Nghost:    195 ave 195 max 195 min
Histogram: 1 0 0 0 0 0 0 0 0 0
Neighs:    718 ave 718 max 718 min
Histogram: 1 0 0 0 0 0 0 0 0 0

Total # of neighbors = 718
Ave neighs/atom = 8.7561
Neighbor list builds = 0
Dangerous builds = 0
        # write_dump all atom ${dumpfile}
        next i
jump SELF loop1
        displace_atoms upper move ${xstep1} 0.0 0.0 units lattice
        displace_atoms upper move 0.00333333333333333 0.0 0.0 units lattice
        min_style ${style}
        min_style cg
        minimize ${etol} ${ftol} ${maxiter} ${maxeval}
        minimize 1e-12 ${ftol} ${maxiter} ${maxeval}
        minimize 1e-12 1e-08 ${maxiter} ${maxeval}
        minimize 1e-12 1e-08 10000 ${maxeval}
        minimize 1e-12 1e-08 10000 20000
WARNING: Resetting reneighboring criteria during minimization (../min.cpp:168)
Memory usage per processor = 3.35153 Mbytes
Step Temp PotEng Lx Ly Lz 
      24            0   -241.94134    2.2449075    38.888244    1.1224537 
      25            0   -241.94134    2.2449075    38.888244    1.1224537 
Loop time of 0.000469914 on 1 procs for 1 steps with 82 atoms

Minimization stats:
  Stopping criterion = linesearch alpha is zero
  Energy initial, next-to-last, final = 
        -241.941337745     -241.941337745     -241.941337745
  Force two-norm initial, final = 0.0552808 0.0552808
  Force max component initial, final = 0.0137725 0.0137725
  Final line search alpha, max atom move = 3.8147e-06 5.2538e-08
  Iterations, force evaluations = 1 19

Pair  time (%) = 0.000410318 (87.3178)
Neigh time (%) = 0 (0)
Comm  time (%) = 2.26762e-05 (4.82561)
Outpt time (%) = 0 (0)
Other time (%) = 3.69194e-05 (7.85663)

Nlocal:    82 ave 82 max 82 min
Histogram: 1 0 0 0 0 0 0 0 0 0
Nghost:    195 ave 195 max 195 min
Histogram: 1 0 0 0 0 0 0 0 0 0
Neighs:    718 ave 718 max 718 min
Histogram: 1 0 0 0 0 0 0 0 0 0

Total # of neighbors = 718
Ave neighs/atom = 8.7561
Neighbor list builds = 0
Dangerous builds = 0
        # write_dump all atom ${dumpfile}
        next i
jump SELF loop1
        displace_atoms upper move ${xstep1} 0.0 0.0 units lattice
        displace_atoms upper move 0.00333333333333333 0.0 0.0 units lattice
        min_style ${style}
        min_style cg
        minimize ${etol} ${ftol} ${maxiter} ${maxeval}
        minimize 1e-12 ${ftol} ${maxiter} ${maxeval}
        minimize 1e-12 1e-08 ${maxiter} ${maxeval}
        minimize 1e-12 1e-08 10000 ${maxeval}
        minimize 1e-12 1e-08 10000 20000
WARNING: Resetting reneighboring criteria during minimization (../min.cpp:168)
Memory usage per processor = 3.35153 Mbytes
Step Temp PotEng Lx Ly Lz 
      25            0   -241.93653    2.2449075    38.888244    1.1224537 
      26            0   -241.93657    2.2449075    38.888244    1.1224537 
      27            0   -241.93657    2.2449075    38.888244    1.1224537 
Loop time of 0.000745049 on 1 procs for 2 steps with 82 atoms

Minimization stats:
  Stopping criterion = linesearch alpha is zero
  Energy initial, next-to-last, final = 
        -241.936527696     -241.936574963     -241.936574963
  Force two-norm initial, final = 0.0720537 0.0612987
  Force max component initial, final = 0.0242082 0.0190119
  Final line search alpha, max atom move = 1.90735e-06 3.62624e-08
  Iterations, force evaluations = 2 27

Pair  time (%) = 0.00064109 (86.0467)
Neigh time (%) = 0 (0)
Comm  time (%) = 3.7113e-05 (4.98128)
Outpt time (%) = 5.90389e-06 (0.792416)
Other time (%) = 6.09423e-05 (8.17963)

Nlocal:    82 ave 82 max 82 min
Histogram: 1 0 0 0 0 0 0 0 0 0
Nghost:    195 ave 195 max 195 min
Histogram: 1 0 0 0 0 0 0 0 0 0
Neighs:    718 ave 718 max 718 min
Histogram: 1 0 0 0 0 0 0 0 0 0

Total # of neighbors = 718
Ave neighs/atom = 8.7561
Neighbor list builds = 0
Dangerous builds = 0
        # write_dump all atom ${dumpfile}
        next i
jump SELF loop1
        displace_atoms upper move ${xstep1} 0.0 0.0 units lattice
        displace_atoms upper move 0.00333333333333333 0.0 0.0 units lattice
        min_style ${style}
        min_style cg
        minimize ${etol} ${ftol} ${maxiter} ${maxeval}
        minimize 1e-12 ${ftol} ${maxiter} ${maxeval}
        minimize 1e-12 1e-08 ${maxiter} ${maxeval}
        minimize 1e-12 1e-08 10000 ${maxeval}
        minimize 1e-12 1e-08 10000 20000
WARNING: Resetting reneighboring criteria during minimization (../min.cpp:168)
Memory usage per processor = 3.35153 Mbytes
Step Temp PotEng Lx Ly Lz 
      27            0   -241.93154    2.2449075    38.887814    1.1224537 
      28            0   -241.93154    2.2449075    38.887814    1.1224537 
Loop time of 0.000612025 on 1 procs for 1 steps with 82 atoms

Minimization stats:
  Stopping criterion = linesearch alpha is zero
  Energy initial, next-to-last, final = 
        -241.931538381     -241.931538381     -241.931538381
  Force two-norm initial, final = 0.0604693 0.0604693
  Force max component initial, final = 0.0190119 0.0190119
  Final line search alpha, max atom move = 1.90735e-06 3.62624e-08
  Iterations, force evaluations = 1 20

Pair  time (%) = 0.000504365 (82.4091)
Neigh time (%) = 0 (0)
Comm  time (%) = 2.89781e-05 (4.73479)
Outpt time (%) = 0 (0)
Other time (%) = 7.86824e-05 (12.8561)

Nlocal:    82 ave 82 max 82 min
Histogram: 1 0 0 0 0 0 0 0 0 0
Nghost:    195 ave 195 max 195 min
Histogram: 1 0 0 0 0 0 0 0 0 0
Neighs:    718 ave 718 max 718 min
Histogram: 1 0 0 0 0 0 0 0 0 0

Total # of neighbors = 718
Ave neighs/atom = 8.7561
Neighbor list builds = 0
Dangerous builds = 0
        # write_dump all atom ${dumpfile}
        next i
jump SELF loop1
        displace_atoms upper move ${xstep1} 0.0 0.0 units lattice
        displace_atoms upper move 0.00333333333333333 0.0 0.0 units lattice
        min_style ${style}
        min_style cg
        minimize ${etol} ${ftol} ${maxiter} ${maxeval}
        minimize 1e-12 ${ftol} ${maxiter} ${maxeval}
        minimize 1e-12 1e-08 ${maxiter} ${maxeval}
        minimize 1e-12 1e-08 10000 ${maxeval}
        minimize 1e-12 1e-08 10000 20000
WARNING: Resetting reneighboring criteria during minimization (../min.cpp:168)
Memory usage per processor = 3.35153 Mbytes
Step Temp PotEng Lx Ly Lz 
      28            0   -241.92638    2.2449075    38.887814    1.1224537 
      29            0   -241.92645    2.2449075    38.887814    1.1224537 
      30            0   -241.92645    2.2449075    38.887814    1.1224537 
Loop time of 0.00154503 on 1 procs for 2 steps with 82 atoms

Minimization stats:
  Stopping criterion = linesearch alpha is zero
  Energy initial, next-to-last, final = 
        -241.926383373     -241.926452035     -241.926452035
  Force two-norm initial, final = 0.0806073 0.0631058
  Force max component initial, final = 0.0279913 0.0164017
  Final line search alpha, max atom move = 1.90735e-06 3.12838e-08
  Iterations, force evaluations = 2 27

Pair  time (%) = 0.00118211 (76.5101)
Neigh time (%) = 0 (0)
Comm  time (%) = 0.000159315 (10.3115)
Outpt time (%) = 2.30595e-05 (1.4925)
Other time (%) = 0.000180552 (11.6859)

Nlocal:    82 ave 82 max 82 min
Histogram: 1 0 0 0 0 0 0 0 0 0
Nghost:    195 ave 195 max 195 min
Histogram: 1 0 0 0 0 0 0 0 0 0
Neighs:    718 ave 718 max 718 min
Histogram: 1 0 0 0 0 0 0 0 0 0

Total # of neighbors = 718
Ave neighs/atom = 8.7561
Neighbor list builds = 0
Dangerous builds = 0
        # write_dump all atom ${dumpfile}
        next i
jump SELF loop1
        displace_atoms upper move ${xstep1} 0.0 0.0 units lattice
        displace_atoms upper move 0.00333333333333333 0.0 0.0 units lattice
        min_style ${style}
        min_style cg
        minimize ${etol} ${ftol} ${maxiter} ${maxeval}
        minimize 1e-12 ${ftol} ${maxiter} ${maxeval}
        minimize 1e-12 1e-08 ${maxiter} ${maxeval}
        minimize 1e-12 1e-08 10000 ${maxeval}
        minimize 1e-12 1e-08 10000 20000
WARNING: Resetting reneighboring criteria during minimization (../min.cpp:168)
Memory usage per processor = 3.35153 Mbytes
Step Temp PotEng Lx Ly Lz 
      30            0   -241.92109    2.2449075    38.887539    1.1224537 
      31            0   -241.92119    2.2449075    38.887539    1.1224537 
      32            0   -241.92119    2.2449075    38.887539    1.1224537 
Loop time of 0.000793021 on 1 procs for 2 steps with 82 atoms

Minimization stats:
  Stopping criterion = linesearch alpha is zero
  Energy initial, next-to-last, final = 
        -241.921087272       -241.9211923       -241.9211923
  Force two-norm initial, final = 0.0644674 0.206238
  Force max component initial, final = 0.0164017 0.0483015
  Final line search alpha, max atom move = 2.38419e-07 1.1516e-08
  Iterations, force evaluations = 2 28

Pair  time (%) = 0.00068618 (86.5273)
Neigh time (%) = 0 (0)
Comm  time (%) = 3.58013e-05 (4.51455)
Outpt time (%) = 5.99062e-06 (0.755417)
Other time (%) = 6.50497e-05 (8.20277)

Nlocal:    82 ave 82 max 82 min
Histogram: 1 0 0 0 0 0 0 0 0 0
Nghost:    195 ave 195 max 195 min
Histogram: 1 0 0 0 0 0 0 0 0 0
Neighs:    718 ave 718 max 718 min
Histogram: 1 0 0 0 0 0 0 0 0 0

Total # of neighbors = 718
Ave neighs/atom = 8.7561
Neighbor list builds = 0
Dangerous builds = 0
        # write_dump all atom ${dumpfile}
        next i
jump SELF loop1
        displace_atoms upper move ${xstep1} 0.0 0.0 units lattice
        displace_atoms upper move 0.00333333333333333 0.0 0.0 units lattice
        min_style ${style}
        min_style cg
        minimize ${etol} ${ftol} ${maxiter} ${maxeval}
        minimize 1e-12 ${ftol} ${maxiter} ${maxeval}
        minimize 1e-12 1e-08 ${maxiter} ${maxeval}
        minimize 1e-12 1e-08 10000 ${maxeval}
        minimize 1e-12 1e-08 10000 20000
WARNING: Resetting reneighboring criteria during minimization (../min.cpp:168)
Memory usage per processor = 3.35153 Mbytes
Step Temp PotEng Lx Ly Lz 
      32            0   -241.91568    2.2449075     38.88605    1.1224537 
      33            0   -241.91568    2.2449075     38.88605    1.1224537 
Loop time of 0.000597992 on 1 procs for 1 steps with 82 atoms

Minimization stats:
  Stopping criterion = linesearch alpha is zero
  Energy initial, next-to-last, final = 
        -241.915683428     -241.915683428     -241.915683428
  Force two-norm initial, final = 0.197852 0.197852
  Force max component initial, final = 0.0483015 0.0483015
  Final line search alpha, max atom move = 2.38419e-07 1.1516e-08
  Iterations, force evaluations = 1 23

Pair  time (%) = 0.000521493 (87.2074)
Neigh time (%) = 0 (0)
Comm  time (%) = 3.19286e-05 (5.33931)
Outpt time (%) = 0 (0)
Other time (%) = 4.45703e-05 (7.45333)

Nlocal:    82 ave 82 max 82 min
Histogram: 1 0 0 0 0 0 0 0 0 0
Nghost:    195 ave 195 max 195 min
Histogram: 1 0 0 0 0 0 0 0 0 0
Neighs:    718 ave 718 max 718 min
Histogram: 1 0 0 0 0 0 0 0 0 0

Total # of neighbors = 718
Ave neighs/atom = 8.7561
Neighbor list builds = 0
Dangerous builds = 0
        # write_dump all atom ${dumpfile}
        next i
jump SELF loop1
        displace_atoms upper move ${xstep1} 0.0 0.0 units lattice
        displace_atoms upper move 0.00333333333333333 0.0 0.0 units lattice
        min_style ${style}
        min_style cg
        minimize ${etol} ${ftol} ${maxiter} ${maxeval}
        minimize 1e-12 ${ftol} ${maxiter} ${maxeval}
        minimize 1e-12 1e-08 ${maxiter} ${maxeval}
        minimize 1e-12 1e-08 10000 ${maxeval}
        minimize 1e-12 1e-08 10000 20000
WARNING: Resetting reneighboring criteria during minimization (../min.cpp:168)
Memory usage per processor = 3.35153 Mbytes
Step Temp PotEng Lx Ly Lz 
      33            0   -241.91007    2.2449075     38.88605    1.1224537 
      34            0   -241.91007    2.2449075     38.88605    1.1224537 
Loop time of 0.00058805 on 1 procs for 1 steps with 82 atoms

Minimization stats:
  Stopping criterion = linesearch alpha is zero
  Energy initial, next-to-last, final = 
         -241.91006764      -241.91006764      -241.91006764
  Force two-norm initial, final = 0.199171 0.199171
  Force max component initial, final = 0.0483015 0.0483015
  Final line search alpha, max atom move = 2.38419e-07 1.1516e-08
  Iterations, force evaluations = 1 23

Pair  time (%) = 0.000518253 (88.1307)
Neigh time (%) = 0 (0)
Comm  time (%) = 2.998e-05 (5.0982)
Outpt time (%) = 0 (0)
Other time (%) = 3.98173e-05 (6.77107)

Nlocal:    82 ave 82 max 82 min
Histogram: 1 0 0 0 0 0 0 0 0 0
Nghost:    195 ave 195 max 195 min
Histogram: 1 0 0 0 0 0 0 0 0 0
Neighs:    718 ave 718 max 718 min
Histogram: 1 0 0 0 0 0 0 0 0 0

Total # of neighbors = 718
Ave neighs/atom = 8.7561
Neighbor list builds = 0
Dangerous builds = 0
        # write_dump all atom ${dumpfile}
        next i
jump SELF loop1
        displace_atoms upper move ${xstep1} 0.0 0.0 units lattice
        displace_atoms upper move 0.00333333333333333 0.0 0.0 units lattice
        min_style ${style}
        min_style cg
        minimize ${etol} ${ftol} ${maxiter} ${maxeval}
        minimize 1e-12 ${ftol} ${maxiter} ${maxeval}
        minimize 1e-12 1e-08 ${maxiter} ${maxeval}
        minimize 1e-12 1e-08 10000 ${maxeval}
        minimize 1e-12 1e-08 10000 20000
WARNING: Resetting reneighboring criteria during minimization (../min.cpp:168)
Memory usage per processor = 3.35153 Mbytes
Step Temp PotEng Lx Ly Lz 
      34            0   -241.90429    2.2449075     38.88605    1.1224537 
      35            0   -241.90429    2.2449075     38.88605    1.1224537 
Loop time of 0.000574065 on 1 procs for 1 steps with 82 atoms

Minimization stats:
  Stopping criterion = linesearch alpha is zero
  Energy initial, next-to-last, final = 
        -241.904292283     -241.904292283     -241.904292283
  Force two-norm initial, final = 0.211354 0.211354
  Force max component initial, final = 0.0483015 0.0483015
  Final line search alpha, max atom move = 2.38419e-07 1.1516e-08
  Iterations, force evaluations = 1 23

Pair  time (%) = 0.000505037 (87.9754)
Neigh time (%) = 0 (0)
Comm  time (%) = 3.01364e-05 (5.24965)
Outpt time (%) = 0 (0)
Other time (%) = 3.88925e-05 (6.77492)

Nlocal:    82 ave 82 max 82 min
Histogram: 1 0 0 0 0 0 0 0 0 0
Nghost:    195 ave 195 max 195 min
Histogram: 1 0 0 0 0 0 0 0 0 0
Neighs:    718 ave 718 max 718 min
Histogram: 1 0 0 0 0 0 0 0 0 0

Total # of neighbors = 718
Ave neighs/atom = 8.7561
Neighbor list builds = 0
Dangerous builds = 0
        # write_dump all atom ${dumpfile}
        next i
jump SELF loop1
        displace_atoms upper move ${xstep1} 0.0 0.0 units lattice
        displace_atoms upper move 0.00333333333333333 0.0 0.0 units lattice
        min_style ${style}
        min_style cg
        minimize ${etol} ${ftol} ${maxiter} ${maxeval}
        minimize 1e-12 ${ftol} ${maxiter} ${maxeval}
        minimize 1e-12 1e-08 ${maxiter} ${maxeval}
        minimize 1e-12 1e-08 10000 ${maxeval}
        minimize 1e-12 1e-08 10000 20000
WARNING: Resetting reneighboring criteria during minimization (../min.cpp:168)
Memory usage per processor = 3.35153 Mbytes
Step Temp PotEng Lx Ly Lz 
      35            0   -241.89829    2.2449075     38.88605    1.1224537 
      36            0   -241.89847    2.2449075     38.88605    1.1224537 
      37            0   -241.89852    2.2449075     38.88605    1.1224537 
      38            0   -241.89852    2.2449075     38.88605    1.1224537 
Loop time of 0.00161005 on 1 procs for 3 steps with 82 atoms

Minimization stats:
  Stopping criterion = linesearch alpha is zero
  Energy initial, next-to-last, final = 
        -241.898290857     -241.898522874     -241.898522874
  Force two-norm initial, final = 0.23452 0.0692788
  Force max component initial, final = 0.0635244 0.0213094
  Final line search alpha, max atom move = 1.90735e-06 4.06444e-08
  Iterations, force evaluations = 3 34

Pair  time (%) = 0.00127761 (79.3522)
Neigh time (%) = 0 (0)
Comm  time (%) = 0.00011877 (7.37676)
Outpt time (%) = 5.68554e-05 (3.53127)
Other time (%) = 0.000156816 (9.73981)

Nlocal:    82 ave 82 max 82 min
Histogram: 1 0 0 0 0 0 0 0 0 0
Nghost:    195 ave 195 max 195 min
Histogram: 1 0 0 0 0 0 0 0 0 0
Neighs:    718 ave 718 max 718 min
Histogram: 1 0 0 0 0 0 0 0 0 0

Total # of neighbors = 718
Ave neighs/atom = 8.7561
Neighbor list builds = 0
Dangerous builds = 0
        # write_dump all atom ${dumpfile}
        next i
jump SELF loop1
        displace_atoms upper move ${xstep1} 0.0 0.0 units lattice
        displace_atoms upper move 0.00333333333333333 0.0 0.0 units lattice
        min_style ${style}
        min_style cg
        minimize ${etol} ${ftol} ${maxiter} ${maxeval}
        minimize 1e-12 ${ftol} ${maxiter} ${maxeval}
        minimize 1e-12 1e-08 ${maxiter} ${maxeval}
        minimize 1e-12 1e-08 10000 ${maxeval}
        minimize 1e-12 1e-08 10000 20000
WARNING: Resetting reneighboring criteria during minimization (../min.cpp:168)
Memory usage per processor = 3.35153 Mbytes
Step Temp PotEng Lx Ly Lz 
      38            0   -241.89243    2.2449075    38.885689    1.1224537 
      39            0    -241.8925    2.2449075    38.885689    1.1224537 
      40            0    -241.8925    2.2449075    38.885689    1.1224537 
Loop time of 0.000756902 on 1 procs for 2 steps with 82 atoms

Minimization stats:
  Stopping criterion = linesearch alpha is zero
  Energy initial, next-to-last, final = 
         -241.89242965     -241.892502485     -241.892502485
  Force two-norm initial, final = 0.0732179 0.189472
  Force max component initial, final = 0.0213094 0.0422836
  Final line search alpha, max atom move = 2.38419e-07 1.00812e-08
  Iterations, force evaluations = 2 29

Pair  time (%) = 0.000654209 (86.4324)
Neigh time (%) = 0 (0)
Comm  time (%) = 4.08085e-05 (5.39151)
Outpt time (%) = 6.02973e-06 (0.796633)
Other time (%) = 5.58549e-05 (7.37941)

Nlocal:    82 ave 82 max 82 min
Histogram: 1 0 0 0 0 0 0 0 0 0
Nghost:    195 ave 195 max 195 min
Histogram: 1 0 0 0 0 0 0 0 0 0
Neighs:    718 ave 718 max 718 min
Histogram: 1 0 0 0 0 0 0 0 0 0

Total # of neighbors = 718
Ave neighs/atom = 8.7561
Neighbor list builds = 0
Dangerous builds = 0
        # write_dump all atom ${dumpfile}
        next i
jump SELF loop1
        displace_atoms upper move ${xstep1} 0.0 0.0 units lattice
        displace_atoms upper move 0.00333333333333333 0.0 0.0 units lattice
        min_style ${style}
        min_style cg
        minimize ${etol} ${ftol} ${maxiter} ${maxeval}
        minimize 1e-12 ${ftol} ${maxiter} ${maxeval}
        minimize 1e-12 1e-08 ${maxiter} ${maxeval}
        minimize 1e-12 1e-08 10000 ${maxeval}
        minimize 1e-12 1e-08 10000 20000
WARNING: Resetting reneighboring criteria during minimization (../min.cpp:168)
Memory usage per processor = 3.35153 Mbytes
Step Temp PotEng Lx Ly Lz 
      40            0   -241.88634    2.2449075    38.885254    1.1224537 
      41            0   -241.88634    2.2449075    38.885254    1.1224537 
Loop time of 0.000595885 on 1 procs for 1 steps with 82 atoms

Minimization stats:
  Stopping criterion = linesearch alpha is zero
  Energy initial, next-to-last, final = 
        -241.886341336     -241.886341336     -241.886341336
  Force two-norm initial, final = 0.174326 0.174326
  Force max component initial, final = 0.0422836 0.0422836
  Final line search alpha, max atom move = 2.38419e-07 1.00812e-08
  Iterations, force evaluations = 1 23

Pair  time (%) = 0.000514216 (86.2945)
Neigh time (%) = 0 (0)
Comm  time (%) = 2.76744e-05 (4.64424)
Outpt time (%) = 0 (0)
Other time (%) = 5.39948e-05 (9.06128)

Nlocal:    82 ave 82 max 82 min
Histogram: 1 0 0 0 0 0 0 0 0 0
Nghost:    195 ave 195 max 195 min
Histogram: 1 0 0 0 0 0 0 0 0 0
Neighs:    718 ave 718 max 718 min
Histogram: 1 0 0 0 0 0 0 0 0 0

Total # of neighbors = 718
Ave neighs/atom = 8.7561
Neighbor list builds = 0
Dangerous builds = 0
        # write_dump all atom ${dumpfile}
        next i
jump SELF loop1
        displace_atoms upper move ${xstep1} 0.0 0.0 units lattice
        displace_atoms upper move 0.00333333333333333 0.0 0.0 units lattice
        min_style ${style}
        min_style cg
        minimize ${etol} ${ftol} ${maxiter} ${maxeval}
        minimize 1e-12 ${ftol} ${maxiter} ${maxeval}
        minimize 1e-12 1e-08 ${maxiter} ${maxeval}
        minimize 1e-12 1e-08 10000 ${maxeval}
        minimize 1e-12 1e-08 10000 20000
WARNING: Resetting reneighboring criteria during minimization (../min.cpp:168)
Memory usage per processor = 3.35153 Mbytes
Step Temp PotEng Lx Ly Lz 
      41            0   -241.88001    2.2449075    38.885254    1.1224537 
      42            0   -241.88001    2.2449075    38.885254    1.1224537 
Loop time of 0.000695066 on 1 procs for 1 steps with 82 atoms

Minimization stats:
  Stopping criterion = linesearch alpha is zero
  Energy initial, next-to-last, final = 
        -241.880012848     -241.880012848     -241.880012848
  Force two-norm initial, final = 0.175356 0.175356
  Force max component initial, final = 0.0422836 0.0422836
  Final line search alpha, max atom move = 2.38419e-07 1.00812e-08
  Iterations, force evaluations = 1 23

Pair  time (%) = 0.000521223 (74.9889)
Neigh time (%) = 0 (0)
Comm  time (%) = 3.02958e-05 (4.35869)
Outpt time (%) = 0 (0)
Other time (%) = 0.000143548 (20.6524)

Nlocal:    82 ave 82 max 82 min
Histogram: 1 0 0 0 0 0 0 0 0 0
Nghost:    195 ave 195 max 195 min
Histogram: 1 0 0 0 0 0 0 0 0 0
Neighs:    718 ave 718 max 718 min
Histogram: 1 0 0 0 0 0 0 0 0 0

Total # of neighbors = 718
Ave neighs/atom = 8.7561
Neighbor list builds = 0
Dangerous builds = 0
        # write_dump all atom ${dumpfile}
        next i
jump SELF loop1
        displace_atoms upper move ${xstep1} 0.0 0.0 units lattice
        displace_atoms upper move 0.00333333333333333 0.0 0.0 units lattice
        min_style ${style}
        min_style cg
        minimize ${etol} ${ftol} ${maxiter} ${maxeval}
        minimize 1e-12 ${ftol} ${maxiter} ${maxeval}
        minimize 1e-12 1e-08 ${maxiter} ${maxeval}
        minimize 1e-12 1e-08 10000 ${maxeval}
        minimize 1e-12 1e-08 10000 20000
WARNING: Resetting reneighboring criteria during minimization (../min.cpp:168)
Memory usage per processor = 3.35153 Mbytes
Step Temp PotEng Lx Ly Lz 
      42            0   -241.87359    2.2449075    38.885254    1.1224537 
      43            0   -241.87359    2.2449075    38.885254    1.1224537 
Loop time of 0.000569041 on 1 procs for 1 steps with 82 atoms

Minimization stats:
  Stopping criterion = linesearch alpha is zero
  Energy initial, next-to-last, final = 
        -241.873594403     -241.873594403     -241.873594403
  Force two-norm initial, final = 0.193999 0.193999
  Force max component initial, final = 0.0443216 0.0443216
  Final line search alpha, max atom move = 2.38419e-07 1.05671e-08
  Iterations, force evaluations = 1 23

Pair  time (%) = 0.000494884 (86.968)
Neigh time (%) = 0 (0)
Comm  time (%) = 3.21764e-05 (5.65449)
Outpt time (%) = 0 (0)
Other time (%) = 4.1981e-05 (7.37749)

Nlocal:    82 ave 82 max 82 min
Histogram: 1 0 0 0 0 0 0 0 0 0
Nghost:    195 ave 195 max 195 min
Histogram: 1 0 0 0 0 0 0 0 0 0
Neighs:    718 ave 718 max 718 min
Histogram: 1 0 0 0 0 0 0 0 0 0

Total # of neighbors = 718
Ave neighs/atom = 8.7561
Neighbor list builds = 0
Dangerous builds = 0
        # write_dump all atom ${dumpfile}
        next i
jump SELF loop1
        displace_atoms upper move ${xstep1} 0.0 0.0 units lattice
        displace_atoms upper move 0.00333333333333333 0.0 0.0 units lattice
        min_style ${style}
        min_style cg
        minimize ${etol} ${ftol} ${maxiter} ${maxeval}
        minimize 1e-12 ${ftol} ${maxiter} ${maxeval}
        minimize 1e-12 1e-08 ${maxiter} ${maxeval}
        minimize 1e-12 1e-08 10000 ${maxeval}
        minimize 1e-12 1e-08 10000 20000
WARNING: Resetting reneighboring criteria during minimization (../min.cpp:168)
Memory usage per processor = 3.35153 Mbytes
Step Temp PotEng Lx Ly Lz 
      43            0    -241.8669    2.2449075    38.885254    1.1224537 
      44            0   -241.86707    2.2449075    38.885254    1.1224537 
      45            0   -241.86724    2.2449075    38.885254    1.1224537 
      46            0   -241.86729    2.2449075    38.885254    1.1224537 
      47            0   -241.86729    2.2449075    38.885254    1.1224537 
      48            0   -241.86729    2.2449075    38.885254    1.1224537 
Loop time of 0.00214309 on 1 procs for 5 steps with 82 atoms

Minimization stats:
  Stopping criterion = linesearch alpha is zero
  Energy initial, next-to-last, final = 
        -241.866900911     -241.867291155     -241.867291155
  Force two-norm initial, final = 0.228444 0.0739133
  Force max component initial, final = 0.0748478 0.0225675
  Final line search alpha, max atom move = 1.90735e-06 4.3044e-08
  Iterations, force evaluations = 5 54

Pair  time (%) = 0.0015993 (74.6259)
Neigh time (%) = 0 (0)
Comm  time (%) = 0.00014969 (6.98479)
Outpt time (%) = 0.000157978 (7.37154)
Other time (%) = 0.000236121 (11.0178)

Nlocal:    82 ave 82 max 82 min
Histogram: 1 0 0 0 0 0 0 0 0 0
Nghost:    195 ave 195 max 195 min
Histogram: 1 0 0 0 0 0 0 0 0 0
Neighs:    718 ave 718 max 718 min
Histogram: 1 0 0 0 0 0 0 0 0 0

Total # of neighbors = 718
Ave neighs/atom = 8.7561
Neighbor list builds = 0
Dangerous builds = 0
        # write_dump all atom ${dumpfile}
        next i
jump SELF loop1
        displace_atoms upper move ${xstep1} 0.0 0.0 units lattice
        displace_atoms upper move 0.00333333333333333 0.0 0.0 units lattice
        min_style ${style}
        min_style cg
        minimize ${etol} ${ftol} ${maxiter} ${maxeval}
        minimize 1e-12 ${ftol} ${maxiter} ${maxeval}
        minimize 1e-12 1e-08 ${maxiter} ${maxeval}
        minimize 1e-12 1e-08 10000 ${maxeval}
        minimize 1e-12 1e-08 10000 20000
WARNING: Resetting reneighboring criteria during minimization (../min.cpp:168)
Memory usage per processor = 3.35153 Mbytes
Step Temp PotEng Lx Ly Lz 
      48            0   -241.86069    2.2449075    38.884541    1.1224537 
      49            0   -241.86073    2.2449075    38.884541    1.1224537 
      50            0   -241.86076    2.2449075    38.884541    1.1224537 
      51            0   -241.86076    2.2449075    38.884541    1.1224537 
Loop time of 0.000869015 on 1 procs for 3 steps with 82 atoms

Minimization stats:
  Stopping criterion = linesearch alpha is zero
  Energy initial, next-to-last, final = 
        -241.860686859     -241.860764043     -241.860764043
  Force two-norm initial, final = 0.0745478 0.0746509
  Force max component initial, final = 0.0225675 0.0257602
  Final line search alpha, max atom move = 1.90735e-06 4.91337e-08
  Iterations, force evaluations = 3 34

Pair  time (%) = 0.00074383 (85.5946)
Neigh time (%) = 0 (0)
Comm  time (%) = 4.38879e-05 (5.0503)
Outpt time (%) = 1.60141e-05 (1.84279)
Other time (%) = 6.52836e-05 (7.51237)

Nlocal:    82 ave 82 max 82 min
Histogram: 1 0 0 0 0 0 0 0 0 0
Nghost:    195 ave 195 max 195 min
Histogram: 1 0 0 0 0 0 0 0 0 0
Neighs:    718 ave 718 max 718 min
Histogram: 1 0 0 0 0 0 0 0 0 0

Total # of neighbors = 718
Ave neighs/atom = 8.7561
Neighbor list builds = 0
Dangerous builds = 0
        # write_dump all atom ${dumpfile}
        next i
jump SELF loop1
        displace_atoms upper move ${xstep1} 0.0 0.0 units lattice
        displace_atoms upper move 0.00333333333333333 0.0 0.0 units lattice
        min_style ${style}
        min_style cg
        minimize ${etol} ${ftol} ${maxiter} ${maxeval}
        minimize 1e-12 ${ftol} ${maxiter} ${maxeval}
        minimize 1e-12 1e-08 ${maxiter} ${maxeval}
        minimize 1e-12 1e-08 10000 ${maxeval}
        minimize 1e-12 1e-08 10000 20000
WARNING: Resetting reneighboring criteria during minimization (../min.cpp:168)
Memory usage per processor = 3.35153 Mbytes
Step Temp PotEng Lx Ly Lz 
      51            0   -241.85397    2.2449075    38.883939    1.1224537 
      52            0   -241.85404    2.2449075    38.883939    1.1224537 
      53            0   -241.85404    2.2449075    38.883939    1.1224537 
Loop time of 0.000670986 on 1 procs for 2 steps with 82 atoms

Minimization stats:
  Stopping criterion = linesearch alpha is zero
  Energy initial, next-to-last, final = 
         -241.85397041     -241.854043859     -241.854043859
  Force two-norm initial, final = 0.0811007 0.0528625
  Force max component initial, final = 0.0257602 0.0164733
  Final line search alpha, max atom move = 3.8147e-06 6.28407e-08
  Iterations, force evaluations = 2 26

Pair  time (%) = 0.000570814 (85.0709)
Neigh time (%) = 0 (0)
Comm  time (%) = 3.48408e-05 (5.19248)
Outpt time (%) = 7.03277e-06 (1.04812)
Other time (%) = 5.82986e-05 (8.6885)

Nlocal:    82 ave 82 max 82 min
Histogram: 1 0 0 0 0 0 0 0 0 0
Nghost:    195 ave 195 max 195 min
Histogram: 1 0 0 0 0 0 0 0 0 0
Neighs:    718 ave 718 max 718 min
Histogram: 1 0 0 0 0 0 0 0 0 0

Total # of neighbors = 718
Ave neighs/atom = 8.7561
Neighbor list builds = 0
Dangerous builds = 0
        # write_dump all atom ${dumpfile}
        next i
jump SELF loop1
        displace_atoms upper move ${xstep1} 0.0 0.0 units lattice
        displace_atoms upper move 0.00333333333333333 0.0 0.0 units lattice
        min_style ${style}
        min_style cg
        minimize ${etol} ${ftol} ${maxiter} ${maxeval}
        minimize 1e-12 ${ftol} ${maxiter} ${maxeval}
        minimize 1e-12 1e-08 ${maxiter} ${maxeval}
        minimize 1e-12 1e-08 10000 ${maxeval}
        minimize 1e-12 1e-08 10000 20000
WARNING: Resetting reneighboring criteria during minimization (../min.cpp:168)
Memory usage per processor = 3.35153 Mbytes
Step Temp PotEng Lx Ly Lz 
      53            0   -241.84727    2.2449075    38.883801    1.1224537 
      54            0   -241.84728    2.2449075    38.883801    1.1224537 
      55            0   -241.84728    2.2449075    38.883801    1.1224537 
Loop time of 0.000736911 on 1 procs for 2 steps with 82 atoms

Minimization stats:
  Stopping criterion = linesearch alpha is zero
  Energy initial, next-to-last, final = 
        -241.847265207     -241.847279401     -241.847279401
  Force two-norm initial, final = 0.0819802 0.0608408
  Force max component initial, final = 0.0313327 0.0182032
  Final line search alpha, max atom move = 1.90735e-06 3.47198e-08
  Iterations, force evaluations = 2 29

Pair  time (%) = 0.000635289 (86.2097)
Neigh time (%) = 0 (0)
Comm  time (%) = 4.10412e-05 (5.56935)
Outpt time (%) = 6.08247e-06 (0.8254)
Other time (%) = 5.44987e-05 (7.39555)

Nlocal:    82 ave 82 max 82 min
Histogram: 1 0 0 0 0 0 0 0 0 0
Nghost:    195 ave 195 max 195 min
Histogram: 1 0 0 0 0 0 0 0 0 0
Neighs:    718 ave 718 max 718 min
Histogram: 1 0 0 0 0 0 0 0 0 0

Total # of neighbors = 718
Ave neighs/atom = 8.7561
Neighbor list builds = 0
Dangerous builds = 0
        # write_dump all atom ${dumpfile}
        next i
jump SELF loop1
        displace_atoms upper move ${xstep1} 0.0 0.0 units lattice
        displace_atoms upper move 0.00333333333333333 0.0 0.0 units lattice
        min_style ${style}
        min_style cg
        minimize ${etol} ${ftol} ${maxiter} ${maxeval}
        minimize 1e-12 ${ftol} ${maxiter} ${maxeval}
        minimize 1e-12 1e-08 ${maxiter} ${maxeval}
        minimize 1e-12 1e-08 10000 ${maxeval}
        minimize 1e-12 1e-08 10000 20000
WARNING: Resetting reneighboring criteria during minimization (../min.cpp:168)
Memory usage per processor = 3.35153 Mbytes
Step Temp PotEng Lx Ly Lz 
      55            0   -241.84028    2.2449075    38.883752    1.1224537 
      56            0   -241.84032    2.2449075    38.883752    1.1224537 
      57            0   -241.84051    2.2449075    38.883752    1.1224537 
      58            0   -241.84053    2.2449075    38.883752    1.1224537 
      59            0   -241.84053    2.2449075    38.883752    1.1224537 
Loop time of 0.000997002 on 1 procs for 4 steps with 82 atoms

Minimization stats:
  Stopping criterion = linesearch alpha is zero
  Energy initial, next-to-last, final = 
        -241.840275696     -241.840525322     -241.840525322
  Force two-norm initial, final = 0.113849 0.0457075
  Force max component initial, final = 0.0514425 0.0124565
  Final line search alpha, max atom move = 3.8147e-06 4.75179e-08
  Iterations, force evaluations = 4 41

Pair  time (%) = 0.000862873 (86.5468)
Neigh time (%) = 0 (0)
Comm  time (%) = 4.944e-05 (4.95886)
Outpt time (%) = 1.20692e-05 (1.21055)
Other time (%) = 7.26195e-05 (7.28379)

Nlocal:    82 ave 82 max 82 min
Histogram: 1 0 0 0 0 0 0 0 0 0
Nghost:    195 ave 195 max 195 min
Histogram: 1 0 0 0 0 0 0 0 0 0
Neighs:    718 ave 718 max 718 min
Histogram: 1 0 0 0 0 0 0 0 0 0

Total # of neighbors = 718
Ave neighs/atom = 8.7561
Neighbor list builds = 0
Dangerous builds = 0
        # write_dump all atom ${dumpfile}
        next i
jump SELF loop1
        displace_atoms upper move ${xstep1} 0.0 0.0 units lattice
        displace_atoms upper move 0.00333333333333333 0.0 0.0 units lattice
        min_style ${style}
        min_style cg
        minimize ${etol} ${ftol} ${maxiter} ${maxeval}
        minimize 1e-12 ${ftol} ${maxiter} ${maxeval}
        minimize 1e-12 1e-08 ${maxiter} ${maxeval}
        minimize 1e-12 1e-08 10000 ${maxeval}
        minimize 1e-12 1e-08 10000 20000
WARNING: Resetting reneighboring criteria during minimization (../min.cpp:168)
Memory usage per processor = 3.35153 Mbytes
Step Temp PotEng Lx Ly Lz 
      59            0   -241.83347    2.2449075    38.883214    1.1224537 
      60            0    -241.8335    2.2449075    38.883214    1.1224537 
      61            0   -241.83361    2.2449075    38.883214    1.1224537 
      62            0   -241.83366    2.2449075    38.883214    1.1224537 
      63            0   -241.83366    2.2449075    38.883214    1.1224537 
Loop time of 0.00106093 on 1 procs for 4 steps with 82 atoms

Minimization stats:
  Stopping criterion = linesearch alpha is zero
  Energy initial, next-to-last, final = 
        -241.833472296     -241.833660404     -241.833660404
  Force two-norm initial, final = 0.0781468 0.0520188
  Force max component initial, final = 0.0317572 0.013583
  Final line search alpha, max atom move = 1.90735e-06 2.59076e-08
  Iterations, force evaluations = 4 40

Pair  time (%) = 0.000901539 (84.9763)
Neigh time (%) = 0 (0)
Comm  time (%) = 5.38182e-05 (5.07274)
Outpt time (%) = 1.61319e-05 (1.52054)
Other time (%) = 8.94405e-05 (8.43039)

Nlocal:    82 ave 82 max 82 min
Histogram: 1 0 0 0 0 0 0 0 0 0
Nghost:    195 ave 195 max 195 min
Histogram: 1 0 0 0 0 0 0 0 0 0
Neighs:    718 ave 718 max 718 min
Histogram: 1 0 0 0 0 0 0 0 0 0

Total # of neighbors = 718
Ave neighs/atom = 8.7561
Neighbor list builds = 0
Dangerous builds = 0
        # write_dump all atom ${dumpfile}
        next i
jump SELF loop1
        displace_atoms upper move ${xstep1} 0.0 0.0 units lattice
        displace_atoms upper move 0.00333333333333333 0.0 0.0 units lattice
        min_style ${style}
        min_style cg
        minimize ${etol} ${ftol} ${maxiter} ${maxeval}
        minimize 1e-12 ${ftol} ${maxiter} ${maxeval}
        minimize 1e-12 1e-08 ${maxiter} ${maxeval}
        minimize 1e-12 1e-08 10000 ${maxeval}
        minimize 1e-12 1e-08 10000 20000
WARNING: Resetting reneighboring criteria during minimization (../min.cpp:168)
Memory usage per processor = 3.35153 Mbytes
Step Temp PotEng Lx Ly Lz 
      63            0   -241.82656    2.2449075    38.882164    1.1224537 
      64            0   -241.82663    2.2449075    38.882164    1.1224537 
      65            0   -241.82666    2.2449075    38.882164    1.1224537 
      66            0   -241.82666    2.2449075    38.882164    1.1224537 
Loop time of 0.000939021 on 1 procs for 3 steps with 82 atoms

Minimization stats:
  Stopping criterion = linesearch alpha is zero
  Energy initial, next-to-last, final = 
        -241.826563888     -241.826663026     -241.826663026
  Force two-norm initial, final = 0.0637755 0.0768235
  Force max component initial, final = 0.0221031 0.0250987
  Final line search alpha, max atom move = 1.90735e-06 4.78719e-08
  Iterations, force evaluations = 3 35

Pair  time (%) = 0.000797688 (84.9489)
Neigh time (%) = 0 (0)
Comm  time (%) = 5.5734e-05 (5.93533)
Outpt time (%) = 1.49112e-05 (1.58795)
Other time (%) = 7.06878e-05 (7.52783)

Nlocal:    82 ave 82 max 82 min
Histogram: 1 0 0 0 0 0 0 0 0 0
Nghost:    195 ave 195 max 195 min
Histogram: 1 0 0 0 0 0 0 0 0 0
Neighs:    718 ave 718 max 718 min
Histogram: 1 0 0 0 0 0 0 0 0 0

Total # of neighbors = 718
Ave neighs/atom = 8.7561
Neighbor list builds = 0
Dangerous builds = 0
        # write_dump all atom ${dumpfile}
        next i
jump SELF loop1
        displace_atoms upper move ${xstep1} 0.0 0.0 units lattice
        displace_atoms upper move 0.00333333333333333 0.0 0.0 units lattice
        min_style ${style}
        min_style cg
        minimize ${etol} ${ftol} ${maxiter} ${maxeval}
        minimize 1e-12 ${ftol} ${maxiter} ${maxeval}
        minimize 1e-12 1e-08 ${maxiter} ${maxeval}
        minimize 1e-12 1e-08 10000 ${maxeval}
        minimize 1e-12 1e-08 10000 20000
WARNING: Resetting reneighboring criteria during minimization (../min.cpp:168)
Memory usage per processor = 3.35153 Mbytes
Step Temp PotEng Lx Ly Lz 
      66            0   -241.81958    2.2449075    38.881855    1.1224537 
      67            0   -241.81958    2.2449075    38.881855    1.1224537 
Loop time of 0.000522948 on 1 procs for 1 steps with 82 atoms

Minimization stats:
  Stopping criterion = linesearch alpha is zero
  Energy initial, next-to-last, final = 
        -241.819578196     -241.819578196     -241.819578196
  Force two-norm initial, final = 0.0611105 0.0611105
  Force max component initial, final = 0.0223138 0.0223138
  Final line search alpha, max atom move = 1.90735e-06 4.25601e-08
  Iterations, force evaluations = 1 20

Pair  time (%) = 0.000451971 (86.4275)
Neigh time (%) = 0 (0)
Comm  time (%) = 2.60727e-05 (4.98572)
Outpt time (%) = 0 (0)
Other time (%) = 4.49045e-05 (8.58681)

Nlocal:    82 ave 82 max 82 min
Histogram: 1 0 0 0 0 0 0 0 0 0
Nghost:    195 ave 195 max 195 min
Histogram: 1 0 0 0 0 0 0 0 0 0
Neighs:    718 ave 718 max 718 min
Histogram: 1 0 0 0 0 0 0 0 0 0

Total # of neighbors = 718
Ave neighs/atom = 8.7561
Neighbor list builds = 0
Dangerous builds = 0
        # write_dump all atom ${dumpfile}
        next i
jump SELF loop1
        displace_atoms upper move ${xstep1} 0.0 0.0 units lattice
        displace_atoms upper move 0.00333333333333333 0.0 0.0 units lattice
        min_style ${style}
        min_style cg
        minimize ${etol} ${ftol} ${maxiter} ${maxeval}
        minimize 1e-12 ${ftol} ${maxiter} ${maxeval}
        minimize 1e-12 1e-08 ${maxiter} ${maxeval}
        minimize 1e-12 1e-08 10000 ${maxeval}
        minimize 1e-12 1e-08 10000 20000
WARNING: Resetting reneighboring criteria during minimization (../min.cpp:168)
Memory usage per processor = 3.35153 Mbytes
Step Temp PotEng Lx Ly Lz 
      67            0   -241.81234    2.2449075    38.881855    1.1224537 
      68            0   -241.81237    2.2449075    38.881855    1.1224537 
      69            0   -241.81241    2.2449075    38.881855    1.1224537 
      70            0   -241.81255    2.2449075    38.881855    1.1224537 
      71            0   -241.81255    2.2449075    38.881855    1.1224537 
Loop time of 0.00115199 on 1 procs for 4 steps with 82 atoms

Minimization stats:
  Stopping criterion = linesearch alpha is zero
  Energy initial, next-to-last, final = 
        -241.812339915     -241.812546643     -241.812546643
  Force two-norm initial, final = 0.10705 0.0424478
  Force max component initial, final = 0.0449421 0.0112127
  Final line search alpha, max atom move = 3.8147e-06 4.2773e-08
  Iterations, force evaluations = 4 42

Pair  time (%) = 0.000987504 (85.7219)
Neigh time (%) = 0 (0)
Comm  time (%) = 5.71093e-05 (4.95746)
Outpt time (%) = 1.91085e-05 (1.65875)
Other time (%) = 8.82639e-05 (7.66189)

Nlocal:    82 ave 82 max 82 min
Histogram: 1 0 0 0 0 0 0 0 0 0
Nghost:    195 ave 195 max 195 min
Histogram: 1 0 0 0 0 0 0 0 0 0
Neighs:    718 ave 718 max 718 min
Histogram: 1 0 0 0 0 0 0 0 0 0

Total # of neighbors = 718
Ave neighs/atom = 8.7561
Neighbor list builds = 0
Dangerous builds = 0
        # write_dump all atom ${dumpfile}
        next i
jump SELF loop1
        displace_atoms upper move ${xstep1} 0.0 0.0 units lattice
        displace_atoms upper move 0.00333333333333333 0.0 0.0 units lattice
        min_style ${style}
        min_style cg
        minimize ${etol} ${ftol} ${maxiter} ${maxeval}
        minimize 1e-12 ${ftol} ${maxiter} ${maxeval}
        minimize 1e-12 1e-08 ${maxiter} ${maxeval}
        minimize 1e-12 1e-08 10000 ${maxeval}
        minimize 1e-12 1e-08 10000 20000
WARNING: Resetting reneighboring criteria during minimization (../min.cpp:168)
Memory usage per processor = 3.35153 Mbytes
Step Temp PotEng Lx Ly Lz 
      71            0   -241.80525    2.2449075    38.881465    1.1224537 
      72            0   -241.80527    2.2449075    38.881465    1.1224537 
      73            0   -241.80527    2.2449075    38.881465    1.1224537 
Loop time of 0.000824954 on 1 procs for 2 steps with 82 atoms

Minimization stats:
  Stopping criterion = linesearch alpha is zero
  Energy initial, next-to-last, final = 
        -241.805253393       -241.8052727       -241.8052727
  Force two-norm initial, final = 0.0774028 0.053779
  Force max component initial, final = 0.0325739 0.0177071
  Final line search alpha, max atom move = 3.8147e-06 6.75471e-08
  Iterations, force evaluations = 2 28

Pair  time (%) = 0.000711027 (86.1899)
Neigh time (%) = 0 (0)
Comm  time (%) = 4.42757e-05 (5.36705)
Outpt time (%) = 7.08445e-06 (0.85877)
Other time (%) = 6.25671e-05 (7.58431)

Nlocal:    82 ave 82 max 82 min
Histogram: 1 0 0 0 0 0 0 0 0 0
Nghost:    195 ave 195 max 195 min
Histogram: 1 0 0 0 0 0 0 0 0 0
Neighs:    718 ave 718 max 718 min
Histogram: 1 0 0 0 0 0 0 0 0 0

Total # of neighbors = 718
Ave neighs/atom = 8.7561
Neighbor list builds = 0
Dangerous builds = 0
        # write_dump all atom ${dumpfile}
        next i
jump SELF loop1
        displace_atoms upper move ${xstep1} 0.0 0.0 units lattice
        displace_atoms upper move 0.00333333333333333 0.0 0.0 units lattice
        min_style ${style}
        min_style cg
        minimize ${etol} ${ftol} ${maxiter} ${maxeval}
        minimize 1e-12 ${ftol} ${maxiter} ${maxeval}
[...]
  Force two-norm initial, final = 0.0486793 0.0499255
  Force max component initial, final = 0.0101095 0.0134922
  Final line search alpha, max atom move = 3.8147e-06 5.14686e-08
  Iterations, force evaluations = 3 36

Pair  time (%) = 0.000880598 (49.1984)
Neigh time (%) = 0 (0)
Comm  time (%) = 0.000672303 (37.5611)
Outpt time (%) = 5.49024e-05 (3.06736)
Other time (%) = 0.00018209 (10.1732)

Nlocal:    82 ave 82 max 82 min
Histogram: 1 0 0 0 0 0 0 0 0 0
Nghost:    195 ave 195 max 195 min
Histogram: 1 0 0 0 0 0 0 0 0 0
Neighs:    718 ave 718 max 718 min
Histogram: 1 0 0 0 0 0 0 0 0 0

Total # of neighbors = 718
Ave neighs/atom = 8.7561
Neighbor list builds = 0
Dangerous builds = 0
        # write_dump all atom ${dumpfile}
        next i
jump SELF loop1
        displace_atoms upper move ${xstep1} 0.0 0.0 units lattice
        displace_atoms upper move 0.00333333333333333 0.0 0.0 units lattice
        min_style ${style}
        min_style cg
        minimize ${etol} ${ftol} ${maxiter} ${maxeval}
        minimize 1e-12 ${ftol} ${maxiter} ${maxeval}
        minimize 1e-12 1e-08 ${maxiter} ${maxeval}
        minimize 1e-12 1e-08 10000 ${maxeval}
        minimize 1e-12 1e-08 10000 20000
WARNING: Resetting reneighboring criteria during minimization (../min.cpp:168)
Memory usage per processor = 3.35153 Mbytes
Step Temp PotEng Lx Ly Lz 
     755            0   -241.97969    2.2449075     38.90703    1.1224537 
     756            0   -241.97969    2.2449075     38.90703    1.1224537 
     757            0   -241.97969    2.2449075     38.90703    1.1224537 
Loop time of 0.000835972 on 1 procs for 2 steps with 82 atoms

Minimization stats:
  Stopping criterion = linesearch alpha is zero
  Energy initial, next-to-last, final = 
        -241.979685133     -241.979685683     -241.979685683
  Force two-norm initial, final = 0.0462448 0.0455897
  Force max component initial, final = 0.00964668 0.00913799
  Final line search alpha, max atom move = 3.8147e-06 3.48587e-08
  Iterations, force evaluations = 2 31

Pair  time (%) = 0.000701703 (83.9385)
Neigh time (%) = 0 (0)
Comm  time (%) = 4.01186e-05 (4.79903)
Outpt time (%) = 9.0939e-06 (1.08782)
Other time (%) = 8.5057e-05 (10.1746)

Nlocal:    82 ave 82 max 82 min
Histogram: 1 0 0 0 0 0 0 0 0 0
Nghost:    195 ave 195 max 195 min
Histogram: 1 0 0 0 0 0 0 0 0 0
Neighs:    718 ave 718 max 718 min
Histogram: 1 0 0 0 0 0 0 0 0 0

Total # of neighbors = 718
Ave neighs/atom = 8.7561
Neighbor list builds = 0
Dangerous builds = 0
        # write_dump all atom ${dumpfile}
        next i
jump SELF loop1
        displace_atoms upper move ${xstep1} 0.0 0.0 units lattice
        displace_atoms upper move 0.00333333333333333 0.0 0.0 units lattice
        min_style ${style}
        min_style cg
        minimize ${etol} ${ftol} ${maxiter} ${maxeval}
        minimize 1e-12 ${ftol} ${maxiter} ${maxeval}
        minimize 1e-12 1e-08 ${maxiter} ${maxeval}
        minimize 1e-12 1e-08 10000 ${maxeval}
        minimize 1e-12 1e-08 10000 20000
WARNING: Resetting reneighboring criteria during minimization (../min.cpp:168)
Memory usage per processor = 3.35153 Mbytes
Step Temp PotEng Lx Ly Lz 
     757            0   -241.98238    2.2449075    38.907025    1.1224537 
     758            0   -241.98238    2.2449075    38.907025    1.1224537 
Loop time of 0.000897077 on 1 procs for 1 steps with 82 atoms

Minimization stats:
  Stopping criterion = linesearch alpha is zero
  Energy initial, next-to-last, final = 
        -241.982381625     -241.982381625     -241.982381625
  Force two-norm initial, final = 0.0442173 0.0442173
  Force max component initial, final = 0.00763124 0.00763124
  Final line search alpha, max atom move = 3.8147e-06 2.91109e-08
  Iterations, force evaluations = 1 19

Pair  time (%) = 0.000433891 (48.3672)
Neigh time (%) = 0 (0)
Comm  time (%) = 2.1934e-05 (2.44506)
Outpt time (%) = 0 (0)
Other time (%) = 0.000441252 (49.1877)

Nlocal:    82 ave 82 max 82 min
Histogram: 1 0 0 0 0 0 0 0 0 0
Nghost:    195 ave 195 max 195 min
Histogram: 1 0 0 0 0 0 0 0 0 0
Neighs:    718 ave 718 max 718 min
Histogram: 1 0 0 0 0 0 0 0 0 0

Total # of neighbors = 718
Ave neighs/atom = 8.7561
Neighbor list builds = 0
Dangerous builds = 0
        # write_dump all atom ${dumpfile}
        next i
jump SELF loop1
        displace_atoms upper move ${xstep1} 0.0 0.0 units lattice
        displace_atoms upper move 0.00333333333333333 0.0 0.0 units lattice
        min_style ${style}
        min_style cg
        minimize ${etol} ${ftol} ${maxiter} ${maxeval}
        minimize 1e-12 ${ftol} ${maxiter} ${maxeval}
        minimize 1e-12 1e-08 ${maxiter} ${maxeval}
        minimize 1e-12 1e-08 10000 ${maxeval}
        minimize 1e-12 1e-08 10000 20000
WARNING: Resetting reneighboring criteria during minimization (../min.cpp:168)
Memory usage per processor = 3.35153 Mbytes
Step Temp PotEng Lx Ly Lz 
     758            0   -241.98491    2.2449075    38.907025    1.1224537 
     759            0   -241.98491    2.2449075    38.907025    1.1224537 
Loop time of 0.00142096 on 1 procs for 1 steps with 82 atoms

Minimization stats:
  Stopping criterion = linesearch alpha is zero
  Energy initial, next-to-last, final = 
        -241.984913978     -241.984913978     -241.984913978
  Force two-norm initial, final = 0.0438134 0.0438134
  Force max component initial, final = 0.00763124 0.00763124
  Final line search alpha, max atom move = 3.8147e-06 2.91109e-08
  Iterations, force evaluations = 1 19

Pair  time (%) = 0.000427904 (30.1138)
Neigh time (%) = 0 (0)
Comm  time (%) = 2.58731e-05 (1.82082)
Outpt time (%) = 0 (0)
Other time (%) = 0.000967179 (68.0654)

Nlocal:    82 ave 82 max 82 min
Histogram: 1 0 0 0 0 0 0 0 0 0
Nghost:    195 ave 195 max 195 min
Histogram: 1 0 0 0 0 0 0 0 0 0
Neighs:    718 ave 718 max 718 min
Histogram: 1 0 0 0 0 0 0 0 0 0

Total # of neighbors = 718
Ave neighs/atom = 8.7561
Neighbor list builds = 0
Dangerous builds = 0
        # write_dump all atom ${dumpfile}
        next i
jump SELF loop1
        displace_atoms upper move ${xstep1} 0.0 0.0 units lattice
        displace_atoms upper move 0.00333333333333333 0.0 0.0 units lattice
        min_style ${style}
        min_style cg
        minimize ${etol} ${ftol} ${maxiter} ${maxeval}
        minimize 1e-12 ${ftol} ${maxiter} ${maxeval}
        minimize 1e-12 1e-08 ${maxiter} ${maxeval}
        minimize 1e-12 1e-08 10000 ${maxeval}
        minimize 1e-12 1e-08 10000 20000
WARNING: Resetting reneighboring criteria during minimization (../min.cpp:168)
Memory usage per processor = 3.35153 Mbytes
Step Temp PotEng Lx Ly Lz 
     759            0   -241.98729    2.2449075    38.907025    1.1224537 
     760            0   -241.98729    2.2449075    38.907025    1.1224537 
Loop time of 0.00394211 on 1 procs for 1 steps with 82 atoms

Minimization stats:
  Stopping criterion = linesearch alpha is zero
  Energy initial, next-to-last, final = 
        -241.987290705     -241.987290705     -241.987290705
  Force two-norm initial, final = 0.0442032 0.0442032
  Force max component initial, final = 0.00763124 0.00763124
  Final line search alpha, max atom move = 3.8147e-06 2.91109e-08
  Iterations, force evaluations = 1 19

Pair  time (%) = 0.000428947 (10.8811)
Neigh time (%) = 0 (0)
Comm  time (%) = 2.69599e-05 (0.683895)
Outpt time (%) = 0 (0)
Other time (%) = 0.00348621 (88.435)

Nlocal:    82 ave 82 max 82 min
Histogram: 1 0 0 0 0 0 0 0 0 0
Nghost:    195 ave 195 max 195 min
Histogram: 1 0 0 0 0 0 0 0 0 0
Neighs:    718 ave 718 max 718 min
Histogram: 1 0 0 0 0 0 0 0 0 0

Total # of neighbors = 718
Ave neighs/atom = 8.7561
Neighbor list builds = 0
Dangerous builds = 0
        # write_dump all atom ${dumpfile}
        next i
jump SELF loop1
        displace_atoms upper move ${xstep1} 0.0 0.0 units lattice
        displace_atoms upper move 0.00333333333333333 0.0 0.0 units lattice
        min_style ${style}
        min_style cg
        minimize ${etol} ${ftol} ${maxiter} ${maxeval}
        minimize 1e-12 ${ftol} ${maxiter} ${maxeval}
        minimize 1e-12 1e-08 ${maxiter} ${maxeval}
        minimize 1e-12 1e-08 10000 ${maxeval}
        minimize 1e-12 1e-08 10000 20000
WARNING: Resetting reneighboring criteria during minimization (../min.cpp:168)
Memory usage per processor = 3.35153 Mbytes
Step Temp PotEng Lx Ly Lz 
     760            0   -241.98944    2.2449075    38.907025    1.1224537 
     761            0   -241.98944    2.2449075    38.907025    1.1224537 
Loop time of 0.000519908 on 1 procs for 1 steps with 82 atoms

Minimization stats:
  Stopping criterion = linesearch alpha is zero
  Energy initial, next-to-last, final = 
         -241.98944281      -241.98944281      -241.98944281
  Force two-norm initial, final = 0.0422447 0.0422447
  Force max component initial, final = 0.00763124 0.00763124
  Final line search alpha, max atom move = 3.8147e-06 2.91109e-08
  Iterations, force evaluations = 1 19

Pair  time (%) = 0.000449089 (86.3787)
Neigh time (%) = 0 (0)
Comm  time (%) = 2.82639e-05 (5.43633)
Outpt time (%) = 0 (0)
Other time (%) = 4.25543e-05 (8.18498)

Nlocal:    82 ave 82 max 82 min
Histogram: 1 0 0 0 0 0 0 0 0 0
Nghost:    195 ave 195 max 195 min
Histogram: 1 0 0 0 0 0 0 0 0 0
Neighs:    718 ave 718 max 718 min
Histogram: 1 0 0 0 0 0 0 0 0 0

Total # of neighbors = 718
Ave neighs/atom = 8.7561
Neighbor list builds = 0
Dangerous builds = 0
        # write_dump all atom ${dumpfile}
        next i
jump SELF loop1
        displace_atoms upper move ${xstep1} 0.0 0.0 units lattice
        displace_atoms upper move 0.00333333333333333 0.0 0.0 units lattice
        min_style ${style}
        min_style cg
        minimize ${etol} ${ftol} ${maxiter} ${maxeval}
        minimize 1e-12 ${ftol} ${maxiter} ${maxeval}
        minimize 1e-12 1e-08 ${maxiter} ${maxeval}
        minimize 1e-12 1e-08 10000 ${maxeval}
        minimize 1e-12 1e-08 10000 20000
WARNING: Resetting reneighboring criteria during minimization (../min.cpp:168)
Memory usage per processor = 3.35153 Mbytes
Step Temp PotEng Lx Ly Lz 
     761            0    -241.9913    2.2449075    38.907025    1.1224537 
     762            0    -241.9913    2.2449075    38.907025    1.1224537 
     763            0    -241.9913    2.2449075    38.907025    1.1224537 
Loop time of 0.00113904 on 1 procs for 2 steps with 82 atoms

Minimization stats:
  Stopping criterion = linesearch alpha is zero
  Energy initial, next-to-last, final = 
        -241.991299467     -241.991300401     -241.991300401
  Force two-norm initial, final = 0.0428646 0.0422307
  Force max component initial, final = 0.00763124 0.00751033
  Final line search alpha, max atom move = 3.8147e-06 2.86496e-08
  Iterations, force evaluations = 2 30

Pair  time (%) = 0.000511508 (44.9068)
Neigh time (%) = 0 (0)
Comm  time (%) = 3.01647e-05 (2.64825)
Outpt time (%) = 6.10074e-06 (0.535602)
Other time (%) = 0.000591271 (51.9094)

Nlocal:    82 ave 82 max 82 min
Histogram: 1 0 0 0 0 0 0 0 0 0
Nghost:    195 ave 195 max 195 min
Histogram: 1 0 0 0 0 0 0 0 0 0
Neighs:    718 ave 718 max 718 min
Histogram: 1 0 0 0 0 0 0 0 0 0

Total # of neighbors = 718
Ave neighs/atom = 8.7561
Neighbor list builds = 0
Dangerous builds = 0
        # write_dump all atom ${dumpfile}
        next i
jump SELF loop1
        displace_atoms upper move ${xstep1} 0.0 0.0 units lattice
        displace_atoms upper move 0.00333333333333333 0.0 0.0 units lattice
        min_style ${style}
        min_style cg
        minimize ${etol} ${ftol} ${maxiter} ${maxeval}
        minimize 1e-12 ${ftol} ${maxiter} ${maxeval}
        minimize 1e-12 1e-08 ${maxiter} ${maxeval}
        minimize 1e-12 1e-08 10000 ${maxeval}
        minimize 1e-12 1e-08 10000 20000
WARNING: Resetting reneighboring criteria during minimization (../min.cpp:168)
Memory usage per processor = 3.35153 Mbytes
Step Temp PotEng Lx Ly Lz 
     763            0   -241.99281    2.2449075    38.907016    1.1224537 
     764            0   -241.99281    2.2449075    38.907016    1.1224537 
     765            0   -241.99281    2.2449075    38.907016    1.1224537 
Loop time of 0.00369489 on 1 procs for 2 steps with 82 atoms

Minimization stats:
  Stopping criterion = linesearch alpha is zero
  Energy initial, next-to-last, final = 
        -241.992806478     -241.992806744     -241.992806744
  Force two-norm initial, final = 0.0463288 0.0460136
  Force max component initial, final = 0.0104811 0.010214
  Final line search alpha, max atom move = 3.8147e-06 3.89632e-08
  Iterations, force evaluations = 2 32

Pair  time (%) = 0.000711084 (19.2451)
Neigh time (%) = 0 (0)
Comm  time (%) = 4.18199e-05 (1.13183)
Outpt time (%) = 0.00286607 (77.5685)
Other time (%) = 7.59154e-05 (2.05461)

Nlocal:    82 ave 82 max 82 min
Histogram: 1 0 0 0 0 0 0 0 0 0
Nghost:    195 ave 195 max 195 min
Histogram: 1 0 0 0 0 0 0 0 0 0
Neighs:    718 ave 718 max 718 min
Histogram: 1 0 0 0 0 0 0 0 0 0

Total # of neighbors = 718
Ave neighs/atom = 8.7561
Neighbor list builds = 0
Dangerous builds = 0
        # write_dump all atom ${dumpfile}
        next i
jump SELF loop1
        displace_atoms upper move ${xstep1} 0.0 0.0 units lattice
        displace_atoms upper move 0.00333333333333333 0.0 0.0 units lattice
        min_style ${style}
        min_style cg
        minimize ${etol} ${ftol} ${maxiter} ${maxeval}
        minimize 1e-12 ${ftol} ${maxiter} ${maxeval}
        minimize 1e-12 1e-08 ${maxiter} ${maxeval}
        minimize 1e-12 1e-08 10000 ${maxeval}
        minimize 1e-12 1e-08 10000 20000
WARNING: Resetting reneighboring criteria during minimization (../min.cpp:168)
Memory usage per processor = 3.35153 Mbytes
Step Temp PotEng Lx Ly Lz 
     765            0   -241.99401    2.2449075    38.907013    1.1224537 
     766            0   -241.99401    2.2449075    38.907013    1.1224537 
Loop time of 0.000496987 on 1 procs for 1 steps with 82 atoms

Minimization stats:
  Stopping criterion = linesearch alpha is zero
  Energy initial, next-to-last, final = 
        -241.994006765     -241.994006765     -241.994006765
  Force two-norm initial, final = 0.0512002 0.0512002
  Force max component initial, final = 0.0151988 0.0151988
  Final line search alpha, max atom move = 3.8147e-06 5.7979e-08
  Iterations, force evaluations = 1 19

Pair  time (%) = 0.000429682 (86.4574)
Neigh time (%) = 0 (0)
Comm  time (%) = 2.44295e-05 (4.91553)
Outpt time (%) = 0 (0)
Other time (%) = 4.28756e-05 (8.62712)

Nlocal:    82 ave 82 max 82 min
Histogram: 1 0 0 0 0 0 0 0 0 0
Nghost:    195 ave 195 max 195 min
Histogram: 1 0 0 0 0 0 0 0 0 0
Neighs:    718 ave 718 max 718 min
Histogram: 1 0 0 0 0 0 0 0 0 0

Total # of neighbors = 718
Ave neighs/atom = 8.7561
Neighbor list builds = 0
Dangerous builds = 0
        # write_dump all atom ${dumpfile}
        next i
jump SELF loop1
        displace_atoms upper move ${xstep1} 0.0 0.0 units lattice
        displace_atoms upper move 0.00333333333333333 0.0 0.0 units lattice
        min_style ${style}
        min_style cg
        minimize ${etol} ${ftol} ${maxiter} ${maxeval}
        minimize 1e-12 ${ftol} ${maxiter} ${maxeval}
        minimize 1e-12 1e-08 ${maxiter} ${maxeval}
        minimize 1e-12 1e-08 10000 ${maxeval}
        minimize 1e-12 1e-08 10000 20000
WARNING: Resetting reneighboring criteria during minimization (../min.cpp:168)
Memory usage per processor = 3.35153 Mbytes
Step Temp PotEng Lx Ly Lz 
     766            0   -241.99483    2.2449075    38.907013    1.1224537 
     767            0   -241.99483    2.2449075    38.907013    1.1224537 
Loop time of 0.000661104 on 1 procs for 1 steps with 82 atoms

Minimization stats:
  Stopping criterion = linesearch alpha is zero
  Energy initial, next-to-last, final = 
         -241.99482695      -241.99482695      -241.99482695
  Force two-norm initial, final = 0.0554297 0.0554297
  Force max component initial, final = 0.0185519 0.0185519
  Final line search alpha, max atom move = 3.8147e-06 7.077e-08
  Iterations, force evaluations = 1 19

Pair  time (%) = 0.000495236 (74.9104)
Neigh time (%) = 0 (0)
Comm  time (%) = 2.5972e-05 (3.92858)
Outpt time (%) = 0 (0)
Other time (%) = 0.000139896 (21.161)

Nlocal:    82 ave 82 max 82 min
Histogram: 1 0 0 0 0 0 0 0 0 0
Nghost:    185 ave 185 max 185 min
Histogram: 1 0 0 0 0 0 0 0 0 0
Neighs:    718 ave 718 max 718 min
Histogram: 1 0 0 0 0 0 0 0 0 0

Total # of neighbors = 718
Ave neighs/atom = 8.7561
Neighbor list builds = 0
Dangerous builds = 0
        # write_dump all atom ${dumpfile}
        next i
jump SELF loop1
        displace_atoms upper move ${xstep1} 0.0 0.0 units lattice
        displace_atoms upper move 0.00333333333333333 0.0 0.0 units lattice
        min_style ${style}
        min_style cg
        minimize ${etol} ${ftol} ${maxiter} ${maxeval}
        minimize 1e-12 ${ftol} ${maxiter} ${maxeval}
        minimize 1e-12 1e-08 ${maxiter} ${maxeval}
        minimize 1e-12 1e-08 10000 ${maxeval}
        minimize 1e-12 1e-08 10000 20000
WARNING: Resetting reneighboring criteria during minimization (../min.cpp:168)
Memory usage per processor = 3.35153 Mbytes
Step Temp PotEng Lx Ly Lz 
     767            0   -241.99535    2.2449075    38.907013    1.1224537 
     768            0   -241.99535    2.2449075    38.907013    1.1224537 
Loop time of 0.000567997 on 1 procs for 1 steps with 82 atoms

Minimization stats:
  Stopping criterion = linesearch alpha is zero
  Energy initial, next-to-last, final = 
        -241.995350478     -241.995350478     -241.995350478
  Force two-norm initial, final = 0.0584423 0.0584423
  Force max component initial, final = 0.0207415 0.0207415
  Final line search alpha, max atom move = 1.90735e-06 3.95612e-08
  Iterations, force evaluations = 1 20

Pair  time (%) = 0.000494048 (86.9807)
Neigh time (%) = 0 (0)
Comm  time (%) = 2.13576e-05 (3.76016)
Outpt time (%) = 0 (0)
Other time (%) = 5.25914e-05 (9.25911)

Nlocal:    82 ave 82 max 82 min
Histogram: 1 0 0 0 0 0 0 0 0 0
Nghost:    185 ave 185 max 185 min
Histogram: 1 0 0 0 0 0 0 0 0 0
Neighs:    718 ave 718 max 718 min
Histogram: 1 0 0 0 0 0 0 0 0 0

Total # of neighbors = 718
Ave neighs/atom = 8.7561
Neighbor list builds = 0
Dangerous builds = 0
        # write_dump all atom ${dumpfile}
        next i
jump SELF loop1
        displace_atoms upper move ${xstep1} 0.0 0.0 units lattice
        displace_atoms upper move 0.00333333333333333 0.0 0.0 units lattice
        min_style ${style}
        min_style cg
        minimize ${etol} ${ftol} ${maxiter} ${maxeval}
        minimize 1e-12 ${ftol} ${maxiter} ${maxeval}
        minimize 1e-12 1e-08 ${maxiter} ${maxeval}
        minimize 1e-12 1e-08 10000 ${maxeval}
        minimize 1e-12 1e-08 10000 20000
WARNING: Resetting reneighboring criteria during minimization (../min.cpp:168)
Memory usage per processor = 3.35153 Mbytes
Step Temp PotEng Lx Ly Lz 
     768            0   -241.99551    2.2449075    38.907013    1.1224537 
     769            0   -241.99551    2.2449075    38.907013    1.1224537 
Loop time of 0.00055311 on 1 procs for 1 steps with 82 atoms

Minimization stats:
  Stopping criterion = linesearch alpha is zero
  Energy initial, next-to-last, final = 
        -241.995513645     -241.995513645     -241.995513645
  Force two-norm initial, final = 0.0593901 0.0593901
  Force max component initial, final = 0.021406 0.021406
  Final line search alpha, max atom move = 1.90735e-06 4.08286e-08
  Iterations, force evaluations = 1 20

Pair  time (%) = 0.000482062 (87.1548)
Neigh time (%) = 0 (0)
Comm  time (%) = 2.30221e-05 (4.16229)
Outpt time (%) = 0 (0)
Other time (%) = 4.80262e-05 (8.68294)

Nlocal:    82 ave 82 max 82 min
Histogram: 1 0 0 0 0 0 0 0 0 0
Nghost:    185 ave 185 max 185 min
Histogram: 1 0 0 0 0 0 0 0 0 0
Neighs:    718 ave 718 max 718 min
Histogram: 1 0 0 0 0 0 0 0 0 0

Total # of neighbors = 718
Ave neighs/atom = 8.7561
Neighbor list builds = 0
Dangerous builds = 0
        # write_dump all atom ${dumpfile}
        next i
jump SELF loop1


