LAMMPS (28 Jun 2014)
# attempt at getting generalized stacking fault (GSF) energy curve

#file prefix
variable prefix string gsf_V_inter5new2
variable dumpfile string ${prefix}.*.dump
variable dumpfile string gsf_V_inter5new2.*.dump
variable restartfile string ${prefix}.*.equil
variable restartfile string gsf_V_inter5new2.*.equil

#Mass (g/mol)
variable m equal 1

# lattice constant (in Angstroms) and orientation of axes (given by lattice vectors)
variable rho equal 0.9165
variable x1 equal 1
variable x2 equal 0
variable x3 equal 0
variable y1 equal 0
variable y2 equal 1
variable y3 equal 0
# length of lattice in different directions (using orientation of lattice vectors)
variable ax equal sqrt(${x1}*${x1}+${x2}*${x2}+${x3}*${x3})
variable ax equal sqrt(1*${x1}+${x2}*${x2}+${x3}*${x3})
variable ax equal sqrt(1*1+${x2}*${x2}+${x3}*${x3})
variable ax equal sqrt(1*1+0*${x2}+${x3}*${x3})
variable ax equal sqrt(1*1+0*0+${x3}*${x3})
variable ax equal sqrt(1*1+0*0+0*${x3})
variable ax equal sqrt(1*1+0*0+0*0)
variable ay equal sqrt(${y1}*${y1}+${y2}*${y2}+${y3}*${y3})
variable ay equal sqrt(0*${y1}+${y2}*${y2}+${y3}*${y3})
variable ay equal sqrt(0*0+${y2}*${y2}+${y3}*${y3})
variable ay equal sqrt(0*0+1*${y2}+${y3}*${y3})
variable ay equal sqrt(0*0+1*1+${y3}*${y3})
variable ay equal sqrt(0*0+1*1+0*${y3})
variable ay equal sqrt(0*0+1*1+0*0)
variable az equal 1

# size of box in lattice units
variable lxpos equal 1
variable lxneg equal -1*${lxpos}
variable lxneg equal -1*1
variable lypos equal 10
variable lyneg equal -1*${lypos}
variable lyneg equal -1*10
variable lzpos equal 0
variable lzneg equal -1

# Define minimization parameters and damping
variable etol equal 1.0e-12
variable ftol equal 1.0e-8
variable maxiter equal 10000
variable maxeval equal 20000
variable style string cg

# boundary conditions
dimension	2
boundary	p s p
atom_style	atomic

# create geometry
units		lj
lattice         hex ${rho}
lattice         hex 0.9165
Lattice spacing in x,y,z = 1.12245 1.94415 1.12245
region		myregion block ${lxneg} ${lxpos} ${lyneg} ${lypos} ${lzneg} ${lzpos} units lattice
region		myregion block -1 ${lxpos} ${lyneg} ${lypos} ${lzneg} ${lzpos} units lattice
region		myregion block -1 1 ${lyneg} ${lypos} ${lzneg} ${lzpos} units lattice
region		myregion block -1 1 -10 ${lypos} ${lzneg} ${lzpos} units lattice
region		myregion block -1 1 -10 10 ${lzneg} ${lzpos} units lattice
region		myregion block -1 1 -10 10 -1 ${lzpos} units lattice
region		myregion block -1 1 -10 10 -1 0 units lattice
create_box	3 myregion
Created orthogonal box = (-1.12245 -19.4415 -1.12245) to (1.12245 19.4415 0)
  1 by 1 by 1 MPI processor grid
create_atoms	1 box
Created 82 atoms

# define masses
mass * $m
mass * 1

# my fake/morse potential
pair_style      table linear 3001
pair_coeff      * * vpotential_inter5new2 dummy
neighbor	0.3 bin
neigh_modify	delay 5

# define groups
region	    upper block INF INF 0.01 ${lypos} INF INF units lattice
region	    upper block INF INF 0.01 10 INF INF units lattice
group		upper region upper
40 atoms in group upper

# Setup output
thermo 1
thermo_style custom step temp pe lx ly lz
thermo_modify norm no

# Compute initial state by relaxing box
min_style ${style}
min_style cg
minimize ${etol} ${ftol} ${maxiter} ${maxeval}
minimize 1e-12 ${ftol} ${maxiter} ${maxeval}
minimize 1e-12 1e-08 ${maxiter} ${maxeval}
minimize 1e-12 1e-08 10000 ${maxeval}
minimize 1e-12 1e-08 10000 20000
WARNING: Resetting reneighboring criteria during minimization (../min.cpp:168)
Memory usage per processor = 3.35169 Mbytes
Step Temp PotEng Lx Ly Lz 
       0            0   -241.99993    2.2449075    38.890715    1.1224537 
       1            0   -241.99993    2.2449075    38.890715    1.1224537 
       2            0   -241.99993    2.2449075    38.890715    1.1224537 
Loop time of 0.000372059 on 1 procs for 2 steps with 82 atoms

Minimization stats:
  Stopping criterion = linesearch alpha is zero
  Energy initial, next-to-last, final = 
        -241.999927696     -241.999929863     -241.999929863
  Force two-norm initial, final = 0.000778805 0.00455994
  Force max component initial, final = 0.000389403 0.00179508
  Final line search alpha, max atom move = 0.000488281 8.76506e-07
  Iterations, force evaluations = 2 16

Pair  time (%) = 0.000273232 (73.4379)
Neigh time (%) = 0 (0)
Comm  time (%) = 3.04694e-05 (8.1894)
Outpt time (%) = 8.89588e-06 (2.39099)
Other time (%) = 5.94615e-05 (15.9817)

Nlocal:    82 ave 82 max 82 min
Histogram: 1 0 0 0 0 0 0 0 0 0
Nghost:    185 ave 185 max 185 min
Histogram: 1 0 0 0 0 0 0 0 0 0
Neighs:    718 ave 718 max 718 min
Histogram: 1 0 0 0 0 0 0 0 0 0

Total # of neighbors = 718
Ave neighs/atom = 8.7561
Neighbor list builds = 0
Dangerous builds = 0

# don't allow atoms to relax in x-direction
fix 2 all setforce 0.0 NULL 0.0

# GSF energy curve will have 100*2 steps
variable nsteps equal 300
variable sstep1 equal 1.
variable xstep1 equal ${sstep1}/(${ax}*${nsteps})
variable xstep1 equal 1/(${ax}*${nsteps})
variable xstep1 equal 1/(1*${nsteps})
variable xstep1 equal 1/(1*300)

variable i loop ${nsteps}
variable i loop 300
label loop1
        displace_atoms upper move ${xstep1} 0.0 0.0 units lattice
        displace_atoms upper move 0.00333333333333333 0.0 0.0 units lattice
        min_style ${style}
        min_style cg
        minimize ${etol} ${ftol} ${maxiter} ${maxeval}
        minimize 1e-12 ${ftol} ${maxiter} ${maxeval}
        minimize 1e-12 1e-08 ${maxiter} ${maxeval}
        minimize 1e-12 1e-08 10000 ${maxeval}
        minimize 1e-12 1e-08 10000 20000
WARNING: Resetting reneighboring criteria during minimization (../min.cpp:168)
Memory usage per processor = 3.35169 Mbytes
Step Temp PotEng Lx Ly Lz 
       2            0   -241.99976    2.2449075    38.890812    1.1224537 
       3            0   -241.99976    2.2449075    38.890812    1.1224537 
Loop time of 0.000249985 on 1 procs for 1 steps with 82 atoms

Minimization stats:
  Stopping criterion = linesearch alpha is zero
  Energy initial, next-to-last, final = 
        -241.999757399     -241.999757399     -241.999757399
  Force two-norm initial, final = 0.00478129 0.00478129
  Force max component initial, final = 0.00179508 0.00179508
  Final line search alpha, max atom move = 0.000488281 8.76506e-07
  Iterations, force evaluations = 1 12

Pair  time (%) = 0.000204136 (81.6595)
Neigh time (%) = 0 (0)
Comm  time (%) = 1.80607e-05 (7.22471)
Outpt time (%) = 0 (0)
Other time (%) = 2.77879e-05 (11.1158)

Nlocal:    82 ave 82 max 82 min
Histogram: 1 0 0 0 0 0 0 0 0 0
Nghost:    185 ave 185 max 185 min
Histogram: 1 0 0 0 0 0 0 0 0 0
Neighs:    718 ave 718 max 718 min
Histogram: 1 0 0 0 0 0 0 0 0 0

Total # of neighbors = 718
Ave neighs/atom = 8.7561
Neighbor list builds = 0
Dangerous builds = 0
        # write_dump all atom ${dumpfile}
        next i
jump SELF loop1
        displace_atoms upper move ${xstep1} 0.0 0.0 units lattice
        displace_atoms upper move 0.00333333333333333 0.0 0.0 units lattice
        min_style ${style}
        min_style cg
        minimize ${etol} ${ftol} ${maxiter} ${maxeval}
        minimize 1e-12 ${ftol} ${maxiter} ${maxeval}
        minimize 1e-12 1e-08 ${maxiter} ${maxeval}
        minimize 1e-12 1e-08 10000 ${maxeval}
        minimize 1e-12 1e-08 10000 20000
WARNING: Resetting reneighboring criteria during minimization (../min.cpp:168)
Memory usage per processor = 3.35169 Mbytes
Step Temp PotEng Lx Ly Lz 
       3            0   -241.99924    2.2449075    38.890812    1.1224537 
       4            0   -241.99924    2.2449075    38.890812    1.1224537 
Loop time of 0.000331971 on 1 procs for 1 steps with 82 atoms

Minimization stats:
  Stopping criterion = linesearch alpha is zero
  Energy initial, next-to-last, final = 
        -241.999241512     -241.999241512     -241.999241512
  Force two-norm initial, final = 0.00732734 0.00732734
  Force max component initial, final = 0.00286779 0.00286779
  Final line search alpha, max atom move = 0.00012207 3.50072e-07
  Iterations, force evaluations = 1 14

Pair  time (%) = 0.000279044 (84.0568)
Neigh time (%) = 0 (0)
Comm  time (%) = 2.13048e-05 (6.41767)
Outpt time (%) = 0 (0)
Other time (%) = 3.1622e-05 (9.52553)

Nlocal:    82 ave 82 max 82 min
Histogram: 1 0 0 0 0 0 0 0 0 0
Nghost:    185 ave 185 max 185 min
Histogram: 1 0 0 0 0 0 0 0 0 0
Neighs:    718 ave 718 max 718 min
Histogram: 1 0 0 0 0 0 0 0 0 0

Total # of neighbors = 718
Ave neighs/atom = 8.7561
Neighbor list builds = 0
Dangerous builds = 0
        # write_dump all atom ${dumpfile}
        next i
jump SELF loop1
        displace_atoms upper move ${xstep1} 0.0 0.0 units lattice
        displace_atoms upper move 0.00333333333333333 0.0 0.0 units lattice
        min_style ${style}
        min_style cg
        minimize ${etol} ${ftol} ${maxiter} ${maxeval}
        minimize 1e-12 ${ftol} ${maxiter} ${maxeval}
        minimize 1e-12 1e-08 ${maxiter} ${maxeval}
        minimize 1e-12 1e-08 10000 ${maxeval}
        minimize 1e-12 1e-08 10000 20000
WARNING: Resetting reneighboring criteria during minimization (../min.cpp:168)
Memory usage per processor = 3.35169 Mbytes
Step Temp PotEng Lx Ly Lz 
       4            0   -241.99838    2.2449075    38.890812    1.1224537 
       5            0   -241.99838    2.2449075    38.890812    1.1224537 
Loop time of 0.000830038 on 1 procs for 1 steps with 82 atoms

Minimization stats:
  Stopping criterion = linesearch alpha is zero
  Energy initial, next-to-last, final = 
        -241.998383655     -241.998383655     -241.998383655
  Force two-norm initial, final = 0.01366 0.01366
  Force max component initial, final = 0.00643821 0.00643821
  Final line search alpha, max atom move = 6.10352e-05 3.92957e-07
  Iterations, force evaluations = 1 15

Pair  time (%) = 0.000745603 (89.8276)
Neigh time (%) = 0 (0)
Comm  time (%) = 3.38972e-05 (4.08382)
Outpt time (%) = 0 (0)
Other time (%) = 5.0538e-05 (6.08863)

Nlocal:    82 ave 82 max 82 min
Histogram: 1 0 0 0 0 0 0 0 0 0
Nghost:    185 ave 185 max 185 min
Histogram: 1 0 0 0 0 0 0 0 0 0
Neighs:    718 ave 718 max 718 min
Histogram: 1 0 0 0 0 0 0 0 0 0

Total # of neighbors = 718
Ave neighs/atom = 8.7561
Neighbor list builds = 0
Dangerous builds = 0
        # write_dump all atom ${dumpfile}
        next i
jump SELF loop1
        displace_atoms upper move ${xstep1} 0.0 0.0 units lattice
        displace_atoms upper move 0.00333333333333333 0.0 0.0 units lattice
        min_style ${style}
        min_style cg
        minimize ${etol} ${ftol} ${maxiter} ${maxeval}
        minimize 1e-12 ${ftol} ${maxiter} ${maxeval}
        minimize 1e-12 1e-08 ${maxiter} ${maxeval}
        minimize 1e-12 1e-08 10000 ${maxeval}
        minimize 1e-12 1e-08 10000 20000
WARNING: Resetting reneighboring criteria during minimization (../min.cpp:168)
Memory usage per processor = 3.35169 Mbytes
Step Temp PotEng Lx Ly Lz 
       5            0   -241.99718    2.2449075    38.890812    1.1224537 
       6            0   -241.99718    2.2449075    38.890812    1.1224537 
Loop time of 0.000341091 on 1 procs for 1 steps with 82 atoms

Minimization stats:
  Stopping criterion = linesearch alpha is zero
  Energy initial, next-to-last, final = 
        -241.997184208     -241.997184208     -241.997184208
  Force two-norm initial, final = 0.0233072 0.0233072
  Force max component initial, final = 0.0114284 0.0114284
  Final line search alpha, max atom move = 1.52588e-05 1.74383e-07
  Iterations, force evaluations = 1 17

Pair  time (%) = 0.000281257 (82.4579)
Neigh time (%) = 0 (0)
Comm  time (%) = 2.00606e-05 (5.88129)
Outpt time (%) = 0 (0)
Other time (%) = 3.9774e-05 (11.6608)

Nlocal:    82 ave 82 max 82 min
Histogram: 1 0 0 0 0 0 0 0 0 0
Nghost:    185 ave 185 max 185 min
Histogram: 1 0 0 0 0 0 0 0 0 0
Neighs:    718 ave 718 max 718 min
Histogram: 1 0 0 0 0 0 0 0 0 0

Total # of neighbors = 718
Ave neighs/atom = 8.7561
Neighbor list builds = 0
Dangerous builds = 0
        # write_dump all atom ${dumpfile}
        next i
jump SELF loop1
        displace_atoms upper move ${xstep1} 0.0 0.0 units lattice
        displace_atoms upper move 0.00333333333333333 0.0 0.0 units lattice
        min_style ${style}
        min_style cg
        minimize ${etol} ${ftol} ${maxiter} ${maxeval}
        minimize 1e-12 ${ftol} ${maxiter} ${maxeval}
        minimize 1e-12 1e-08 ${maxiter} ${maxeval}
        minimize 1e-12 1e-08 10000 ${maxeval}
        minimize 1e-12 1e-08 10000 20000
WARNING: Resetting reneighboring criteria during minimization (../min.cpp:168)
Memory usage per processor = 3.35169 Mbytes
Step Temp PotEng Lx Ly Lz 
       6            0   -241.99564    2.2449075    38.890812    1.1224537 
       7            0   -241.99564    2.2449075    38.890812    1.1224537 
       8            0   -241.99564    2.2449075    38.890812    1.1224537 
       9            0   -241.99564    2.2449075    38.890812    1.1224537 
Loop time of 0.000828029 on 1 procs for 3 steps with 82 atoms

Minimization stats:
  Stopping criterion = linesearch alpha is zero
  Energy initial, next-to-last, final = 
        -241.995643567     -241.995644433     -241.995644433
  Force two-norm initial, final = 0.0359625 0.0312651
  Force max component initial, final = 0.0178361 0.015482
  Final line search alpha, max atom move = 7.62939e-06 1.18118e-07
  Iterations, force evaluations = 3 42

Pair  time (%) = 0.000660667 (79.788)
Neigh time (%) = 0 (0)
Comm  time (%) = 6.16909e-05 (7.45034)
Outpt time (%) = 1.19157e-05 (1.43904)
Other time (%) = 9.37548e-05 (11.3227)

Nlocal:    82 ave 82 max 82 min
Histogram: 1 0 0 0 0 0 0 0 0 0
Nghost:    185 ave 185 max 185 min
Histogram: 1 0 0 0 0 0 0 0 0 0
Neighs:    718 ave 718 max 718 min
Histogram: 1 0 0 0 0 0 0 0 0 0

Total # of neighbors = 718
Ave neighs/atom = 8.7561
Neighbor list builds = 0
Dangerous builds = 0
        # write_dump all atom ${dumpfile}
        next i
jump SELF loop1
        displace_atoms upper move ${xstep1} 0.0 0.0 units lattice
        displace_atoms upper move 0.00333333333333333 0.0 0.0 units lattice
        min_style ${style}
        min_style cg
        minimize ${etol} ${ftol} ${maxiter} ${maxeval}
        minimize 1e-12 ${ftol} ${maxiter} ${maxeval}
        minimize 1e-12 1e-08 ${maxiter} ${maxeval}
        minimize 1e-12 1e-08 10000 ${maxeval}
        minimize 1e-12 1e-08 10000 20000
WARNING: Resetting reneighboring criteria during minimization (../min.cpp:168)
Memory usage per processor = 3.35169 Mbytes
Step Temp PotEng Lx Ly Lz 
       9            0   -241.99376    2.2449075    38.890809    1.1224537 
      10            0   -241.99377    2.2449075    38.890809    1.1224537 
      11            0   -241.99377    2.2449075    38.890809    1.1224537 
Loop time of 0.000478943 on 1 procs for 2 steps with 82 atoms

Minimization stats:
  Stopping criterion = linesearch alpha is zero
  Energy initial, next-to-last, final = 
        -241.993760152     -241.993767243     -241.993767243
  Force two-norm initial, final = 0.046848 0.0156938
  Force max component initial, final = 0.0233238 0.00704691
  Final line search alpha, max atom move = 3.05176e-05 2.15055e-07
  Iterations, force evaluations = 2 24

Pair  time (%) = 0.000385963 (80.5864)
Neigh time (%) = 0 (0)
Comm  time (%) = 3.04366e-05 (6.35495)
Outpt time (%) = 5.92414e-06 (1.23692)
Other time (%) = 5.66191e-05 (11.8217)

Nlocal:    82 ave 82 max 82 min
Histogram: 1 0 0 0 0 0 0 0 0 0
Nghost:    185 ave 185 max 185 min
Histogram: 1 0 0 0 0 0 0 0 0 0
Neighs:    718 ave 718 max 718 min
Histogram: 1 0 0 0 0 0 0 0 0 0

Total # of neighbors = 718
Ave neighs/atom = 8.7561
Neighbor list builds = 0
Dangerous builds = 0
        # write_dump all atom ${dumpfile}
        next i
jump SELF loop1
        displace_atoms upper move ${xstep1} 0.0 0.0 units lattice
        displace_atoms upper move 0.00333333333333333 0.0 0.0 units lattice
        min_style ${style}
        min_style cg
        minimize ${etol} ${ftol} ${maxiter} ${maxeval}
        minimize 1e-12 ${ftol} ${maxiter} ${maxeval}
        minimize 1e-12 1e-08 ${maxiter} ${maxeval}
        minimize 1e-12 1e-08 10000 ${maxeval}
        minimize 1e-12 1e-08 10000 20000
WARNING: Resetting reneighboring criteria during minimization (../min.cpp:168)
Memory usage per processor = 3.35169 Mbytes
Step Temp PotEng Lx Ly Lz 
      11            0   -241.99155    2.2449075    38.890789    1.1224537 
      12            0   -241.99155    2.2449075    38.890789    1.1224537 
      13            0   -241.99155    2.2449075    38.890789    1.1224537 
Loop time of 0.000570001 on 1 procs for 2 steps with 82 atoms

Minimization stats:
  Stopping criterion = linesearch alpha is zero
  Energy initial, next-to-last, final = 
        -241.991550751     -241.991550944     -241.991550944
  Force two-norm initial, final = 0.0288861 0.0279066
  Force max component initial, final = 0.0125837 0.0120304
  Final line search alpha, max atom move = 1.52588e-05 1.83569e-07
  Iterations, force evaluations = 2 29

Pair  time (%) = 0.000467846 (82.0781)
Neigh time (%) = 0 (0)
Comm  time (%) = 3.97167e-05 (6.96784)
Outpt time (%) = 5.97979e-06 (1.04908)
Other time (%) = 5.64584e-05 (9.90497)

Nlocal:    82 ave 82 max 82 min
Histogram: 1 0 0 0 0 0 0 0 0 0
Nghost:    185 ave 185 max 185 min
Histogram: 1 0 0 0 0 0 0 0 0 0
Neighs:    718 ave 718 max 718 min
Histogram: 1 0 0 0 0 0 0 0 0 0

Total # of neighbors = 718
Ave neighs/atom = 8.7561
Neighbor list builds = 0
Dangerous builds = 0
        # write_dump all atom ${dumpfile}
        next i
jump SELF loop1
        displace_atoms upper move ${xstep1} 0.0 0.0 units lattice
        displace_atoms upper move 0.00333333333333333 0.0 0.0 units lattice
        min_style ${style}
        min_style cg
        minimize ${etol} ${ftol} ${maxiter} ${maxeval}
        minimize 1e-12 ${ftol} ${maxiter} ${maxeval}
        minimize 1e-12 1e-08 ${maxiter} ${maxeval}
        minimize 1e-12 1e-08 10000 ${maxeval}
        minimize 1e-12 1e-08 10000 20000
WARNING: Resetting reneighboring criteria during minimization (../min.cpp:168)
Memory usage per processor = 3.35169 Mbytes
Step Temp PotEng Lx Ly Lz 
      13            0   -241.98899    2.2449075    38.890788    1.1224537 
      14            0     -241.989    2.2449075    38.890788    1.1224537 
      15            0     -241.989    2.2449075    38.890788    1.1224537 
      16            0     -241.989    2.2449075    38.890788    1.1224537 
      17            0     -241.989    2.2449075    38.890788    1.1224537 
      18            0     -241.989    2.2449075    38.890788    1.1224537 
Loop time of 0.00107192 on 1 procs for 5 steps with 82 atoms

Minimization stats:
  Stopping criterion = linesearch alpha is zero
  Energy initial, next-to-last, final = 
        -241.988993908     -241.989002581     -241.989002581
  Force two-norm initial, final = 0.0474891 0.0179964
  Force max component initial, final = 0.022668 0.00742926
  Final line search alpha, max atom move = 3.05176e-05 2.26723e-07
  Iterations, force evaluations = 5 56

Pair  time (%) = 0.000865452 (80.7388)
Neigh time (%) = 0 (0)
Comm  time (%) = 7.27564e-05 (6.78751)
Outpt time (%) = 2.53672e-05 (2.36653)
Other time (%) = 0.000108341 (10.1072)

Nlocal:    82 ave 82 max 82 min
Histogram: 1 0 0 0 0 0 0 0 0 0
Nghost:    185 ave 185 max 185 min
Histogram: 1 0 0 0 0 0 0 0 0 0
Neighs:    718 ave 718 max 718 min
Histogram: 1 0 0 0 0 0 0 0 0 0

Total # of neighbors = 718
Ave neighs/atom = 8.7561
Neighbor list builds = 0
Dangerous builds = 0
        # write_dump all atom ${dumpfile}
        next i
jump SELF loop1
        displace_atoms upper move ${xstep1} 0.0 0.0 units lattice
        displace_atoms upper move 0.00333333333333333 0.0 0.0 units lattice
        min_style ${style}
        min_style cg
        minimize ${etol} ${ftol} ${maxiter} ${maxeval}
        minimize 1e-12 ${ftol} ${maxiter} ${maxeval}
        minimize 1e-12 1e-08 ${maxiter} ${maxeval}
        minimize 1e-12 1e-08 10000 ${maxeval}
        minimize 1e-12 1e-08 10000 20000
WARNING: Resetting reneighboring criteria during minimization (../min.cpp:168)
Memory usage per processor = 3.35169 Mbytes
Step Temp PotEng Lx Ly Lz 
      18            0   -241.98612    2.2449075    38.890779    1.1224537 
      19            0   -241.98612    2.2449075    38.890779    1.1224537 
      20            0   -241.98612    2.2449075    38.890779    1.1224537 
Loop time of 0.000474995 on 1 procs for 2 steps with 82 atoms

Minimization stats:
  Stopping criterion = linesearch alpha is zero
  Energy initial, next-to-last, final = 
        -241.986116575     -241.986124626     -241.986124626
  Force two-norm initial, final = 0.0358409 0.026208
  Force max component initial, final = 0.0160058 0.00985142
  Final line search alpha, max atom move = 1.52588e-05 1.50321e-07
  Iterations, force evaluations = 2 24

Pair  time (%) = 0.000382857 (80.6024)
Neigh time (%) = 0 (0)
Comm  time (%) = 3.20391e-05 (6.74516)
Outpt time (%) = 7.96374e-06 (1.6766)
Other time (%) = 5.21349e-05 (10.9759)

Nlocal:    82 ave 82 max 82 min
Histogram: 1 0 0 0 0 0 0 0 0 0
Nghost:    185 ave 185 max 185 min
Histogram: 1 0 0 0 0 0 0 0 0 0
Neighs:    718 ave 718 max 718 min
Histogram: 1 0 0 0 0 0 0 0 0 0

Total # of neighbors = 718
Ave neighs/atom = 8.7561
Neighbor list builds = 0
Dangerous builds = 0
        # write_dump all atom ${dumpfile}
        next i
jump SELF loop1
        displace_atoms upper move ${xstep1} 0.0 0.0 units lattice
        displace_atoms upper move 0.00333333333333333 0.0 0.0 units lattice
        min_style ${style}
        min_style cg
        minimize ${etol} ${ftol} ${maxiter} ${maxeval}
        minimize 1e-12 ${ftol} ${maxiter} ${maxeval}
        minimize 1e-12 1e-08 ${maxiter} ${maxeval}
        minimize 1e-12 1e-08 10000 ${maxeval}
        minimize 1e-12 1e-08 10000 20000
WARNING: Resetting reneighboring criteria during minimization (../min.cpp:168)
Memory usage per processor = 3.35169 Mbytes
Step Temp PotEng Lx Ly Lz 
      20            0   -241.98292    2.2449075    38.890775    1.1224537 
      21            0   -241.98292    2.2449075    38.890775    1.1224537 
Loop time of 0.000213947 on 1 procs for 1 steps with 82 atoms

Minimization stats:
  Stopping criterion = linesearch alpha is zero
  Energy initial, next-to-last, final = 
        -241.982915772     -241.982915772     -241.982915772
  Force two-norm initial, final = 0.0246763 0.0246763
  Force max component initial, final = 0.00985142 0.00985142
  Final line search alpha, max atom move = 1.52588e-05 1.50321e-07
  Iterations, force evaluations = 1 17

Pair  time (%) = 0.000170619 (79.7481)
Neigh time (%) = 0 (0)
Comm  time (%) = 1.19735e-05 (5.5965)
Outpt time (%) = 0 (0)
Other time (%) = 3.13548e-05 (14.6554)

Nlocal:    82 ave 82 max 82 min
Histogram: 1 0 0 0 0 0 0 0 0 0
Nghost:    185 ave 185 max 185 min
Histogram: 1 0 0 0 0 0 0 0 0 0
Neighs:    718 ave 718 max 718 min
Histogram: 1 0 0 0 0 0 0 0 0 0

Total # of neighbors = 718
Ave neighs/atom = 8.7561
Neighbor list builds = 0
Dangerous builds = 0
        # write_dump all atom ${dumpfile}
        next i
jump SELF loop1
        displace_atoms upper move ${xstep1} 0.0 0.0 units lattice
        displace_atoms upper move 0.00333333333333333 0.0 0.0 units lattice
        min_style ${style}
        min_style cg
        minimize ${etol} ${ftol} ${maxiter} ${maxeval}
        minimize 1e-12 ${ftol} ${maxiter} ${maxeval}
        minimize 1e-12 1e-08 ${maxiter} ${maxeval}
        minimize 1e-12 1e-08 10000 ${maxeval}
        minimize 1e-12 1e-08 10000 20000
WARNING: Resetting reneighboring criteria during minimization (../min.cpp:168)
Memory usage per processor = 3.35169 Mbytes
Step Temp PotEng Lx Ly Lz 
      21            0   -241.97937    2.2449075    38.890775    1.1224537 
      22            0   -241.97939    2.2449075    38.890775    1.1224537 
      23            0   -241.97939    2.2449075    38.890775    1.1224537 
Loop time of 0.0244151 on 1 procs for 2 steps with 82 atoms

Minimization stats:
  Stopping criterion = linesearch alpha is zero
  Energy initial, next-to-last, final = 
        -241.979374756      -241.97939259      -241.97939259
  Force two-norm initial, final = 0.0466418 0.034314
  Force max component initial, final = 0.0206625 0.0127603
  Final line search alpha, max atom move = 7.62939e-06 9.73532e-08
  Iterations, force evaluations = 2 25

Pair  time (%) = 0.000412901 (1.69117)
Neigh time (%) = 0 (0)
Comm  time (%) = 3.19474e-05 (0.130851)
Outpt time (%) = 0.0238959 (97.8735)
Other time (%) = 7.43353e-05 (0.304464)

Nlocal:    82 ave 82 max 82 min
Histogram: 1 0 0 0 0 0 0 0 0 0
Nghost:    185 ave 185 max 185 min
Histogram: 1 0 0 0 0 0 0 0 0 0
Neighs:    718 ave 718 max 718 min
Histogram: 1 0 0 0 0 0 0 0 0 0

Total # of neighbors = 718
Ave neighs/atom = 8.7561
Neighbor list builds = 0
Dangerous builds = 0
        # write_dump all atom ${dumpfile}
        next i
jump SELF loop1
        displace_atoms upper move ${xstep1} 0.0 0.0 units lattice
        displace_atoms upper move 0.00333333333333333 0.0 0.0 units lattice
        min_style ${style}
        min_style cg
        minimize ${etol} ${ftol} ${maxiter} ${maxeval}
        minimize 1e-12 ${ftol} ${maxiter} ${maxeval}
        minimize 1e-12 1e-08 ${maxiter} ${maxeval}
        minimize 1e-12 1e-08 10000 ${maxeval}
        minimize 1e-12 1e-08 10000 20000
WARNING: Resetting reneighboring criteria during minimization (../min.cpp:168)
Memory usage per processor = 3.35169 Mbytes
Step Temp PotEng Lx Ly Lz 
      23            0   -241.97554    2.2449075    38.890775    1.1224537 
      24            0   -241.97554    2.2449075    38.890775    1.1224537 
Loop time of 0.000360064 on 1 procs for 1 steps with 82 atoms

Minimization stats:
  Stopping criterion = linesearch alpha is zero
  Energy initial, next-to-last, final = 
        -241.975539704     -241.975539704     -241.975539704
  Force two-norm initial, final = 0.031534 0.031534
  Force max component initial, final = 0.0127603 0.0127603
  Final line search alpha, max atom move = 7.62939e-06 9.73532e-08
  Iterations, force evaluations = 1 18

Pair  time (%) = 0.000297241 (82.5523)
Neigh time (%) = 0 (0)
Comm  time (%) = 2.40098e-05 (6.66821)
Outpt time (%) = 0 (0)
Other time (%) = 3.8813e-05 (10.7795)

Nlocal:    82 ave 82 max 82 min
Histogram: 1 0 0 0 0 0 0 0 0 0
Nghost:    185 ave 185 max 185 min
Histogram: 1 0 0 0 0 0 0 0 0 0
Neighs:    718 ave 718 max 718 min
Histogram: 1 0 0 0 0 0 0 0 0 0

Total # of neighbors = 718
Ave neighs/atom = 8.7561
Neighbor list builds = 0
Dangerous builds = 0
        # write_dump all atom ${dumpfile}
        next i
jump SELF loop1
        displace_atoms upper move ${xstep1} 0.0 0.0 units lattice
        displace_atoms upper move 0.00333333333333333 0.0 0.0 units lattice
        min_style ${style}
        min_style cg
        minimize ${etol} ${ftol} ${maxiter} ${maxeval}
        minimize 1e-12 ${ftol} ${maxiter} ${maxeval}
        minimize 1e-12 1e-08 ${maxiter} ${maxeval}
        minimize 1e-12 1e-08 10000 ${maxeval}
        minimize 1e-12 1e-08 10000 20000
WARNING: Resetting reneighboring criteria during minimization (../min.cpp:168)
Memory usage per processor = 3.35169 Mbytes
Step Temp PotEng Lx Ly Lz 
      24            0   -241.97136    2.2449075    38.890775    1.1224537 
      25            0   -241.97137    2.2449075    38.890775    1.1224537 
      26            0   -241.97139    2.2449075    38.890775    1.1224537 
      27            0   -241.97139    2.2449075    38.890775    1.1224537 
Loop time of 0.000588093 on 1 procs for 3 steps with 82 atoms

Minimization stats:
  Stopping criterion = linesearch alpha is zero
  Energy initial, next-to-last, final = 
        -241.971355746     -241.971389728     -241.971389728
  Force two-norm initial, final = 0.0558468 0.0248973
  Force max component initial, final = 0.0239662 0.0106393
  Final line search alpha, max atom move = 1.52588e-05 1.62343e-07
  Iterations, force evaluations = 3 31

Pair  time (%) = 0.000469702 (79.8686)
Neigh time (%) = 0 (0)
Comm  time (%) = 3.52367e-05 (5.99169)
Outpt time (%) = 1.30327e-05 (2.21609)
Other time (%) = 7.01217e-05 (11.9236)

Nlocal:    82 ave 82 max 82 min
Histogram: 1 0 0 0 0 0 0 0 0 0
Nghost:    185 ave 185 max 185 min
Histogram: 1 0 0 0 0 0 0 0 0 0
Neighs:    718 ave 718 max 718 min
Histogram: 1 0 0 0 0 0 0 0 0 0

Total # of neighbors = 718
Ave neighs/atom = 8.7561
Neighbor list builds = 0
Dangerous builds = 0
        # write_dump all atom ${dumpfile}
        next i
jump SELF loop1
        displace_atoms upper move ${xstep1} 0.0 0.0 units lattice
        displace_atoms upper move 0.00333333333333333 0.0 0.0 units lattice
        min_style ${style}
        min_style cg
        minimize ${etol} ${ftol} ${maxiter} ${maxeval}
        minimize 1e-12 ${ftol} ${maxiter} ${maxeval}
        minimize 1e-12 1e-08 ${maxiter} ${maxeval}
        minimize 1e-12 1e-08 10000 ${maxeval}
        minimize 1e-12 1e-08 10000 20000
WARNING: Resetting reneighboring criteria during minimization (../min.cpp:168)
Memory usage per processor = 3.35169 Mbytes
Step Temp PotEng Lx Ly Lz 
      27            0   -241.96691    2.2449075    38.890777    1.1224537 
      28            0   -241.96692    2.2449075    38.890777    1.1224537 
      29            0   -241.96692    2.2449075    38.890777    1.1224537 
Loop time of 0.000497955 on 1 procs for 2 steps with 82 atoms

Minimization stats:
  Stopping criterion = linesearch alpha is zero
  Energy initial, next-to-last, final = 
        -241.966909665     -241.966917741     -241.966917741
  Force two-norm initial, final = 0.0437816 0.0226178
  Force max component initial, final = 0.0180164 0.00716171
  Final line search alpha, max atom move = 1.52588e-05 1.09279e-07
  Iterations, force evaluations = 2 25

Pair  time (%) = 0.000407116 (81.7575)
Neigh time (%) = 0 (0)
Comm  time (%) = 3.21398e-05 (6.45436)
Outpt time (%) = 5.89085e-06 (1.18301)
Other time (%) = 5.28087e-05 (10.6051)

Nlocal:    82 ave 82 max 82 min
Histogram: 1 0 0 0 0 0 0 0 0 0
Nghost:    185 ave 185 max 185 min
Histogram: 1 0 0 0 0 0 0 0 0 0
Neighs:    718 ave 718 max 718 min
Histogram: 1 0 0 0 0 0 0 0 0 0

Total # of neighbors = 718
Ave neighs/atom = 8.7561
Neighbor list builds = 0
Dangerous builds = 0
        # write_dump all atom ${dumpfile}
        next i
jump SELF loop1
        displace_atoms upper move ${xstep1} 0.0 0.0 units lattice
        displace_atoms upper move 0.00333333333333333 0.0 0.0 units lattice
        min_style ${style}
        min_style cg
        minimize ${etol} ${ftol} ${maxiter} ${maxeval}
        minimize 1e-12 ${ftol} ${maxiter} ${maxeval}
        minimize 1e-12 1e-08 ${maxiter} ${maxeval}
        minimize 1e-12 1e-08 10000 ${maxeval}
        minimize 1e-12 1e-08 10000 20000
WARNING: Resetting reneighboring criteria during minimization (../min.cpp:168)
Memory usage per processor = 3.35169 Mbytes
Step Temp PotEng Lx Ly Lz 
      29            0   -241.96212    2.2449075    38.890778    1.1224537 
      30            0   -241.96213    2.2449075    38.890778    1.1224537 
      31            0   -241.96215    2.2449075    38.890778    1.1224537 
      32            0   -241.96215    2.2449075    38.890778    1.1224537 
Loop time of 0.000616941 on 1 procs for 3 steps with 82 atoms

Minimization stats:
  Stopping criterion = linesearch alpha is zero
  Energy initial, next-to-last, final = 
        -241.962123359      -241.96215136      -241.96215136
  Force two-norm initial, final = 0.0486507 0.0238469
  Force max component initial, final = 0.0216031 0.0101916
  Final line search alpha, max atom move = 1.52588e-05 1.55512e-07
  Iterations, force evaluations = 3 31

Pair  time (%) = 0.000501336 (81.2615)
Neigh time (%) = 0 (0)
Comm  time (%) = 3.7794e-05 (6.12603)
Outpt time (%) = 1.20671e-05 (1.95596)
Other time (%) = 6.57446e-05 (10.6565)

Nlocal:    82 ave 82 max 82 min
Histogram: 1 0 0 0 0 0 0 0 0 0
Nghost:    175 ave 175 max 175 min
Histogram: 1 0 0 0 0 0 0 0 0 0
Neighs:    718 ave 718 max 718 min
Histogram: 1 0 0 0 0 0 0 0 0 0

Total # of neighbors = 718
Ave neighs/atom = 8.7561
Neighbor list builds = 0
Dangerous builds = 0
        # write_dump all atom ${dumpfile}
        next i
jump SELF loop1
        displace_atoms upper move ${xstep1} 0.0 0.0 units lattice
        displace_atoms upper move 0.00333333333333333 0.0 0.0 units lattice
        min_style ${style}
        min_style cg
        minimize ${etol} ${ftol} ${maxiter} ${maxeval}
        minimize 1e-12 ${ftol} ${maxiter} ${maxeval}
        minimize 1e-12 1e-08 ${maxiter} ${maxeval}
        minimize 1e-12 1e-08 10000 ${maxeval}
        minimize 1e-12 1e-08 10000 20000
WARNING: Resetting reneighboring criteria during minimization (../min.cpp:168)
Memory usage per processor = 3.35169 Mbytes
Step Temp PotEng Lx Ly Lz 
      32            0   -241.95706    2.2449075    38.890782    1.1224537 
      33            0   -241.95707    2.2449075    38.890782    1.1224537 
      34            0   -241.95708    2.2449075    38.890782    1.1224537 
      35            0   -241.95708    2.2449075    38.890782    1.1224537 
Loop time of 0.000616102 on 1 procs for 3 steps with 82 atoms

Minimization stats:
  Stopping criterion = linesearch alpha is zero
  Energy initial, next-to-last, final = 
        -241.957059624     -241.957082829     -241.957082829
  Force two-norm initial, final = 0.0492978 0.0219874
  Force max component initial, final = 0.0215775 0.00888963
  Final line search alpha, max atom move = 1.52588e-05 1.35645e-07
  Iterations, force evaluations = 3 31

Pair  time (%) = 0.000499241 (81.0322)
Neigh time (%) = 0 (0)
Comm  time (%) = 3.99433e-05 (6.48322)
Outpt time (%) = 1.21503e-05 (1.97212)
Other time (%) = 6.47675e-05 (10.5125)

Nlocal:    82 ave 82 max 82 min
Histogram: 1 0 0 0 0 0 0 0 0 0
Nghost:    175 ave 175 max 175 min
Histogram: 1 0 0 0 0 0 0 0 0 0
Neighs:    718 ave 718 max 718 min
Histogram: 1 0 0 0 0 0 0 0 0 0

Total # of neighbors = 718
Ave neighs/atom = 8.7561
Neighbor list builds = 0
Dangerous builds = 0
        # write_dump all atom ${dumpfile}
        next i
jump SELF loop1
        displace_atoms upper move ${xstep1} 0.0 0.0 units lattice
        displace_atoms upper move 0.00333333333333333 0.0 0.0 units lattice
        min_style ${style}
        min_style cg
        minimize ${etol} ${ftol} ${maxiter} ${maxeval}
        minimize 1e-12 ${ftol} ${maxiter} ${maxeval}
        minimize 1e-12 1e-08 ${maxiter} ${maxeval}
        minimize 1e-12 1e-08 10000 ${maxeval}
        minimize 1e-12 1e-08 10000 20000
WARNING: Resetting reneighboring criteria during minimization (../min.cpp:168)
Memory usage per processor = 3.35169 Mbytes
Step Temp PotEng Lx Ly Lz 
      35            0    -241.9517    2.2449075    38.890787    1.1224537 
      36            0   -241.95171    2.2449075    38.890787    1.1224537 
      37            0   -241.95172    2.2449075    38.890787    1.1224537 
      38            0   -241.95172    2.2449075    38.890787    1.1224537 
      39            0   -241.95172    2.2449075    38.890787    1.1224537 
Loop time of 0.000759965 on 1 procs for 4 steps with 82 atoms

Minimization stats:
  Stopping criterion = linesearch alpha is zero
  Energy initial, next-to-last, final = 
        -241.951696313     -241.951723973     -241.951723973
  Force two-norm initial, final = 0.0520035 0.0175776
  Force max component initial, final = 0.0235958 0.0050841
  Final line search alpha, max atom move = 3.05176e-05 1.55155e-07
  Iterations, force evaluations = 4 38

Pair  time (%) = 0.000599422 (78.875)
Neigh time (%) = 0 (0)
Comm  time (%) = 5.98456e-05 (7.87479)
Outpt time (%) = 1.71167e-05 (2.2523)
Other time (%) = 8.35803e-05 (10.9979)

Nlocal:    82 ave 82 max 82 min
Histogram: 1 0 0 0 0 0 0 0 0 0
Nghost:    175 ave 175 max 175 min
Histogram: 1 0 0 0 0 0 0 0 0 0
Neighs:    718 ave 718 max 718 min
Histogram: 1 0 0 0 0 0 0 0 0 0

Total # of neighbors = 718
Ave neighs/atom = 8.7561
Neighbor list builds = 0
Dangerous builds = 0
        # write_dump all atom ${dumpfile}
        next i
jump SELF loop1
        displace_atoms upper move ${xstep1} 0.0 0.0 units lattice
        displace_atoms upper move 0.00333333333333333 0.0 0.0 units lattice
        min_style ${style}
        min_style cg
        minimize ${etol} ${ftol} ${maxiter} ${maxeval}
        minimize 1e-12 ${ftol} ${maxiter} ${maxeval}
        minimize 1e-12 1e-08 ${maxiter} ${maxeval}
        minimize 1e-12 1e-08 10000 ${maxeval}
        minimize 1e-12 1e-08 10000 20000
WARNING: Resetting reneighboring criteria during minimization (../min.cpp:168)
Memory usage per processor = 3.35169 Mbytes
Step Temp PotEng Lx Ly Lz 
      39            0   -241.94605    2.2449075    38.890793    1.1224537 
      40            0   -241.94606    2.2449075    38.890793    1.1224537 
      41            0   -241.94606    2.2449075    38.890793    1.1224537 
Loop time of 0.000533978 on 1 procs for 2 steps with 82 atoms

Minimization stats:
  Stopping criterion = linesearch alpha is zero
  Energy initial, next-to-last, final = 
        -241.946052715     -241.946060828     -241.946060828
  Force two-norm initial, final = 0.0486619 0.0319735
  Force max component initial, final = 0.0227032 0.0129171
  Final line search alpha, max atom move = 7.62939e-06 9.85497e-08
  Iterations, force evaluations = 2 27

Pair  time (%) = 0.000436838 (81.8082)
Neigh time (%) = 0 (0)
Comm  time (%) = 3.36423e-05 (6.30031)
Outpt time (%) = 6.03218e-06 (1.12967)
Other time (%) = 5.7466e-05 (10.7619)

Nlocal:    82 ave 82 max 82 min
Histogram: 1 0 0 0 0 0 0 0 0 0
Nghost:    175 ave 175 max 175 min
Histogram: 1 0 0 0 0 0 0 0 0 0
Neighs:    718 ave 718 max 718 min
Histogram: 1 0 0 0 0 0 0 0 0 0

Total # of neighbors = 718
Ave neighs/atom = 8.7561
Neighbor list builds = 0
Dangerous builds = 0
        # write_dump all atom ${dumpfile}
        next i
jump SELF loop1
        displace_atoms upper move ${xstep1} 0.0 0.0 units lattice
        displace_atoms upper move 0.00333333333333333 0.0 0.0 units lattice
        min_style ${style}
        min_style cg
        minimize ${etol} ${ftol} ${maxiter} ${maxeval}
        minimize 1e-12 ${ftol} ${maxiter} ${maxeval}
        minimize 1e-12 1e-08 ${maxiter} ${maxeval}
        minimize 1e-12 1e-08 10000 ${maxeval}
        minimize 1e-12 1e-08 10000 20000
WARNING: Resetting reneighboring criteria during minimization (../min.cpp:168)
Memory usage per processor = 3.35169 Mbytes
Step Temp PotEng Lx Ly Lz 
      41            0   -241.94008    2.2449075    38.890794    1.1224537 
      42            0   -241.94011    2.2449075    38.890794    1.1224537 
      43            0   -241.94012    2.2449075    38.890794    1.1224537 
      44            0   -241.94015    2.2449075    38.890794    1.1224537 
      45            0   -241.94016    2.2449075    38.890794    1.1224537 
      46            0   -241.94016    2.2449075    38.890794    1.1224537 
Loop time of 0.000904982 on 1 procs for 5 steps with 82 atoms

Minimization stats:
  Stopping criterion = linesearch alpha is zero
  Energy initial, next-to-last, final = 
        -241.940082943     -241.940157367     -241.940157367
  Force two-norm initial, final = 0.0777496 0.0192696
  Force max component initial, final = 0.0377164 0.00654925
  Final line search alpha, max atom move = 3.05176e-05 1.99867e-07
  Iterations, force evaluations = 5 45

Pair  time (%) = 0.000721203 (79.6925)
Neigh time (%) = 0 (0)
Comm  time (%) = 6.14887e-05 (6.79447)
Outpt time (%) = 2.20204e-05 (2.43324)
Other time (%) = 0.00010027 (11.0798)

Nlocal:    82 ave 82 max 82 min
Histogram: 1 0 0 0 0 0 0 0 0 0
Nghost:    175 ave 175 max 175 min
Histogram: 1 0 0 0 0 0 0 0 0 0
Neighs:    718 ave 718 max 718 min
Histogram: 1 0 0 0 0 0 0 0 0 0

Total # of neighbors = 718
Ave neighs/atom = 8.7561
Neighbor list builds = 0
Dangerous builds = 0
        # write_dump all atom ${dumpfile}
        next i
jump SELF loop1
        displace_atoms upper move ${xstep1} 0.0 0.0 units lattice
        displace_atoms upper move 0.00333333333333333 0.0 0.0 units lattice
        min_style ${style}
        min_style cg
        minimize ${etol} ${ftol} ${maxiter} ${maxeval}
        minimize 1e-12 ${ftol} ${maxiter} ${maxeval}
        minimize 1e-12 1e-08 ${maxiter} ${maxeval}
        minimize 1e-12 1e-08 10000 ${maxeval}
        minimize 1e-12 1e-08 10000 20000
WARNING: Resetting reneighboring criteria during minimization (../min.cpp:168)
Memory usage per processor = 3.35169 Mbytes
Step Temp PotEng Lx Ly Lz 
      46            0   -241.93393    2.2449075    38.890802    1.1224537 
      47            0   -241.93393    2.2449075    38.890802    1.1224537 
      48            0   -241.93393    2.2449075    38.890802    1.1224537 
Loop time of 0.00138505 on 1 procs for 2 steps with 82 atoms

Minimization stats:
  Stopping criterion = linesearch alpha is zero
  Energy initial, next-to-last, final = 
        -241.933928927     -241.933929753     -241.933929753
  Force two-norm initial, final = 0.0514618 0.049012
  Force max component initial, final = 0.0239336 0.0226354
  Final line search alpha, max atom move = 3.8147e-06 8.63471e-08
  Iterations, force evaluations = 2 31

Pair  time (%) = 0.00100763 (72.7509)
Neigh time (%) = 0 (0)
Comm  time (%) = 0.000124653 (8.99991)
Outpt time (%) = 9.30281e-05 (6.71661)
Other time (%) = 0.000159731 (11.5326)

Nlocal:    82 ave 82 max 82 min
Histogram: 1 0 0 0 0 0 0 0 0 0
Nghost:    175 ave 175 max 175 min
Histogram: 1 0 0 0 0 0 0 0 0 0
Neighs:    718 ave 718 max 718 min
Histogram: 1 0 0 0 0 0 0 0 0 0

Total # of neighbors = 718
Ave neighs/atom = 8.7561
Neighbor list builds = 0
Dangerous builds = 0
        # write_dump all atom ${dumpfile}
        next i
jump SELF loop1
        displace_atoms upper move ${xstep1} 0.0 0.0 units lattice
        displace_atoms upper move 0.00333333333333333 0.0 0.0 units lattice
        min_style ${style}
        min_style cg
        minimize ${etol} ${ftol} ${maxiter} ${maxeval}
        minimize 1e-12 ${ftol} ${maxiter} ${maxeval}
        minimize 1e-12 1e-08 ${maxiter} ${maxeval}
        minimize 1e-12 1e-08 10000 ${maxeval}
        minimize 1e-12 1e-08 10000 20000
WARNING: Resetting reneighboring criteria during minimization (../min.cpp:168)
Memory usage per processor = 3.35169 Mbytes
Step Temp PotEng Lx Ly Lz 
      48            0    -241.9274    2.2449075    38.890802    1.1224537 
      49            0   -241.92743    2.2449075    38.890802    1.1224537 
      50            0   -241.92744    2.2449075    38.890802    1.1224537 
      51            0   -241.92746    2.2449075    38.890802    1.1224537 
      52            0   -241.92748    2.2449075    38.890802    1.1224537 
      53            0   -241.92749    2.2449075    38.890802    1.1224537 
      54            0    -241.9275    2.2449075    38.890802    1.1224537 
      55            0    -241.9275    2.2449075    38.890802    1.1224537 
Loop time of 0.00134301 on 1 procs for 7 steps with 82 atoms

Minimization stats:
  Stopping criterion = linesearch alpha is zero
  Energy initial, next-to-last, final = 
         -241.92739505     -241.927502646     -241.927502646
  Force two-norm initial, final = 0.10107 0.0249354
  Force max component initial, final = 0.0496547 0.00606485
  Final line search alpha, max atom move = 1.52588e-05 9.25422e-08
  Iterations, force evaluations = 7 59

Pair  time (%) = 0.00110275 (82.1105)
Neigh time (%) = 0 (0)
Comm  time (%) = 7.20787e-05 (5.36696)
Outpt time (%) = 3.79879e-05 (2.82857)
Other time (%) = 0.000130191 (9.69401)

Nlocal:    82 ave 82 max 82 min
Histogram: 1 0 0 0 0 0 0 0 0 0
Nghost:    175 ave 175 max 175 min
Histogram: 1 0 0 0 0 0 0 0 0 0
Neighs:    718 ave 718 max 718 min
Histogram: 1 0 0 0 0 0 0 0 0 0

Total # of neighbors = 718
Ave neighs/atom = 8.7561
Neighbor list builds = 0
Dangerous builds = 0
        # write_dump all atom ${dumpfile}
        next i
jump SELF loop1
        displace_atoms upper move ${xstep1} 0.0 0.0 units lattice
        displace_atoms upper move 0.00333333333333333 0.0 0.0 units lattice
        min_style ${style}
        min_style cg
        minimize ${etol} ${ftol} ${maxiter} ${maxeval}
        minimize 1e-12 ${ftol} ${maxiter} ${maxeval}
        minimize 1e-12 1e-08 ${maxiter} ${maxeval}
        minimize 1e-12 1e-08 10000 ${maxeval}
        minimize 1e-12 1e-08 10000 20000
WARNING: Resetting reneighboring criteria during minimization (../min.cpp:168)
Memory usage per processor = 3.35169 Mbytes
Step Temp PotEng Lx Ly Lz 
      55            0   -241.92077    2.2449075    38.890829    1.1224537 
      56            0   -241.92078    2.2449075    38.890829    1.1224537 
      57            0   -241.92078    2.2449075    38.890829    1.1224537 
Loop time of 0.000570089 on 1 procs for 2 steps with 82 atoms

Minimization stats:
  Stopping criterion = linesearch alpha is zero
  Energy initial, next-to-last, final = 
        -241.920766462     -241.920780221     -241.920780221
  Force two-norm initial, final = 0.0529124 0.0190254
  Force max component initial, final = 0.0236724 0.00435673
  Final line search alpha, max atom move = 3.05176e-05 1.32957e-07
  Iterations, force evaluations = 2 24

Pair  time (%) = 0.000468315 (82.1477)
Neigh time (%) = 0 (0)
Comm  time (%) = 2.96951e-05 (5.20885)
Outpt time (%) = 6.02426e-06 (1.05672)
Other time (%) = 6.60545e-05 (11.5867)

Nlocal:    82 ave 82 max 82 min
Histogram: 1 0 0 0 0 0 0 0 0 0
Nghost:    175 ave 175 max 175 min
Histogram: 1 0 0 0 0 0 0 0 0 0
Neighs:    718 ave 718 max 718 min
Histogram: 1 0 0 0 0 0 0 0 0 0

Total # of neighbors = 718
Ave neighs/atom = 8.7561
Neighbor list builds = 0
Dangerous builds = 0
        # write_dump all atom ${dumpfile}
        next i
jump SELF loop1
        displace_atoms upper move ${xstep1} 0.0 0.0 units lattice
        displace_atoms upper move 0.00333333333333333 0.0 0.0 units lattice
        min_style ${style}
        min_style cg
        minimize ${etol} ${ftol} ${maxiter} ${maxeval}
        minimize 1e-12 ${ftol} ${maxiter} ${maxeval}
        minimize 1e-12 1e-08 ${maxiter} ${maxeval}
        minimize 1e-12 1e-08 10000 ${maxeval}
        minimize 1e-12 1e-08 10000 20000
WARNING: Resetting reneighboring criteria during minimization (../min.cpp:168)
Memory usage per processor = 3.35169 Mbytes
Step Temp PotEng Lx Ly Lz 
      57            0   -241.91377    2.2449075     38.89083    1.1224537 
      58            0   -241.91379    2.2449075     38.89083    1.1224537 
      59            0    -241.9138    2.2449075     38.89083    1.1224537 
      60            0    -241.9138    2.2449075     38.89083    1.1224537 
      61            0   -241.91381    2.2449075     38.89083    1.1224537 
      62            0   -241.91381    2.2449075     38.89083    1.1224537 
      63            0   -241.91381    2.2449075     38.89083    1.1224537 
Loop time of 0.000879071 on 1 procs for 6 steps with 82 atoms

Minimization stats:
  Stopping criterion = linesearch alpha is zero
  Energy initial, next-to-last, final = 
        -241.913773482     -241.913808922     -241.913808922
  Force two-norm initial, final = 0.0630705 0.0137059
  Force max component initial, final = 0.0301077 0.0026869
  Final line search alpha, max atom move = 6.10352e-05 1.63996e-07
  Iterations, force evaluations = 6 53

Pair  time (%) = 0.000684252 (77.8381)
Neigh time (%) = 0 (0)
Comm  time (%) = 5.35893e-05 (6.09613)
Outpt time (%) = 2.29782e-05 (2.61391)
Other time (%) = 0.000118251 (13.4519)

Nlocal:    82 ave 82 max 82 min
Histogram: 1 0 0 0 0 0 0 0 0 0
Nghost:    175 ave 175 max 175 min
Histogram: 1 0 0 0 0 0 0 0 0 0
Neighs:    718 ave 718 max 718 min
Histogram: 1 0 0 0 0 0 0 0 0 0

Total # of neighbors = 718
Ave neighs/atom = 8.7561
Neighbor list builds = 0
Dangerous builds = 0
        # write_dump all atom ${dumpfile}
        next i
jump SELF loop1
        displace_atoms upper move ${xstep1} 0.0 0.0 units lattice
        displace_atoms upper move 0.00333333333333333 0.0 0.0 units lattice
        min_style ${style}
        min_style cg
        minimize ${etol} ${ftol} ${maxiter} ${maxeval}
        minimize 1e-12 ${ftol} ${maxiter} ${maxeval}
        minimize 1e-12 1e-08 ${maxiter} ${maxeval}
        minimize 1e-12 1e-08 10000 ${maxeval}
        minimize 1e-12 1e-08 10000 20000
WARNING: Resetting reneighboring criteria during minimization (../min.cpp:168)
Memory usage per processor = 3.35169 Mbytes
Step Temp PotEng Lx Ly Lz 
      63            0   -241.90656    2.2449075    38.890839    1.1224537 
      64            0   -241.90656    2.2449075    38.890839    1.1224537 
      65            0   -241.90657    2.2449075    38.890839    1.1224537 
      66            0   -241.90657    2.2449075    38.890839    1.1224537 
      67            0   -241.90657    2.2449075    38.890839    1.1224537 
Loop time of 0.00100298 on 1 procs for 4 steps with 82 atoms

Minimization stats:
  Stopping criterion = linesearch alpha is zero
  Energy initial, next-to-last, final = 
        -241.906555262     -241.906567219     -241.906567219
  Force two-norm initial, final = 0.0623617 0.0275386
  Force max component initial, final = 0.0304388 0.0102406
  Final line search alpha, max atom move = 1.52588e-05 1.5626e-07
  Iterations, force evaluations = 4 48

Pair  time (%) = 0.000825329 (82.2874)
Neigh time (%) = 0 (0)
Comm  time (%) = 5.9744e-05 (5.95662)
Outpt time (%) = 1.98554e-05 (1.97964)
Other time (%) = 9.80556e-05 (9.77639)

Nlocal:    82 ave 82 max 82 min
Histogram: 1 0 0 0 0 0 0 0 0 0
Nghost:    175 ave 175 max 175 min
Histogram: 1 0 0 0 0 0 0 0 0 0
Neighs:    718 ave 718 max 718 min
Histogram: 1 0 0 0 0 0 0 0 0 0

Total # of neighbors = 718
Ave neighs/atom = 8.7561
Neighbor list builds = 0
Dangerous builds = 0
        # write_dump all atom ${dumpfile}
        next i
jump SELF loop1
        displace_atoms upper move ${xstep1} 0.0 0.0 units lattice
        displace_atoms upper move 0.00333333333333333 0.0 0.0 units lattice
        min_style ${style}
        min_style cg
        minimize ${etol} ${ftol} ${maxiter} ${maxeval}
        minimize 1e-12 ${ftol} ${maxiter} ${maxeval}
        minimize 1e-12 1e-08 ${maxiter} ${maxeval}
        minimize 1e-12 1e-08 10000 ${maxeval}
        minimize 1e-12 1e-08 10000 20000
WARNING: Resetting reneighboring criteria during minimization (../min.cpp:168)
Memory usage per processor = 3.35169 Mbytes
Step Temp PotEng Lx Ly Lz 
      67            0   -241.89906    2.2449075     38.89084    1.1224537 
      68            0   -241.89909    2.2449075     38.89084    1.1224537 
      69            0    -241.8991    2.2449075     38.89084    1.1224537 
      70            0   -241.89912    2.2449075     38.89084    1.1224537 
      71            0   -241.89914    2.2449075     38.89084    1.1224537 
      72            0   -241.89915    2.2449075     38.89084    1.1224537 
      73            0   -241.89916    2.2449075     38.89084    1.1224537 
      74            0   -241.89918    2.2449075     38.89084    1.1224537 
      75            0   -241.89918    2.2449075     38.89084    1.1224537 
Loop time of 0.00203898 on 1 procs for 8 steps with 82 atoms

Minimization stats:
  Stopping criterion = linesearch alpha is zero
  Energy initial, next-to-last, final = 
        -241.899060023     -241.899180678     -241.899180678
  Force two-norm initial, final = 0.0866016 0.0180856
  Force max component initial, final = 0.0423115 0.00590515
  Final line search alpha, max atom move = 3.05176e-05 1.80211e-07
  Iterations, force evaluations = 8 66

Pair  time (%) = 0.00165366 (81.1022)
Neigh time (%) = 0 (0)
Comm  time (%) = 0.000181129 (8.88332)
Outpt time (%) = 4.17299e-05 (2.0466)
Other time (%) = 0.000162463 (7.96786)

Nlocal:    82 ave 82 max 82 min
Histogram: 1 0 0 0 0 0 0 0 0 0
Nghost:    175 ave 175 max 175 min
Histogram: 1 0 0 0 0 0 0 0 0 0
Neighs:    714 ave 714 max 714 min
Histogram: 1 0 0 0 0 0 0 0 0 0

Total # of neighbors = 714
Ave neighs/atom = 8.70732
Neighbor list builds = 0
Dangerous builds = 0
        # write_dump all atom ${dumpfile}
        next i
jump SELF loop1
        displace_atoms upper move ${xstep1} 0.0 0.0 units lattice
        displace_atoms upper move 0.00333333333333333 0.0 0.0 units lattice
        min_style ${style}
        min_style cg
        minimize ${etol} ${ftol} ${maxiter} ${maxeval}
        minimize 1e-12 ${ftol} ${maxiter} ${maxeval}
        minimize 1e-12 1e-08 ${maxiter} ${maxeval}
        minimize 1e-12 1e-08 10000 ${maxeval}
        minimize 1e-12 1e-08 10000 20000
WARNING: Resetting reneighboring criteria during minimization (../min.cpp:168)
Memory usage per processor = 3.35169 Mbytes
Step Temp PotEng Lx Ly Lz 
      75            0   -241.89152    2.2449075     38.89091    1.1224537 
      76            0   -241.89153    2.2449075     38.89091    1.1224537 
      77            0   -241.89153    2.2449075     38.89091    1.1224537 
      78            0   -241.89154    2.2449075     38.89091    1.1224537 
      79            0   -241.89154    2.2449075     38.89091    1.1224537 
      80            0   -241.89155    2.2449075     38.89091    1.1224537 
      81            0   -241.89156    2.2449075     38.89091    1.1224537 
      82            0   -241.89156    2.2449075     38.89091    1.1224537 
      83            0   -241.89156    2.2449075     38.89091    1.1224537 
      84            0   -241.89156    2.2449075     38.89091    1.1224537 
Loop time of 0.00190404 on 1 procs for 9 steps with 82 atoms

Minimization stats:
  Stopping criterion = linesearch alpha is zero
  Energy initial, next-to-last, final = 
        -241.891516021     -241.891563831     -241.891563831
  Force two-norm initial, final = 0.0677963 0.0117707
  Force max component initial, final = 0.0326781 0.00233728
  Final line search alpha, max atom move = 6.10352e-05 1.42656e-07
  Iterations, force evaluations = 9 72

Pair  time (%) = 0.00156705 (82.3011)
Neigh time (%) = 0 (0)
Comm  time (%) = 9.14958e-05 (4.80535)
Outpt time (%) = 5.94353e-05 (3.12153)
Other time (%) = 0.000186063 (9.772)

Nlocal:    82 ave 82 max 82 min
Histogram: 1 0 0 0 0 0 0 0 0 0
Nghost:    175 ave 175 max 175 min
Histogram: 1 0 0 0 0 0 0 0 0 0
Neighs:    714 ave 714 max 714 min
Histogram: 1 0 0 0 0 0 0 0 0 0

Total # of neighbors = 714
Ave neighs/atom = 8.70732
Neighbor list builds = 0
Dangerous builds = 0
        # write_dump all atom ${dumpfile}
        next i
jump SELF loop1
        displace_atoms upper move ${xstep1} 0.0 0.0 units lattice
        displace_atoms upper move 0.00333333333333333 0.0 0.0 units lattice
        min_style ${style}
        min_style cg
        minimize ${etol} ${ftol} ${maxiter} ${maxeval}
        minimize 1e-12 ${ftol} ${maxiter} ${maxeval}
        minimize 1e-12 1e-08 ${maxiter} ${maxeval}
        minimize 1e-12 1e-08 10000 ${maxeval}
        minimize 1e-12 1e-08 10000 20000
WARNING: Resetting reneighboring criteria during minimization (../min.cpp:168)
Memory usage per processor = 3.35169 Mbytes
Step Temp PotEng Lx Ly Lz 
      84            0    -241.8837    2.2449075    38.891075    1.1224537 
      85            0   -241.88371    2.2449075    38.891075    1.1224537 
      86            0   -241.88371    2.2449075    38.891075    1.1224537 
Loop time of 0.000367087 on 1 procs for 2 steps with 82 atoms

Minimization stats:
  Stopping criterion = linesearch alpha is zero
  Energy initial, next-to-last, final = 
        -241.883699303     -241.883711317     -241.883711317
  Force two-norm initial, final = 0.0682539 0.0419541
  Force max component initial, final = 0.0336165 0.0193777
  Final line search alpha, max atom move = 3.8147e-06 7.392e-08
  Iterations, force evaluations = 2 28

Pair  time (%) = 0.000265201 (72.2446)
Neigh time (%) = 0 (0)
Comm  time (%) = 2.89369e-05 (7.88283)
Outpt time (%) = 9.84408e-07 (0.268167)
Other time (%) = 7.19652e-05 (19.6044)

Nlocal:    82 ave 82 max 82 min
Histogram: 1 0 0 0 0 0 0 0 0 0
Nghost:    175 ave 175 max 175 min
Histogram: 1 0 0 0 0 0 0 0 0 0
Neighs:    714 ave 714 max 714 min
Histogram: 1 0 0 0 0 0 0 0 0 0

Total # of neighbors = 714
Ave neighs/atom = 8.70732
Neighbor list builds = 0
Dangerous builds = 0
        # write_dump all atom ${dumpfile}
        next i
jump SELF loop1
        displace_atoms upper move ${xstep1} 0.0 0.0 units lattice
        displace_atoms upper move 0.00333333333333333 0.0 0.0 units lattice
        min_style ${style}
        min_style cg
        minimize ${etol} ${ftol} ${maxiter} ${maxeval}
        minimize 1e-12 ${ftol} ${maxiter} ${maxeval}
        minimize 1e-12 1e-08 ${maxiter} ${maxeval}
        minimize 1e-12 1e-08 10000 ${maxeval}
        minimize 1e-12 1e-08 10000 20000
WARNING: Resetting reneighboring criteria during minimization (../min.cpp:168)
Memory usage per processor = 3.35169 Mbytes
Step Temp PotEng Lx Ly Lz 
      86            0   -241.87562    2.2449075    38.891079    1.1224537 
      87            0   -241.87567    2.2449075    38.891079    1.1224537 
      88            0   -241.87568    2.2449075    38.891079    1.1224537 
      89            0   -241.87568    2.2449075    38.891079    1.1224537 
      90            0    -241.8757    2.2449075    38.891079    1.1224537 
      91            0   -241.87572    2.2449075    38.891079    1.1224537 
      92            0   -241.87574    2.2449075    38.891079    1.1224537 
      93            0   -241.87576    2.2449075    38.891079    1.1224537 
      94            0   -241.87577    2.2449075    38.891079    1.1224537 
      95            0   -241.87577    2.2449075    38.891079    1.1224537 
      96            0   -241.87577    2.2449075    38.891079    1.1224537 
      97            0   -241.87577    2.2449075    38.891079    1.1224537 
      98            0   -241.87577    2.2449075    38.891079    1.1224537 
Loop time of 0.00213689 on 1 procs for 12 steps with 82 atoms

Minimization stats:
  Stopping criterion = linesearch alpha is zero
  Energy initial, next-to-last, final = 
        -241.875615006      -241.87577112      -241.87577112
  Force two-norm initial, final = 0.107911 0.0118542
  Force max component initial, final = 0.0533544 0.00210997
  Final line search alpha, max atom move = 6.10352e-05 1.28782e-07
  Iterations, force evaluations = 12 93

Pair  time (%) = 0.00165991 (77.6788)
Neigh time (%) = 0 (0)
Comm  time (%) = 0.000130753 (6.11883)
Outpt time (%) = 8.04146e-05 (3.76317)
Other time (%) = 0.000265811 (12.4392)

Nlocal:    82 ave 82 max 82 min
Histogram: 1 0 0 0 0 0 0 0 0 0
Nghost:    175 ave 175 max 175 min
Histogram: 1 0 0 0 0 0 0 0 0 0
Neighs:    714 ave 714 max 714 min
Histogram: 1 0 0 0 0 0 0 0 0 0

Total # of neighbors = 714
Ave neighs/atom = 8.70732
Neighbor list builds = 0
Dangerous builds = 0
        # write_dump all atom ${dumpfile}
        next i
jump SELF loop1
        displace_atoms upper move ${xstep1} 0.0 0.0 units lattice
        displace_atoms upper move 0.00333333333333333 0.0 0.0 units lattice
        min_style ${style}
        min_style cg
        minimize ${etol} ${ftol} ${maxiter} ${maxeval}
        minimize 1e-12 ${ftol} ${maxiter} ${maxeval}
        minimize 1e-12 1e-08 ${maxiter} ${maxeval}
        minimize 1e-12 1e-08 10000 ${maxeval}
        minimize 1e-12 1e-08 10000 20000
WARNING: Resetting reneighboring criteria during minimization (../min.cpp:168)
Memory usage per processor = 3.35169 Mbytes
Step Temp PotEng Lx Ly Lz 
      98            0   -241.86754    2.2449075    38.891502    1.1224537 
      99            0   -241.86755    2.2449075    38.891502    1.1224537 
     100            0   -241.86756    2.2449075    38.891502    1.1224537 
     101            0   -241.86756    2.2449075    38.891502    1.1224537 
Loop time of 0.000598061 on 1 procs for 3 steps with 82 atoms

Minimization stats:
  Stopping criterion = linesearch alpha is zero
  Energy initial, next-to-last, final = 
        -241.867542798     -241.867556763     -241.867556763
  Force two-norm initial, final = 0.0682203 0.0213627
  Force max component initial, final = 0.033593 0.00773304
  Final line search alpha, max atom move = 1.52588e-05 1.17997e-07
  Iterations, force evaluations = 3 34

Pair  time (%) = 0.000487529 (81.5183)
Neigh time (%) = 0 (0)
Comm  time (%) = 3.41032e-05 (5.70229)
Outpt time (%) = 6.977e-06 (1.1666)
Other time (%) = 6.94515e-05 (11.6128)

Nlocal:    82 ave 82 max 82 min
Histogram: 1 0 0 0 0 0 0 0 0 0
Nghost:    175 ave 175 max 175 min
Histogram: 1 0 0 0 0 0 0 0 0 0
Neighs:    714 ave 714 max 714 min
Histogram: 1 0 0 0 0 0 0 0 0 0

Total # of neighbors = 714
Ave neighs/atom = 8.70732
Neighbor list builds = 0
Dangerous builds = 0
        # write_dump all atom ${dumpfile}
        next i
jump SELF loop1
        displace_atoms upper move ${xstep1} 0.0 0.0 units lattice
        displace_atoms upper move 0.00333333333333333 0.0 0.0 units lattice
        min_style ${style}
        min_style cg
        minimize ${etol} ${ftol} ${maxiter} ${maxeval}
        minimize 1e-12 ${ftol} ${maxiter} ${maxeval}
        minimize 1e-12 1e-08 ${maxiter} ${maxeval}
        minimize 1e-12 1e-08 10000 ${maxeval}
        minimize 1e-12 1e-08 10000 20000
WARNING: Resetting reneighboring criteria during minimization (../min.cpp:168)
Memory usage per processor = 3.35169 Mbytes
Step Temp PotEng Lx Ly Lz 
     101            0   -241.85913    2.2449075    38.891522    1.1224537 
     102            0   -241.85916    2.2449075    38.891522    1.1224537 
     103            0   -241.85917    2.2449075    38.891522    1.1224537 
     104            0   -241.85918    2.2449075    38.891522    1.1224537 
     105            0   -241.85918    2.2449075    38.891522    1.1224537 
     106            0    -241.8592    2.2449075    38.891522    1.1224537 
     107            0   -241.85923    2.2449075    38.891522    1.1224537 
     108            0   -241.85924    2.2449075    38.891522    1.1224537 
     109            0   -241.85926    2.2449075    38.891522    1.1224537 
     110            0   -241.85927    2.2449075    38.891522    1.1224537 
     111            0   -241.85927    2.2449075    38.891522    1.1224537 
     112            0   -241.85927    2.2449075    38.891522    1.1224537 
Loop time of 0.00164511 on 1 procs for 11 steps with 82 atoms

Minimization stats:
  Stopping criterion = linesearch alpha is zero
  Energy initial, next-to-last, final = 
        -241.859126851     -241.859271055     -241.859271055
  Force two-norm initial, final = 0.0788813 0.013876
  Force max component initial, final = 0.0381903 0.00329945
  Final line search alpha, max atom move = 3.05176e-05 1.00691e-07
  Iterations, force evaluations = 11 84

Pair  time (%) = 0.0013018 (79.1313)
Neigh time (%) = 0 (0)
Comm  time (%) = 0.00010189 (6.19349)
Outpt time (%) = 5.7042e-05 (3.46737)
Other time (%) = 0.000184381 (11.2078)

Nlocal:    82 ave 82 max 82 min
Histogram: 1 0 0 0 0 0 0 0 0 0
Nghost:    175 ave 175 max 175 min
Histogram: 1 0 0 0 0 0 0 0 0 0
Neighs:    714 ave 714 max 714 min
Histogram: 1 0 0 0 0 0 0 0 0 0

Total # of neighbors = 714
Ave neighs/atom = 8.70732
Neighbor list builds = 0
Dangerous builds = 0
        # write_dump all atom ${dumpfile}
        next i
jump SELF loop1
        displace_atoms upper move ${xstep1} 0.0 0.0 units lattice
        displace_atoms upper move 0.00333333333333333 0.0 0.0 units lattice
        min_style ${style}
        min_style cg
        minimize ${etol} ${ftol} ${maxiter} ${maxeval}
        minimize 1e-12 ${ftol} ${maxiter} ${maxeval}
        minimize 1e-12 1e-08 ${maxiter} ${maxeval}
        minimize 1e-12 1e-08 10000 ${maxeval}
        minimize 1e-12 1e-08 10000 20000
WARNING: Resetting reneighboring criteria during minimization (../min.cpp:168)
Memory usage per processor = 3.35169 Mbytes
Step Temp PotEng Lx Ly Lz 
     112            0   -241.85071    2.2449075    38.892444    1.1224537 
     113            0   -241.85072    2.2449075    38.892444    1.1224537 
     114            0   -241.85072    2.2449075    38.892444    1.1224537 
     115            0   -241.85073    2.2449075    38.892444    1.1224537 
     116            0   -241.85073    2.2449075    38.892444    1.1224537 
     117            0   -241.85074    2.2449075    38.892444    1.1224537 
     118            0   -241.85075    2.2449075    38.892444    1.1224537 
     119            0   -241.85075    2.2449075    38.892444    1.1224537 
     120            0   -241.85081    2.2449075    38.892444    1.1224537 
     121            0   -241.85085    2.2449075    38.892444    1.1224537 
     122            0   -241.85086    2.2449075    38.892444    1.1224537 
     123            0   -241.85086    2.2449075    38.892444    1.1224537 
Loop time of 0.00263793 on 1 procs for 11 steps with 82 atoms

Minimization stats:
  Stopping criterion = linesearch alpha is zero
  Energy initial, next-to-last, final = 
        -241.850706794     -241.850861445     -241.850861445
  Force two-norm initial, final = 0.0638388 0.0276045
  Force max component initial, final = 0.0312756 0.00683358
  Final line search alpha, max atom move = 1.52588e-05 1.04272e-07
  Iterations, force evaluations = 11 85

Pair  time (%) = 0.00208651 (79.0966)
Neigh time (%) = 0 (0)
Comm  time (%) = 0.000204194 (7.74068)
Outpt time (%) = 5.98347e-05 (2.26824)
Other time (%) = 0.000287388 (10.8945)

Nlocal:    82 ave 82 max 82 min
Histogram: 1 0 0 0 0 0 0 0 0 0
Nghost:    175 ave 175 max 175 min
Histogram: 1 0 0 0 0 0 0 0 0 0
Neighs:    714 ave 714 max 714 min
Histogram: 1 0 0 0 0 0 0 0 0 0

Total # of neighbors = 714
Ave neighs/atom = 8.70732
Neighbor list builds = 0
Dangerous builds = 0
        # write_dump all atom ${dumpfile}
        next i
jump SELF loop1
        displace_atoms upper move ${xstep1} 0.0 0.0 units lattice
        displace_atoms upper move 0.00333333333333333 0.0 0.0 units lattice
        min_style ${style}
        min_style cg
        minimize ${etol} ${ftol} ${maxiter} ${maxeval}
        minimize 1e-12 ${ftol} ${maxiter} ${maxeval}
        minimize 1e-12 1e-08 ${maxiter} ${maxeval}
        minimize 1e-12 1e-08 10000 ${maxeval}
        minimize 1e-12 1e-08 10000 20000
WARNING: Resetting reneighboring criteria during minimization (../min.cpp:168)
Memory usage per processor = 3.35169 Mbytes
Step Temp PotEng Lx Ly Lz 
     123            0   -241.84217    2.2449075    38.897535    1.1224537 
     124            0   -241.84218    2.2449075    38.897535    1.1224537 
     125            0   -241.84218    2.2449075    38.897535    1.1224537 
Loop time of 0.000562975 on 1 procs for 2 steps with 82 atoms

Minimization stats:
  Stopping criterion = linesearch alpha is zero
  Energy initial, next-to-last, final = 
        -241.842170745     -241.842181936     -241.842181936
  Force two-norm initial, final = 0.0756472 0.0476199
  Force max component initial, final = 0.0352716 0.0198529
  Final line search alpha, max atom move = 3.8147e-06 7.57329e-08
  Iterations, force evaluations = 2 28

Pair  time (%) = 0.000460124 (81.7308)
Neigh time (%) = 0 (0)
Comm  time (%) = 2.79485e-05 (4.96443)
Outpt time (%) = 6.02915e-06 (1.07094)
Other time (%) = 6.88736e-05 (12.2339)

Nlocal:    82 ave 82 max 82 min
Histogram: 1 0 0 0 0 0 0 0 0 0
Nghost:    175 ave 175 max 175 min
Histogram: 1 0 0 0 0 0 0 0 0 0
Neighs:    714 ave 714 max 714 min
Histogram: 1 0 0 0 0 0 0 0 0 0

Total # of neighbors = 714
Ave neighs/atom = 8.70732
Neighbor list builds = 0
Dangerous builds = 0
        # write_dump all atom ${dumpfile}
        next i
jump SELF loop1
        displace_atoms upper move ${xstep1} 0.0 0.0 units lattice
        displace_atoms upper move 0.00333333333333333 0.0 0.0 units lattice
        min_style ${style}
        min_style cg
        minimize ${etol} ${ftol} ${maxiter} ${maxeval}
        minimize 1e-12 ${ftol} ${maxiter} ${maxeval}
        minimize 1e-12 1e-08 ${maxiter} ${maxeval}
        minimize 1e-12 1e-08 10000 ${maxeval}
        minimize 1e-12 1e-08 10000 20000
WARNING: Resetting reneighboring criteria during minimization (../min.cpp:168)
Memory usage per processor = 3.35169 Mbytes
Step Temp PotEng Lx Ly Lz 
     125            0   -241.83329    2.2449075    38.897548    1.1224537 
     126            0   -241.83334    2.2449075    38.897548    1.1224537 
     127            0   -241.83334    2.2449075    38.897548    1.1224537 
Loop time of 0.000536112 on 1 procs for 2 steps with 82 atoms

Minimization stats:
  Stopping criterion = linesearch alpha is zero
  Energy initial, next-to-last, final = 
        -241.833285803     -241.833339014     -241.833339014
  Force two-norm initial, final = 0.11115 0.041404
  Force max component initial, final = 0.0540159 0.0156233
  Final line search alpha, max atom move = 3.8147e-06 5.95983e-08
  Iterations, force evaluations = 2 27

Pair  time (%) = 0.000442118 (82.4676)
Neigh time (%) = 0 (0)
Comm  time (%) = 3.22886e-05 (6.02274)
Outpt time (%) = 6.09318e-06 (1.13655)
Other time (%) = 5.56116e-05 (10.3731)

Nlocal:    82 ave 82 max 82 min
Histogram: 1 0 0 0 0 0 0 0 0 0
Nghost:    175 ave 175 max 175 min
Histogram: 1 0 0 0 0 0 0 0 0 0
Neighs:    714 ave 714 max 714 min
Histogram: 1 0 0 0 0 0 0 0 0 0

Total # of neighbors = 714
Ave neighs/atom = 8.70732
Neighbor list builds = 0
Dangerous builds = 0
        # write_dump all atom ${dumpfile}
        next i
jump SELF loop1
        displace_atoms upper move ${xstep1} 0.0 0.0 units lattice
        displace_atoms upper move 0.00333333333333333 0.0 0.0 units lattice
        min_style ${style}
        min_style cg
        minimize ${etol} ${ftol} ${maxiter} ${maxeval}
        minimize 1e-12 ${ftol} ${maxiter} ${maxeval}
        minimize 1e-12 1e-08 ${maxiter} ${maxeval}
        minimize 1e-12 1e-08 10000 ${maxeval}
        minimize 1e-12 1e-08 10000 20000
WARNING: Resetting reneighboring criteria during minimization (../min.cpp:168)
Memory usage per processor = 3.35169 Mbytes
Step Temp PotEng Lx Ly Lz 
     127            0   -241.82428    2.2449075    38.897576    1.1224537 
     128            0   -241.82432    2.2449075    38.897576    1.1224537 
     129            0   -241.82434    2.2449075    38.897576    1.1224537 
     130            0   -241.82434    2.2449075    38.897576    1.1224537 
Loop time of 0.00121495 on 1 procs for 3 steps with 82 atoms

Minimization stats:
  Stopping criterion = linesearch alpha is zero
  Energy initial, next-to-last, final = 
         -241.82427904     -241.824343126     -241.824343126
  Force two-norm initial, final = 0.0929502 0.022942
  Force max component initial, final = 0.0424217 0.00756959
  Final line search alpha, max atom move = 1.52588e-05 1.15503e-07
  Iterations, force evaluations = 3 32

Pair  time (%) = 0.00107273 (88.2944)
Neigh time (%) = 0 (0)
Comm  time (%) = 4.49533e-05 (3.70003)
Outpt time (%) = 1.70749e-05 (1.4054)
Other time (%) = 8.0188e-05 (6.60014)

Nlocal:    82 ave 82 max 82 min
Histogram: 1 0 0 0 0 0 0 0 0 0
Nghost:    175 ave 175 max 175 min
Histogram: 1 0 0 0 0 0 0 0 0 0
Neighs:    714 ave 714 max 714 min
Histogram: 1 0 0 0 0 0 0 0 0 0

Total # of neighbors = 714
Ave neighs/atom = 8.70732
Neighbor list builds = 0
Dangerous builds = 0
        # write_dump all atom ${dumpfile}
        next i
jump SELF loop1
        displace_atoms upper move ${xstep1} 0.0 0.0 units lattice
        displace_atoms upper move 0.00333333333333333 0.0 0.0 units lattice
        min_style ${style}
        min_style cg
        minimize ${etol} ${ftol} ${maxiter} ${maxeval}
        minimize 1e-12 ${ftol} ${maxiter} ${maxeval}
        minimize 1e-12 1e-08 ${maxiter} ${maxeval}
        minimize 1e-12 1e-08 10000 ${maxeval}
        minimize 1e-12 1e-08 10000 20000
WARNING: Resetting reneighboring criteria during minimization (../min.cpp:168)
Memory usage per processor = 3.35169 Mbytes
Step Temp PotEng Lx Ly Lz 
     130            0   -241.81514    2.2449075    38.897664    1.1224537 
     131            0   -241.81516    2.2449075    38.897664    1.1224537 
     132            0   -241.81519    2.2449075    38.897664    1.1224537 
     133            0    -241.8152    2.2449075    38.897664    1.1224537 
     134            0    -241.8152    2.2449075    38.897664    1.1224537 
Loop time of 0.000805077 on 1 procs for 4 steps with 82 atoms

Minimization stats:
  Stopping criterion = linesearch alpha is zero
  Energy initial, next-to-last, final = 
        -241.815137009     -241.815201493     -241.815201493
  Force two-norm initial, final = 0.0778584 0.0247879
  Force max component initial, final = 0.0373512 0.00800867
  Final line search alpha, max atom move = 1.52588e-05 1.22203e-07
  Iterations, force evaluations = 4 38

Pair  time (%) = 0.000650663 (80.8199)
Neigh time (%) = 0 (0)
Comm  time (%) = 4.8067e-05 (5.97048)
Outpt time (%) = 2.10229e-05 (2.61128)
Other time (%) = 8.53246e-05 (10.5983)

Nlocal:    82 ave 82 max 82 min
Histogram: 1 0 0 0 0 0 0 0 0 0
Nghost:    175 ave 175 max 175 min
Histogram: 1 0 0 0 0 0 0 0 0 0
Neighs:    714 ave 714 max 714 min
Histogram: 1 0 0 0 0 0 0 0 0 0

Total # of neighbors = 714
Ave neighs/atom = 8.70732
Neighbor list builds = 0
Dangerous builds = 0
        # write_dump all atom ${dumpfile}
        next i
jump SELF loop1
        displace_atoms upper move ${xstep1} 0.0 0.0 units lattice
        displace_atoms upper move 0.00333333333333333 0.0 0.0 units lattice
        min_style ${style}
        min_style cg
        minimize ${etol} ${ftol} ${maxiter} ${maxeval}
        minimize 1e-12 ${ftol} ${maxiter} ${maxeval}
        minimize 1e-12 1e-08 ${maxiter} ${maxeval}
        minimize 1e-12 1e-08 10000 ${maxeval}
        minimize 1e-12 1e-08 10000 20000
WARNING: Resetting reneighboring criteria during minimization (../min.cpp:168)
Memory usage per processor = 3.35169 Mbytes
Step Temp PotEng Lx Ly Lz 
     134            0   -241.80587    2.2449075    38.897944    1.1224537 
     135            0   -241.80588    2.2449075    38.897944    1.1224537 
     136            0   -241.80588    2.2449075    38.897944    1.1224537 
Loop time of 0.000535078 on 1 procs for 2 steps with 82 atoms

Minimization stats:
  Stopping criterion = linesearch alpha is zero
  Energy initial, next-to-last, final = 
        -241.805873895     -241.805881398     -241.805881398
  Force two-norm initial, final = 0.0565301 0.0343419
  Force max component initial, final = 0.0265699 0.0149464
  Final line search alpha, max atom move = 7.62939e-06 1.14032e-07
  Iterations, force evaluations = 2 27

Pair  time (%) = 0.000435205 (81.3349)
Neigh time (%) = 0 (0)
Comm  time (%) = 3.41918e-05 (6.39005)
Outpt time (%) = 9.03977e-06 (1.68943)
Other time (%) = 5.66416e-05 (10.5857)

Nlocal:    82 ave 82 max 82 min
Histogram: 1 0 0 0 0 0 0 0 0 0
Nghost:    175 ave 175 max 175 min
Histogram: 1 0 0 0 0 0 0 0 0 0
Neighs:    714 ave 714 max 714 min
Histogram: 1 0 0 0 0 0 0 0 0 0

Total # of neighbors = 714
Ave neighs/atom = 8.70732
Neighbor list builds = 0
Dangerous builds = 0
        # write_dump all atom ${dumpfile}
        next i
jump SELF loop1
        displace_atoms upper move ${xstep1} 0.0 0.0 units lattice
        displace_atoms upper move 0.00333333333333333 0.0 0.0 units lattice
        min_style ${style}
        min_style cg
        minimize ${etol} ${ftol} ${maxiter} ${maxeval}
        minimize 1e-12 ${ftol} ${maxiter} ${maxeval}
        minimize 1e-12 1e-08 ${maxiter} ${maxeval}
        minimize 1e-12 1e-08 10000 ${maxeval}
        minimize 1e-12 1e-08 10000 20000
WARNING: Resetting reneighboring criteria during minimization (../min.cpp:168)
Memory usage per processor = 3.35169 Mbytes
Step Temp PotEng Lx Ly Lz 
     136            0   -241.79636    2.2449075    38.897961    1.1224537 
     137            0    -241.7964    2.2449075    38.897961    1.1224537 
     138            0   -241.79641    2.2449075    38.897961    1.1224537 
     139            0   -241.79643    2.2449075    38.897961    1.1224537 
     140            0   -241.79645    2.2449075    38.897961    1.1224537 
     141            0   -241.79646    2.2449075    38.897961    1.1224537 
     142            0   -241.79649    2.2449075    38.897961    1.1224537 
     143            0   -241.79649    2.2449075    38.897961    1.1224537 
     144            0    -241.7965    2.2449075    38.897961    1.1224537 
     145            0   -241.79651    2.2449075    38.897961    1.1224537 
     146            0   -241.79651    2.2449075    38.897961    1.1224537 
     147            0   -241.79651    2.2449075    38.897961    1.1224537 
Loop time of 0.00180492 on 1 procs for 11 steps with 82 atoms

Minimization stats:
  Stopping criterion = linesearch alpha is zero
  Energy initial, next-to-last, final = 
        -241.796363423     -241.796514196     -241.796514196
  Force two-norm initial, final = 0.10039 0.029076
  Force max component initial, final = 0.0495002 0.00765304
  Final line search alpha, max atom move = 7.62939e-06 5.83881e-08
  Iterations, force evaluations = 11 86

Pair  time (%) = 0.00141331 (78.303)
Neigh time (%) = 0 (0)
Comm  time (%) = 0.000116396 (6.44883)
Outpt time (%) = 6.71324e-05 (3.71941)
Other time (%) = 0.000208084 (11.5287)

Nlocal:    82 ave 82 max 82 min
Histogram: 1 0 0 0 0 0 0 0 0 0
Nghost:    175 ave 175 max 175 min
Histogram: 1 0 0 0 0 0 0 0 0 0
Neighs:    714 ave 714 max 714 min
Histogram: 1 0 0 0 0 0 0 0 0 0

Total # of neighbors = 714
Ave neighs/atom = 8.70732
Neighbor list builds = 0
Dangerous builds = 0
        # write_dump all atom ${dumpfile}
        next i
jump SELF loop1
        displace_atoms upper move ${xstep1} 0.0 0.0 units lattice
        displace_atoms upper move 0.00333333333333333 0.0 0.0 units lattice
        min_style ${style}
        min_style cg
        minimize ${etol} ${ftol} ${maxiter} ${maxeval}
        minimize 1e-12 ${ftol} ${maxiter} ${maxeval}
        minimize 1e-12 1e-08 ${maxiter} ${maxeval}
        minimize 1e-12 1e-08 10000 ${maxeval}
        minimize 1e-12 1e-08 10000 20000
WARNING: Resetting reneighboring criteria during minimization (../min.cpp:168)
Memory usage per processor = 3.35169 Mbytes
Step Temp PotEng Lx Ly Lz 
     147            0    -241.7869    2.2449075    38.899896    1.1224537 
     148            0   -241.78692    2.2449075    38.899896    1.1224537 
     149            0   -241.78693    2.2449075    38.899896    1.1224537 
     150            0   -241.78693    2.2449075    38.899896    1.1224537 
     151            0   -241.78695    2.2449075    38.899896    1.1224537 
     152            0   -241.78695    2.2449075    38.899896    1.1224537 
     153            0   -241.78695    2.2449075    38.899896    1.1224537 
     154            0   -241.78695    2.2449075    38.899896    1.1224537 
Loop time of 0.00118696 on 1 procs for 7 steps with 82 atoms

Minimization stats:
  Stopping criterion = linesearch alpha is zero
  Energy initial, next-to-last, final = 
         -241.78689845     -241.786954191     -241.786954191
  Force two-norm initial, final = 0.0752717 0.0210072
  Force max component initial, final = 0.034756 0.00576885
  Final line search alpha, max atom move = 1.52588e-05 8.80257e-08
  Iterations, force evaluations = 7 60

Pair  time (%) = 0.00094577 (79.6798)
Neigh time (%) = 0 (0)
Comm  time (%) = 7.49612e-05 (6.31538)
Outpt time (%) = 3.17035e-05 (2.67097)
Other time (%) = 0.000134529 (11.3338)

Nlocal:    82 ave 82 max 82 min
Histogram: 1 0 0 0 0 0 0 0 0 0
Nghost:    175 ave 175 max 175 min
Histogram: 1 0 0 0 0 0 0 0 0 0
Neighs:    714 ave 714 max 714 min
Histogram: 1 0 0 0 0 0 0 0 0 0

Total # of neighbors = 714
Ave neighs/atom = 8.70732
Neighbor list builds = 0
Dangerous builds = 0
        # write_dump all atom ${dumpfile}
        next i
jump SELF loop1
        displace_atoms upper move ${xstep1} 0.0 0.0 units lattice
        displace_atoms upper move 0.00333333333333333 0.0 0.0 units lattice
        min_style ${style}
        min_style cg
        minimize ${etol} ${ftol} ${maxiter} ${maxeval}
        minimize 1e-12 ${ftol} ${maxiter} ${maxeval}
        minimize 1e-12 1e-08 ${maxiter} ${maxeval}
        minimize 1e-12 1e-08 10000 ${maxeval}
        minimize 1e-12 1e-08 10000 20000
[...]
  Force max component initial, final = 0.0293154 0.0134281
  Final line search alpha, max atom move = 3.05176e-05 4.09793e-07
  Iterations, force evaluations = 7 57

Pair  time (%) = 0.000901796 (4.00532)
Neigh time (%) = 0 (0)
Comm  time (%) = 6.59885e-05 (0.293088)
Outpt time (%) = 0.0213732 (94.9288)
Other time (%) = 0.000173994 (0.772793)

Nlocal:    82 ave 82 max 82 min
Histogram: 1 0 0 0 0 0 0 0 0 0
Nghost:    185 ave 185 max 185 min
Histogram: 1 0 0 0 0 0 0 0 0 0
Neighs:    718 ave 718 max 718 min
Histogram: 1 0 0 0 0 0 0 0 0 0

Total # of neighbors = 718
Ave neighs/atom = 8.7561
Neighbor list builds = 0
Dangerous builds = 0
        # write_dump all atom ${dumpfile}
        next i
jump SELF loop1
        displace_atoms upper move ${xstep1} 0.0 0.0 units lattice
        displace_atoms upper move 0.00333333333333333 0.0 0.0 units lattice
        min_style ${style}
        min_style cg
        minimize ${etol} ${ftol} ${maxiter} ${maxeval}
        minimize 1e-12 ${ftol} ${maxiter} ${maxeval}
        minimize 1e-12 1e-08 ${maxiter} ${maxeval}
        minimize 1e-12 1e-08 10000 ${maxeval}
        minimize 1e-12 1e-08 10000 20000
WARNING: Resetting reneighboring criteria during minimization (../min.cpp:168)
Memory usage per processor = 3.35169 Mbytes
Step Temp PotEng Lx Ly Lz 
    1209            0   -241.98578    2.2449075    38.908638    1.1224537 
    1210            0    -241.9858    2.2449075    38.908638    1.1224537 
    1211            0    -241.9858    2.2449075    38.908638    1.1224537 
    1212            0    -241.9858    2.2449075    38.908638    1.1224537 
Loop time of 0.000632027 on 1 procs for 3 steps with 82 atoms

Minimization stats:
  Stopping criterion = linesearch alpha is zero
  Energy initial, next-to-last, final = 
        -241.985781882     -241.985800135     -241.985800135
  Force two-norm initial, final = 0.037843 0.0187874
  Force max component initial, final = 0.0134281 0.0059382
  Final line search alpha, max atom move = 1.52588e-05 9.06097e-08
  Iterations, force evaluations = 3 31

Pair  time (%) = 0.00051513 (81.5044)
Neigh time (%) = 0 (0)
Comm  time (%) = 4.19853e-05 (6.64296)
Outpt time (%) = 1.1794e-05 (1.86607)
Other time (%) = 6.31177e-05 (9.98655)

Nlocal:    82 ave 82 max 82 min
Histogram: 1 0 0 0 0 0 0 0 0 0
Nghost:    185 ave 185 max 185 min
Histogram: 1 0 0 0 0 0 0 0 0 0
Neighs:    718 ave 718 max 718 min
Histogram: 1 0 0 0 0 0 0 0 0 0

Total # of neighbors = 718
Ave neighs/atom = 8.7561
Neighbor list builds = 0
Dangerous builds = 0
        # write_dump all atom ${dumpfile}
        next i
jump SELF loop1
        displace_atoms upper move ${xstep1} 0.0 0.0 units lattice
        displace_atoms upper move 0.00333333333333333 0.0 0.0 units lattice
        min_style ${style}
        min_style cg
        minimize ${etol} ${ftol} ${maxiter} ${maxeval}
        minimize 1e-12 ${ftol} ${maxiter} ${maxeval}
        minimize 1e-12 1e-08 ${maxiter} ${maxeval}
        minimize 1e-12 1e-08 10000 ${maxeval}
        minimize 1e-12 1e-08 10000 20000
WARNING: Resetting reneighboring criteria during minimization (../min.cpp:168)
Memory usage per processor = 3.35169 Mbytes
Step Temp PotEng Lx Ly Lz 
    1212            0   -241.98865    2.2449075    38.908532    1.1224537 
    1213            0   -241.98865    2.2449075    38.908532    1.1224537 
    1214            0   -241.98865    2.2449075    38.908532    1.1224537 
Loop time of 0.00050894 on 1 procs for 2 steps with 82 atoms

Minimization stats:
  Stopping criterion = linesearch alpha is zero
  Energy initial, next-to-last, final = 
        -241.988654294     -241.988654999     -241.988654999
  Force two-norm initial, final = 0.0188448 0.0149102
  Force max component initial, final = 0.00598367 0.00356855
  Final line search alpha, max atom move = 3.05176e-05 1.08903e-07
  Iterations, force evaluations = 2 25

Pair  time (%) = 0.000414755 (81.4938)
Neigh time (%) = 0 (0)
Comm  time (%) = 3.21254e-05 (6.31222)
Outpt time (%) = 6.9408e-06 (1.36378)
Other time (%) = 5.5119e-05 (10.8302)

Nlocal:    82 ave 82 max 82 min
Histogram: 1 0 0 0 0 0 0 0 0 0
Nghost:    185 ave 185 max 185 min
Histogram: 1 0 0 0 0 0 0 0 0 0
Neighs:    718 ave 718 max 718 min
Histogram: 1 0 0 0 0 0 0 0 0 0

Total # of neighbors = 718
Ave neighs/atom = 8.7561
Neighbor list builds = 0
Dangerous builds = 0
        # write_dump all atom ${dumpfile}
        next i
jump SELF loop1
        displace_atoms upper move ${xstep1} 0.0 0.0 units lattice
        displace_atoms upper move 0.00333333333333333 0.0 0.0 units lattice
        min_style ${style}
        min_style cg
        minimize ${etol} ${ftol} ${maxiter} ${maxeval}
        minimize 1e-12 ${ftol} ${maxiter} ${maxeval}
        minimize 1e-12 1e-08 ${maxiter} ${maxeval}
        minimize 1e-12 1e-08 10000 ${maxeval}
        minimize 1e-12 1e-08 10000 20000
WARNING: Resetting reneighboring criteria during minimization (../min.cpp:168)
Memory usage per processor = 3.35169 Mbytes
Step Temp PotEng Lx Ly Lz 
    1214            0   -241.99118    2.2449075    38.908521    1.1224537 
    1215            0   -241.99118    2.2449075    38.908521    1.1224537 
    1216            0   -241.99119    2.2449075    38.908521    1.1224537 
    1217            0   -241.99119    2.2449075    38.908521    1.1224537 
    1218            0    -241.9912    2.2449075    38.908521    1.1224537 
    1219            0   -241.99123    2.2449075    38.908521    1.1224537 
    1220            0   -241.99124    2.2449075    38.908521    1.1224537 
    1221            0   -241.99129    2.2449075    38.908521    1.1224537 
    1222            0   -241.99133    2.2449075    38.908521    1.1224537 
    1223            0   -241.99137    2.2449075    38.908521    1.1224537 
    1224            0   -241.99137    2.2449075    38.908521    1.1224537 
Loop time of 0.00127994 on 1 procs for 10 steps with 82 atoms

Minimization stats:
  Stopping criterion = linesearch alpha is zero
  Energy initial, next-to-last, final = 
        -241.991175258     -241.991367168     -241.991367168
  Force two-norm initial, final = 0.0309529 0.0399224
  Force max component initial, final = 0.014045 0.012455
  Final line search alpha, max atom move = 7.62939e-06 9.50241e-08
  Iterations, force evaluations = 10 76

Pair  time (%) = 0.00101173 (79.0455)
Neigh time (%) = 0 (0)
Comm  time (%) = 8.41827e-05 (6.5771)
Outpt time (%) = 4.42086e-05 (3.45397)
Other time (%) = 0.000139813 (10.9234)

Nlocal:    82 ave 82 max 82 min
Histogram: 1 0 0 0 0 0 0 0 0 0
Nghost:    185 ave 185 max 185 min
Histogram: 1 0 0 0 0 0 0 0 0 0
Neighs:    718 ave 718 max 718 min
Histogram: 1 0 0 0 0 0 0 0 0 0

Total # of neighbors = 718
Ave neighs/atom = 8.7561
Neighbor list builds = 0
Dangerous builds = 0
        # write_dump all atom ${dumpfile}
        next i
jump SELF loop1
        displace_atoms upper move ${xstep1} 0.0 0.0 units lattice
        displace_atoms upper move 0.00333333333333333 0.0 0.0 units lattice
        min_style ${style}
        min_style cg
        minimize ${etol} ${ftol} ${maxiter} ${maxeval}
        minimize 1e-12 ${ftol} ${maxiter} ${maxeval}
        minimize 1e-12 1e-08 ${maxiter} ${maxeval}
        minimize 1e-12 1e-08 10000 ${maxeval}
        minimize 1e-12 1e-08 10000 20000
WARNING: Resetting reneighboring criteria during minimization (../min.cpp:168)
Memory usage per processor = 3.35169 Mbytes
Step Temp PotEng Lx Ly Lz 
    1224            0   -241.99357    2.2449075    38.901416    1.1224537 
    1225            0   -241.99358    2.2449075    38.901416    1.1224537 
    1226            0   -241.99358    2.2449075    38.901416    1.1224537 
    1227            0   -241.99359    2.2449075    38.901416    1.1224537 
    1228            0   -241.99359    2.2449075    38.901416    1.1224537 
    1229            0    -241.9936    2.2449075    38.901416    1.1224537 
    1230            0    -241.9936    2.2449075    38.901416    1.1224537 
    1231            0    -241.9936    2.2449075    38.901416    1.1224537 
    1232            0   -241.99362    2.2449075    38.901416    1.1224537 
    1233            0   -241.99364    2.2449075    38.901416    1.1224537 
    1234            0   -241.99364    2.2449075    38.901416    1.1224537 
    1235            0   -241.99364    2.2449075    38.901416    1.1224537 
Loop time of 0.00198097 on 1 procs for 11 steps with 82 atoms

Minimization stats:
  Stopping criterion = linesearch alpha is zero
  Energy initial, next-to-last, final = 
        -241.993573183     -241.993640741     -241.993640741
  Force two-norm initial, final = 0.0446348 0.0729942
  Force max component initial, final = 0.012455 0.0175697
  Final line search alpha, max atom move = 1.90735e-06 3.35116e-08
  Iterations, force evaluations = 11 94

Pair  time (%) = 0.00159175 (80.3521)
Neigh time (%) = 0 (0)
Comm  time (%) = 0.000121529 (6.13481)
Outpt time (%) = 5.78329e-05 (2.91943)
Other time (%) = 0.000209857 (10.5936)

Nlocal:    82 ave 82 max 82 min
Histogram: 1 0 0 0 0 0 0 0 0 0
Nghost:    185 ave 185 max 185 min
Histogram: 1 0 0 0 0 0 0 0 0 0
Neighs:    718 ave 718 max 718 min
Histogram: 1 0 0 0 0 0 0 0 0 0

Total # of neighbors = 718
Ave neighs/atom = 8.7561
Neighbor list builds = 0
Dangerous builds = 0
        # write_dump all atom ${dumpfile}
        next i
jump SELF loop1
        displace_atoms upper move ${xstep1} 0.0 0.0 units lattice
        displace_atoms upper move 0.00333333333333333 0.0 0.0 units lattice
        min_style ${style}
        min_style cg
        minimize ${etol} ${ftol} ${maxiter} ${maxeval}
        minimize 1e-12 ${ftol} ${maxiter} ${maxeval}
        minimize 1e-12 1e-08 ${maxiter} ${maxeval}
        minimize 1e-12 1e-08 10000 ${maxeval}
        minimize 1e-12 1e-08 10000 20000
WARNING: Resetting reneighboring criteria during minimization (../min.cpp:168)
Memory usage per processor = 3.35169 Mbytes
Step Temp PotEng Lx Ly Lz 
    1235            0    -241.9955    2.2449075    38.899967    1.1224537 
    1236            0    -241.9955    2.2449075    38.899967    1.1224537 
Loop time of 0.00108694 on 1 procs for 1 steps with 82 atoms

Minimization stats:
  Stopping criterion = linesearch alpha is zero
  Energy initial, next-to-last, final = 
        -241.995503492     -241.995503492     -241.995503492
  Force two-norm initial, final = 0.0815639 0.0815639
  Force max component initial, final = 0.0253141 0.0253141
  Final line search alpha, max atom move = 9.53674e-07 2.41414e-08
  Iterations, force evaluations = 1 21

Pair  time (%) = 0.00088864 (81.7564)
Neigh time (%) = 0 (0)
Comm  time (%) = 7.41921e-05 (6.8258)
Outpt time (%) = 0 (0)
Other time (%) = 0.000124104 (11.4178)

Nlocal:    82 ave 82 max 82 min
Histogram: 1 0 0 0 0 0 0 0 0 0
Nghost:    185 ave 185 max 185 min
Histogram: 1 0 0 0 0 0 0 0 0 0
Neighs:    718 ave 718 max 718 min
Histogram: 1 0 0 0 0 0 0 0 0 0

Total # of neighbors = 718
Ave neighs/atom = 8.7561
Neighbor list builds = 0
Dangerous builds = 0
        # write_dump all atom ${dumpfile}
        next i
jump SELF loop1
        displace_atoms upper move ${xstep1} 0.0 0.0 units lattice
        displace_atoms upper move 0.00333333333333333 0.0 0.0 units lattice
        min_style ${style}
        min_style cg
        minimize ${etol} ${ftol} ${maxiter} ${maxeval}
        minimize 1e-12 ${ftol} ${maxiter} ${maxeval}
        minimize 1e-12 1e-08 ${maxiter} ${maxeval}
        minimize 1e-12 1e-08 10000 ${maxeval}
        minimize 1e-12 1e-08 10000 20000
WARNING: Resetting reneighboring criteria during minimization (../min.cpp:168)
Memory usage per processor = 3.35169 Mbytes
Step Temp PotEng Lx Ly Lz 
    1236            0   -241.99703    2.2449075    38.899967    1.1224537 
    1237            0   -241.99703    2.2449075    38.899967    1.1224537 
Loop time of 0.000422923 on 1 procs for 1 steps with 82 atoms

Minimization stats:
  Stopping criterion = linesearch alpha is zero
  Energy initial, next-to-last, final = 
        -241.997029009     -241.997029009     -241.997029009
  Force two-norm initial, final = 0.0899729 0.0899729
  Force max component initial, final = 0.0316578 0.0316578
  Final line search alpha, max atom move = 9.53674e-07 3.01912e-08
  Iterations, force evaluations = 1 21

Pair  time (%) = 0.000352027 (83.2367)
Neigh time (%) = 0 (0)
Comm  time (%) = 3.08444e-05 (7.29314)
Outpt time (%) = 0 (0)
Other time (%) = 4.00516e-05 (9.47019)

Nlocal:    82 ave 82 max 82 min
Histogram: 1 0 0 0 0 0 0 0 0 0
Nghost:    185 ave 185 max 185 min
Histogram: 1 0 0 0 0 0 0 0 0 0
Neighs:    718 ave 718 max 718 min
Histogram: 1 0 0 0 0 0 0 0 0 0

Total # of neighbors = 718
Ave neighs/atom = 8.7561
Neighbor list builds = 0
Dangerous builds = 0
        # write_dump all atom ${dumpfile}
        next i
jump SELF loop1
        displace_atoms upper move ${xstep1} 0.0 0.0 units lattice
        displace_atoms upper move 0.00333333333333333 0.0 0.0 units lattice
        min_style ${style}
        min_style cg
        minimize ${etol} ${ftol} ${maxiter} ${maxeval}
        minimize 1e-12 ${ftol} ${maxiter} ${maxeval}
        minimize 1e-12 1e-08 ${maxiter} ${maxeval}
        minimize 1e-12 1e-08 10000 ${maxeval}
        minimize 1e-12 1e-08 10000 20000
WARNING: Resetting reneighboring criteria during minimization (../min.cpp:168)
Memory usage per processor = 3.35169 Mbytes
Step Temp PotEng Lx Ly Lz 
    1237            0   -241.99822    2.2449075    38.899967    1.1224537 
    1238            0   -241.99823    2.2449075    38.899967    1.1224537 
    1239            0   -241.99823    2.2449075    38.899967    1.1224537 
    1240            0   -241.99823    2.2449075    38.899967    1.1224537 
Loop time of 0.00112705 on 1 procs for 3 steps with 82 atoms

Minimization stats:
  Stopping criterion = linesearch alpha is zero
  Energy initial, next-to-last, final = 
        -241.998216733      -241.99822974      -241.99822974
  Force two-norm initial, final = 0.0971672 0.0525882
  Force max component initial, final = 0.0365982 0.0210148
  Final line search alpha, max atom move = 3.8147e-06 8.01649e-08
  Iterations, force evaluations = 3 39

Pair  time (%) = 0.000643244 (57.0732)
Neigh time (%) = 0 (0)
Comm  time (%) = 5.22882e-05 (4.63939)
Outpt time (%) = 1.80957e-05 (1.60558)
Other time (%) = 0.000413422 (36.6818)

Nlocal:    82 ave 82 max 82 min
Histogram: 1 0 0 0 0 0 0 0 0 0
Nghost:    185 ave 185 max 185 min
Histogram: 1 0 0 0 0 0 0 0 0 0
Neighs:    718 ave 718 max 718 min
Histogram: 1 0 0 0 0 0 0 0 0 0

Total # of neighbors = 718
Ave neighs/atom = 8.7561
Neighbor list builds = 0
Dangerous builds = 0
        # write_dump all atom ${dumpfile}
        next i
jump SELF loop1
        displace_atoms upper move ${xstep1} 0.0 0.0 units lattice
        displace_atoms upper move 0.00333333333333333 0.0 0.0 units lattice
        min_style ${style}
        min_style cg
        minimize ${etol} ${ftol} ${maxiter} ${maxeval}
        minimize 1e-12 ${ftol} ${maxiter} ${maxeval}
        minimize 1e-12 1e-08 ${maxiter} ${maxeval}
        minimize 1e-12 1e-08 10000 ${maxeval}
        minimize 1e-12 1e-08 10000 20000
WARNING: Resetting reneighboring criteria during minimization (../min.cpp:168)
Memory usage per processor = 3.35169 Mbytes
Step Temp PotEng Lx Ly Lz 
    1240            0   -241.99908    2.2449075    38.899954    1.1224537 
    1241            0   -241.99908    2.2449075    38.899954    1.1224537 
    1242            0   -241.99908    2.2449075    38.899954    1.1224537 
Loop time of 0.00033492 on 1 procs for 2 steps with 82 atoms

Minimization stats:
  Stopping criterion = linesearch alpha is zero
  Energy initial, next-to-last, final = 
        -241.999078321     -241.999081791     -241.999081791
  Force two-norm initial, final = 0.0583676 0.044015
  Force max component initial, final = 0.0245419 0.0188703
  Final line search alpha, max atom move = 3.8147e-06 7.19844e-08
  Iterations, force evaluations = 2 29

Pair  time (%) = 0.000275319 (82.2041)
Neigh time (%) = 0 (0)
Comm  time (%) = 1.92376e-05 (5.74394)
Outpt time (%) = -7.07805e-08 (-0.0211335)
Other time (%) = 4.04351e-05 (12.073)

Nlocal:    82 ave 82 max 82 min
Histogram: 1 0 0 0 0 0 0 0 0 0
Nghost:    185 ave 185 max 185 min
Histogram: 1 0 0 0 0 0 0 0 0 0
Neighs:    718 ave 718 max 718 min
Histogram: 1 0 0 0 0 0 0 0 0 0

Total # of neighbors = 718
Ave neighs/atom = 8.7561
Neighbor list builds = 0
Dangerous builds = 0
        # write_dump all atom ${dumpfile}
        next i
jump SELF loop1
        displace_atoms upper move ${xstep1} 0.0 0.0 units lattice
        displace_atoms upper move 0.00333333333333333 0.0 0.0 units lattice
        min_style ${style}
        min_style cg
        minimize ${etol} ${ftol} ${maxiter} ${maxeval}
        minimize 1e-12 ${ftol} ${maxiter} ${maxeval}
        minimize 1e-12 1e-08 ${maxiter} ${maxeval}
        minimize 1e-12 1e-08 10000 ${maxeval}
        minimize 1e-12 1e-08 10000 20000
WARNING: Resetting reneighboring criteria during minimization (../min.cpp:168)
Memory usage per processor = 3.35169 Mbytes
Step Temp PotEng Lx Ly Lz 
    1242            0   -241.99959    2.2449075    38.899947    1.1224537 
    1243            0    -241.9996    2.2449075    38.899947    1.1224537 
    1244            0    -241.9996    2.2449075    38.899947    1.1224537 
Loop time of 0.000539116 on 1 procs for 2 steps with 82 atoms

Minimization stats:
  Stopping criterion = linesearch alpha is zero
  Energy initial, next-to-last, final = 
        -241.999592344     -241.999600005     -241.999600005
  Force two-norm initial, final = 0.0476979 0.0162555
  Force max component initial, final = 0.0209938 0.00639243
  Final line search alpha, max atom move = 3.05176e-05 1.95081e-07
  Iterations, force evaluations = 2 24

Pair  time (%) = 0.000421325 (78.1512)
Neigh time (%) = 0 (0)
Comm  time (%) = 2.81805e-05 (5.22718)
Outpt time (%) = 7.93661e-06 (1.47215)
Other time (%) = 8.16734e-05 (15.1495)

Nlocal:    82 ave 82 max 82 min
Histogram: 1 0 0 0 0 0 0 0 0 0
Nghost:    185 ave 185 max 185 min
Histogram: 1 0 0 0 0 0 0 0 0 0
Neighs:    718 ave 718 max 718 min
Histogram: 1 0 0 0 0 0 0 0 0 0

Total # of neighbors = 718
Ave neighs/atom = 8.7561
Neighbor list builds = 0
Dangerous builds = 0
        # write_dump all atom ${dumpfile}
        next i
jump SELF loop1
        displace_atoms upper move ${xstep1} 0.0 0.0 units lattice
        displace_atoms upper move 0.00333333333333333 0.0 0.0 units lattice
        min_style ${style}
        min_style cg
        minimize ${etol} ${ftol} ${maxiter} ${maxeval}
        minimize 1e-12 ${ftol} ${maxiter} ${maxeval}
        minimize 1e-12 1e-08 ${maxiter} ${maxeval}
        minimize 1e-12 1e-08 10000 ${maxeval}
        minimize 1e-12 1e-08 10000 20000
WARNING: Resetting reneighboring criteria during minimization (../min.cpp:168)
Memory usage per processor = 3.35169 Mbytes
Step Temp PotEng Lx Ly Lz 
    1244            0   -241.99977    2.2449075    38.899919    1.1224537 
    1245            0   -241.99977    2.2449075    38.899919    1.1224537 
Loop time of 0.000325 on 1 procs for 1 steps with 82 atoms

Minimization stats:
  Stopping criterion = linesearch alpha is zero
  Energy initial, next-to-last, final = 
        -241.999770273     -241.999770273     -241.999770273
  Force two-norm initial, final = 0.0166912 0.0166912
  Force max component initial, final = 0.00639243 0.00639243
  Final line search alpha, max atom move = 3.05176e-05 1.95081e-07
  Iterations, force evaluations = 1 16

Pair  time (%) = 0.000263966 (81.2205)
Neigh time (%) = 0 (0)
Comm  time (%) = 2.56464e-05 (7.89121)
Outpt time (%) = 0 (0)
Other time (%) = 3.53869e-05 (10.8883)

Nlocal:    82 ave 82 max 82 min
Histogram: 1 0 0 0 0 0 0 0 0 0
Nghost:    185 ave 185 max 185 min
Histogram: 1 0 0 0 0 0 0 0 0 0
Neighs:    718 ave 718 max 718 min
Histogram: 1 0 0 0 0 0 0 0 0 0

Total # of neighbors = 718
Ave neighs/atom = 8.7561
Neighbor list builds = 0
Dangerous builds = 0
        # write_dump all atom ${dumpfile}
        next i
jump SELF loop1


