LAMMPS (28 Jun 2014)
# attempt at getting generalized stacking fault (GSF) energy curve

#file prefix
variable prefix string gsf_V_brittlenew
variable dumpfile string ${prefix}.*.dump
variable dumpfile string gsf_V_brittlenew.*.dump
variable restartfile string ${prefix}.*.equil
variable restartfile string gsf_V_brittlenew.*.equil

#Mass (g/mol)
variable m equal 1

# lattice constant (in Angstroms) and orientation of axes (given by lattice vectors)
variable rho equal 0.9165
variable x1 equal 1
variable x2 equal 0
variable x3 equal 0
variable y1 equal 0
variable y2 equal 1
variable y3 equal 0
# length of lattice in different directions (using orientation of lattice vectors)
variable ax equal sqrt(${x1}*${x1}+${x2}*${x2}+${x3}*${x3})
variable ax equal sqrt(1*${x1}+${x2}*${x2}+${x3}*${x3})
variable ax equal sqrt(1*1+${x2}*${x2}+${x3}*${x3})
variable ax equal sqrt(1*1+0*${x2}+${x3}*${x3})
variable ax equal sqrt(1*1+0*0+${x3}*${x3})
variable ax equal sqrt(1*1+0*0+0*${x3})
variable ax equal sqrt(1*1+0*0+0*0)
variable ay equal sqrt(${y1}*${y1}+${y2}*${y2}+${y3}*${y3})
variable ay equal sqrt(0*${y1}+${y2}*${y2}+${y3}*${y3})
variable ay equal sqrt(0*0+${y2}*${y2}+${y3}*${y3})
variable ay equal sqrt(0*0+1*${y2}+${y3}*${y3})
variable ay equal sqrt(0*0+1*1+${y3}*${y3})
variable ay equal sqrt(0*0+1*1+0*${y3})
variable ay equal sqrt(0*0+1*1+0*0)
variable az equal 1

# size of box in lattice units
variable lxpos equal 1
variable lxneg equal -1*${lxpos}
variable lxneg equal -1*1
variable lypos equal 10
variable lyneg equal -1*${lypos}
variable lyneg equal -1*10
variable lzpos equal 0
variable lzneg equal -1

# Define minimization parameters and damping
variable etol equal 1.0e-12
variable ftol equal 1.0e-8
variable maxiter equal 10000
variable maxeval equal 20000
variable style string cg

# boundary conditions
dimension	2
boundary	p s p
atom_style	atomic

# create geometry
units		lj
lattice         hex ${rho}
lattice         hex 0.9165
Lattice spacing in x,y,z = 1.12245 1.94415 1.12245
region		myregion block ${lxneg} ${lxpos} ${lyneg} ${lypos} ${lzneg} ${lzpos} units lattice
region		myregion block -1 ${lxpos} ${lyneg} ${lypos} ${lzneg} ${lzpos} units lattice
region		myregion block -1 1 ${lyneg} ${lypos} ${lzneg} ${lzpos} units lattice
region		myregion block -1 1 -10 ${lypos} ${lzneg} ${lzpos} units lattice
region		myregion block -1 1 -10 10 ${lzneg} ${lzpos} units lattice
region		myregion block -1 1 -10 10 -1 ${lzpos} units lattice
region		myregion block -1 1 -10 10 -1 0 units lattice
create_box	3 myregion
Created orthogonal box = (-1.12245 -19.4415 -1.12245) to (1.12245 19.4415 0)
  1 by 1 by 1 MPI processor grid
create_atoms	1 box
Created 82 atoms

# define masses
mass * $m
mass * 1

# my fake/morse potential
pair_style      table linear 3001
pair_coeff      * * vpotential_brittlenew dummy
neighbor	0.3 bin
neigh_modify	delay 5

# define groups
region	    upper block INF INF 0.01 ${lypos} INF INF units lattice
region	    upper block INF INF 0.01 10 INF INF units lattice
group		upper region upper
40 atoms in group upper

# Setup output
thermo 1
thermo_style custom step temp pe lx ly lz
thermo_modify norm no

# Compute initial state by relaxing box
min_style ${style}
min_style cg
minimize ${etol} ${ftol} ${maxiter} ${maxeval}
minimize 1e-12 ${ftol} ${maxiter} ${maxeval}
minimize 1e-12 1e-08 ${maxiter} ${maxeval}
minimize 1e-12 1e-08 10000 ${maxeval}
minimize 1e-12 1e-08 10000 20000
WARNING: Resetting reneighboring criteria during minimization (../min.cpp:168)
Memory usage per processor = 3.35169 Mbytes
Step Temp PotEng Lx Ly Lz 
       0            0   -241.99993    2.2449075    38.890715    1.1224537 
       1            0   -241.99993    2.2449075    38.890715    1.1224537 
       2            0   -241.99993    2.2449075    38.890715    1.1224537 
Loop time of 0.000450945 on 1 procs for 2 steps with 82 atoms

Minimization stats:
  Stopping criterion = linesearch alpha is zero
  Energy initial, next-to-last, final = 
        -241.999927696     -241.999929863     -241.999929863
  Force two-norm initial, final = 0.000778805 0.00455994
  Force max component initial, final = 0.000389403 0.00179508
  Final line search alpha, max atom move = 0.000488281 8.76506e-07
  Iterations, force evaluations = 2 16

Pair  time (%) = 0.000271024 (60.1012)
Neigh time (%) = 0 (0)
Comm  time (%) = 0.000134043 (29.7248)
Outpt time (%) = 1.20647e-05 (2.67542)
Other time (%) = 3.38145e-05 (7.49857)

Nlocal:    82 ave 82 max 82 min
Histogram: 1 0 0 0 0 0 0 0 0 0
Nghost:    185 ave 185 max 185 min
Histogram: 1 0 0 0 0 0 0 0 0 0
Neighs:    718 ave 718 max 718 min
Histogram: 1 0 0 0 0 0 0 0 0 0

Total # of neighbors = 718
Ave neighs/atom = 8.7561
Neighbor list builds = 0
Dangerous builds = 0

# don't allow atoms to relax in x-direction
fix 2 all setforce 0.0 NULL 0.0

# GSF energy curve will have 100*2 steps
variable nsteps equal 300
variable sstep1 equal 1.
variable xstep1 equal ${sstep1}/(${ax}*${nsteps})
variable xstep1 equal 1/(${ax}*${nsteps})
variable xstep1 equal 1/(1*${nsteps})
variable xstep1 equal 1/(1*300)

variable i loop ${nsteps}
variable i loop 300
label loop1
        displace_atoms upper move ${xstep1} 0.0 0.0 units lattice
        displace_atoms upper move 0.00333333333333333 0.0 0.0 units lattice
        min_style ${style}
        min_style cg
        minimize ${etol} ${ftol} ${maxiter} ${maxeval}
        minimize 1e-12 ${ftol} ${maxiter} ${maxeval}
        minimize 1e-12 1e-08 ${maxiter} ${maxeval}
        minimize 1e-12 1e-08 10000 ${maxeval}
        minimize 1e-12 1e-08 10000 20000
WARNING: Resetting reneighboring criteria during minimization (../min.cpp:168)
Memory usage per processor = 3.35169 Mbytes
Step Temp PotEng Lx Ly Lz 
       2            0   -241.99976    2.2449075    38.890812    1.1224537 
       3            0   -241.99976    2.2449075    38.890812    1.1224537 
Loop time of 0.000236936 on 1 procs for 1 steps with 82 atoms

Minimization stats:
  Stopping criterion = linesearch alpha is zero
  Energy initial, next-to-last, final = 
        -241.999757399     -241.999757399     -241.999757399
  Force two-norm initial, final = 0.00478129 0.00478129
  Force max component initial, final = 0.00179508 0.00179508
  Final line search alpha, max atom move = 0.000488281 8.76506e-07
  Iterations, force evaluations = 1 12

Pair  time (%) = 0.000190023 (80.2004)
Neigh time (%) = 0 (0)
Comm  time (%) = 1.69477e-05 (7.15289)
Outpt time (%) = 0 (0)
Other time (%) = 2.99645e-05 (12.6467)

Nlocal:    82 ave 82 max 82 min
Histogram: 1 0 0 0 0 0 0 0 0 0
Nghost:    185 ave 185 max 185 min
Histogram: 1 0 0 0 0 0 0 0 0 0
Neighs:    718 ave 718 max 718 min
Histogram: 1 0 0 0 0 0 0 0 0 0

Total # of neighbors = 718
Ave neighs/atom = 8.7561
Neighbor list builds = 0
Dangerous builds = 0
        # write_dump all atom ${dumpfile}
        next i
jump SELF loop1
        displace_atoms upper move ${xstep1} 0.0 0.0 units lattice
        displace_atoms upper move 0.00333333333333333 0.0 0.0 units lattice
        min_style ${style}
        min_style cg
        minimize ${etol} ${ftol} ${maxiter} ${maxeval}
        minimize 1e-12 ${ftol} ${maxiter} ${maxeval}
        minimize 1e-12 1e-08 ${maxiter} ${maxeval}
        minimize 1e-12 1e-08 10000 ${maxeval}
        minimize 1e-12 1e-08 10000 20000
WARNING: Resetting reneighboring criteria during minimization (../min.cpp:168)
Memory usage per processor = 3.35169 Mbytes
Step Temp PotEng Lx Ly Lz 
       3            0   -241.99924    2.2449075    38.890812    1.1224537 
       4            0   -241.99924    2.2449075    38.890812    1.1224537 
Loop time of 0.000290081 on 1 procs for 1 steps with 82 atoms

Minimization stats:
  Stopping criterion = linesearch alpha is zero
  Energy initial, next-to-last, final = 
        -241.999241512     -241.999241512     -241.999241512
  Force two-norm initial, final = 0.00732734 0.00732734
  Force max component initial, final = 0.00286779 0.00286779
  Final line search alpha, max atom move = 0.00012207 3.50072e-07
  Iterations, force evaluations = 1 14

Pair  time (%) = 0.000237025 (81.7098)
Neigh time (%) = 0 (0)
Comm  time (%) = 2.03202e-05 (7.005)
Outpt time (%) = 0 (0)
Other time (%) = 3.27363e-05 (11.2852)

Nlocal:    82 ave 82 max 82 min
Histogram: 1 0 0 0 0 0 0 0 0 0
Nghost:    185 ave 185 max 185 min
Histogram: 1 0 0 0 0 0 0 0 0 0
Neighs:    718 ave 718 max 718 min
Histogram: 1 0 0 0 0 0 0 0 0 0

Total # of neighbors = 718
Ave neighs/atom = 8.7561
Neighbor list builds = 0
Dangerous builds = 0
        # write_dump all atom ${dumpfile}
        next i
jump SELF loop1
        displace_atoms upper move ${xstep1} 0.0 0.0 units lattice
        displace_atoms upper move 0.00333333333333333 0.0 0.0 units lattice
        min_style ${style}
        min_style cg
        minimize ${etol} ${ftol} ${maxiter} ${maxeval}
        minimize 1e-12 ${ftol} ${maxiter} ${maxeval}
        minimize 1e-12 1e-08 ${maxiter} ${maxeval}
        minimize 1e-12 1e-08 10000 ${maxeval}
        minimize 1e-12 1e-08 10000 20000
WARNING: Resetting reneighboring criteria during minimization (../min.cpp:168)
Memory usage per processor = 3.35169 Mbytes
Step Temp PotEng Lx Ly Lz 
       4            0   -241.99838    2.2449075    38.890812    1.1224537 
       5            0   -241.99838    2.2449075    38.890812    1.1224537 
Loop time of 0.000309047 on 1 procs for 1 steps with 82 atoms

Minimization stats:
  Stopping criterion = linesearch alpha is zero
  Energy initial, next-to-last, final = 
        -241.998383655     -241.998383655     -241.998383655
  Force two-norm initial, final = 0.01366 0.01366
  Force max component initial, final = 0.00643821 0.00643821
  Final line search alpha, max atom move = 6.10352e-05 3.92957e-07
  Iterations, force evaluations = 1 15

Pair  time (%) = 0.00025479 (82.4436)
Neigh time (%) = 0 (0)
Comm  time (%) = 2.01607e-05 (6.5235)
Outpt time (%) = 0 (0)
Other time (%) = 3.40969e-05 (11.0329)

Nlocal:    82 ave 82 max 82 min
Histogram: 1 0 0 0 0 0 0 0 0 0
Nghost:    185 ave 185 max 185 min
Histogram: 1 0 0 0 0 0 0 0 0 0
Neighs:    718 ave 718 max 718 min
Histogram: 1 0 0 0 0 0 0 0 0 0

Total # of neighbors = 718
Ave neighs/atom = 8.7561
Neighbor list builds = 0
Dangerous builds = 0
        # write_dump all atom ${dumpfile}
        next i
jump SELF loop1
        displace_atoms upper move ${xstep1} 0.0 0.0 units lattice
        displace_atoms upper move 0.00333333333333333 0.0 0.0 units lattice
        min_style ${style}
        min_style cg
        minimize ${etol} ${ftol} ${maxiter} ${maxeval}
        minimize 1e-12 ${ftol} ${maxiter} ${maxeval}
        minimize 1e-12 1e-08 ${maxiter} ${maxeval}
        minimize 1e-12 1e-08 10000 ${maxeval}
        minimize 1e-12 1e-08 10000 20000
WARNING: Resetting reneighboring criteria during minimization (../min.cpp:168)
Memory usage per processor = 3.35169 Mbytes
Step Temp PotEng Lx Ly Lz 
       5            0   -241.99718    2.2449075    38.890812    1.1224537 
       6            0   -241.99718    2.2449075    38.890812    1.1224537 
Loop time of 0.000354926 on 1 procs for 1 steps with 82 atoms

Minimization stats:
  Stopping criterion = linesearch alpha is zero
  Energy initial, next-to-last, final = 
        -241.997184208     -241.997184208     -241.997184208
  Force two-norm initial, final = 0.0233072 0.0233072
  Force max component initial, final = 0.0114284 0.0114284
  Final line search alpha, max atom move = 1.52588e-05 1.74383e-07
  Iterations, force evaluations = 1 17

Pair  time (%) = 0.000280952 (79.1578)
Neigh time (%) = 0 (0)
Comm  time (%) = 2.99275e-05 (8.43203)
Outpt time (%) = 0 (0)
Other time (%) = 4.40468e-05 (12.4101)

Nlocal:    82 ave 82 max 82 min
Histogram: 1 0 0 0 0 0 0 0 0 0
Nghost:    185 ave 185 max 185 min
Histogram: 1 0 0 0 0 0 0 0 0 0
Neighs:    718 ave 718 max 718 min
Histogram: 1 0 0 0 0 0 0 0 0 0

Total # of neighbors = 718
Ave neighs/atom = 8.7561
Neighbor list builds = 0
Dangerous builds = 0
        # write_dump all atom ${dumpfile}
        next i
jump SELF loop1
        displace_atoms upper move ${xstep1} 0.0 0.0 units lattice
        displace_atoms upper move 0.00333333333333333 0.0 0.0 units lattice
        min_style ${style}
        min_style cg
        minimize ${etol} ${ftol} ${maxiter} ${maxeval}
        minimize 1e-12 ${ftol} ${maxiter} ${maxeval}
        minimize 1e-12 1e-08 ${maxiter} ${maxeval}
        minimize 1e-12 1e-08 10000 ${maxeval}
        minimize 1e-12 1e-08 10000 20000
WARNING: Resetting reneighboring criteria during minimization (../min.cpp:168)
Memory usage per processor = 3.35169 Mbytes
Step Temp PotEng Lx Ly Lz 
       6            0   -241.99564    2.2449075    38.890812    1.1224537 
       7            0   -241.99564    2.2449075    38.890812    1.1224537 
       8            0   -241.99564    2.2449075    38.890812    1.1224537 
       9            0   -241.99564    2.2449075    38.890812    1.1224537 
Loop time of 0.000832108 on 1 procs for 3 steps with 82 atoms

Minimization stats:
  Stopping criterion = linesearch alpha is zero
  Energy initial, next-to-last, final = 
        -241.995643567     -241.995644433     -241.995644433
  Force two-norm initial, final = 0.0359625 0.0312651
  Force max component initial, final = 0.0178361 0.015482
  Final line search alpha, max atom move = 7.62939e-06 1.18118e-07
  Iterations, force evaluations = 3 42

Pair  time (%) = 0.000674985 (81.1175)
Neigh time (%) = 0 (0)
Comm  time (%) = 5.48749e-05 (6.59469)
Outpt time (%) = 1.41596e-05 (1.70165)
Other time (%) = 8.80886e-05 (10.5862)

Nlocal:    82 ave 82 max 82 min
Histogram: 1 0 0 0 0 0 0 0 0 0
Nghost:    185 ave 185 max 185 min
Histogram: 1 0 0 0 0 0 0 0 0 0
Neighs:    718 ave 718 max 718 min
Histogram: 1 0 0 0 0 0 0 0 0 0

Total # of neighbors = 718
Ave neighs/atom = 8.7561
Neighbor list builds = 0
Dangerous builds = 0
        # write_dump all atom ${dumpfile}
        next i
jump SELF loop1
        displace_atoms upper move ${xstep1} 0.0 0.0 units lattice
        displace_atoms upper move 0.00333333333333333 0.0 0.0 units lattice
        min_style ${style}
        min_style cg
        minimize ${etol} ${ftol} ${maxiter} ${maxeval}
        minimize 1e-12 ${ftol} ${maxiter} ${maxeval}
        minimize 1e-12 1e-08 ${maxiter} ${maxeval}
        minimize 1e-12 1e-08 10000 ${maxeval}
        minimize 1e-12 1e-08 10000 20000
WARNING: Resetting reneighboring criteria during minimization (../min.cpp:168)
Memory usage per processor = 3.35169 Mbytes
Step Temp PotEng Lx Ly Lz 
       9            0   -241.99376    2.2449075    38.890809    1.1224537 
      10            0   -241.99377    2.2449075    38.890809    1.1224537 
      11            0   -241.99377    2.2449075    38.890809    1.1224537 
Loop time of 0.000219095 on 1 procs for 2 steps with 82 atoms

Minimization stats:
  Stopping criterion = linesearch alpha is zero
  Energy initial, next-to-last, final = 
        -241.993760152     -241.993767243     -241.993767243
  Force two-norm initial, final = 0.046848 0.0156938
  Force max component initial, final = 0.0233238 0.00704691
  Final line search alpha, max atom move = 3.05176e-05 2.15055e-07
  Iterations, force evaluations = 2 24

Pair  time (%) = 0.000174107 (79.4666)
Neigh time (%) = 0 (0)
Comm  time (%) = 1.19903e-05 (5.47266)
Outpt time (%) = 8.93604e-07 (0.407862)
Other time (%) = 3.21037e-05 (14.6529)

Nlocal:    82 ave 82 max 82 min
Histogram: 1 0 0 0 0 0 0 0 0 0
Nghost:    185 ave 185 max 185 min
Histogram: 1 0 0 0 0 0 0 0 0 0
Neighs:    718 ave 718 max 718 min
Histogram: 1 0 0 0 0 0 0 0 0 0

Total # of neighbors = 718
Ave neighs/atom = 8.7561
Neighbor list builds = 0
Dangerous builds = 0
        # write_dump all atom ${dumpfile}
        next i
jump SELF loop1
        displace_atoms upper move ${xstep1} 0.0 0.0 units lattice
        displace_atoms upper move 0.00333333333333333 0.0 0.0 units lattice
        min_style ${style}
        min_style cg
        minimize ${etol} ${ftol} ${maxiter} ${maxeval}
        minimize 1e-12 ${ftol} ${maxiter} ${maxeval}
        minimize 1e-12 1e-08 ${maxiter} ${maxeval}
        minimize 1e-12 1e-08 10000 ${maxeval}
        minimize 1e-12 1e-08 10000 20000
WARNING: Resetting reneighboring criteria during minimization (../min.cpp:168)
Memory usage per processor = 3.35169 Mbytes
Step Temp PotEng Lx Ly Lz 
      11            0   -241.99155    2.2449075    38.890789    1.1224537 
      12            0   -241.99155    2.2449075    38.890789    1.1224537 
      13            0   -241.99155    2.2449075    38.890789    1.1224537 
Loop time of 0.00116298 on 1 procs for 2 steps with 82 atoms

Minimization stats:
  Stopping criterion = linesearch alpha is zero
  Energy initial, next-to-last, final = 
        -241.991550751     -241.991550944     -241.991550944
  Force two-norm initial, final = 0.0288861 0.0279066
  Force max component initial, final = 0.0125837 0.0120304
  Final line search alpha, max atom move = 1.52588e-05 1.83569e-07
  Iterations, force evaluations = 2 29

Pair  time (%) = 0.000827447 (71.1491)
Neigh time (%) = 0 (0)
Comm  time (%) = 0.000156334 (13.4426)
Outpt time (%) = 9.06829e-06 (0.779748)
Other time (%) = 0.000170127 (14.6286)

Nlocal:    82 ave 82 max 82 min
Histogram: 1 0 0 0 0 0 0 0 0 0
Nghost:    185 ave 185 max 185 min
Histogram: 1 0 0 0 0 0 0 0 0 0
Neighs:    718 ave 718 max 718 min
Histogram: 1 0 0 0 0 0 0 0 0 0

Total # of neighbors = 718
Ave neighs/atom = 8.7561
Neighbor list builds = 0
Dangerous builds = 0
        # write_dump all atom ${dumpfile}
        next i
jump SELF loop1
        displace_atoms upper move ${xstep1} 0.0 0.0 units lattice
        displace_atoms upper move 0.00333333333333333 0.0 0.0 units lattice
        min_style ${style}
        min_style cg
        minimize ${etol} ${ftol} ${maxiter} ${maxeval}
        minimize 1e-12 ${ftol} ${maxiter} ${maxeval}
        minimize 1e-12 1e-08 ${maxiter} ${maxeval}
        minimize 1e-12 1e-08 10000 ${maxeval}
        minimize 1e-12 1e-08 10000 20000
WARNING: Resetting reneighboring criteria during minimization (../min.cpp:168)
Memory usage per processor = 3.35169 Mbytes
Step Temp PotEng Lx Ly Lz 
      13            0   -241.98899    2.2449075    38.890788    1.1224537 
      14            0     -241.989    2.2449075    38.890788    1.1224537 
      15            0     -241.989    2.2449075    38.890788    1.1224537 
      16            0     -241.989    2.2449075    38.890788    1.1224537 
      17            0     -241.989    2.2449075    38.890788    1.1224537 
      18            0     -241.989    2.2449075    38.890788    1.1224537 
Loop time of 0.00110896 on 1 procs for 5 steps with 82 atoms

Minimization stats:
  Stopping criterion = linesearch alpha is zero
  Energy initial, next-to-last, final = 
        -241.988993908     -241.989002581     -241.989002581
  Force two-norm initial, final = 0.0474891 0.0179964
  Force max component initial, final = 0.022668 0.00742926
  Final line search alpha, max atom move = 3.05176e-05 2.26723e-07
  Iterations, force evaluations = 5 56

Pair  time (%) = 0.000901418 (81.2851)
Neigh time (%) = 0 (0)
Comm  time (%) = 7.2304e-05 (6.52)
Outpt time (%) = 2.39979e-05 (2.164)
Other time (%) = 0.000111239 (10.0309)

Nlocal:    82 ave 82 max 82 min
Histogram: 1 0 0 0 0 0 0 0 0 0
Nghost:    185 ave 185 max 185 min
Histogram: 1 0 0 0 0 0 0 0 0 0
Neighs:    718 ave 718 max 718 min
Histogram: 1 0 0 0 0 0 0 0 0 0

Total # of neighbors = 718
Ave neighs/atom = 8.7561
Neighbor list builds = 0
Dangerous builds = 0
        # write_dump all atom ${dumpfile}
        next i
jump SELF loop1
        displace_atoms upper move ${xstep1} 0.0 0.0 units lattice
        displace_atoms upper move 0.00333333333333333 0.0 0.0 units lattice
        min_style ${style}
        min_style cg
        minimize ${etol} ${ftol} ${maxiter} ${maxeval}
        minimize 1e-12 ${ftol} ${maxiter} ${maxeval}
        minimize 1e-12 1e-08 ${maxiter} ${maxeval}
        minimize 1e-12 1e-08 10000 ${maxeval}
        minimize 1e-12 1e-08 10000 20000
WARNING: Resetting reneighboring criteria during minimization (../min.cpp:168)
Memory usage per processor = 3.35169 Mbytes
Step Temp PotEng Lx Ly Lz 
      18            0   -241.98612    2.2449075    38.890779    1.1224537 
      19            0   -241.98612    2.2449075    38.890779    1.1224537 
      20            0   -241.98612    2.2449075    38.890779    1.1224537 
Loop time of 0.000486029 on 1 procs for 2 steps with 82 atoms

Minimization stats:
  Stopping criterion = linesearch alpha is zero
  Energy initial, next-to-last, final = 
        -241.986116575     -241.986124626     -241.986124626
  Force two-norm initial, final = 0.0358409 0.026208
  Force max component initial, final = 0.0160058 0.00985142
  Final line search alpha, max atom move = 1.52588e-05 1.50321e-07
  Iterations, force evaluations = 2 24

Pair  time (%) = 0.000396599 (81.6)
Neigh time (%) = 0 (0)
Comm  time (%) = 3.37887e-05 (6.952)
Outpt time (%) = 5.89166e-06 (1.2122)
Other time (%) = 4.9749e-05 (10.2358)

Nlocal:    82 ave 82 max 82 min
Histogram: 1 0 0 0 0 0 0 0 0 0
Nghost:    185 ave 185 max 185 min
Histogram: 1 0 0 0 0 0 0 0 0 0
Neighs:    718 ave 718 max 718 min
Histogram: 1 0 0 0 0 0 0 0 0 0

Total # of neighbors = 718
Ave neighs/atom = 8.7561
Neighbor list builds = 0
Dangerous builds = 0
        # write_dump all atom ${dumpfile}
        next i
jump SELF loop1
        displace_atoms upper move ${xstep1} 0.0 0.0 units lattice
        displace_atoms upper move 0.00333333333333333 0.0 0.0 units lattice
        min_style ${style}
        min_style cg
        minimize ${etol} ${ftol} ${maxiter} ${maxeval}
        minimize 1e-12 ${ftol} ${maxiter} ${maxeval}
        minimize 1e-12 1e-08 ${maxiter} ${maxeval}
        minimize 1e-12 1e-08 10000 ${maxeval}
        minimize 1e-12 1e-08 10000 20000
WARNING: Resetting reneighboring criteria during minimization (../min.cpp:168)
Memory usage per processor = 3.35169 Mbytes
Step Temp PotEng Lx Ly Lz 
      20            0   -241.98292    2.2449075    38.890775    1.1224537 
      21            0   -241.98292    2.2449075    38.890775    1.1224537 
Loop time of 0.000348959 on 1 procs for 1 steps with 82 atoms

Minimization stats:
  Stopping criterion = linesearch alpha is zero
  Energy initial, next-to-last, final = 
        -241.982915772     -241.982915772     -241.982915772
  Force two-norm initial, final = 0.0246763 0.0246763
  Force max component initial, final = 0.00985142 0.00985142
  Final line search alpha, max atom move = 1.52588e-05 1.50321e-07
  Iterations, force evaluations = 1 17

Pair  time (%) = 0.000287746 (82.4584)
Neigh time (%) = 0 (0)
Comm  time (%) = 2.29329e-05 (6.5718)
Outpt time (%) = 0 (0)
Other time (%) = 3.82803e-05 (10.9698)

Nlocal:    82 ave 82 max 82 min
Histogram: 1 0 0 0 0 0 0 0 0 0
Nghost:    185 ave 185 max 185 min
Histogram: 1 0 0 0 0 0 0 0 0 0
Neighs:    718 ave 718 max 718 min
Histogram: 1 0 0 0 0 0 0 0 0 0

Total # of neighbors = 718
Ave neighs/atom = 8.7561
Neighbor list builds = 0
Dangerous builds = 0
        # write_dump all atom ${dumpfile}
        next i
jump SELF loop1
        displace_atoms upper move ${xstep1} 0.0 0.0 units lattice
        displace_atoms upper move 0.00333333333333333 0.0 0.0 units lattice
        min_style ${style}
        min_style cg
        minimize ${etol} ${ftol} ${maxiter} ${maxeval}
        minimize 1e-12 ${ftol} ${maxiter} ${maxeval}
        minimize 1e-12 1e-08 ${maxiter} ${maxeval}
        minimize 1e-12 1e-08 10000 ${maxeval}
        minimize 1e-12 1e-08 10000 20000
WARNING: Resetting reneighboring criteria during minimization (../min.cpp:168)
Memory usage per processor = 3.35169 Mbytes
Step Temp PotEng Lx Ly Lz 
      21            0   -241.97937    2.2449075    38.890775    1.1224537 
      22            0   -241.97939    2.2449075    38.890775    1.1224537 
      23            0   -241.97939    2.2449075    38.890775    1.1224537 
Loop time of 0.000505916 on 1 procs for 2 steps with 82 atoms

Minimization stats:
  Stopping criterion = linesearch alpha is zero
  Energy initial, next-to-last, final = 
        -241.979374756      -241.97939259      -241.97939259
  Force two-norm initial, final = 0.0466418 0.034314
  Force max component initial, final = 0.0206625 0.0127603
  Final line search alpha, max atom move = 7.62939e-06 9.73532e-08
  Iterations, force evaluations = 2 25

Pair  time (%) = 0.000408138 (80.6731)
Neigh time (%) = 0 (0)
Comm  time (%) = 3.42827e-05 (6.77636)
Outpt time (%) = 8.97085e-06 (1.77319)
Other time (%) = 5.45242e-05 (10.7773)

Nlocal:    82 ave 82 max 82 min
Histogram: 1 0 0 0 0 0 0 0 0 0
Nghost:    185 ave 185 max 185 min
Histogram: 1 0 0 0 0 0 0 0 0 0
Neighs:    718 ave 718 max 718 min
Histogram: 1 0 0 0 0 0 0 0 0 0

Total # of neighbors = 718
Ave neighs/atom = 8.7561
Neighbor list builds = 0
Dangerous builds = 0
        # write_dump all atom ${dumpfile}
        next i
jump SELF loop1
        displace_atoms upper move ${xstep1} 0.0 0.0 units lattice
        displace_atoms upper move 0.00333333333333333 0.0 0.0 units lattice
        min_style ${style}
        min_style cg
        minimize ${etol} ${ftol} ${maxiter} ${maxeval}
        minimize 1e-12 ${ftol} ${maxiter} ${maxeval}
        minimize 1e-12 1e-08 ${maxiter} ${maxeval}
        minimize 1e-12 1e-08 10000 ${maxeval}
        minimize 1e-12 1e-08 10000 20000
WARNING: Resetting reneighboring criteria during minimization (../min.cpp:168)
Memory usage per processor = 3.35169 Mbytes
Step Temp PotEng Lx Ly Lz 
      23            0   -241.97554    2.2449075    38.890775    1.1224537 
      24            0   -241.97554    2.2449075    38.890775    1.1224537 
Loop time of 0.000382993 on 1 procs for 1 steps with 82 atoms

Minimization stats:
  Stopping criterion = linesearch alpha is zero
  Energy initial, next-to-last, final = 
        -241.975539704     -241.975539704     -241.975539704
  Force two-norm initial, final = 0.031534 0.031534
  Force max component initial, final = 0.0127603 0.0127603
  Final line search alpha, max atom move = 7.62939e-06 9.73532e-08
  Iterations, force evaluations = 1 18

Pair  time (%) = 0.000303826 (79.3294)
Neigh time (%) = 0 (0)
Comm  time (%) = 2.50267e-05 (6.53451)
Outpt time (%) = 0 (0)
Other time (%) = 5.41401e-05 (14.1361)

Nlocal:    82 ave 82 max 82 min
Histogram: 1 0 0 0 0 0 0 0 0 0
Nghost:    185 ave 185 max 185 min
Histogram: 1 0 0 0 0 0 0 0 0 0
Neighs:    718 ave 718 max 718 min
Histogram: 1 0 0 0 0 0 0 0 0 0

Total # of neighbors = 718
Ave neighs/atom = 8.7561
Neighbor list builds = 0
Dangerous builds = 0
        # write_dump all atom ${dumpfile}
        next i
jump SELF loop1
        displace_atoms upper move ${xstep1} 0.0 0.0 units lattice
        displace_atoms upper move 0.00333333333333333 0.0 0.0 units lattice
        min_style ${style}
        min_style cg
        minimize ${etol} ${ftol} ${maxiter} ${maxeval}
        minimize 1e-12 ${ftol} ${maxiter} ${maxeval}
        minimize 1e-12 1e-08 ${maxiter} ${maxeval}
        minimize 1e-12 1e-08 10000 ${maxeval}
        minimize 1e-12 1e-08 10000 20000
WARNING: Resetting reneighboring criteria during minimization (../min.cpp:168)
Memory usage per processor = 3.35169 Mbytes
Step Temp PotEng Lx Ly Lz 
      24            0   -241.97136    2.2449075    38.890775    1.1224537 
      25            0   -241.97137    2.2449075    38.890775    1.1224537 
      26            0   -241.97139    2.2449075    38.890775    1.1224537 
      27            0   -241.97139    2.2449075    38.890775    1.1224537 
Loop time of 0.000621055 on 1 procs for 3 steps with 82 atoms

Minimization stats:
  Stopping criterion = linesearch alpha is zero
  Energy initial, next-to-last, final = 
        -241.971355746     -241.971389728     -241.971389728
  Force two-norm initial, final = 0.0558468 0.0248973
  Force max component initial, final = 0.0239662 0.0106393
  Final line search alpha, max atom move = 1.52588e-05 1.62343e-07
  Iterations, force evaluations = 3 31

Pair  time (%) = 0.000499368 (80.4064)
Neigh time (%) = 0 (0)
Comm  time (%) = 4.29119e-05 (6.90951)
Outpt time (%) = 1.10951e-05 (1.78649)
Other time (%) = 6.76801e-05 (10.8976)

Nlocal:    82 ave 82 max 82 min
Histogram: 1 0 0 0 0 0 0 0 0 0
Nghost:    185 ave 185 max 185 min
Histogram: 1 0 0 0 0 0 0 0 0 0
Neighs:    718 ave 718 max 718 min
Histogram: 1 0 0 0 0 0 0 0 0 0

Total # of neighbors = 718
Ave neighs/atom = 8.7561
Neighbor list builds = 0
Dangerous builds = 0
        # write_dump all atom ${dumpfile}
        next i
jump SELF loop1
        displace_atoms upper move ${xstep1} 0.0 0.0 units lattice
        displace_atoms upper move 0.00333333333333333 0.0 0.0 units lattice
        min_style ${style}
        min_style cg
        minimize ${etol} ${ftol} ${maxiter} ${maxeval}
        minimize 1e-12 ${ftol} ${maxiter} ${maxeval}
        minimize 1e-12 1e-08 ${maxiter} ${maxeval}
        minimize 1e-12 1e-08 10000 ${maxeval}
        minimize 1e-12 1e-08 10000 20000
WARNING: Resetting reneighboring criteria during minimization (../min.cpp:168)
Memory usage per processor = 3.35169 Mbytes
Step Temp PotEng Lx Ly Lz 
      27            0   -241.96691    2.2449075    38.890777    1.1224537 
      28            0   -241.96692    2.2449075    38.890777    1.1224537 
      29            0   -241.96692    2.2449075    38.890777    1.1224537 
Loop time of 0.000503936 on 1 procs for 2 steps with 82 atoms

Minimization stats:
  Stopping criterion = linesearch alpha is zero
  Energy initial, next-to-last, final = 
        -241.966909665     -241.966917741     -241.966917741
  Force two-norm initial, final = 0.0437816 0.0226178
  Force max component initial, final = 0.0180164 0.00716171
  Final line search alpha, max atom move = 1.52588e-05 1.09279e-07
  Iterations, force evaluations = 2 25

Pair  time (%) = 0.000406094 (80.5843)
Neigh time (%) = 0 (0)
Comm  time (%) = 3.39102e-05 (6.72905)
Outpt time (%) = 5.96431e-06 (1.18354)
Other time (%) = 5.79681e-05 (11.5031)

Nlocal:    82 ave 82 max 82 min
Histogram: 1 0 0 0 0 0 0 0 0 0
Nghost:    185 ave 185 max 185 min
Histogram: 1 0 0 0 0 0 0 0 0 0
Neighs:    718 ave 718 max 718 min
Histogram: 1 0 0 0 0 0 0 0 0 0

Total # of neighbors = 718
Ave neighs/atom = 8.7561
Neighbor list builds = 0
Dangerous builds = 0
        # write_dump all atom ${dumpfile}
        next i
jump SELF loop1
        displace_atoms upper move ${xstep1} 0.0 0.0 units lattice
        displace_atoms upper move 0.00333333333333333 0.0 0.0 units lattice
        min_style ${style}
        min_style cg
        minimize ${etol} ${ftol} ${maxiter} ${maxeval}
        minimize 1e-12 ${ftol} ${maxiter} ${maxeval}
        minimize 1e-12 1e-08 ${maxiter} ${maxeval}
        minimize 1e-12 1e-08 10000 ${maxeval}
        minimize 1e-12 1e-08 10000 20000
WARNING: Resetting reneighboring criteria during minimization (../min.cpp:168)
Memory usage per processor = 3.35169 Mbytes
Step Temp PotEng Lx Ly Lz 
      29            0   -241.96212    2.2449075    38.890778    1.1224537 
      30            0   -241.96213    2.2449075    38.890778    1.1224537 
      31            0   -241.96215    2.2449075    38.890778    1.1224537 
      32            0   -241.96215    2.2449075    38.890778    1.1224537 
Loop time of 0.000329906 on 1 procs for 3 steps with 82 atoms

Minimization stats:
  Stopping criterion = linesearch alpha is zero
  Energy initial, next-to-last, final = 
        -241.962123359      -241.96215136      -241.96215136
  Force two-norm initial, final = 0.0486507 0.0238469
  Force max component initial, final = 0.0216031 0.0101916
  Final line search alpha, max atom move = 1.52588e-05 1.55512e-07
  Iterations, force evaluations = 3 31

Pair  time (%) = 0.000272227 (82.5165)
Neigh time (%) = 0 (0)
Comm  time (%) = 2.32062e-05 (7.0342)
Outpt time (%) = 2.26311e-07 (0.0685988)
Other time (%) = 3.42464e-05 (10.3807)

Nlocal:    82 ave 82 max 82 min
Histogram: 1 0 0 0 0 0 0 0 0 0
Nghost:    175 ave 175 max 175 min
Histogram: 1 0 0 0 0 0 0 0 0 0
Neighs:    718 ave 718 max 718 min
Histogram: 1 0 0 0 0 0 0 0 0 0

Total # of neighbors = 718
Ave neighs/atom = 8.7561
Neighbor list builds = 0
Dangerous builds = 0
        # write_dump all atom ${dumpfile}
        next i
jump SELF loop1
        displace_atoms upper move ${xstep1} 0.0 0.0 units lattice
        displace_atoms upper move 0.00333333333333333 0.0 0.0 units lattice
        min_style ${style}
        min_style cg
        minimize ${etol} ${ftol} ${maxiter} ${maxeval}
        minimize 1e-12 ${ftol} ${maxiter} ${maxeval}
        minimize 1e-12 1e-08 ${maxiter} ${maxeval}
        minimize 1e-12 1e-08 10000 ${maxeval}
        minimize 1e-12 1e-08 10000 20000
WARNING: Resetting reneighboring criteria during minimization (../min.cpp:168)
Memory usage per processor = 3.35169 Mbytes
Step Temp PotEng Lx Ly Lz 
      32            0   -241.95706    2.2449075    38.890782    1.1224537 
      33            0   -241.95707    2.2449075    38.890782    1.1224537 
      34            0   -241.95708    2.2449075    38.890782    1.1224537 
      35            0   -241.95708    2.2449075    38.890782    1.1224537 
Loop time of 0.000634109 on 1 procs for 3 steps with 82 atoms

Minimization stats:
  Stopping criterion = linesearch alpha is zero
  Energy initial, next-to-last, final = 
        -241.957059624     -241.957082829     -241.957082829
  Force two-norm initial, final = 0.0492978 0.0219874
  Force max component initial, final = 0.0215775 0.00888963
  Final line search alpha, max atom move = 1.52588e-05 1.35645e-07
  Iterations, force evaluations = 3 31

Pair  time (%) = 0.000515079 (81.2289)
Neigh time (%) = 0 (0)
Comm  time (%) = 4.25997e-05 (6.71805)
Outpt time (%) = 1.19645e-05 (1.88682)
Other time (%) = 6.4465e-05 (10.1662)

Nlocal:    82 ave 82 max 82 min
Histogram: 1 0 0 0 0 0 0 0 0 0
Nghost:    175 ave 175 max 175 min
Histogram: 1 0 0 0 0 0 0 0 0 0
Neighs:    718 ave 718 max 718 min
Histogram: 1 0 0 0 0 0 0 0 0 0

Total # of neighbors = 718
Ave neighs/atom = 8.7561
Neighbor list builds = 0
Dangerous builds = 0
        # write_dump all atom ${dumpfile}
        next i
jump SELF loop1
        displace_atoms upper move ${xstep1} 0.0 0.0 units lattice
        displace_atoms upper move 0.00333333333333333 0.0 0.0 units lattice
        min_style ${style}
        min_style cg
        minimize ${etol} ${ftol} ${maxiter} ${maxeval}
        minimize 1e-12 ${ftol} ${maxiter} ${maxeval}
        minimize 1e-12 1e-08 ${maxiter} ${maxeval}
        minimize 1e-12 1e-08 10000 ${maxeval}
        minimize 1e-12 1e-08 10000 20000
WARNING: Resetting reneighboring criteria during minimization (../min.cpp:168)
Memory usage per processor = 3.35169 Mbytes
Step Temp PotEng Lx Ly Lz 
      35            0    -241.9517    2.2449075    38.890787    1.1224537 
      36            0   -241.95171    2.2449075    38.890787    1.1224537 
      37            0   -241.95172    2.2449075    38.890787    1.1224537 
      38            0   -241.95172    2.2449075    38.890787    1.1224537 
      39            0   -241.95172    2.2449075    38.890787    1.1224537 
Loop time of 0.000713952 on 1 procs for 4 steps with 82 atoms

Minimization stats:
  Stopping criterion = linesearch alpha is zero
  Energy initial, next-to-last, final = 
        -241.951696313     -241.951723973     -241.951723973
  Force two-norm initial, final = 0.0520035 0.0175776
  Force max component initial, final = 0.0235958 0.0050841
  Final line search alpha, max atom move = 3.05176e-05 1.55155e-07
  Iterations, force evaluations = 4 38

Pair  time (%) = 0.000550038 (77.0413)
Neigh time (%) = 0 (0)
Comm  time (%) = 4.59456e-05 (6.4354)
Outpt time (%) = 1.78199e-05 (2.49596)
Other time (%) = 0.000100149 (14.0274)

Nlocal:    82 ave 82 max 82 min
Histogram: 1 0 0 0 0 0 0 0 0 0
Nghost:    175 ave 175 max 175 min
Histogram: 1 0 0 0 0 0 0 0 0 0
Neighs:    718 ave 718 max 718 min
Histogram: 1 0 0 0 0 0 0 0 0 0

Total # of neighbors = 718
Ave neighs/atom = 8.7561
Neighbor list builds = 0
Dangerous builds = 0
        # write_dump all atom ${dumpfile}
        next i
jump SELF loop1
        displace_atoms upper move ${xstep1} 0.0 0.0 units lattice
        displace_atoms upper move 0.00333333333333333 0.0 0.0 units lattice
        min_style ${style}
        min_style cg
        minimize ${etol} ${ftol} ${maxiter} ${maxeval}
        minimize 1e-12 ${ftol} ${maxiter} ${maxeval}
        minimize 1e-12 1e-08 ${maxiter} ${maxeval}
        minimize 1e-12 1e-08 10000 ${maxeval}
        minimize 1e-12 1e-08 10000 20000
WARNING: Resetting reneighboring criteria during minimization (../min.cpp:168)
Memory usage per processor = 3.35169 Mbytes
Step Temp PotEng Lx Ly Lz 
      39            0   -241.94605    2.2449075    38.890793    1.1224537 
      40            0   -241.94606    2.2449075    38.890793    1.1224537 
      41            0   -241.94606    2.2449075    38.890793    1.1224537 
Loop time of 0.00126494 on 1 procs for 2 steps with 82 atoms

Minimization stats:
  Stopping criterion = linesearch alpha is zero
  Energy initial, next-to-last, final = 
        -241.946052715     -241.946060828     -241.946060828
  Force two-norm initial, final = 0.0486619 0.0319735
  Force max component initial, final = 0.0227032 0.0129171
  Final line search alpha, max atom move = 7.62939e-06 9.85497e-08
  Iterations, force evaluations = 2 27

Pair  time (%) = 0.00116417 (92.0341)
Neigh time (%) = 0 (0)
Comm  time (%) = 3.42805e-05 (2.71006)
Outpt time (%) = 9.05851e-06 (0.716124)
Other time (%) = 5.74247e-05 (4.53973)

Nlocal:    82 ave 82 max 82 min
Histogram: 1 0 0 0 0 0 0 0 0 0
Nghost:    175 ave 175 max 175 min
Histogram: 1 0 0 0 0 0 0 0 0 0
Neighs:    718 ave 718 max 718 min
Histogram: 1 0 0 0 0 0 0 0 0 0

Total # of neighbors = 718
Ave neighs/atom = 8.7561
Neighbor list builds = 0
Dangerous builds = 0
        # write_dump all atom ${dumpfile}
        next i
jump SELF loop1
        displace_atoms upper move ${xstep1} 0.0 0.0 units lattice
        displace_atoms upper move 0.00333333333333333 0.0 0.0 units lattice
        min_style ${style}
        min_style cg
        minimize ${etol} ${ftol} ${maxiter} ${maxeval}
        minimize 1e-12 ${ftol} ${maxiter} ${maxeval}
        minimize 1e-12 1e-08 ${maxiter} ${maxeval}
        minimize 1e-12 1e-08 10000 ${maxeval}
        minimize 1e-12 1e-08 10000 20000
WARNING: Resetting reneighboring criteria during minimization (../min.cpp:168)
Memory usage per processor = 3.35169 Mbytes
Step Temp PotEng Lx Ly Lz 
      41            0   -241.94008    2.2449075    38.890794    1.1224537 
      42            0   -241.94011    2.2449075    38.890794    1.1224537 
      43            0   -241.94012    2.2449075    38.890794    1.1224537 
      44            0   -241.94015    2.2449075    38.890794    1.1224537 
      45            0   -241.94016    2.2449075    38.890794    1.1224537 
      46            0   -241.94016    2.2449075    38.890794    1.1224537 
Loop time of 0.000860028 on 1 procs for 5 steps with 82 atoms

Minimization stats:
  Stopping criterion = linesearch alpha is zero
  Energy initial, next-to-last, final = 
        -241.940082943     -241.940157367     -241.940157367
  Force two-norm initial, final = 0.0777496 0.0192696
  Force max component initial, final = 0.0377164 0.00654925
  Final line search alpha, max atom move = 3.05176e-05 1.99867e-07
  Iterations, force evaluations = 5 45

Pair  time (%) = 0.000692304 (80.4978)
Neigh time (%) = 0 (0)
Comm  time (%) = 5.51483e-05 (6.41238)
Outpt time (%) = 2.30827e-05 (2.68395)
Other time (%) = 8.9493e-05 (10.4058)

Nlocal:    82 ave 82 max 82 min
Histogram: 1 0 0 0 0 0 0 0 0 0
Nghost:    175 ave 175 max 175 min
Histogram: 1 0 0 0 0 0 0 0 0 0
Neighs:    718 ave 718 max 718 min
Histogram: 1 0 0 0 0 0 0 0 0 0

Total # of neighbors = 718
Ave neighs/atom = 8.7561
Neighbor list builds = 0
Dangerous builds = 0
        # write_dump all atom ${dumpfile}
        next i
jump SELF loop1
        displace_atoms upper move ${xstep1} 0.0 0.0 units lattice
        displace_atoms upper move 0.00333333333333333 0.0 0.0 units lattice
        min_style ${style}
        min_style cg
        minimize ${etol} ${ftol} ${maxiter} ${maxeval}
        minimize 1e-12 ${ftol} ${maxiter} ${maxeval}
        minimize 1e-12 1e-08 ${maxiter} ${maxeval}
        minimize 1e-12 1e-08 10000 ${maxeval}
        minimize 1e-12 1e-08 10000 20000
WARNING: Resetting reneighboring criteria during minimization (../min.cpp:168)
Memory usage per processor = 3.35169 Mbytes
Step Temp PotEng Lx Ly Lz 
      46            0   -241.93393    2.2449075    38.890802    1.1224537 
      47            0   -241.93393    2.2449075    38.890802    1.1224537 
      48            0   -241.93393    2.2449075    38.890802    1.1224537 
Loop time of 0.000575113 on 1 procs for 2 steps with 82 atoms

Minimization stats:
  Stopping criterion = linesearch alpha is zero
  Energy initial, next-to-last, final = 
        -241.933928927     -241.933929753     -241.933929753
  Force two-norm initial, final = 0.0514619 0.049012
  Force max component initial, final = 0.0239336 0.0226354
  Final line search alpha, max atom move = 3.8147e-06 8.63471e-08
  Iterations, force evaluations = 2 31

Pair  time (%) = 0.000468613 (81.4819)
Neigh time (%) = 0 (0)
Comm  time (%) = 3.56815e-05 (6.20426)
Outpt time (%) = 6.03928e-06 (1.0501)
Other time (%) = 6.47794e-05 (11.2638)

Nlocal:    82 ave 82 max 82 min
Histogram: 1 0 0 0 0 0 0 0 0 0
Nghost:    175 ave 175 max 175 min
Histogram: 1 0 0 0 0 0 0 0 0 0
Neighs:    718 ave 718 max 718 min
Histogram: 1 0 0 0 0 0 0 0 0 0

Total # of neighbors = 718
Ave neighs/atom = 8.7561
Neighbor list builds = 0
Dangerous builds = 0
        # write_dump all atom ${dumpfile}
        next i
jump SELF loop1
        displace_atoms upper move ${xstep1} 0.0 0.0 units lattice
        displace_atoms upper move 0.00333333333333333 0.0 0.0 units lattice
        min_style ${style}
        min_style cg
        minimize ${etol} ${ftol} ${maxiter} ${maxeval}
        minimize 1e-12 ${ftol} ${maxiter} ${maxeval}
        minimize 1e-12 1e-08 ${maxiter} ${maxeval}
        minimize 1e-12 1e-08 10000 ${maxeval}
        minimize 1e-12 1e-08 10000 20000
WARNING: Resetting reneighboring criteria during minimization (../min.cpp:168)
Memory usage per processor = 3.35169 Mbytes
Step Temp PotEng Lx Ly Lz 
      48            0   -241.92739    2.2449075    38.890802    1.1224537 
      49            0   -241.92743    2.2449075    38.890802    1.1224537 
      50            0   -241.92744    2.2449075    38.890802    1.1224537 
      51            0   -241.92746    2.2449075    38.890802    1.1224537 
      52            0   -241.92748    2.2449075    38.890802    1.1224537 
      53            0   -241.92749    2.2449075    38.890802    1.1224537 
      54            0    -241.9275    2.2449075    38.890802    1.1224537 
      55            0    -241.9275    2.2449075    38.890802    1.1224537 
Loop time of 0.00117796 on 1 procs for 7 steps with 82 atoms

Minimization stats:
  Stopping criterion = linesearch alpha is zero
  Energy initial, next-to-last, final = 
        -241.927394836     -241.927502596     -241.927502596
  Force two-norm initial, final = 0.101211 0.0249314
  Force max component initial, final = 0.0497264 0.00605413
  Final line search alpha, max atom move = 1.52588e-05 9.23787e-08
  Iterations, force evaluations = 7 59

Pair  time (%) = 0.000935747 (79.4377)
Neigh time (%) = 0 (0)
Comm  time (%) = 7.28756e-05 (6.18658)
Outpt time (%) = 3.8174e-05 (3.24068)
Other time (%) = 0.000131167 (11.135)

Nlocal:    82 ave 82 max 82 min
Histogram: 1 0 0 0 0 0 0 0 0 0
Nghost:    175 ave 175 max 175 min
Histogram: 1 0 0 0 0 0 0 0 0 0
Neighs:    718 ave 718 max 718 min
Histogram: 1 0 0 0 0 0 0 0 0 0

Total # of neighbors = 718
Ave neighs/atom = 8.7561
Neighbor list builds = 0
Dangerous builds = 0
        # write_dump all atom ${dumpfile}
        next i
jump SELF loop1
        displace_atoms upper move ${xstep1} 0.0 0.0 units lattice
        displace_atoms upper move 0.00333333333333333 0.0 0.0 units lattice
        min_style ${style}
        min_style cg
        minimize ${etol} ${ftol} ${maxiter} ${maxeval}
        minimize 1e-12 ${ftol} ${maxiter} ${maxeval}
        minimize 1e-12 1e-08 ${maxiter} ${maxeval}
        minimize 1e-12 1e-08 10000 ${maxeval}
        minimize 1e-12 1e-08 10000 20000
WARNING: Resetting reneighboring criteria during minimization (../min.cpp:168)
Memory usage per processor = 3.35169 Mbytes
Step Temp PotEng Lx Ly Lz 
      55            0   -241.92076    2.2449075    38.890829    1.1224537 
      56            0   -241.92078    2.2449075    38.890829    1.1224537 
      57            0   -241.92078    2.2449075    38.890829    1.1224537 
Loop time of 0.000485919 on 1 procs for 2 steps with 82 atoms

Minimization stats:
  Stopping criterion = linesearch alpha is zero
  Energy initial, next-to-last, final = 
        -241.920764858      -241.92077897      -241.92077897
  Force two-norm initial, final = 0.053412 0.019074
  Force max component initial, final = 0.0239481 0.00435941
  Final line search alpha, max atom move = 3.05176e-05 1.33039e-07
  Iterations, force evaluations = 2 24

Pair  time (%) = 0.000398895 (82.0908)
Neigh time (%) = 0 (0)
Comm  time (%) = 3.10888e-05 (6.39794)
Outpt time (%) = 5.94743e-06 (1.22395)
Other time (%) = 4.99879e-05 (10.2873)

Nlocal:    82 ave 82 max 82 min
Histogram: 1 0 0 0 0 0 0 0 0 0
Nghost:    175 ave 175 max 175 min
Histogram: 1 0 0 0 0 0 0 0 0 0
Neighs:    718 ave 718 max 718 min
Histogram: 1 0 0 0 0 0 0 0 0 0

Total # of neighbors = 718
Ave neighs/atom = 8.7561
Neighbor list builds = 0
Dangerous builds = 0
        # write_dump all atom ${dumpfile}
        next i
jump SELF loop1
        displace_atoms upper move ${xstep1} 0.0 0.0 units lattice
        displace_atoms upper move 0.00333333333333333 0.0 0.0 units lattice
        min_style ${style}
        min_style cg
        minimize ${etol} ${ftol} ${maxiter} ${maxeval}
        minimize 1e-12 ${ftol} ${maxiter} ${maxeval}
        minimize 1e-12 1e-08 ${maxiter} ${maxeval}
        minimize 1e-12 1e-08 10000 ${maxeval}
        minimize 1e-12 1e-08 10000 20000
WARNING: Resetting reneighboring criteria during minimization (../min.cpp:168)
Memory usage per processor = 3.35169 Mbytes
Step Temp PotEng Lx Ly Lz 
      57            0   -241.91377    2.2449075     38.89083    1.1224537 
      58            0   -241.91379    2.2449075     38.89083    1.1224537 
      59            0   -241.91379    2.2449075     38.89083    1.1224537 
      60            0    -241.9138    2.2449075     38.89083    1.1224537 
      61            0    -241.9138    2.2449075     38.89083    1.1224537 
      62            0    -241.9138    2.2449075     38.89083    1.1224537 
      63            0    -241.9138    2.2449075     38.89083    1.1224537 
Loop time of 0.000831882 on 1 procs for 6 steps with 82 atoms

Minimization stats:
  Stopping criterion = linesearch alpha is zero
  Energy initial, next-to-last, final = 
        -241.913766486     -241.913802577     -241.913802577
  Force two-norm initial, final = 0.0640554 0.0137691
  Force max component initial, final = 0.0306159 0.00272241
  Final line search alpha, max atom move = 6.10352e-05 1.66163e-07
  Iterations, force evaluations = 6 53

Pair  time (%) = 0.000672312 (80.8182)
Neigh time (%) = 0 (0)
Comm  time (%) = 4.71456e-05 (5.66735)
Outpt time (%) = 1.78568e-05 (2.14656)
Other time (%) = 9.45674e-05 (11.3679)

Nlocal:    82 ave 82 max 82 min
Histogram: 1 0 0 0 0 0 0 0 0 0
Nghost:    175 ave 175 max 175 min
Histogram: 1 0 0 0 0 0 0 0 0 0
Neighs:    718 ave 718 max 718 min
Histogram: 1 0 0 0 0 0 0 0 0 0

Total # of neighbors = 718
Ave neighs/atom = 8.7561
Neighbor list builds = 0
Dangerous builds = 0
        # write_dump all atom ${dumpfile}
        next i
jump SELF loop1
        displace_atoms upper move ${xstep1} 0.0 0.0 units lattice
        displace_atoms upper move 0.00333333333333333 0.0 0.0 units lattice
        min_style ${style}
        min_style cg
        minimize ${etol} ${ftol} ${maxiter} ${maxeval}
        minimize 1e-12 ${ftol} ${maxiter} ${maxeval}
        minimize 1e-12 1e-08 ${maxiter} ${maxeval}
        minimize 1e-12 1e-08 10000 ${maxeval}
        minimize 1e-12 1e-08 10000 20000
WARNING: Resetting reneighboring criteria during minimization (../min.cpp:168)
Memory usage per processor = 3.35169 Mbytes
Step Temp PotEng Lx Ly Lz 
      63            0   -241.90654    2.2449075    38.890839    1.1224537 
      64            0   -241.90655    2.2449075    38.890839    1.1224537 
      65            0   -241.90655    2.2449075    38.890839    1.1224537 
      66            0   -241.90655    2.2449075    38.890839    1.1224537 
Loop time of 0.000804948 on 1 procs for 3 steps with 82 atoms

Minimization stats:
  Stopping criterion = linesearch alpha is zero
  Energy initial, next-to-last, final = 
        -241.906537598      -241.90654914      -241.90654914
  Force two-norm initial, final = 0.0638456 0.0333324
  Force max component initial, final = 0.0311923 0.0141453
  Final line search alpha, max atom move = 7.62939e-06 1.0792e-07
  Iterations, force evaluations = 3 37

Pair  time (%) = 0.000656036 (81.5004)
Neigh time (%) = 0 (0)
Comm  time (%) = 5.16147e-05 (6.41218)
Outpt time (%) = 1.08714e-05 (1.35058)
Other time (%) = 8.64258e-05 (10.7368)

Nlocal:    82 ave 82 max 82 min
Histogram: 1 0 0 0 0 0 0 0 0 0
Nghost:    175 ave 175 max 175 min
Histogram: 1 0 0 0 0 0 0 0 0 0
Neighs:    718 ave 718 max 718 min
Histogram: 1 0 0 0 0 0 0 0 0 0

Total # of neighbors = 718
Ave neighs/atom = 8.7561
Neighbor list builds = 0
Dangerous builds = 0
        # write_dump all atom ${dumpfile}
        next i
jump SELF loop1
        displace_atoms upper move ${xstep1} 0.0 0.0 units lattice
        displace_atoms upper move 0.00333333333333333 0.0 0.0 units lattice
        min_style ${style}
        min_style cg
        minimize ${etol} ${ftol} ${maxiter} ${maxeval}
        minimize 1e-12 ${ftol} ${maxiter} ${maxeval}
        minimize 1e-12 1e-08 ${maxiter} ${maxeval}
        minimize 1e-12 1e-08 10000 ${maxeval}
        minimize 1e-12 1e-08 10000 20000
WARNING: Resetting reneighboring criteria during minimization (../min.cpp:168)
Memory usage per processor = 3.35169 Mbytes
Step Temp PotEng Lx Ly Lz 
      66            0   -241.89901    2.2449075     38.89084    1.1224537 
      67            0   -241.89905    2.2449075     38.89084    1.1224537 
      68            0   -241.89905    2.2449075     38.89084    1.1224537 
      69            0   -241.89906    2.2449075     38.89084    1.1224537 
      70            0   -241.89908    2.2449075     38.89084    1.1224537 
      71            0   -241.89909    2.2449075     38.89084    1.1224537 
      72            0   -241.89911    2.2449075     38.89084    1.1224537 
      73            0   -241.89912    2.2449075     38.89084    1.1224537 
      74            0   -241.89912    2.2449075     38.89084    1.1224537 
      75            0   -241.89912    2.2449075     38.89084    1.1224537 
Loop time of 0.00220001 on 1 procs for 9 steps with 82 atoms

Minimization stats:
  Stopping criterion = linesearch alpha is zero
  Energy initial, next-to-last, final = 
        -241.899010556     -241.899124113     -241.899124113
  Force two-norm initial, final = 0.0896289 0.0136133
  Force max component initial, final = 0.0439396 0.00363982
  Final line search alpha, max atom move = 6.10352e-05 2.22157e-07
  Iterations, force evaluations = 9 73

Pair  time (%) = 0.00164669 (74.8489)
Neigh time (%) = 0 (0)
Comm  time (%) = 0.000203083 (9.23099)
Outpt time (%) = 7.88679e-05 (3.58488)
Other time (%) = 0.000271378 (12.3353)

Nlocal:    82 ave 82 max 82 min
Histogram: 1 0 0 0 0 0 0 0 0 0
Nghost:    175 ave 175 max 175 min
Histogram: 1 0 0 0 0 0 0 0 0 0
Neighs:    714 ave 714 max 714 min
Histogram: 1 0 0 0 0 0 0 0 0 0

Total # of neighbors = 714
Ave neighs/atom = 8.70732
Neighbor list builds = 0
Dangerous builds = 0
        # write_dump all atom ${dumpfile}
        next i
jump SELF loop1
        displace_atoms upper move ${xstep1} 0.0 0.0 units lattice
        displace_atoms upper move 0.00333333333333333 0.0 0.0 units lattice
        min_style ${style}
        min_style cg
        minimize ${etol} ${ftol} ${maxiter} ${maxeval}
        minimize 1e-12 ${ftol} ${maxiter} ${maxeval}
        minimize 1e-12 1e-08 ${maxiter} ${maxeval}
        minimize 1e-12 1e-08 10000 ${maxeval}
        minimize 1e-12 1e-08 10000 20000
WARNING: Resetting reneighboring criteria during minimization (../min.cpp:168)
Memory usage per processor = 3.35169 Mbytes
Step Temp PotEng Lx Ly Lz 
      75            0   -241.89137    2.2449075    38.890899    1.1224537 
      76            0   -241.89138    2.2449075    38.890899    1.1224537 
      77            0   -241.89138    2.2449075    38.890899    1.1224537 
Loop time of 0.000539889 on 1 procs for 2 steps with 82 atoms

Minimization stats:
  Stopping criterion = linesearch alpha is zero
  Energy initial, next-to-last, final = 
        -241.891366895     -241.891375001     -241.891375001
  Force two-norm initial, final = 0.0587863 0.0352277
  Force max component initial, final = 0.0286 0.0158079
  Final line search alpha, max atom move = 7.62939e-06 1.20605e-07
  Iterations, force evaluations = 2 27

Pair  time (%) = 0.000444572 (82.345)
Neigh time (%) = 0 (0)
Comm  time (%) = 3.39107e-05 (6.28105)
Outpt time (%) = 6.08235e-06 (1.12659)
Other time (%) = 5.53246e-05 (10.2474)

Nlocal:    82 ave 82 max 82 min
Histogram: 1 0 0 0 0 0 0 0 0 0
Nghost:    175 ave 175 max 175 min
Histogram: 1 0 0 0 0 0 0 0 0 0
Neighs:    714 ave 714 max 714 min
Histogram: 1 0 0 0 0 0 0 0 0 0

Total # of neighbors = 714
Ave neighs/atom = 8.70732
Neighbor list builds = 0
Dangerous builds = 0
        # write_dump all atom ${dumpfile}
        next i
jump SELF loop1
        displace_atoms upper move ${xstep1} 0.0 0.0 units lattice
        displace_atoms upper move 0.00333333333333333 0.0 0.0 units lattice
        min_style ${style}
        min_style cg
        minimize ${etol} ${ftol} ${maxiter} ${maxeval}
        minimize 1e-12 ${ftol} ${maxiter} ${maxeval}
        minimize 1e-12 1e-08 ${maxiter} ${maxeval}
        minimize 1e-12 1e-08 10000 ${maxeval}
        minimize 1e-12 1e-08 10000 20000
WARNING: Resetting reneighboring criteria during minimization (../min.cpp:168)
Memory usage per processor = 3.35169 Mbytes
Step Temp PotEng Lx Ly Lz 
      77            0   -241.88333    2.2449075    38.890902    1.1224537 
      78            0   -241.88337    2.2449075    38.890902    1.1224537 
      79            0   -241.88337    2.2449075    38.890902    1.1224537 
Loop time of 0.000532972 on 1 procs for 2 steps with 82 atoms

Minimization stats:
  Stopping criterion = linesearch alpha is zero
  Energy initial, next-to-last, final = 
        -241.883331728     -241.883365425     -241.883365425
  Force two-norm initial, final = 0.0927189 0.0349876
  Force max component initial, final = 0.0457043 0.0150251
  Final line search alpha, max atom move = 7.62939e-06 1.14633e-07
  Iterations, force evaluations = 2 26

Pair  time (%) = 0.00043177 (81.0117)
Neigh time (%) = 0 (0)
Comm  time (%) = 3.87511e-05 (7.27074)
Outpt time (%) = 6.00028e-06 (1.12581)
Other time (%) = 5.64512e-05 (10.5918)

Nlocal:    82 ave 82 max 82 min
Histogram: 1 0 0 0 0 0 0 0 0 0
Nghost:    175 ave 175 max 175 min
Histogram: 1 0 0 0 0 0 0 0 0 0
Neighs:    714 ave 714 max 714 min
Histogram: 1 0 0 0 0 0 0 0 0 0

Total # of neighbors = 714
Ave neighs/atom = 8.70732
Neighbor list builds = 0
Dangerous builds = 0
        # write_dump all atom ${dumpfile}
        next i
jump SELF loop1
        displace_atoms upper move ${xstep1} 0.0 0.0 units lattice
        displace_atoms upper move 0.00333333333333333 0.0 0.0 units lattice
        min_style ${style}
        min_style cg
        minimize ${etol} ${ftol} ${maxiter} ${maxeval}
        minimize 1e-12 ${ftol} ${maxiter} ${maxeval}
        minimize 1e-12 1e-08 ${maxiter} ${maxeval}
        minimize 1e-12 1e-08 10000 ${maxeval}
        minimize 1e-12 1e-08 10000 20000
WARNING: Resetting reneighboring criteria during minimization (../min.cpp:168)
Memory usage per processor = 3.35169 Mbytes
Step Temp PotEng Lx Ly Lz 
      79            0   -241.87508    2.2449075    38.890906    1.1224537 
      80            0   -241.87511    2.2449075    38.890906    1.1224537 
      81            0   -241.87512    2.2449075    38.890906    1.1224537 
      82            0   -241.87512    2.2449075    38.890906    1.1224537 
      83            0   -241.87513    2.2449075    38.890906    1.1224537 
      84            0   -241.87516    2.2449075    38.890906    1.1224537 
      85            0   -241.87517    2.2449075    38.890906    1.1224537 
      86            0   -241.87521    2.2449075    38.890906    1.1224537 
      87            0   -241.87522    2.2449075    38.890906    1.1224537 
      88            0   -241.87522    2.2449075    38.890906    1.1224537 
      89            0   -241.87523    2.2449075    38.890906    1.1224537 
      90            0   -241.87523    2.2449075    38.890906    1.1224537 
      91            0   -241.87523    2.2449075    38.890906    1.1224537 
      92            0   -241.87523    2.2449075    38.890906    1.1224537 
      93            0   -241.87523    2.2449075    38.890906    1.1224537 
Loop time of 0.00217391 on 1 procs for 14 steps with 82 atoms

Minimization stats:
  Stopping criterion = linesearch alpha is zero
  Energy initial, next-to-last, final = 
        -241.875076562     -241.875232759     -241.875232759
  Force two-norm initial, final = 0.0797643 0.0119295
  Force max component initial, final = 0.0363295 0.00216572
  Final line search alpha, max atom move = 6.10352e-05 1.32185e-07
  Iterations, force evaluations = 14 107

Pair  time (%) = 0.00171322 (78.8082)
Neigh time (%) = 0 (0)
Comm  time (%) = 0.000134397 (6.18227)
Outpt time (%) = 8.53447e-05 (3.92586)
Other time (%) = 0.000240949 (11.0837)

Nlocal:    82 ave 82 max 82 min
Histogram: 1 0 0 0 0 0 0 0 0 0
Nghost:    175 ave 175 max 175 min
Histogram: 1 0 0 0 0 0 0 0 0 0
Neighs:    714 ave 714 max 714 min
Histogram: 1 0 0 0 0 0 0 0 0 0

Total # of neighbors = 714
Ave neighs/atom = 8.70732
Neighbor list builds = 0
Dangerous builds = 0
        # write_dump all atom ${dumpfile}
        next i
jump SELF loop1
        displace_atoms upper move ${xstep1} 0.0 0.0 units lattice
        displace_atoms upper move 0.00333333333333333 0.0 0.0 units lattice
        min_style ${style}
        min_style cg
        minimize ${etol} ${ftol} ${maxiter} ${maxeval}
        minimize 1e-12 ${ftol} ${maxiter} ${maxeval}
        minimize 1e-12 1e-08 ${maxiter} ${maxeval}
        minimize 1e-12 1e-08 10000 ${maxeval}
        minimize 1e-12 1e-08 10000 20000
WARNING: Resetting reneighboring criteria during minimization (../min.cpp:168)
Memory usage per processor = 3.35169 Mbytes
Step Temp PotEng Lx Ly Lz 
      93            0   -241.86673    2.2449075    38.891238    1.1224537 
      94            0   -241.86674    2.2449075    38.891238    1.1224537 
      95            0   -241.86674    2.2449075    38.891238    1.1224537 
      96            0   -241.86674    2.2449075    38.891238    1.1224537 
Loop time of 0.000688017 on 1 procs for 3 steps with 82 atoms

Minimization stats:
  Stopping criterion = linesearch alpha is zero
  Energy initial, next-to-last, final = 
        -241.866728449     -241.866739493     -241.866739493
  Force two-norm initial, final = 0.0628159 0.0197292
  Force max component initial, final = 0.0308377 0.00707484
  Final line search alpha, max atom move = 3.05176e-05 2.15907e-07
  Iterations, force evaluations = 3 33

Pair  time (%) = 0.000556639 (80.9048)
Neigh time (%) = 0 (0)
Comm  time (%) = 4.26642e-05 (6.20104)
Outpt time (%) = 1.39249e-05 (2.02392)
Other time (%) = 7.47893e-05 (10.8703)

Nlocal:    82 ave 82 max 82 min
Histogram: 1 0 0 0 0 0 0 0 0 0
Nghost:    175 ave 175 max 175 min
Histogram: 1 0 0 0 0 0 0 0 0 0
Neighs:    714 ave 714 max 714 min
Histogram: 1 0 0 0 0 0 0 0 0 0

Total # of neighbors = 714
Ave neighs/atom = 8.70732
Neighbor list builds = 0
Dangerous builds = 0
        # write_dump all atom ${dumpfile}
        next i
jump SELF loop1
        displace_atoms upper move ${xstep1} 0.0 0.0 units lattice
        displace_atoms upper move 0.00333333333333333 0.0 0.0 units lattice
        min_style ${style}
        min_style cg
        minimize ${etol} ${ftol} ${maxiter} ${maxeval}
        minimize 1e-12 ${ftol} ${maxiter} ${maxeval}
        minimize 1e-12 1e-08 ${maxiter} ${maxeval}
        minimize 1e-12 1e-08 10000 ${maxeval}
        minimize 1e-12 1e-08 10000 20000
WARNING: Resetting reneighboring criteria during minimization (../min.cpp:168)
Memory usage per processor = 3.35169 Mbytes
Step Temp PotEng Lx Ly Lz 
      96            0   -241.85798    2.2449075    38.891254    1.1224537 
      97            0     -241.858    2.2449075    38.891254    1.1224537 
      98            0     -241.858    2.2449075    38.891254    1.1224537 
      99            0   -241.85801    2.2449075    38.891254    1.1224537 
     100            0   -241.85803    2.2449075    38.891254    1.1224537 
     101            0   -241.85804    2.2449075    38.891254    1.1224537 
     102            0   -241.85806    2.2449075    38.891254    1.1224537 
     103            0   -241.85806    2.2449075    38.891254    1.1224537 
     104            0   -241.85808    2.2449075    38.891254    1.1224537 
     105            0   -241.85808    2.2449075    38.891254    1.1224537 
     106            0   -241.85809    2.2449075    38.891254    1.1224537 
     107            0   -241.85809    2.2449075    38.891254    1.1224537 
     108            0   -241.85809    2.2449075    38.891254    1.1224537 
Loop time of 0.00164702 on 1 procs for 12 steps with 82 atoms

Minimization stats:
  Stopping criterion = linesearch alpha is zero
  Energy initial, next-to-last, final = 
        -241.857976398     -241.858090642     -241.858090642
  Force two-norm initial, final = 0.071206 0.0115367
  Force max component initial, final = 0.0343473 0.00217149
  Final line search alpha, max atom move = 6.10352e-05 1.32537e-07
  Iterations, force evaluations = 12 92

Pair  time (%) = 0.00130968 (79.5184)
Neigh time (%) = 0 (0)
Comm  time (%) = 0.000101122 (6.13973)
Outpt time (%) = 6.03577e-05 (3.66467)
Other time (%) = 0.000175855 (10.6772)

Nlocal:    82 ave 82 max 82 min
Histogram: 1 0 0 0 0 0 0 0 0 0
Nghost:    175 ave 175 max 175 min
Histogram: 1 0 0 0 0 0 0 0 0 0
Neighs:    714 ave 714 max 714 min
Histogram: 1 0 0 0 0 0 0 0 0 0

Total # of neighbors = 714
Ave neighs/atom = 8.70732
Neighbor list builds = 0
Dangerous builds = 0
        # write_dump all atom ${dumpfile}
        next i
jump SELF loop1
        displace_atoms upper move ${xstep1} 0.0 0.0 units lattice
        displace_atoms upper move 0.00333333333333333 0.0 0.0 units lattice
        min_style ${style}
        min_style cg
        minimize ${etol} ${ftol} ${maxiter} ${maxeval}
        minimize 1e-12 ${ftol} ${maxiter} ${maxeval}
        minimize 1e-12 1e-08 ${maxiter} ${maxeval}
        minimize 1e-12 1e-08 10000 ${maxeval}
        minimize 1e-12 1e-08 10000 20000
WARNING: Resetting reneighboring criteria during minimization (../min.cpp:168)
Memory usage per processor = 3.35169 Mbytes
Step Temp PotEng Lx Ly Lz 
     108            0   -241.84911    2.2449075    38.891866    1.1224537 
     109            0   -241.84912    2.2449075    38.891866    1.1224537 
     110            0   -241.84912    2.2449075    38.891866    1.1224537 
Loop time of 0.00111894 on 1 procs for 2 steps with 82 atoms

Minimization stats:
  Stopping criterion = linesearch alpha is zero
  Energy initial, next-to-last, final = 
        -241.849110202       -241.8491198       -241.8491198
  Force two-norm initial, final = 0.0648816 0.0379684
  Force max component initial, final = 0.0319271 0.0174683
  Final line search alpha, max atom move = 7.62939e-06 1.33273e-07
  Iterations, force evaluations = 2 27

Pair  time (%) = 0.000800003 (71.4964)
Neigh time (%) = 0 (0)
Comm  time (%) = 0.000150665 (13.465)
Outpt time (%) = 4.89631e-06 (0.437584)
Other time (%) = 0.000163377 (14.6011)

Nlocal:    82 ave 82 max 82 min
Histogram: 1 0 0 0 0 0 0 0 0 0
Nghost:    175 ave 175 max 175 min
Histogram: 1 0 0 0 0 0 0 0 0 0
Neighs:    714 ave 714 max 714 min
Histogram: 1 0 0 0 0 0 0 0 0 0

Total # of neighbors = 714
Ave neighs/atom = 8.70732
Neighbor list builds = 0
Dangerous builds = 0
        # write_dump all atom ${dumpfile}
        next i
jump SELF loop1
        displace_atoms upper move ${xstep1} 0.0 0.0 units lattice
        displace_atoms upper move 0.00333333333333333 0.0 0.0 units lattice
        min_style ${style}
        min_style cg
        minimize ${etol} ${ftol} ${maxiter} ${maxeval}
        minimize 1e-12 ${ftol} ${maxiter} ${maxeval}
        minimize 1e-12 1e-08 ${maxiter} ${maxeval}
        minimize 1e-12 1e-08 10000 ${maxeval}
        minimize 1e-12 1e-08 10000 20000
WARNING: Resetting reneighboring criteria during minimization (../min.cpp:168)
Memory usage per processor = 3.35169 Mbytes
Step Temp PotEng Lx Ly Lz 
     110            0   -241.83987    2.2449075    38.891874    1.1224537 
     111            0   -241.83991    2.2449075    38.891874    1.1224537 
     112            0   -241.83992    2.2449075    38.891874    1.1224537 
     113            0   -241.83992    2.2449075    38.891874    1.1224537 
     114            0   -241.83993    2.2449075    38.891874    1.1224537 
     115            0   -241.83994    2.2449075    38.891874    1.1224537 
     116            0   -241.83996    2.2449075    38.891874    1.1224537 
     117            0   -241.83998    2.2449075    38.891874    1.1224537 
     118            0   -241.83999    2.2449075    38.891874    1.1224537 
     119            0      -241.84    2.2449075    38.891874    1.1224537 
     120            0   -241.84001    2.2449075    38.891874    1.1224537 
     121            0   -241.84001    2.2449075    38.891874    1.1224537 
Loop time of 0.00188512 on 1 procs for 11 steps with 82 atoms

Minimization stats:
  Stopping criterion = linesearch alpha is zero
  Energy initial, next-to-last, final = 
        -241.839867999     -241.840011921     -241.840011921
  Force two-norm initial, final = 0.10065 0.0333072
  Force max component initial, final = 0.0497742 0.0119049
  Final line search alpha, max atom move = 3.05176e-05 3.63307e-07
  Iterations, force evaluations = 11 87

Pair  time (%) = 0.00147782 (78.3942)
Neigh time (%) = 0 (0)
Comm  time (%) = 0.000114663 (6.08255)
Outpt time (%) = 6.59962e-05 (3.50091)
Other time (%) = 0.000226635 (12.0223)

Nlocal:    82 ave 82 max 82 min
Histogram: 1 0 0 0 0 0 0 0 0 0
Nghost:    175 ave 175 max 175 min
Histogram: 1 0 0 0 0 0 0 0 0 0
Neighs:    714 ave 714 max 714 min
Histogram: 1 0 0 0 0 0 0 0 0 0

Total # of neighbors = 714
Ave neighs/atom = 8.70732
Neighbor list builds = 0
Dangerous builds = 0
        # write_dump all atom ${dumpfile}
        next i
jump SELF loop1
        displace_atoms upper move ${xstep1} 0.0 0.0 units lattice
        displace_atoms upper move 0.00333333333333333 0.0 0.0 units lattice
        min_style ${style}
        min_style cg
        minimize ${etol} ${ftol} ${maxiter} ${maxeval}
        minimize 1e-12 ${ftol} ${maxiter} ${maxeval}
        minimize 1e-12 1e-08 ${maxiter} ${maxeval}
        minimize 1e-12 1e-08 10000 ${maxeval}
        minimize 1e-12 1e-08 10000 20000
WARNING: Resetting reneighboring criteria during minimization (../min.cpp:168)
Memory usage per processor = 3.35169 Mbytes
Step Temp PotEng Lx Ly Lz 
     121            0   -241.83059    2.2449075    38.892958    1.1224537 
     122            0    -241.8306    2.2449075    38.892958    1.1224537 
     123            0   -241.83061    2.2449075    38.892958    1.1224537 
     124            0   -241.83061    2.2449075    38.892958    1.1224537 
     125            0   -241.83061    2.2449075    38.892958    1.1224537 
     126            0   -241.83062    2.2449075    38.892958    1.1224537 
     127            0   -241.83062    2.2449075    38.892958    1.1224537 
     128            0   -241.83063    2.2449075    38.892958    1.1224537 
     129            0   -241.83063    2.2449075    38.892958    1.1224537 
     130            0   -241.83063    2.2449075    38.892958    1.1224537 
     131            0   -241.83063    2.2449075    38.892958    1.1224537 
Loop time of 0.00129609 on 1 procs for 10 steps with 82 atoms

Minimization stats:
  Stopping criterion = linesearch alpha is zero
  Energy initial, next-to-last, final = 
        -241.830585417     -241.830633639     -241.830633639
  Force two-norm initial, final = 0.0471282 0.012072
  Force max component initial, final = 0.0204876 0.0017473
  Final line search alpha, max atom move = 3.05176e-05 5.33234e-08
  Iterations, force evaluations = 10 77

Pair  time (%) = 0.00102071 (78.7531)
Neigh time (%) = 0 (0)
Comm  time (%) = 9.04652e-05 (6.97987)
Outpt time (%) = 4.41496e-05 (3.40637)
Other time (%) = 0.000140764 (10.8607)

Nlocal:    82 ave 82 max 82 min
Histogram: 1 0 0 0 0 0 0 0 0 0
Nghost:    175 ave 175 max 175 min
Histogram: 1 0 0 0 0 0 0 0 0 0
Neighs:    714 ave 714 max 714 min
Histogram: 1 0 0 0 0 0 0 0 0 0

Total # of neighbors = 714
Ave neighs/atom = 8.70732
Neighbor list builds = 0
Dangerous builds = 0
        # write_dump all atom ${dumpfile}
        next i
jump SELF loop1
        displace_atoms upper move ${xstep1} 0.0 0.0 units lattice
        displace_atoms upper move 0.00333333333333333 0.0 0.0 units lattice
        min_style ${style}
        min_style cg
        minimize ${etol} ${ftol} ${maxiter} ${maxeval}
        minimize 1e-12 ${ftol} ${maxiter} ${maxeval}
        minimize 1e-12 1e-08 ${maxiter} ${maxeval}
        minimize 1e-12 1e-08 10000 ${maxeval}
        minimize 1e-12 1e-08 10000 20000
WARNING: Resetting reneighboring criteria during minimization (../min.cpp:168)
Memory usage per processor = 3.35169 Mbytes
Step Temp PotEng Lx Ly Lz 
     131            0   -241.82097    2.2449075    38.893755    1.1224537 
     132            0   -241.82097    2.2449075    38.893755    1.1224537 
     133            0   -241.82097    2.2449075    38.893755    1.1224537 
Loop time of 0.000616052 on 1 procs for 2 steps with 82 atoms

Minimization stats:
  Stopping criterion = linesearch alpha is zero
  Energy initial, next-to-last, final = 
        -241.820969079     -241.820972817     -241.820972817
  Force two-norm initial, final = 0.0641254 0.0506412
  Force max component initial, final = 0.0315288 0.0244463
  Final line search alpha, max atom move = 3.8147e-06 9.32553e-08
  Iterations, force evaluations = 2 29

Pair  time (%) = 0.000508848 (82.5983)
Neigh time (%) = 0 (0)
Comm  time (%) = 3.82367e-05 (6.20674)
Outpt time (%) = 8.03138e-06 (1.30368)
Other time (%) = 6.09357e-05 (9.89133)

Nlocal:    82 ave 82 max 82 min
Histogram: 1 0 0 0 0 0 0 0 0 0
Nghost:    175 ave 175 max 175 min
Histogram: 1 0 0 0 0 0 0 0 0 0
Neighs:    714 ave 714 max 714 min
Histogram: 1 0 0 0 0 0 0 0 0 0

Total # of neighbors = 714
Ave neighs/atom = 8.70732
Neighbor list builds = 0
Dangerous builds = 0
        # write_dump all atom ${dumpfile}
        next i
jump SELF loop1
        displace_atoms upper move ${xstep1} 0.0 0.0 units lattice
        displace_atoms upper move 0.00333333333333333 0.0 0.0 units lattice
        min_style ${style}
        min_style cg
        minimize ${etol} ${ftol} ${maxiter} ${maxeval}
        minimize 1e-12 ${ftol} ${maxiter} ${maxeval}
        minimize 1e-12 1e-08 ${maxiter} ${maxeval}
        minimize 1e-12 1e-08 10000 ${maxeval}
        minimize 1e-12 1e-08 10000 20000
WARNING: Resetting reneighboring criteria during minimization (../min.cpp:168)
Memory usage per processor = 3.35169 Mbytes
Step Temp PotEng Lx Ly Lz 
     133            0   -241.81103    2.2449075     38.89376    1.1224537 
     134            0   -241.81109    2.2449075     38.89376    1.1224537 
     135            0    -241.8111    2.2449075     38.89376    1.1224537 
     136            0    -241.8111    2.2449075     38.89376    1.1224537 
     137            0   -241.81111    2.2449075     38.89376    1.1224537 
     138            0   -241.81112    2.2449075     38.89376    1.1224537 
     139            0   -241.81114    2.2449075     38.89376    1.1224537 
     140            0   -241.81115    2.2449075     38.89376    1.1224537 
     141            0   -241.81117    2.2449075     38.89376    1.1224537 
     142            0   -241.81119    2.2449075     38.89376    1.1224537 
     143            0    -241.8112    2.2449075     38.89376    1.1224537 
     144            0    -241.8112    2.2449075     38.89376    1.1224537 
Loop time of 0.00187089 on 1 procs for 11 steps with 82 atoms

Minimization stats:
  Stopping criterion = linesearch alpha is zero
  Energy initial, next-to-last, final = 
        -241.811034622      -241.81120228      -241.81120228
  Force two-norm initial, final = 0.116854 0.0175675
  Force max component initial, final = 0.058059 0.00490056
  Final line search alpha, max atom move = 3.05176e-05 1.49553e-07
  Iterations, force evaluations = 11 86

Pair  time (%) = 0.00145856 (77.9608)
Neigh time (%) = 0 (0)
Comm  time (%) = 0.000165029 (8.82085)
Outpt time (%) = 6.42826e-05 (3.43593)
Other time (%) = 0.000183019 (9.78241)

Nlocal:    82 ave 82 max 82 min
Histogram: 1 0 0 0 0 0 0 0 0 0
Nghost:    175 ave 175 max 175 min
Histogram: 1 0 0 0 0 0 0 0 0 0
Neighs:    714 ave 714 max 714 min
Histogram: 1 0 0 0 0 0 0 0 0 0

Total # of neighbors = 714
Ave neighs/atom = 8.70732
Neighbor list builds = 0
Dangerous builds = 0
        # write_dump all atom ${dumpfile}
        next i
jump SELF loop1
        displace_atoms upper move ${xstep1} 0.0 0.0 units lattice
        displace_atoms upper move 0.00333333333333333 0.0 0.0 units lattice
        min_style ${style}
        min_style cg
        minimize ${etol} ${ftol} ${maxiter} ${maxeval}
        minimize 1e-12 ${ftol} ${maxiter} ${maxeval}
        minimize 1e-12 1e-08 ${maxiter} ${maxeval}
        minimize 1e-12 1e-08 10000 ${maxeval}
        minimize 1e-12 1e-08 10000 20000
WARNING: Resetting reneighboring criteria during minimization (../min.cpp:168)
Memory usage per processor = 3.35169 Mbytes
Step Temp PotEng Lx Ly Lz 
     144            0    -241.8011    2.2449075    38.895166    1.1224537 
     145            0   -241.80112    2.2449075    38.895166    1.1224537 
     146            0   -241.80112    2.2449075    38.895166    1.1224537 
Loop time of 0.000649956 on 1 procs for 2 steps with 82 atoms

Minimization stats:
  Stopping criterion = linesearch alpha is zero
  Energy initial, next-to-last, final = 
        -241.801104688     -241.801118233     -241.801118233
  Force two-norm initial, final = 0.0593216 0.0343221
  Force max component initial, final = 0.028765 0.0154557
  Final line search alpha, max atom move = 7.62939e-06 1.17918e-07
  Iterations, force evaluations = 2 27

Pair  time (%) = 0.000467839 (71.9801)
Neigh time (%) = 0 (0)
Comm  time (%) = 7.10881e-05 (10.9374)
Outpt time (%) = 6.0593e-06 (0.932263)
Other time (%) = 0.00010497 (16.1503)

Nlocal:    82 ave 82 max 82 min
Histogram: 1 0 0 0 0 0 0 0 0 0
Nghost:    175 ave 175 max 175 min
Histogram: 1 0 0 0 0 0 0 0 0 0
Neighs:    714 ave 714 max 714 min
Histogram: 1 0 0 0 0 0 0 0 0 0

Total # of neighbors = 714
Ave neighs/atom = 8.70732
Neighbor list builds = 0
Dangerous builds = 0
        # write_dump all atom ${dumpfile}
        next i
jump SELF loop1
        displace_atoms upper move ${xstep1} 0.0 0.0 units lattice
        displace_atoms upper move 0.00333333333333333 0.0 0.0 units lattice
        min_style ${style}
        min_style cg
        minimize ${etol} ${ftol} ${maxiter} ${maxeval}
        minimize 1e-12 ${ftol} ${maxiter} ${maxeval}
        minimize 1e-12 1e-08 ${maxiter} ${maxeval}
        minimize 1e-12 1e-08 10000 ${maxeval}
        minimize 1e-12 1e-08 10000 20000
WARNING: Resetting reneighboring criteria during minimization (../min.cpp:168)
Memory usage per processor = 3.35169 Mbytes
Step Temp PotEng Lx Ly Lz 
     146            0   -241.79076    2.2449075    38.895177    1.1224537 
     147            0    -241.7908    2.2449075    38.895177    1.1224537 
     148            0   -241.79081    2.2449075    38.895177    1.1224537 
     149            0   -241.79081    2.2449075    38.895177    1.1224537 
     150            0   -241.79081    2.2449075    38.895177    1.1224537 
     151            0   -241.79082    2.2449075    38.895177    1.1224537 
     152            0   -241.79084    2.2449075    38.895177    1.1224537 
     153            0   -241.79086    2.2449075    38.895177    1.1224537 
     154            0   -241.79086    2.2449075    38.895177    1.1224537 
Loop time of 0.00111895 on 1 procs for 8 steps with 82 atoms

Minimization stats:
  Stopping criterion = linesearch alpha is zero
  Energy initial, next-to-last, final = 
        -241.790763101     -241.790857538     -241.790857538
  Force two-norm initial, final = 0.100553 0.0425981
  Force max component initial, final = 0.0497323 0.0138122
  Final line search alpha, max atom move = 7.62939e-06 1.05379e-07
  Iterations, force evaluations = 8 65

Pair  time (%) = 0.000893221 (79.8267)
Neigh time (%) = 0 (0)
Comm  time (%) = 6.59247e-05 (5.89166)
Outpt time (%) = 3.79265e-05 (3.38947)
Other time (%) = 0.000121878 (10.8921)

Nlocal:    82 ave 82 max 82 min
Histogram: 1 0 0 0 0 0 0 0 0 0
Nghost:    175 ave 175 max 175 min
Histogram: 1 0 0 0 0 0 0 0 0 0
Neighs:    714 ave 714 max 714 min
Histogram: 1 0 0 0 0 0 0 0 0 0

Total # of neighbors = 714
Ave neighs/atom = 8.70732
Neighbor list builds = 0
Dangerous builds = 0
        # write_dump all atom ${dumpfile}
        next i
jump SELF loop1
        displace_atoms upper move ${xstep1} 0.0 0.0 units lattice
        displace_atoms upper move 0.00333333333333333 0.0 0.0 units lattice
        min_style ${style}
        min_style cg
        minimize ${etol} ${ftol} ${maxiter} ${maxeval}
        minimize 1e-12 ${ftol} ${maxiter} ${maxeval}
        minimize 1e-12 1e-08 ${maxiter} ${maxeval}
        minimize 1e-12 1e-08 10000 ${maxeval}
        minimize 1e-12 1e-08 10000 20000
WARNING: Resetting reneighboring criteria during minimization (../min.cpp:168)
Memory usage per processor = 3.35169 Mbytes
Step Temp PotEng Lx Ly Lz 
     154            0   -241.78034    2.2449075    38.896167    1.1224537 
     155            0   -241.78036    2.2449075    38.896167    1.1224537 
     156            0   -241.78036    2.2449075    38.896167    1.1224537 
     157            0   -241.78036    2.2449075    38.896167    1.1224537 
Loop time of 0.000626005 on 1 procs for 3 steps with 82 atoms

Minimization stats:
  Stopping criterion = linesearch alpha is zero
  Energy initial, next-to-last, final = 
        -241.780343464     -241.780363638     -241.780363638
  Force two-norm initial, final = 0.0522879 0.0222543
  Force max component initial, final = 0.0205096 0.00551256
  Final line search alpha, max atom move = 1.52588e-05 8.4115e-08
  Iterations, force evaluations = 3 31

Pair  time (%) = 0.000509135 (81.3307)
Neigh time (%) = 0 (0)
Comm  time (%) = 3.90016e-05 (6.23023)
Outpt time (%) = 1.1089e-05 (1.77139)
Other time (%) = 6.67803e-05 (10.6677)

Nlocal:    82 ave 82 max 82 min
Histogram: 1 0 0 0 0 0 0 0 0 0
Nghost:    175 ave 175 max 175 min
Histogram: 1 0 0 0 0 0 0 0 0 0
Neighs:    714 ave 714 max 714 min
Histogram: 1 0 0 0 0 0 0 0 0 0

Total # of neighbors = 714
Ave neighs/atom = 8.70732
Neighbor list builds = 0
Dangerous builds = 0
        # write_dump all atom ${dumpfile}
        next i
jump SELF loop1
        displace_atoms upper move ${xstep1} 0.0 0.0 units lattice
        displace_atoms upper move 0.00333333333333333 0.0 0.0 units lattice
        min_style ${style}
        min_style cg
        minimize ${etol} ${ftol} ${maxiter} ${maxeval}
[...]
        minimize 1e-12 1e-08 ${maxiter} ${maxeval}
        minimize 1e-12 1e-08 10000 ${maxeval}
        minimize 1e-12 1e-08 10000 20000
WARNING: Resetting reneighboring criteria during minimization (../min.cpp:168)
Memory usage per processor = 3.35169 Mbytes
Step Temp PotEng Lx Ly Lz 
    1254            0   -241.98281    2.2449075     38.90007    1.1224537 
    1255            0   -241.98282    2.2449075     38.90007    1.1224537 
    1256            0   -241.98282    2.2449075     38.90007    1.1224537 
    1257            0   -241.98283    2.2449075     38.90007    1.1224537 
    1258            0   -241.98283    2.2449075     38.90007    1.1224537 
    1259            0   -241.98283    2.2449075     38.90007    1.1224537 
Loop time of 0.00174301 on 1 procs for 5 steps with 82 atoms

Minimization stats:
  Stopping criterion = linesearch alpha is zero
  Energy initial, next-to-last, final = 
        -241.982814425     -241.982834261     -241.982834261
  Force two-norm initial, final = 0.0299881 0.0231376
  Force max component initial, final = 0.0111313 0.00654008
  Final line search alpha, max atom move = 1.52588e-05 9.97937e-08
  Iterations, force evaluations = 5 47

Pair  time (%) = 0.00155111 (88.9905)
Neigh time (%) = 0 (0)
Comm  time (%) = 7.74751e-05 (4.4449)
Outpt time (%) = 2.62834e-05 (1.50793)
Other time (%) = 8.81387e-05 (5.05669)

Nlocal:    82 ave 82 max 82 min
Histogram: 1 0 0 0 0 0 0 0 0 0
Nghost:    185 ave 185 max 185 min
Histogram: 1 0 0 0 0 0 0 0 0 0
Neighs:    718 ave 718 max 718 min
Histogram: 1 0 0 0 0 0 0 0 0 0

Total # of neighbors = 718
Ave neighs/atom = 8.7561
Neighbor list builds = 0
Dangerous builds = 0
        # write_dump all atom ${dumpfile}
        next i
jump SELF loop1
        displace_atoms upper move ${xstep1} 0.0 0.0 units lattice
        displace_atoms upper move 0.00333333333333333 0.0 0.0 units lattice
        min_style ${style}
        min_style cg
        minimize ${etol} ${ftol} ${maxiter} ${maxeval}
        minimize 1e-12 ${ftol} ${maxiter} ${maxeval}
        minimize 1e-12 1e-08 ${maxiter} ${maxeval}
        minimize 1e-12 1e-08 10000 ${maxeval}
        minimize 1e-12 1e-08 10000 20000
WARNING: Resetting reneighboring criteria during minimization (../min.cpp:168)
Memory usage per processor = 3.35169 Mbytes
Step Temp PotEng Lx Ly Lz 
    1259            0   -241.98601    2.2449075     38.90007    1.1224537 
    1260            0   -241.98602    2.2449075     38.90007    1.1224537 
    1261            0   -241.98602    2.2449075     38.90007    1.1224537 
    1262            0   -241.98602    2.2449075     38.90007    1.1224537 
Loop time of 0.000621068 on 1 procs for 3 steps with 82 atoms

Minimization stats:
  Stopping criterion = linesearch alpha is zero
  Energy initial, next-to-last, final = 
        -241.986011294     -241.986022402     -241.986022402
  Force two-norm initial, final = 0.0278258 0.0255643
  Force max component initial, final = 0.00890434 0.00666155
  Final line search alpha, max atom move = 1.52588e-05 1.01647e-07
  Iterations, force evaluations = 3 30

Pair  time (%) = 0.000497973 (80.1801)
Neigh time (%) = 0 (0)
Comm  time (%) = 5.15995e-05 (8.30818)
Outpt time (%) = 1.20164e-05 (1.93479)
Other time (%) = 5.94789e-05 (9.57688)

Nlocal:    82 ave 82 max 82 min
Histogram: 1 0 0 0 0 0 0 0 0 0
Nghost:    185 ave 185 max 185 min
Histogram: 1 0 0 0 0 0 0 0 0 0
Neighs:    718 ave 718 max 718 min
Histogram: 1 0 0 0 0 0 0 0 0 0

Total # of neighbors = 718
Ave neighs/atom = 8.7561
Neighbor list builds = 0
Dangerous builds = 0
        # write_dump all atom ${dumpfile}
        next i
jump SELF loop1
        displace_atoms upper move ${xstep1} 0.0 0.0 units lattice
        displace_atoms upper move 0.00333333333333333 0.0 0.0 units lattice
        min_style ${style}
        min_style cg
        minimize ${etol} ${ftol} ${maxiter} ${maxeval}
        minimize 1e-12 ${ftol} ${maxiter} ${maxeval}
        minimize 1e-12 1e-08 ${maxiter} ${maxeval}
        minimize 1e-12 1e-08 10000 ${maxeval}
        minimize 1e-12 1e-08 10000 20000
WARNING: Resetting reneighboring criteria during minimization (../min.cpp:168)
Memory usage per processor = 3.35169 Mbytes
Step Temp PotEng Lx Ly Lz 
    1262            0   -241.98888    2.2449075    38.900065    1.1224537 
    1263            0   -241.98888    2.2449075    38.900065    1.1224537 
    1264            0   -241.98888    2.2449075    38.900065    1.1224537 
    1265            0   -241.98888    2.2449075    38.900065    1.1224537 
Loop time of 0.000678937 on 1 procs for 3 steps with 82 atoms

Minimization stats:
  Stopping criterion = linesearch alpha is zero
  Energy initial, next-to-last, final = 
        -241.988878394     -241.988884695     -241.988884695
  Force two-norm initial, final = 0.0249879 0.026429
  Force max component initial, final = 0.00666155 0.00781444
  Final line search alpha, max atom move = 1.52588e-05 1.19239e-07
  Iterations, force evaluations = 3 33

Pair  time (%) = 0.000551714 (81.2614)
Neigh time (%) = 0 (0)
Comm  time (%) = 4.80595e-05 (7.07864)
Outpt time (%) = 1.2011e-05 (1.76909)
Other time (%) = 6.71527e-05 (9.89085)

Nlocal:    82 ave 82 max 82 min
Histogram: 1 0 0 0 0 0 0 0 0 0
Nghost:    185 ave 185 max 185 min
Histogram: 1 0 0 0 0 0 0 0 0 0
Neighs:    718 ave 718 max 718 min
Histogram: 1 0 0 0 0 0 0 0 0 0

Total # of neighbors = 718
Ave neighs/atom = 8.7561
Neighbor list builds = 0
Dangerous builds = 0
        # write_dump all atom ${dumpfile}
        next i
jump SELF loop1
        displace_atoms upper move ${xstep1} 0.0 0.0 units lattice
        displace_atoms upper move 0.00333333333333333 0.0 0.0 units lattice
        min_style ${style}
        min_style cg
        minimize ${etol} ${ftol} ${maxiter} ${maxeval}
        minimize 1e-12 ${ftol} ${maxiter} ${maxeval}
        minimize 1e-12 1e-08 ${maxiter} ${maxeval}
        minimize 1e-12 1e-08 10000 ${maxeval}
        minimize 1e-12 1e-08 10000 20000
WARNING: Resetting reneighboring criteria during minimization (../min.cpp:168)
Memory usage per processor = 3.35169 Mbytes
Step Temp PotEng Lx Ly Lz 
    1265            0   -241.99141    2.2449075    38.900061    1.1224537 
    1266            0   -241.99141    2.2449075    38.900061    1.1224537 
    1267            0   -241.99141    2.2449075    38.900061    1.1224537 
    1268            0   -241.99141    2.2449075    38.900061    1.1224537 
Loop time of 0.000672969 on 1 procs for 3 steps with 82 atoms

Minimization stats:
  Stopping criterion = linesearch alpha is zero
  Energy initial, next-to-last, final = 
        -241.991412952     -241.991414839     -241.991414839
  Force two-norm initial, final = 0.0253416 0.0172011
  Force max component initial, final = 0.00781444 0.0050958
  Final line search alpha, max atom move = 3.05176e-05 1.55512e-07
  Iterations, force evaluations = 3 34

Pair  time (%) = 0.000545181 (81.0114)
Neigh time (%) = 0 (0)
Comm  time (%) = 4.53318e-05 (6.73609)
Outpt time (%) = 1.19729e-05 (1.77911)
Other time (%) = 7.0483e-05 (10.4734)

Nlocal:    82 ave 82 max 82 min
Histogram: 1 0 0 0 0 0 0 0 0 0
Nghost:    185 ave 185 max 185 min
Histogram: 1 0 0 0 0 0 0 0 0 0
Neighs:    718 ave 718 max 718 min
Histogram: 1 0 0 0 0 0 0 0 0 0

Total # of neighbors = 718
Ave neighs/atom = 8.7561
Neighbor list builds = 0
Dangerous builds = 0
        # write_dump all atom ${dumpfile}
        next i
jump SELF loop1
        displace_atoms upper move ${xstep1} 0.0 0.0 units lattice
        displace_atoms upper move 0.00333333333333333 0.0 0.0 units lattice
        min_style ${style}
        min_style cg
        minimize ${etol} ${ftol} ${maxiter} ${maxeval}
        minimize 1e-12 ${ftol} ${maxiter} ${maxeval}
        minimize 1e-12 1e-08 ${maxiter} ${maxeval}
        minimize 1e-12 1e-08 10000 ${maxeval}
        minimize 1e-12 1e-08 10000 20000
WARNING: Resetting reneighboring criteria during minimization (../min.cpp:168)
Memory usage per processor = 3.35169 Mbytes
Step Temp PotEng Lx Ly Lz 
    1268            0   -241.99361    2.2449075     38.90006    1.1224537 
    1269            0   -241.99361    2.2449075     38.90006    1.1224537 
    1270            0   -241.99362    2.2449075     38.90006    1.1224537 
    1271            0   -241.99363    2.2449075     38.90006    1.1224537 
    1272            0   -241.99363    2.2449075     38.90006    1.1224537 
Loop time of 0.000771107 on 1 procs for 4 steps with 82 atoms

Minimization stats:
  Stopping criterion = linesearch alpha is zero
  Energy initial, next-to-last, final = 
        -241.993606572     -241.993626201     -241.993626201
  Force two-norm initial, final = 0.0290637 0.0203091
  Force max component initial, final = 0.0121147 0.00631051
  Final line search alpha, max atom move = 1.52588e-05 9.62907e-08
  Iterations, force evaluations = 4 37

Pair  time (%) = 0.000621326 (80.5759)
Neigh time (%) = 0 (0)
Comm  time (%) = 5.70505e-05 (7.39852)
Outpt time (%) = 1.80815e-05 (2.34488)
Other time (%) = 7.46484e-05 (9.68068)

Nlocal:    82 ave 82 max 82 min
Histogram: 1 0 0 0 0 0 0 0 0 0
Nghost:    185 ave 185 max 185 min
Histogram: 1 0 0 0 0 0 0 0 0 0
Neighs:    718 ave 718 max 718 min
Histogram: 1 0 0 0 0 0 0 0 0 0

Total # of neighbors = 718
Ave neighs/atom = 8.7561
Neighbor list builds = 0
Dangerous builds = 0
        # write_dump all atom ${dumpfile}
        next i
jump SELF loop1
        displace_atoms upper move ${xstep1} 0.0 0.0 units lattice
        displace_atoms upper move 0.00333333333333333 0.0 0.0 units lattice
        min_style ${style}
        min_style cg
        minimize ${etol} ${ftol} ${maxiter} ${maxeval}
        minimize 1e-12 ${ftol} ${maxiter} ${maxeval}
        minimize 1e-12 1e-08 ${maxiter} ${maxeval}
        minimize 1e-12 1e-08 10000 ${maxeval}
        minimize 1e-12 1e-08 10000 20000
WARNING: Resetting reneighboring criteria during minimization (../min.cpp:168)
Memory usage per processor = 3.35169 Mbytes
Step Temp PotEng Lx Ly Lz 
    1272            0   -241.99549    2.2449075    38.900037    1.1224537 
    1273            0   -241.99549    2.2449075    38.900037    1.1224537 
    1274            0   -241.99549    2.2449075    38.900037    1.1224537 
Loop time of 0.00044797 on 1 procs for 2 steps with 82 atoms

Minimization stats:
  Stopping criterion = linesearch alpha is zero
  Energy initial, next-to-last, final = 
        -241.995490857     -241.995492871     -241.995492871
  Force two-norm initial, final = 0.0246876 0.0133179
  Force max component initial, final = 0.00707168 0.00354436
  Final line search alpha, max atom move = 6.10352e-05 2.1633e-07
  Iterations, force evaluations = 2 23

Pair  time (%) = 0.000363087 (81.0517)
Neigh time (%) = 0 (0)
Comm  time (%) = 3.21893e-05 (7.18559)
Outpt time (%) = 5.89853e-06 (1.31672)
Other time (%) = 4.67949e-05 (10.446)

Nlocal:    82 ave 82 max 82 min
Histogram: 1 0 0 0 0 0 0 0 0 0
Nghost:    185 ave 185 max 185 min
Histogram: 1 0 0 0 0 0 0 0 0 0
Neighs:    718 ave 718 max 718 min
Histogram: 1 0 0 0 0 0 0 0 0 0

Total # of neighbors = 718
Ave neighs/atom = 8.7561
Neighbor list builds = 0
Dangerous builds = 0
        # write_dump all atom ${dumpfile}
        next i
jump SELF loop1
        displace_atoms upper move ${xstep1} 0.0 0.0 units lattice
        displace_atoms upper move 0.00333333333333333 0.0 0.0 units lattice
        min_style ${style}
        min_style cg
        minimize ${etol} ${ftol} ${maxiter} ${maxeval}
        minimize 1e-12 ${ftol} ${maxiter} ${maxeval}
        minimize 1e-12 1e-08 ${maxiter} ${maxeval}
        minimize 1e-12 1e-08 10000 ${maxeval}
        minimize 1e-12 1e-08 10000 20000
WARNING: Resetting reneighboring criteria during minimization (../min.cpp:168)
Memory usage per processor = 3.35169 Mbytes
Step Temp PotEng Lx Ly Lz 
    1274            0   -241.99702    2.2449075    38.900035    1.1224537 
    1275            0   -241.99703    2.2449075    38.900035    1.1224537 
    1276            0   -241.99703    2.2449075    38.900035    1.1224537 
Loop time of 0.00035899 on 1 procs for 2 steps with 82 atoms

Minimization stats:
  Stopping criterion = linesearch alpha is zero
  Energy initial, next-to-last, final = 
        -241.997022834     -241.997025247     -241.997025247
  Force two-norm initial, final = 0.0174056 0.0161263
  Force max component initial, final = 0.00566721 0.00439763
  Final line search alpha, max atom move = 3.05176e-05 1.34205e-07
  Iterations, force evaluations = 2 23

Pair  time (%) = 0.000290093 (80.8083)
Neigh time (%) = 0 (0)
Comm  time (%) = 2.8244e-05 (7.86763)
Outpt time (%) = -4.52856e-08 (-0.0126147)
Other time (%) = 4.06976e-05 (11.3367)

Nlocal:    82 ave 82 max 82 min
Histogram: 1 0 0 0 0 0 0 0 0 0
Nghost:    185 ave 185 max 185 min
Histogram: 1 0 0 0 0 0 0 0 0 0
Neighs:    718 ave 718 max 718 min
Histogram: 1 0 0 0 0 0 0 0 0 0

Total # of neighbors = 718
Ave neighs/atom = 8.7561
Neighbor list builds = 0
Dangerous builds = 0
        # write_dump all atom ${dumpfile}
        next i
jump SELF loop1
        displace_atoms upper move ${xstep1} 0.0 0.0 units lattice
        displace_atoms upper move 0.00333333333333333 0.0 0.0 units lattice
        min_style ${style}
        min_style cg
        minimize ${etol} ${ftol} ${maxiter} ${maxeval}
        minimize 1e-12 ${ftol} ${maxiter} ${maxeval}
        minimize 1e-12 1e-08 ${maxiter} ${maxeval}
        minimize 1e-12 1e-08 10000 ${maxeval}
        minimize 1e-12 1e-08 10000 20000
WARNING: Resetting reneighboring criteria during minimization (../min.cpp:168)
Memory usage per processor = 3.35169 Mbytes
Step Temp PotEng Lx Ly Lz 
    1276            0   -241.99822    2.2449075     38.90003    1.1224537 
    1277            0   -241.99822    2.2449075     38.90003    1.1224537 
Loop time of 0.000314959 on 1 procs for 1 steps with 82 atoms

Minimization stats:
  Stopping criterion = linesearch alpha is zero
  Energy initial, next-to-last, final = 
        -241.998215846     -241.998215846     -241.998215846
  Force two-norm initial, final = 0.013587 0.013587
  Force max component initial, final = 0.00335587 0.00335587
  Final line search alpha, max atom move = 6.10352e-05 2.04826e-07
  Iterations, force evaluations = 1 15

Pair  time (%) = 0.000258886 (82.1967)
Neigh time (%) = 0 (0)
Comm  time (%) = 1.90614e-05 (6.05202)
Outpt time (%) = 0 (0)
Other time (%) = 3.70117e-05 (11.7513)

Nlocal:    82 ave 82 max 82 min
Histogram: 1 0 0 0 0 0 0 0 0 0
Nghost:    185 ave 185 max 185 min
Histogram: 1 0 0 0 0 0 0 0 0 0
Neighs:    718 ave 718 max 718 min
Histogram: 1 0 0 0 0 0 0 0 0 0

Total # of neighbors = 718
Ave neighs/atom = 8.7561
Neighbor list builds = 0
Dangerous builds = 0
        # write_dump all atom ${dumpfile}
        next i
jump SELF loop1
        displace_atoms upper move ${xstep1} 0.0 0.0 units lattice
        displace_atoms upper move 0.00333333333333333 0.0 0.0 units lattice
        min_style ${style}
        min_style cg
        minimize ${etol} ${ftol} ${maxiter} ${maxeval}
        minimize 1e-12 ${ftol} ${maxiter} ${maxeval}
        minimize 1e-12 1e-08 ${maxiter} ${maxeval}
        minimize 1e-12 1e-08 10000 ${maxeval}
        minimize 1e-12 1e-08 10000 20000
WARNING: Resetting reneighboring criteria during minimization (../min.cpp:168)
Memory usage per processor = 3.35169 Mbytes
Step Temp PotEng Lx Ly Lz 
    1277            0   -241.99907    2.2449075     38.90003    1.1224537 
    1278            0   -241.99907    2.2449075     38.90003    1.1224537 
    1279            0   -241.99907    2.2449075     38.90003    1.1224537 
Loop time of 0.000214977 on 1 procs for 2 steps with 82 atoms

Minimization stats:
  Stopping criterion = linesearch alpha is zero
  Energy initial, next-to-last, final = 
        -241.999067336     -241.999074172     -241.999074172
  Force two-norm initial, final = 0.0158425 0.0370452
  Force max component initial, final = 0.00413055 0.0164883
  Final line search alpha, max atom move = 1.52588e-05 2.51592e-07
  Iterations, force evaluations = 2 22

Pair  time (%) = 0.000134466 (62.5488)
Neigh time (%) = 0 (0)
Comm  time (%) = 1.07619e-05 (5.00606)
Outpt time (%) = 6.98061e-06 (3.24714)
Other time (%) = 6.2769e-05 (29.198)

Nlocal:    82 ave 82 max 82 min
Histogram: 1 0 0 0 0 0 0 0 0 0
Nghost:    185 ave 185 max 185 min
Histogram: 1 0 0 0 0 0 0 0 0 0
Neighs:    718 ave 718 max 718 min
Histogram: 1 0 0 0 0 0 0 0 0 0

Total # of neighbors = 718
Ave neighs/atom = 8.7561
Neighbor list builds = 0
Dangerous builds = 0
        # write_dump all atom ${dumpfile}
        next i
jump SELF loop1
        displace_atoms upper move ${xstep1} 0.0 0.0 units lattice
        displace_atoms upper move 0.00333333333333333 0.0 0.0 units lattice
        min_style ${style}
        min_style cg
        minimize ${etol} ${ftol} ${maxiter} ${maxeval}
        minimize 1e-12 ${ftol} ${maxiter} ${maxeval}
        minimize 1e-12 1e-08 ${maxiter} ${maxeval}
        minimize 1e-12 1e-08 10000 ${maxeval}
        minimize 1e-12 1e-08 10000 20000
WARNING: Resetting reneighboring criteria during minimization (../min.cpp:168)
Memory usage per processor = 3.35169 Mbytes
Step Temp PotEng Lx Ly Lz 
    1279            0   -241.99959    2.2449075    38.900011    1.1224537 
    1280            0   -241.99959    2.2449075    38.900011    1.1224537 
Loop time of 0.000482882 on 1 procs for 1 steps with 82 atoms

Minimization stats:
  Stopping criterion = linesearch alpha is zero
  Energy initial, next-to-last, final = 
        -241.999586076     -241.999586076     -241.999586076
  Force two-norm initial, final = 0.0333165 0.0333165
  Force max component initial, final = 0.0143603 0.0143603
  Final line search alpha, max atom move = 7.62939e-06 1.0956e-07
  Iterations, force evaluations = 1 18

Pair  time (%) = 0.000373667 (77.3826)
Neigh time (%) = 0 (0)
Comm  time (%) = 4.69176e-05 (9.71616)
Outpt time (%) = 0 (0)
Other time (%) = 6.22976e-05 (12.9012)

Nlocal:    82 ave 82 max 82 min
Histogram: 1 0 0 0 0 0 0 0 0 0
Nghost:    185 ave 185 max 185 min
Histogram: 1 0 0 0 0 0 0 0 0 0
Neighs:    718 ave 718 max 718 min
Histogram: 1 0 0 0 0 0 0 0 0 0

Total # of neighbors = 718
Ave neighs/atom = 8.7561
Neighbor list builds = 0
Dangerous builds = 0
        # write_dump all atom ${dumpfile}
        next i
jump SELF loop1
        displace_atoms upper move ${xstep1} 0.0 0.0 units lattice
        displace_atoms upper move 0.00333333333333333 0.0 0.0 units lattice
        min_style ${style}
        min_style cg
        minimize ${etol} ${ftol} ${maxiter} ${maxeval}
        minimize 1e-12 ${ftol} ${maxiter} ${maxeval}
        minimize 1e-12 1e-08 ${maxiter} ${maxeval}
        minimize 1e-12 1e-08 10000 ${maxeval}
        minimize 1e-12 1e-08 10000 20000
WARNING: Resetting reneighboring criteria during minimization (../min.cpp:168)
Memory usage per processor = 3.35169 Mbytes
Step Temp PotEng Lx Ly Lz 
    1280            0   -241.99976    2.2449075    38.900011    1.1224537 
    1281            0   -241.99976    2.2449075    38.900011    1.1224537 
Loop time of 0.000372986 on 1 procs for 1 steps with 82 atoms

Minimization stats:
  Stopping criterion = linesearch alpha is zero
  Energy initial, next-to-last, final = 
        -241.999756734     -241.999756734     -241.999756734
  Force two-norm initial, final = 0.0321026 0.0321026
  Force max component initial, final = 0.0136509 0.0136509
  Final line search alpha, max atom move = 7.62939e-06 1.04148e-07
  Iterations, force evaluations = 1 18

Pair  time (%) = 0.000305151 (81.8129)
Neigh time (%) = 0 (0)
Comm  time (%) = 3.0868e-05 (8.2759)
Outpt time (%) = 0 (0)
Other time (%) = 3.69676e-05 (9.91124)

Nlocal:    82 ave 82 max 82 min
Histogram: 1 0 0 0 0 0 0 0 0 0
Nghost:    185 ave 185 max 185 min
Histogram: 1 0 0 0 0 0 0 0 0 0
Neighs:    718 ave 718 max 718 min
Histogram: 1 0 0 0 0 0 0 0 0 0

Total # of neighbors = 718
Ave neighs/atom = 8.7561
Neighbor list builds = 0
Dangerous builds = 0
        # write_dump all atom ${dumpfile}
        next i
jump SELF loop1


