LAMMPS (28 Jun 2014)
# attempt at getting GSF energy

#file prefix
variable prefix string gsf_V_brittle_3d
variable dumpfile string ${prefix}.*.dump
variable dumpfile string gsf_V_brittle_3d.*.dump
variable restartfile string ${prefix}.*.equil
variable restartfile string gsf_V_brittle_3d.*.equil

#Mass (g/mol)
variable m equal 1.0

# lattice constant (in Angstroms) and orientation of axes (given by lattice vectors)
variable rho equal 1.0
variable x1 equal 1
variable x2 equal -2
variable x3 equal 1
variable y1 equal 1
variable y2 equal 1
variable y3 equal 1
variable z1 equal -1
variable z2 equal 0
variable z3 equal 1
# length of lattice in different directions (using orientation of lattice vectors)
variable ax equal sqrt(${x1}*${x1}+${x2}*${x2}+${x3}*${x3})
variable ax equal sqrt(1*${x1}+${x2}*${x2}+${x3}*${x3})
variable ax equal sqrt(1*1+${x2}*${x2}+${x3}*${x3})
variable ax equal sqrt(1*1+-2*${x2}+${x3}*${x3})
variable ax equal sqrt(1*1+-2*-2+${x3}*${x3})
variable ax equal sqrt(1*1+-2*-2+1*${x3})
variable ax equal sqrt(1*1+-2*-2+1*1)
variable ay equal sqrt(${y1}*${y1}+${y2}*${y2}+${y3}*${y3})
variable ay equal sqrt(1*${y1}+${y2}*${y2}+${y3}*${y3})
variable ay equal sqrt(1*1+${y2}*${y2}+${y3}*${y3})
variable ay equal sqrt(1*1+1*${y2}+${y3}*${y3})
variable ay equal sqrt(1*1+1*1+${y3}*${y3})
variable ay equal sqrt(1*1+1*1+1*${y3})
variable ay equal sqrt(1*1+1*1+1*1)
variable az equal sqrt(${z1}*${z1}+${z2}*${z2}+${z3}*${z3})
variable az equal sqrt(-1*${z1}+${z2}*${z2}+${z3}*${z3})
variable az equal sqrt(-1*-1+${z2}*${z2}+${z3}*${z3})
variable az equal sqrt(-1*-1+0*${z2}+${z3}*${z3})
variable az equal sqrt(-1*-1+0*0+${z3}*${z3})
variable az equal sqrt(-1*-1+0*0+1*${z3})
variable az equal sqrt(-1*-1+0*0+1*1)

# size of box in lattice units
variable lxpos equal 2
variable lxneg equal 0
variable lypos equal 15
variable lyneg equal -1*${lypos}
variable lyneg equal -1*15
variable lzpos equal 2
variable lzneg equal 0

# Define minimization parameters and damping
variable etol equal 1.0e-12
variable ftol equal 1.0e-8
variable maxiter equal 10000
variable maxeval equal 20000
variable style string hftn

# boundary conditions
dimension	3
boundary	p s p
atom_style	atomic

# create geometry
units		lj
lattice         fcc ${rho} orient x ${x1} ${x2} ${x3} orient y ${y1} ${y2} ${y3} orient z ${z1} ${z2} ${z3} spacing ${ax} ${ay} ${az}
lattice         fcc 1 orient x ${x1} ${x2} ${x3} orient y ${y1} ${y2} ${y3} orient z ${z1} ${z2} ${z3} spacing ${ax} ${ay} ${az}
lattice         fcc 1 orient x 1 ${x2} ${x3} orient y ${y1} ${y2} ${y3} orient z ${z1} ${z2} ${z3} spacing ${ax} ${ay} ${az}
lattice         fcc 1 orient x 1 -2 ${x3} orient y ${y1} ${y2} ${y3} orient z ${z1} ${z2} ${z3} spacing ${ax} ${ay} ${az}
lattice         fcc 1 orient x 1 -2 1 orient y ${y1} ${y2} ${y3} orient z ${z1} ${z2} ${z3} spacing ${ax} ${ay} ${az}
lattice         fcc 1 orient x 1 -2 1 orient y 1 ${y2} ${y3} orient z ${z1} ${z2} ${z3} spacing ${ax} ${ay} ${az}
lattice         fcc 1 orient x 1 -2 1 orient y 1 1 ${y3} orient z ${z1} ${z2} ${z3} spacing ${ax} ${ay} ${az}
lattice         fcc 1 orient x 1 -2 1 orient y 1 1 1 orient z ${z1} ${z2} ${z3} spacing ${ax} ${ay} ${az}
lattice         fcc 1 orient x 1 -2 1 orient y 1 1 1 orient z -1 ${z2} ${z3} spacing ${ax} ${ay} ${az}
lattice         fcc 1 orient x 1 -2 1 orient y 1 1 1 orient z -1 0 ${z3} spacing ${ax} ${ay} ${az}
lattice         fcc 1 orient x 1 -2 1 orient y 1 1 1 orient z -1 0 1 spacing ${ax} ${ay} ${az}
lattice         fcc 1 orient x 1 -2 1 orient y 1 1 1 orient z -1 0 1 spacing 2.44948974278318 ${ay} ${az}
lattice         fcc 1 orient x 1 -2 1 orient y 1 1 1 orient z -1 0 1 spacing 2.44948974278318 1.73205080756888 ${az}
lattice         fcc 1 orient x 1 -2 1 orient y 1 1 1 orient z -1 0 1 spacing 2.44948974278318 1.73205080756888 1.4142135623731
Lattice spacing in x,y,z = 3.88832 2.74946 2.24492
region		myregion block ${lxneg} ${lxpos} ${lyneg} ${lypos} ${lzneg} ${lzpos} units lattice
region		myregion block 0 ${lxpos} ${lyneg} ${lypos} ${lzneg} ${lzpos} units lattice
region		myregion block 0 2 ${lyneg} ${lypos} ${lzneg} ${lzpos} units lattice
region		myregion block 0 2 -15 ${lypos} ${lzneg} ${lzpos} units lattice
region		myregion block 0 2 -15 15 ${lzneg} ${lzpos} units lattice
region		myregion block 0 2 -15 15 0 ${lzpos} units lattice
region		myregion block 0 2 -15 15 0 2 units lattice
create_box	1 myregion
Created orthogonal box = (0 -41.2419 0) to (7.77665 41.2419 4.48985)
  1 by 1 by 1 MPI processor grid
create_atoms	1 box
Created 2912 atoms

# define masses
mass * $m
mass * 1

# my fake/morse potential
pair_style      table linear 3001
pair_coeff      * * vpotential_inter43d dummy
neighbor	0.3 bin
neigh_modify	delay 5

# define groups. Nudge to separate planes cleanly
region	    upper block INF INF 0.01 ${lypos} INF INF units lattice
region	    upper block INF INF 0.01 15 INF INF units lattice
group		upper region upper
1440 atoms in group upper

# Setup output
thermo 1
thermo_style custom step temp pe lx ly lz
thermo_modify norm no

# Compute initial state by relaxing box
min_style ${style}
min_style hftn
minimize ${etol} ${ftol} ${maxiter} ${maxeval}
minimize 1e-12 ${ftol} ${maxiter} ${maxeval}
minimize 1e-12 1e-08 ${maxiter} ${maxeval}
minimize 1e-12 1e-08 10000 ${maxeval}
minimize 1e-12 1e-08 10000 20000
WARNING: Resetting reneighboring criteria during minimization (../min.cpp:168)
Memory usage per processor = 5.28939 Mbytes
Step Temp PotEng Lx Ly Lz 
       0            0   -17375.986    7.7766452    82.500275    4.4898482 
       1            0   -17375.986    7.7766452    82.500275    4.4898482 
       2            0   -17375.986    7.7766452    82.500275    4.4898482 
Loop time of 1.49063 on 1 procs for 1 steps with 2912 atoms

Minimization stats:
  Stopping criterion = force tolerance
  Energy initial, next-to-last, final = 
        -17375.9855515     -17375.9855515     -17375.9858427
  Force two-norm initial, final = 0.00252636 4.78485e-12
  Force max component initial, final = 0.000315795 3.56737e-13
  Final line search alpha, max atom move = 0 0
  Iterations, force evaluations = 1 629

Pair  time (%) = 1.37284 (92.0979)
Neigh time (%) = 0 (0)
Comm  time (%) = 0.0253732 (1.70218)
Outpt time (%) = 5.20753e-05 (0.0034935)
Other time (%) = 0.0923657 (6.1964)

Nlocal:    2912 ave 2912 max 2912 min
Histogram: 1 0 0 0 0 0 0 0 0 0
Nghost:    7129 ave 7129 max 7129 min
Histogram: 1 0 0 0 0 0 0 0 0 0
Neighs:    77856 ave 77856 max 77856 min
Histogram: 1 0 0 0 0 0 0 0 0 0

Total # of neighbors = 77856
Ave neighs/atom = 26.7363
Neighbor list builds = 0
Dangerous builds = 0

# don't allow atoms to relax in x- and y-directions
fix 2 all setforce 0.0 NULL 0.0

# GSF energy curve will have 100*2 steps
variable nsteps equal 100
# first partial is parallel to x-axis
variable angle1 equal 0
# second partial is at 60 degrees to first partial
variable angle2 equal PI/180*60
# partial dislocations have length a*sqrt(6)/6
variable sstep1 equal sqrt(6)/6
variable sstep2 equal sqrt(6)/6
variable xstep1 equal cos(${angle1})*${sstep1}/(${ax}*${nsteps})
variable xstep1 equal cos(0)*${sstep1}/(${ax}*${nsteps})
variable xstep1 equal cos(0)*0.408248290463863/(${ax}*${nsteps})
variable xstep1 equal cos(0)*0.408248290463863/(2.44948974278318*${nsteps})
variable xstep1 equal cos(0)*0.408248290463863/(2.44948974278318*100)
variable zstep1 equal sin(${angle1})*${sstep1}/(${az}*${nsteps})
variable zstep1 equal sin(0)*${sstep1}/(${az}*${nsteps})
variable zstep1 equal sin(0)*0.408248290463863/(${az}*${nsteps})
variable zstep1 equal sin(0)*0.408248290463863/(1.4142135623731*${nsteps})
variable zstep1 equal sin(0)*0.408248290463863/(1.4142135623731*100)
variable xstep2 equal cos(${angle2})*${sstep2}/(${ax}*${nsteps})
variable xstep2 equal cos(1.0471975511966)*${sstep2}/(${ax}*${nsteps})
variable xstep2 equal cos(1.0471975511966)*0.408248290463863/(${ax}*${nsteps})
variable xstep2 equal cos(1.0471975511966)*0.408248290463863/(2.44948974278318*${nsteps})
variable xstep2 equal cos(1.0471975511966)*0.408248290463863/(2.44948974278318*100)
variable zstep2 equal sin(${angle2})*${sstep2}/(${az}*${nsteps})
variable zstep2 equal sin(1.0471975511966)*${sstep2}/(${az}*${nsteps})
variable zstep2 equal sin(1.0471975511966)*0.408248290463863/(${az}*${nsteps})
variable zstep2 equal sin(1.0471975511966)*0.408248290463863/(1.4142135623731*${nsteps})
variable zstep2 equal sin(1.0471975511966)*0.408248290463863/(1.4142135623731*100)

variable i loop ${nsteps}
variable i loop 100
label loop1
        displace_atoms upper move ${xstep1} 0.0 ${zstep1} units lattice
        displace_atoms upper move 0.00166666666666667 0.0 ${zstep1} units lattice
        displace_atoms upper move 0.00166666666666667 0.0 0 units lattice
        min_style ${style}
        min_style hftn
        minimize ${etol} ${ftol} ${maxiter} ${maxeval}
        minimize 1e-12 ${ftol} ${maxiter} ${maxeval}
        minimize 1e-12 1e-08 ${maxiter} ${maxeval}
        minimize 1e-12 1e-08 10000 ${maxeval}
        minimize 1e-12 1e-08 10000 20000
WARNING: Resetting reneighboring criteria during minimization (../min.cpp:168)
Memory usage per processor = 5.28939 Mbytes
Step Temp PotEng Lx Ly Lz 
       2            0   -17375.958    7.7766452    82.500442    4.4898482 
       3            0   -17375.958    7.7766452    82.500442    4.4898482 
       4            0   -17375.958    7.7766452    82.500442    4.4898482 
       5            0   -17375.958    7.7766452    82.500442    4.4898482 
       6            0   -17375.958    7.7766452    82.500442    4.4898482 
       7            0   -17375.958    7.7766452    82.500442    4.4898482 
       8            0   -17375.958    7.7766452    82.500442    4.4898482 
       9            0   -17375.958    7.7766452    82.500442    4.4898482 
Loop time of 0.160907 on 1 procs for 6 steps with 2912 atoms

Minimization stats:
  Stopping criterion = energy tolerance
  Energy initial, next-to-last, final = 
        -17375.9576916     -17375.9576916     -17375.9576916
  Force two-norm initial, final = 0.0967175 0.0967002
  Force max component initial, final = 0.0120897 0.0120875
  Final line search alpha, max atom move = 0 0
  Iterations, force evaluations = 6 65

Pair  time (%) = 0.150015 (93.2309)
Neigh time (%) = 0 (0)
Comm  time (%) = 0.00314075 (1.95191)
Outpt time (%) = 0.000674002 (0.418877)
Other time (%) = 0.0070772 (4.39832)

Nlocal:    2912 ave 2912 max 2912 min
Histogram: 1 0 0 0 0 0 0 0 0 0
Nghost:    7129 ave 7129 max 7129 min
Histogram: 1 0 0 0 0 0 0 0 0 0
Neighs:    77856 ave 77856 max 77856 min
Histogram: 1 0 0 0 0 0 0 0 0 0

Total # of neighbors = 77856
Ave neighs/atom = 26.7363
Neighbor list builds = 0
Dangerous builds = 0
        next i
jump SELF loop1
        displace_atoms upper move ${xstep1} 0.0 ${zstep1} units lattice
        displace_atoms upper move 0.00166666666666667 0.0 ${zstep1} units lattice
        displace_atoms upper move 0.00166666666666667 0.0 0 units lattice
        min_style ${style}
        min_style hftn
        minimize ${etol} ${ftol} ${maxiter} ${maxeval}
        minimize 1e-12 ${ftol} ${maxiter} ${maxeval}
        minimize 1e-12 1e-08 ${maxiter} ${maxeval}
        minimize 1e-12 1e-08 10000 ${maxeval}
        minimize 1e-12 1e-08 10000 20000
WARNING: Resetting reneighboring criteria during minimization (../min.cpp:168)
Memory usage per processor = 5.28939 Mbytes
Step Temp PotEng Lx Ly Lz 
       9            0   -17375.875    7.7766452    82.500442    4.4898482 
      10            0   -17375.875    7.7766452    82.500442    4.4898482 
      11            0   -17375.875    7.7766452    82.500442    4.4898482 
      12            0   -17375.875    7.7766452    82.500442    4.4898482 
      13            0   -17375.875    7.7766452    82.500442    4.4898482 
      14            0   -17375.875    7.7766452    82.500442    4.4898482 
      15            0   -17375.875    7.7766452    82.500442    4.4898482 
      16            0   -17375.875    7.7766452    82.500442    4.4898482 
      17            0   -17375.875    7.7766452    82.500442    4.4898482 
      18            0   -17375.875    7.7766452    82.500442    4.4898482 
      19            0   -17375.875    7.7766452    82.500442    4.4898482 
Loop time of 0.206512 on 1 procs for 9 steps with 2912 atoms

Minimization stats:
  Stopping criterion = energy tolerance
  Energy initial, next-to-last, final = 
        -17375.8752298     -17375.8752972     -17375.8753178
  Force two-norm initial, final = 0.379021 0.0896676
  Force max component initial, final = 0.0473777 0.0103845
  Final line search alpha, max atom move = 0 0
  Iterations, force evaluations = 9 72

Pair  time (%) = 0.193421 (93.6611)
Neigh time (%) = 0 (0)
Comm  time (%) = 0.00475085 (2.30052)
Outpt time (%) = 0.000843095 (0.408255)
Other time (%) = 0.00749672 (3.63016)

Nlocal:    2912 ave 2912 max 2912 min
Histogram: 1 0 0 0 0 0 0 0 0 0
Nghost:    7129 ave 7129 max 7129 min
Histogram: 1 0 0 0 0 0 0 0 0 0
Neighs:    77856 ave 77856 max 77856 min
Histogram: 1 0 0 0 0 0 0 0 0 0

Total # of neighbors = 77856
Ave neighs/atom = 26.7363
Neighbor list builds = 0
Dangerous builds = 0
        next i
jump SELF loop1
        displace_atoms upper move ${xstep1} 0.0 ${zstep1} units lattice
        displace_atoms upper move 0.00166666666666667 0.0 ${zstep1} units lattice
        displace_atoms upper move 0.00166666666666667 0.0 0 units lattice
        min_style ${style}
        min_style hftn
        minimize ${etol} ${ftol} ${maxiter} ${maxeval}
        minimize 1e-12 ${ftol} ${maxiter} ${maxeval}
        minimize 1e-12 1e-08 ${maxiter} ${maxeval}
        minimize 1e-12 1e-08 10000 ${maxeval}
        minimize 1e-12 1e-08 10000 20000
WARNING: Resetting reneighboring criteria during minimization (../min.cpp:168)
Memory usage per processor = 5.28939 Mbytes
Step Temp PotEng Lx Ly Lz 
      19            0   -17375.741    7.7766452    82.500442    4.4898482 
      20            0   -17375.741    7.7766452    82.500442    4.4898482 
      21            0   -17375.741    7.7766452    82.500442    4.4898482 
      22            0   -17375.741    7.7766452    82.500442    4.4898482 
      23            0   -17375.741    7.7766452    82.500442    4.4898482 
      24            0   -17375.741    7.7766452    82.500442    4.4898482 
      25            0   -17375.741    7.7766452    82.500442    4.4898482 
      26            0   -17375.741    7.7766452    82.500442    4.4898482 
      27            0   -17375.741    7.7766452    82.500442    4.4898482 
      28            0   -17375.741    7.7766452    82.500442    4.4898482 
Loop time of 0.187559 on 1 procs for 8 steps with 2912 atoms

Minimization stats:
  Stopping criterion = energy tolerance
  Energy initial, next-to-last, final = 
        -17375.7411028     -17375.7411028     -17375.7411027
  Force two-norm initial, final = 0.49275 0.492724
  Force max component initial, final = 0.0606575 0.060654
  Final line search alpha, max atom move = 0 0
  Iterations, force evaluations = 8 75

Pair  time (%) = 0.172466 (91.953)
Neigh time (%) = 0 (0)
Comm  time (%) = 0.00683161 (3.64238)
Outpt time (%) = 0.000677167 (0.361042)
Other time (%) = 0.00758416 (4.04361)

Nlocal:    2912 ave 2912 max 2912 min
Histogram: 1 0 0 0 0 0 0 0 0 0
Nghost:    7129 ave 7129 max 7129 min
Histogram: 1 0 0 0 0 0 0 0 0 0
Neighs:    77856 ave 77856 max 77856 min
Histogram: 1 0 0 0 0 0 0 0 0 0

Total # of neighbors = 77856
Ave neighs/atom = 26.7363
Neighbor list builds = 0
Dangerous builds = 0
        next i
jump SELF loop1
        displace_atoms upper move ${xstep1} 0.0 ${zstep1} units lattice
        displace_atoms upper move 0.00166666666666667 0.0 ${zstep1} units lattice
        displace_atoms upper move 0.00166666666666667 0.0 0 units lattice
        min_style ${style}
        min_style hftn
        minimize ${etol} ${ftol} ${maxiter} ${maxeval}
        minimize 1e-12 ${ftol} ${maxiter} ${maxeval}
        minimize 1e-12 1e-08 ${maxiter} ${maxeval}
        minimize 1e-12 1e-08 10000 ${maxeval}
        minimize 1e-12 1e-08 10000 20000
WARNING: Resetting reneighboring criteria during minimization (../min.cpp:168)
Memory usage per processor = 5.28939 Mbytes
Step Temp PotEng Lx Ly Lz 
      28            0   -17375.557    7.7766452    82.500442    4.4898482 
      29            0   -17375.558    7.7766452    82.500442    4.4898482 
      30            0    -17375.56    7.7766452    82.500442    4.4898482 
      31            0    -17375.56    7.7766452    82.500442    4.4898482 
      32            0    -17375.56    7.7766452    82.500442    4.4898482 
Loop time of 1.43709 on 1 procs for 3 steps with 2912 atoms

Minimization stats:
  Stopping criterion = force tolerance
  Energy initial, next-to-last, final = 
        -17375.5573507     -17375.5596613     -17375.5596792
  Force two-norm initial, final = 1.11464 9.44928e-12
  Force max component initial, final = 0.138919 1.16688e-12
  Final line search alpha, max atom move = 0 0
  Iterations, force evaluations = 3 621

Pair  time (%) = 1.31262 (91.3389)
Neigh time (%) = 0 (0)
Comm  time (%) = 0.0313848 (2.18391)
Outpt time (%) = 0.000218955 (0.015236)
Other time (%) = 0.0928647 (6.46199)

Nlocal:    2912 ave 2912 max 2912 min
Histogram: 1 0 0 0 0 0 0 0 0 0
Nghost:    7129 ave 7129 max 7129 min
Histogram: 1 0 0 0 0 0 0 0 0 0
Neighs:    77856 ave 77856 max 77856 min
Histogram: 1 0 0 0 0 0 0 0 0 0

Total # of neighbors = 77856
Ave neighs/atom = 26.7363
Neighbor list builds = 0
Dangerous builds = 0
        next i
jump SELF loop1
        displace_atoms upper move ${xstep1} 0.0 ${zstep1} units lattice
        displace_atoms upper move 0.00166666666666667 0.0 ${zstep1} units lattice
        displace_atoms upper move 0.00166666666666667 0.0 0 units lattice
        min_style ${style}
        min_style hftn
        minimize ${etol} ${ftol} ${maxiter} ${maxeval}
        minimize 1e-12 ${ftol} ${maxiter} ${maxeval}
        minimize 1e-12 1e-08 ${maxiter} ${maxeval}
        minimize 1e-12 1e-08 10000 ${maxeval}
        minimize 1e-12 1e-08 10000 20000
WARNING: Resetting reneighboring criteria during minimization (../min.cpp:168)
Memory usage per processor = 5.28939 Mbytes
Step Temp PotEng Lx Ly Lz 
      32            0   -17375.331    7.7766452     82.50152    4.4898482 
      33            0   -17375.332    7.7766452     82.50152    4.4898482 
      34            0   -17375.332    7.7766452     82.50152    4.4898482 
      35            0   -17375.332    7.7766452     82.50152    4.4898482 
      36            0   -17375.332    7.7766452     82.50152    4.4898482 
Loop time of 1.27674 on 1 procs for 3 steps with 2912 atoms

Minimization stats:
  Stopping criterion = force tolerance
  Energy initial, next-to-last, final = 
         -17375.331427     -17375.3323551     -17375.3323652
  Force two-norm initial, final = 0.776226 1.00969e-11
  Force max component initial, final = 0.0970283 1.94251e-12
  Final line search alpha, max atom move = 0 0
  Iterations, force evaluations = 3 515

Pair  time (%) = 1.17334 (91.9014)
Neigh time (%) = 0 (0)
Comm  time (%) = 0.0234417 (1.83606)
Outpt time (%) = 0.000232823 (0.0182358)
Other time (%) = 0.079723 (6.24427)

Nlocal:    2912 ave 2912 max 2912 min
Histogram: 1 0 0 0 0 0 0 0 0 0
Nghost:    7009 ave 7009 max 7009 min
Histogram: 1 0 0 0 0 0 0 0 0 0
Neighs:    77856 ave 77856 max 77856 min
Histogram: 1 0 0 0 0 0 0 0 0 0

Total # of neighbors = 77856
Ave neighs/atom = 26.7363
Neighbor list builds = 0
Dangerous builds = 0
        next i
jump SELF loop1
        displace_atoms upper move ${xstep1} 0.0 ${zstep1} units lattice
        displace_atoms upper move 0.00166666666666667 0.0 ${zstep1} units lattice
        displace_atoms upper move 0.00166666666666667 0.0 0 units lattice
        min_style ${style}
        min_style hftn
        minimize ${etol} ${ftol} ${maxiter} ${maxeval}
        minimize 1e-12 ${ftol} ${maxiter} ${maxeval}
        minimize 1e-12 1e-08 ${maxiter} ${maxeval}
        minimize 1e-12 1e-08 10000 ${maxeval}
        minimize 1e-12 1e-08 10000 20000
WARNING: Resetting reneighboring criteria during minimization (../min.cpp:168)
Memory usage per processor = 5.28939 Mbytes
Step Temp PotEng Lx Ly Lz 
      36            0   -17375.062    7.7766452    82.502093    4.4898482 
      37            0   -17375.062    7.7766452    82.502093    4.4898482 
      38            0   -17375.063    7.7766452    82.502093    4.4898482 
      39            0   -17375.063    7.7766452    82.502093    4.4898482 
      40            0   -17375.063    7.7766452    82.502093    4.4898482 
Loop time of 1.17416 on 1 procs for 3 steps with 2912 atoms

Minimization stats:
  Stopping criterion = force tolerance
  Energy initial, next-to-last, final = 
        -17375.0618854     -17375.0631337     -17375.0631478
  Force two-norm initial, final = 0.917572 2.40559e-11
  Force max component initial, final = 0.114697 2.45732e-12
  Final line search alpha, max atom move = 0 0
  Iterations, force evaluations = 3 491

Pair  time (%) = 1.07626 (91.6622)
Neigh time (%) = 0 (0)
Comm  time (%) = 0.0234278 (1.99528)
Outpt time (%) = 0.000402154 (0.0342503)
Other time (%) = 0.0740691 (6.30826)

Nlocal:    2912 ave 2912 max 2912 min
Histogram: 1 0 0 0 0 0 0 0 0 0
Nghost:    7009 ave 7009 max 7009 min
Histogram: 1 0 0 0 0 0 0 0 0 0
Neighs:    77856 ave 77856 max 77856 min
Histogram: 1 0 0 0 0 0 0 0 0 0

Total # of neighbors = 77856
Ave neighs/atom = 26.7363
Neighbor list builds = 0
Dangerous builds = 0
        next i
jump SELF loop1
        displace_atoms upper move ${xstep1} 0.0 ${zstep1} units lattice
        displace_atoms upper move 0.00166666666666667 0.0 ${zstep1} units lattice
        displace_atoms upper move 0.00166666666666667 0.0 0 units lattice
        min_style ${style}
        min_style hftn
        minimize ${etol} ${ftol} ${maxiter} ${maxeval}
        minimize 1e-12 ${ftol} ${maxiter} ${maxeval}
        minimize 1e-12 1e-08 ${maxiter} ${maxeval}
        minimize 1e-12 1e-08 10000 ${maxeval}
        minimize 1e-12 1e-08 10000 20000
WARNING: Resetting reneighboring criteria during minimization (../min.cpp:168)
Memory usage per processor = 5.28939 Mbytes
Step Temp PotEng Lx Ly Lz 
      40            0   -17374.754    7.7766452    82.502771    4.4898482 
      41            0   -17374.754    7.7766452    82.502771    4.4898482 
      42            0   -17374.755    7.7766452    82.502771    4.4898482 
      43            0   -17374.755    7.7766452    82.502771    4.4898482 
      44            0   -17374.755    7.7766452    82.502771    4.4898482 
Loop time of 1.19057 on 1 procs for 3 steps with 2912 atoms

Minimization stats:
  Stopping criterion = force tolerance
  Energy initial, next-to-last, final = 
        -17374.7537828     -17374.7554163     -17374.7554324
  Force two-norm initial, final = 1.04692 3.76544e-11
  Force max component initial, final = 0.130864 2.42986e-12
  Final line search alpha, max atom move = 0 0
  Iterations, force evaluations = 3 491

Pair  time (%) = 1.07914 (90.6409)
Neigh time (%) = 0 (0)
Comm  time (%) = 0.0243887 (2.04849)
Outpt time (%) = 0.000360918 (0.0303148)
Other time (%) = 0.0866772 (7.28032)

Nlocal:    2912 ave 2912 max 2912 min
Histogram: 1 0 0 0 0 0 0 0 0 0
Nghost:    7009 ave 7009 max 7009 min
Histogram: 1 0 0 0 0 0 0 0 0 0
Neighs:    77856 ave 77856 max 77856 min
Histogram: 1 0 0 0 0 0 0 0 0 0

Total # of neighbors = 77856
Ave neighs/atom = 26.7363
Neighbor list builds = 0
Dangerous builds = 0
        next i
jump SELF loop1
        displace_atoms upper move ${xstep1} 0.0 ${zstep1} units lattice
        displace_atoms upper move 0.00166666666666667 0.0 ${zstep1} units lattice
        displace_atoms upper move 0.00166666666666667 0.0 0 units lattice
        min_style ${style}
        min_style hftn
        minimize ${etol} ${ftol} ${maxiter} ${maxeval}
        minimize 1e-12 ${ftol} ${maxiter} ${maxeval}
        minimize 1e-12 1e-08 ${maxiter} ${maxeval}
        minimize 1e-12 1e-08 10000 ${maxeval}
        minimize 1e-12 1e-08 10000 20000
WARNING: Resetting reneighboring criteria during minimization (../min.cpp:168)
Memory usage per processor = 5.28939 Mbytes
Step Temp PotEng Lx Ly Lz 
      44            0   -17374.411    7.7766452    82.503545    4.4898482 
      45            0   -17374.411    7.7766452    82.503545    4.4898482 
      46            0   -17374.413    7.7766452    82.503545    4.4898482 
      47            0   -17374.413    7.7766452    82.503545    4.4898482 
      48            0   -17374.413    7.7766452    82.503545    4.4898482 
Loop time of 1.16376 on 1 procs for 3 steps with 2912 atoms

Minimization stats:
  Stopping criterion = force tolerance
  Energy initial, next-to-last, final = 
        -17374.4107647     -17374.4125878     -17374.4126057
  Force two-norm initial, final = 1.16316 8.16977e-11
  Force max component initial, final = 0.145395 6.74046e-12
  Final line search alpha, max atom move = 0 0
  Iterations, force evaluations = 3 487

Pair  time (%) = 1.07221 (92.1334)
Neigh time (%) = 0 (0)
Comm  time (%) = 0.0180474 (1.55079)
Outpt time (%) = 0.000324087 (0.0278483)
Other time (%) = 0.0731771 (6.28801)

Nlocal:    2912 ave 2912 max 2912 min
Histogram: 1 0 0 0 0 0 0 0 0 0
Nghost:    7009 ave 7009 max 7009 min
Histogram: 1 0 0 0 0 0 0 0 0 0
Neighs:    77856 ave 77856 max 77856 min
Histogram: 1 0 0 0 0 0 0 0 0 0

Total # of neighbors = 77856
Ave neighs/atom = 26.7363
Neighbor list builds = 0
Dangerous builds = 0
        next i
jump SELF loop1
        displace_atoms upper move ${xstep1} 0.0 ${zstep1} units lattice
        displace_atoms upper move 0.00166666666666667 0.0 ${zstep1} units lattice
        displace_atoms upper move 0.00166666666666667 0.0 0 units lattice
        min_style ${style}
        min_style hftn
        minimize ${etol} ${ftol} ${maxiter} ${maxeval}
        minimize 1e-12 ${ftol} ${maxiter} ${maxeval}
        minimize 1e-12 1e-08 ${maxiter} ${maxeval}
        minimize 1e-12 1e-08 10000 ${maxeval}
        minimize 1e-12 1e-08 10000 20000
WARNING: Resetting reneighboring criteria during minimization (../min.cpp:168)
Memory usage per processor = 5.28939 Mbytes
Step Temp PotEng Lx Ly Lz 
      48            0   -17374.036    7.7766452    82.504406    4.4898482 
      49            0   -17374.037    7.7766452    82.504406    4.4898482 
      50            0   -17374.038    7.7766452    82.504406    4.4898482 
      51            0   -17374.038    7.7766452    82.504406    4.4898482 
      52            0   -17374.038    7.7766452    82.504406    4.4898482 
Loop time of 1.14529 on 1 procs for 3 steps with 2912 atoms

Minimization stats:
  Stopping criterion = force tolerance
  Energy initial, next-to-last, final = 
         -17374.035532     -17374.0381066     -17374.0381261
  Force two-norm initial, final = 1.26932 9.43573e-11
  Force max component initial, final = 0.158665 6.2737e-12
  Final line search alpha, max atom move = 0 0
  Iterations, force evaluations = 3 487

Pair  time (%) = 1.04682 (91.4016)
Neigh time (%) = 0 (0)
Comm  time (%) = 0.0197509 (1.72452)
Outpt time (%) = 0.000298075 (0.0260261)
Other time (%) = 0.0784281 (6.84786)

Nlocal:    2912 ave 2912 max 2912 min
Histogram: 1 0 0 0 0 0 0 0 0 0
Nghost:    7009 ave 7009 max 7009 min
Histogram: 1 0 0 0 0 0 0 0 0 0
Neighs:    77856 ave 77856 max 77856 min
Histogram: 1 0 0 0 0 0 0 0 0 0

Total # of neighbors = 77856
Ave neighs/atom = 26.7363
Neighbor list builds = 0
Dangerous builds = 0
        next i
jump SELF loop1
        displace_atoms upper move ${xstep1} 0.0 ${zstep1} units lattice
        displace_atoms upper move 0.00166666666666667 0.0 ${zstep1} units lattice
        displace_atoms upper move 0.00166666666666667 0.0 0 units lattice
        min_style ${style}
        min_style hftn
        minimize ${etol} ${ftol} ${maxiter} ${maxeval}
        minimize 1e-12 ${ftol} ${maxiter} ${maxeval}
        minimize 1e-12 1e-08 ${maxiter} ${maxeval}
        minimize 1e-12 1e-08 10000 ${maxeval}
        minimize 1e-12 1e-08 10000 20000
WARNING: Resetting reneighboring criteria during minimization (../min.cpp:168)
Memory usage per processor = 5.28939 Mbytes
Step Temp PotEng Lx Ly Lz 
      52            0   -17373.632    7.7766452    82.505346    4.4898482 
      53            0   -17373.633    7.7766452    82.505346    4.4898482 
      54            0   -17373.635    7.7766452    82.505346    4.4898482 
      55            0   -17373.635    7.7766452    82.505346    4.4898482 
      56            0   -17373.635    7.7766452    82.505346    4.4898482 
Loop time of 1.145 on 1 procs for 3 steps with 2912 atoms

Minimization stats:
  Stopping criterion = force tolerance
  Energy initial, next-to-last, final = 
        -17373.6321624     -17373.6349256     -17373.6349466
  Force two-norm initial, final = 1.36267 8.6529e-11
  Force max component initial, final = 0.170333 6.6169e-12
  Final line search alpha, max atom move = 0 0
  Iterations, force evaluations = 3 485

Pair  time (%) = 1.0445 (91.223)
Neigh time (%) = 0 (0)
Comm  time (%) = 0.018964 (1.65625)
Outpt time (%) = 0.000460233 (0.0401952)
Other time (%) = 0.0810727 (7.08061)

Nlocal:    2912 ave 2912 max 2912 min
Histogram: 1 0 0 0 0 0 0 0 0 0
Nghost:    7009 ave 7009 max 7009 min
Histogram: 1 0 0 0 0 0 0 0 0 0
Neighs:    77856 ave 77856 max 77856 min
Histogram: 1 0 0 0 0 0 0 0 0 0

Total # of neighbors = 77856
Ave neighs/atom = 26.7363
Neighbor list builds = 0
Dangerous builds = 0
        next i
jump SELF loop1
        displace_atoms upper move ${xstep1} 0.0 ${zstep1} units lattice
        displace_atoms upper move 0.00166666666666667 0.0 ${zstep1} units lattice
        displace_atoms upper move 0.00166666666666667 0.0 0 units lattice
        min_style ${style}
        min_style hftn
        minimize ${etol} ${ftol} ${maxiter} ${maxeval}
        minimize 1e-12 ${ftol} ${maxiter} ${maxeval}
        minimize 1e-12 1e-08 ${maxiter} ${maxeval}
        minimize 1e-12 1e-08 10000 ${maxeval}
        minimize 1e-12 1e-08 10000 20000
WARNING: Resetting reneighboring criteria during minimization (../min.cpp:168)
Memory usage per processor = 5.28939 Mbytes
Step Temp PotEng Lx Ly Lz 
      56            0   -17373.204    7.7766452    82.506358    4.4898482 
      57            0   -17373.205    7.7766452    82.506358    4.4898482 
      58            0   -17373.207    7.7766452    82.506358    4.4898482 
      59            0   -17373.207    7.7766452    82.506358    4.4898482 
      60            0   -17373.207    7.7766452    82.506358    4.4898482 
Loop time of 1.13872 on 1 procs for 3 steps with 2912 atoms

Minimization stats:
  Stopping criterion = force tolerance
  Energy initial, next-to-last, final = 
        -17373.2036306     -17373.2066885     -17373.2067109
  Force two-norm initial, final = 1.44302 8.86097e-11
  Force max component initial, final = 0.180378 7.2278e-12
  Final line search alpha, max atom move = 0 0
  Iterations, force evaluations = 3 485

Pair  time (%) = 1.04784 (92.0191)
Neigh time (%) = 0 (0)
Comm  time (%) = 0.0189235 (1.66181)
Outpt time (%) = 0.000339855 (0.0298452)
Other time (%) = 0.0716169 (6.28922)

Nlocal:    2912 ave 2912 max 2912 min
Histogram: 1 0 0 0 0 0 0 0 0 0
Nghost:    7009 ave 7009 max 7009 min
Histogram: 1 0 0 0 0 0 0 0 0 0
Neighs:    77856 ave 77856 max 77856 min
Histogram: 1 0 0 0 0 0 0 0 0 0

Total # of neighbors = 77856
Ave neighs/atom = 26.7363
Neighbor list builds = 0
Dangerous builds = 0
        next i
jump SELF loop1
        displace_atoms upper move ${xstep1} 0.0 ${zstep1} units lattice
        displace_atoms upper move 0.00166666666666667 0.0 ${zstep1} units lattice
        displace_atoms upper move 0.00166666666666667 0.0 0 units lattice
        min_style ${style}
        min_style hftn
        minimize ${etol} ${ftol} ${maxiter} ${maxeval}
        minimize 1e-12 ${ftol} ${maxiter} ${maxeval}
        minimize 1e-12 1e-08 ${maxiter} ${maxeval}
        minimize 1e-12 1e-08 10000 ${maxeval}
        minimize 1e-12 1e-08 10000 20000
WARNING: Resetting reneighboring criteria during minimization (../min.cpp:168)
Memory usage per processor = 5.28939 Mbytes
Step Temp PotEng Lx Ly Lz 
      60            0   -17372.753    7.7766452     82.50743    4.4898482 
      61            0   -17372.755    7.7766452     82.50743    4.4898482 
      62            0   -17372.756    7.7766452     82.50743    4.4898482 
      63            0   -17372.757    7.7766452     82.50743    4.4898482 
      64            0   -17372.757    7.7766452     82.50743    4.4898482 
Loop time of 1.1318 on 1 procs for 3 steps with 2912 atoms

Minimization stats:
  Stopping criterion = force tolerance
  Energy initial, next-to-last, final = 
        -17372.7529656     -17372.7564822     -17372.7565056
  Force two-norm initial, final = 1.513 1.06655e-10
  Force max component initial, final = 0.189125 8.03775e-12
  Final line search alpha, max atom move = 0 0
  Iterations, force evaluations = 3 485

Pair  time (%) = 1.03349 (91.3136)
Neigh time (%) = 0 (0)
Comm  time (%) = 0.0230831 (2.0395)
Outpt time (%) = 0.000455981 (0.0402882)
Other time (%) = 0.0747735 (6.6066)

Nlocal:    2912 ave 2912 max 2912 min
Histogram: 1 0 0 0 0 0 0 0 0 0
Nghost:    7009 ave 7009 max 7009 min
Histogram: 1 0 0 0 0 0 0 0 0 0
Neighs:    77856 ave 77856 max 77856 min
Histogram: 1 0 0 0 0 0 0 0 0 0

Total # of neighbors = 77856
Ave neighs/atom = 26.7363
Neighbor list builds = 0
Dangerous builds = 0
        next i
jump SELF loop1
        displace_atoms upper move ${xstep1} 0.0 ${zstep1} units lattice
        displace_atoms upper move 0.00166666666666667 0.0 ${zstep1} units lattice
        displace_atoms upper move 0.00166666666666667 0.0 0 units lattice
        min_style ${style}
        min_style hftn
        minimize ${etol} ${ftol} ${maxiter} ${maxeval}
        minimize 1e-12 ${ftol} ${maxiter} ${maxeval}
        minimize 1e-12 1e-08 ${maxiter} ${maxeval}
        minimize 1e-12 1e-08 10000 ${maxeval}
        minimize 1e-12 1e-08 10000 20000
WARNING: Resetting reneighboring criteria during minimization (../min.cpp:168)
Memory usage per processor = 5.28939 Mbytes
Step Temp PotEng Lx Ly Lz 
      64            0   -17372.283    7.7766452    82.508557    4.4898482 
      65            0   -17372.284    7.7766452    82.508557    4.4898482 
      66            0   -17372.286    7.7766452    82.508557    4.4898482 
      67            0   -17372.286    7.7766452    82.508557    4.4898482 
      68            0   -17372.286    7.7766452    82.508557    4.4898482 
Loop time of 1.13691 on 1 procs for 3 steps with 2912 atoms

Minimization stats:
  Stopping criterion = force tolerance
  Energy initial, next-to-last, final = 
        -17372.2828455     -17372.2857241       -17372.28575
  Force two-norm initial, final = 1.42335 1.24386e-10
  Force max component initial, final = 0.177919 1.01038e-11
  Final line search alpha, max atom move = 0 0
  Iterations, force evaluations = 3 485

Pair  time (%) = 1.04069 (91.5368)
Neigh time (%) = 0 (0)
Comm  time (%) = 0.0212266 (1.86704)
Outpt time (%) = 0.000289119 (0.0254303)
Other time (%) = 0.0747033 (6.57073)

Nlocal:    2912 ave 2912 max 2912 min
Histogram: 1 0 0 0 0 0 0 0 0 0
Nghost:    7009 ave 7009 max 7009 min
Histogram: 1 0 0 0 0 0 0 0 0 0
Neighs:    77792 ave 77792 max 77792 min
Histogram: 1 0 0 0 0 0 0 0 0 0

Total # of neighbors = 77792
Ave neighs/atom = 26.7143
Neighbor list builds = 0
Dangerous builds = 0
        next i
jump SELF loop1
        displace_atoms upper move ${xstep1} 0.0 ${zstep1} units lattice
        displace_atoms upper move 0.00166666666666667 0.0 ${zstep1} units lattice
        displace_atoms upper move 0.00166666666666667 0.0 0 units lattice
        min_style ${style}
        min_style hftn
        minimize ${etol} ${ftol} ${maxiter} ${maxeval}
        minimize 1e-12 ${ftol} ${maxiter} ${maxeval}
        minimize 1e-12 1e-08 ${maxiter} ${maxeval}
        minimize 1e-12 1e-08 10000 ${maxeval}
        minimize 1e-12 1e-08 10000 20000
WARNING: Resetting reneighboring criteria during minimization (../min.cpp:168)
Memory usage per processor = 5.28939 Mbytes
Step Temp PotEng Lx Ly Lz 
      68            0   -17371.782    7.7766452    82.509521    4.4898482 
      69            0   -17371.782    7.7766452    82.509521    4.4898482 
      70            0   -17371.783    7.7766452    82.509521    4.4898482 
      71            0   -17371.783    7.7766452    82.509521    4.4898482 
      72            0   -17371.783    7.7766452    82.509521    4.4898482 
Loop time of 1.16651 on 1 procs for 3 steps with 2912 atoms

Minimization stats:
  Stopping criterion = force tolerance
  Energy initial, next-to-last, final = 
        -17371.7818514     -17371.7830085     -17371.7830192
  Force two-norm initial, final = 0.939249 1.06991e-11
  Force max component initial, final = 0.117406 1.21493e-12
  Final line search alpha, max atom move = 0 0
  Iterations, force evaluations = 3 499

Pair  time (%) = 1.06992 (91.7198)
Neigh time (%) = 0 (0)
Comm  time (%) = 0.0199311 (1.7086)
Outpt time (%) = 0.000433187 (0.0371352)
Other time (%) = 0.076226 (6.53451)

Nlocal:    2912 ave 2912 max 2912 min
Histogram: 1 0 0 0 0 0 0 0 0 0
Nghost:    7009 ave 7009 max 7009 min
Histogram: 1 0 0 0 0 0 0 0 0 0
Neighs:    77792 ave 77792 max 77792 min
Histogram: 1 0 0 0 0 0 0 0 0 0

Total # of neighbors = 77792
Ave neighs/atom = 26.7143
Neighbor list builds = 0
Dangerous builds = 0
        next i
jump SELF loop1
        displace_atoms upper move ${xstep1} 0.0 ${zstep1} units lattice
        displace_atoms upper move 0.00166666666666667 0.0 ${zstep1} units lattice
        displace_atoms upper move 0.00166666666666667 0.0 0 units lattice
        min_style ${style}
        min_style hftn
        minimize ${etol} ${ftol} ${maxiter} ${maxeval}
        minimize 1e-12 ${ftol} ${maxiter} ${maxeval}
        minimize 1e-12 1e-08 ${maxiter} ${maxeval}
        minimize 1e-12 1e-08 10000 ${maxeval}
        minimize 1e-12 1e-08 10000 20000
WARNING: Resetting reneighboring criteria during minimization (../min.cpp:168)
Memory usage per processor = 5.28939 Mbytes
Step Temp PotEng Lx Ly Lz 
      72            0   -17371.245    7.7766452    82.510155    4.4898482 
      73            0   -17371.246    7.7766452    82.510155    4.4898482 
      74            0   -17371.247    7.7766452    82.510155    4.4898482 
      75            0   -17371.247    7.7766452    82.510155    4.4898482 
      76            0   -17371.247    7.7766452    82.510155    4.4898482 
Loop time of 1.21596 on 1 procs for 3 steps with 2912 atoms

Minimization stats:
  Stopping criterion = force tolerance
  Energy initial, next-to-last, final = 
        -17371.2454561     -17371.2467869     -17371.2468008
  Force two-norm initial, final = 0.980453 1.35966e-11
  Force max component initial, final = 0.122557 2.00429e-12
  Final line search alpha, max atom move = 0 0
  Iterations, force evaluations = 3 495

Pair  time (%) = 1.11983 (92.0943)
Neigh time (%) = 0 (0)
Comm  time (%) = 0.0194609 (1.60045)
Outpt time (%) = 0.000730123 (0.0600448)
Other time (%) = 0.0759393 (6.2452)

Nlocal:    2912 ave 2912 max 2912 min
Histogram: 1 0 0 0 0 0 0 0 0 0
Nghost:    7009 ave 7009 max 7009 min
Histogram: 1 0 0 0 0 0 0 0 0 0
Neighs:    77792 ave 77792 max 77792 min
Histogram: 1 0 0 0 0 0 0 0 0 0

Total # of neighbors = 77792
Ave neighs/atom = 26.7143
Neighbor list builds = 0
Dangerous builds = 0
        next i
jump SELF loop1
        displace_atoms upper move ${xstep1} 0.0 ${zstep1} units lattice
        displace_atoms upper move 0.00166666666666667 0.0 ${zstep1} units lattice
        displace_atoms upper move 0.00166666666666667 0.0 0 units lattice
        min_style ${style}
        min_style hftn
        minimize ${etol} ${ftol} ${maxiter} ${maxeval}
        minimize 1e-12 ${ftol} ${maxiter} ${maxeval}
        minimize 1e-12 1e-08 ${maxiter} ${maxeval}
        minimize 1e-12 1e-08 10000 ${maxeval}
        minimize 1e-12 1e-08 10000 20000
WARNING: Resetting reneighboring criteria during minimization (../min.cpp:168)
Memory usage per processor = 5.28939 Mbytes
Step Temp PotEng Lx Ly Lz 
      76            0   -17370.677    7.7766452    82.510812    4.4898482 
      77            0   -17370.677    7.7766452    82.510812    4.4898482 
      78            0   -17370.678    7.7766452    82.510812    4.4898482 
      79            0   -17370.678    7.7766452    82.510812    4.4898482 
      80            0   -17370.678    7.7766452    82.510812    4.4898482 
Loop time of 1.15215 on 1 procs for 3 steps with 2912 atoms

Minimization stats:
  Stopping criterion = force tolerance
  Energy initial, next-to-last, final = 
         -17370.677071     -17370.6783827     -17370.6783973
  Force two-norm initial, final = 1.01982 2.48613e-11
  Force max component initial, final = 0.127478 2.41613e-12
  Final line search alpha, max atom move = 0 0
  Iterations, force evaluations = 3 493

Pair  time (%) = 1.05954 (91.9613)
Neigh time (%) = 0 (0)
Comm  time (%) = 0.0198492 (1.72279)
Outpt time (%) = 0.000490941 (0.0426107)
Other time (%) = 0.0722775 (6.27325)

Nlocal:    2912 ave 2912 max 2912 min
Histogram: 1 0 0 0 0 0 0 0 0 0
Nghost:    7009 ave 7009 max 7009 min
Histogram: 1 0 0 0 0 0 0 0 0 0
Neighs:    77792 ave 77792 max 77792 min
Histogram: 1 0 0 0 0 0 0 0 0 0

Total # of neighbors = 77792
Ave neighs/atom = 26.7143
Neighbor list builds = 0
Dangerous builds = 0
        next i
jump SELF loop1
        displace_atoms upper move ${xstep1} 0.0 ${zstep1} units lattice
        displace_atoms upper move 0.00166666666666667 0.0 ${zstep1} units lattice
        displace_atoms upper move 0.00166666666666667 0.0 0 units lattice
        min_style ${style}
        min_style hftn
        minimize ${etol} ${ftol} ${maxiter} ${maxeval}
        minimize 1e-12 ${ftol} ${maxiter} ${maxeval}
        minimize 1e-12 1e-08 ${maxiter} ${maxeval}
        minimize 1e-12 1e-08 10000 ${maxeval}
        minimize 1e-12 1e-08 10000 20000
WARNING: Resetting reneighboring criteria during minimization (../min.cpp:168)
Memory usage per processor = 5.28939 Mbytes
Step Temp PotEng Lx Ly Lz 
      80            0   -17370.078    7.7766452    82.511492    4.4898482 
      81            0   -17370.079    7.7766452    82.511492    4.4898482 
      82            0    -17370.08    7.7766452    82.511492    4.4898482 
      83            0    -17370.08    7.7766452    82.511492    4.4898482 
      84            0    -17370.08    7.7766452    82.511492    4.4898482 
Loop time of 1.35182 on 1 procs for 3 steps with 2912 atoms

Minimization stats:
  Stopping criterion = force tolerance
  Energy initial, next-to-last, final = 
        -17370.0782465     -17370.0796874     -17370.0797024
  Force two-norm initial, final = 1.05653 7.53162e-12
  Force max component initial, final = 0.132066 1.15315e-12
  Final line search alpha, max atom move = 0 0
  Iterations, force evaluations = 3 575

Pair  time (%) = 1.23669 (91.4834)
Neigh time (%) = 0 (0)
Comm  time (%) = 0.0242681 (1.79521)
Outpt time (%) = 0.000278923 (0.0206331)
Other time (%) = 0.0905821 (6.70074)

Nlocal:    2912 ave 2912 max 2912 min
Histogram: 1 0 0 0 0 0 0 0 0 0
Nghost:    7009 ave 7009 max 7009 min
Histogram: 1 0 0 0 0 0 0 0 0 0
Neighs:    77792 ave 77792 max 77792 min
Histogram: 1 0 0 0 0 0 0 0 0 0

Total # of neighbors = 77792
Ave neighs/atom = 26.7143
Neighbor list builds = 0
Dangerous builds = 0
        next i
jump SELF loop1
        displace_atoms upper move ${xstep1} 0.0 ${zstep1} units lattice
        displace_atoms upper move 0.00166666666666667 0.0 ${zstep1} units lattice
        displace_atoms upper move 0.00166666666666667 0.0 0 units lattice
        min_style ${style}
        min_style hftn
        minimize ${etol} ${ftol} ${maxiter} ${maxeval}
        minimize 1e-12 ${ftol} ${maxiter} ${maxeval}
        minimize 1e-12 1e-08 ${maxiter} ${maxeval}
        minimize 1e-12 1e-08 10000 ${maxeval}
        minimize 1e-12 1e-08 10000 20000
WARNING: Resetting reneighboring criteria during minimization (../min.cpp:168)
Memory usage per processor = 5.28939 Mbytes
Step Temp PotEng Lx Ly Lz 
      84            0   -17369.451    7.7766452    82.512193    4.4898482 
      85            0   -17369.452    7.7766452    82.512193    4.4898482 
      86            0   -17369.453    7.7766452    82.512193    4.4898482 
      87            0   -17369.453    7.7766452    82.512193    4.4898482 
      88            0   -17369.453    7.7766452    82.512193    4.4898482 
Loop time of 1.13037 on 1 procs for 3 steps with 2912 atoms

Minimization stats:
  Stopping criterion = force tolerance
  Energy initial, next-to-last, final = 
        -17369.4513815     -17369.4529239     -17369.4529394
  Force two-norm initial, final = 1.08871 5.73347e-11
  Force max component initial, final = 0.136089 3.56242e-12
  Final line search alpha, max atom move = 0 0
  Iterations, force evaluations = 3 489

Pair  time (%) = 1.0319 (91.2887)
Neigh time (%) = 0 (0)
Comm  time (%) = 0.0186908 (1.65352)
Outpt time (%) = 0.000277083 (0.0245127)
Other time (%) = 0.0795018 (7.03328)

Nlocal:    2912 ave 2912 max 2912 min
Histogram: 1 0 0 0 0 0 0 0 0 0
Nghost:    7009 ave 7009 max 7009 min
Histogram: 1 0 0 0 0 0 0 0 0 0
Neighs:    77792 ave 77792 max 77792 min
Histogram: 1 0 0 0 0 0 0 0 0 0

Total # of neighbors = 77792
Ave neighs/atom = 26.7143
Neighbor list builds = 0
Dangerous builds = 0
        next i
jump SELF loop1
        displace_atoms upper move ${xstep1} 0.0 ${zstep1} units lattice
        displace_atoms upper move 0.00166666666666667 0.0 ${zstep1} units lattice
        displace_atoms upper move 0.00166666666666667 0.0 0 units lattice
        min_style ${style}
        min_style hftn
        minimize ${etol} ${ftol} ${maxiter} ${maxeval}
        minimize 1e-12 ${ftol} ${maxiter} ${maxeval}
        minimize 1e-12 1e-08 ${maxiter} ${maxeval}
        minimize 1e-12 1e-08 10000 ${maxeval}
        minimize 1e-12 1e-08 10000 20000
WARNING: Resetting reneighboring criteria during minimization (../min.cpp:168)
Memory usage per processor = 5.28939 Mbytes
Step Temp PotEng Lx Ly Lz 
      88            0   -17368.798    7.7766452    82.512913    4.4898482 
      89            0   -17368.799    7.7766452    82.512913    4.4898482 
      90            0     -17368.8    7.7766452    82.512913    4.4898482 
      91            0     -17368.8    7.7766452    82.512913    4.4898482 
      92            0     -17368.8    7.7766452    82.512913    4.4898482 
Loop time of 1.10074 on 1 procs for 3 steps with 2912 atoms

Minimization stats:
  Stopping criterion = force tolerance
  Energy initial, next-to-last, final = 
         -17368.798305     -17368.7999324     -17368.7999575
  Force two-norm initial, final = 1.11816 1.51973e-10
  Force max component initial, final = 0.13977 9.21837e-12
  Final line search alpha, max atom move = 0 0
  Iterations, force evaluations = 3 475

Pair  time (%) = 1.00884 (91.6515)
Neigh time (%) = 0 (0)
Comm  time (%) = 0.0203758 (1.85111)
Outpt time (%) = 0.000272859 (0.0247888)
Other time (%) = 0.0712458 (6.47256)

Nlocal:    2912 ave 2912 max 2912 min
Histogram: 1 0 0 0 0 0 0 0 0 0
Nghost:    7009 ave 7009 max 7009 min
Histogram: 1 0 0 0 0 0 0 0 0 0
Neighs:    77792 ave 77792 max 77792 min
Histogram: 1 0 0 0 0 0 0 0 0 0

Total # of neighbors = 77792
Ave neighs/atom = 26.7143
Neighbor list builds = 0
Dangerous builds = 0
        next i
jump SELF loop1
        displace_atoms upper move ${xstep1} 0.0 ${zstep1} units lattice
        displace_atoms upper move 0.00166666666666667 0.0 ${zstep1} units lattice
        displace_atoms upper move 0.00166666666666667 0.0 0 units lattice
        min_style ${style}
        min_style hftn
        minimize ${etol} ${ftol} ${maxiter} ${maxeval}
        minimize 1e-12 ${ftol} ${maxiter} ${maxeval}
        minimize 1e-12 1e-08 ${maxiter} ${maxeval}
        minimize 1e-12 1e-08 10000 ${maxeval}
        minimize 1e-12 1e-08 10000 20000
WARNING: Resetting reneighboring criteria during minimization (../min.cpp:168)
Memory usage per processor = 5.28939 Mbytes
Step Temp PotEng Lx Ly Lz 
      92            0   -17368.121    7.7766452    82.513649    4.4898482 
      93            0   -17368.122    7.7766452    82.513649    4.4898482 
      94            0   -17368.123    7.7766452    82.513649    4.4898482 
      95            0   -17368.123    7.7766452    82.513649    4.4898482 
      96            0   -17368.123    7.7766452    82.513649    4.4898482 
Loop time of 1.08623 on 1 procs for 3 steps with 2912 atoms

Minimization stats:
  Stopping criterion = force tolerance
  Energy initial, next-to-last, final = 
        -17368.1210382     -17368.1227753     -17368.1228007
  Force two-norm initial, final = 1.14443 1.82699e-10
  Force max component initial, final = 0.143054 1.52175e-11
  Final line search alpha, max atom move = 0 0
  Iterations, force evaluations = 3 473

Pair  time (%) = 0.998084 (91.8853)
Neigh time (%) = 0 (0)
Comm  time (%) = 0.0163429 (1.50456)
Outpt time (%) = 0.000526016 (0.0484259)
Other time (%) = 0.0712756 (6.56175)

Nlocal:    2912 ave 2912 max 2912 min
Histogram: 1 0 0 0 0 0 0 0 0 0
Nghost:    7009 ave 7009 max 7009 min
Histogram: 1 0 0 0 0 0 0 0 0 0
Neighs:    77792 ave 77792 max 77792 min
Histogram: 1 0 0 0 0 0 0 0 0 0

Total # of neighbors = 77792
Ave neighs/atom = 26.7143
Neighbor list builds = 0
Dangerous builds = 0
        next i
jump SELF loop1
        displace_atoms upper move ${xstep1} 0.0 ${zstep1} units lattice
        displace_atoms upper move 0.00166666666666667 0.0 ${zstep1} units lattice
        displace_atoms upper move 0.00166666666666667 0.0 0 units lattice
        min_style ${style}
        min_style hftn
        minimize ${etol} ${ftol} ${maxiter} ${maxeval}
        minimize 1e-12 ${ftol} ${maxiter} ${maxeval}
        minimize 1e-12 1e-08 ${maxiter} ${maxeval}
        minimize 1e-12 1e-08 10000 ${maxeval}
        minimize 1e-12 1e-08 10000 20000
WARNING: Resetting reneighboring criteria during minimization (../min.cpp:168)
Memory usage per processor = 5.28939 Mbytes
Step Temp PotEng Lx Ly Lz 
      96            0   -17367.422    7.7766452      82.5144    4.4898482 
      97            0   -17367.422    7.7766452      82.5144    4.4898482 
      98            0   -17367.423    7.7766452      82.5144    4.4898482 
      99            0   -17367.423    7.7766452      82.5144    4.4898482 
     100            0   -17367.423    7.7766452      82.5144    4.4898482 
Loop time of 1.13085 on 1 procs for 3 steps with 2912 atoms

Minimization stats:
  Stopping criterion = force tolerance
  Energy initial, next-to-last, final = 
        -17367.4215558     -17367.4232293     -17367.4232457
  Force two-norm initial, final = 1.16801 9.787e-11
  Force max component initial, final = 0.146002 5.23038e-12
  Final line search alpha, max atom move = 0 0
  Iterations, force evaluations = 3 489

Pair  time (%) = 1.03767 (91.7597)
Neigh time (%) = 0 (0)
Comm  time (%) = 0.021437 (1.89565)
Outpt time (%) = 0.000370948 (0.0328025)
Other time (%) = 0.0713774 (6.31181)

Nlocal:    2912 ave 2912 max 2912 min
Histogram: 1 0 0 0 0 0 0 0 0 0
Nghost:    7009 ave 7009 max 7009 min
Histogram: 1 0 0 0 0 0 0 0 0 0
Neighs:    77792 ave 77792 max 77792 min
Histogram: 1 0 0 0 0 0 0 0 0 0

Total # of neighbors = 77792
Ave neighs/atom = 26.7143
Neighbor list builds = 0
Dangerous builds = 0
        next i
jump SELF loop1
        displace_atoms upper move ${xstep1} 0.0 ${zstep1} units lattice
        displace_atoms upper move 0.00166666666666667 0.0 ${zstep1} units lattice
        displace_atoms upper move 0.00166666666666667 0.0 0 units lattice
        min_style ${style}
        min_style hftn
        minimize ${etol} ${ftol} ${maxiter} ${maxeval}
        minimize 1e-12 ${ftol} ${maxiter} ${maxeval}
        minimize 1e-12 1e-08 ${maxiter} ${maxeval}
        minimize 1e-12 1e-08 10000 ${maxeval}
        minimize 1e-12 1e-08 10000 20000
WARNING: Resetting reneighboring criteria during minimization (../min.cpp:168)
Memory usage per processor = 5.28939 Mbytes
Step Temp PotEng Lx Ly Lz 
     100            0   -17366.701    7.7766452    82.515165    4.4898482 
     101            0   -17366.702    7.7766452    82.515165    4.4898482 
     102            0   -17366.703    7.7766452    82.515165    4.4898482 
     103            0   -17366.703    7.7766452    82.515165    4.4898482 
     104            0   -17366.703    7.7766452    82.515165    4.4898482 
Loop time of 1.09307 on 1 procs for 3 steps with 2912 atoms

Minimization stats:
  Stopping criterion = force tolerance
  Energy initial, next-to-last, final = 
        -17366.7013866     -17366.7031563     -17366.7031833
  Force two-norm initial, final = 1.19019 1.45028e-10
  Force max component initial, final = 0.148773 8.45646e-12
  Final line search alpha, max atom move = 0 0
  Iterations, force evaluations = 3 475

Pair  time (%) = 1.00293 (91.7535)
Neigh time (%) = 0 (0)
Comm  time (%) = 0.0175243 (1.60321)
Outpt time (%) = 0.000263986 (0.0241508)
Other time (%) = 0.0723526 (6.61918)

Nlocal:    2912 ave 2912 max 2912 min
Histogram: 1 0 0 0 0 0 0 0 0 0
Nghost:    7009 ave 7009 max 7009 min
Histogram: 1 0 0 0 0 0 0 0 0 0
Neighs:    77792 ave 77792 max 77792 min
Histogram: 1 0 0 0 0 0 0 0 0 0

Total # of neighbors = 77792
Ave neighs/atom = 26.7143
Neighbor list builds = 0
Dangerous builds = 0
        next i
jump SELF loop1
        displace_atoms upper move ${xstep1} 0.0 ${zstep1} units lattice
        displace_atoms upper move 0.00166666666666667 0.0 ${zstep1} units lattice
        displace_atoms upper move 0.00166666666666667 0.0 0 units lattice
        min_style ${style}
        min_style hftn
        minimize ${etol} ${ftol} ${maxiter} ${maxeval}
        minimize 1e-12 ${ftol} ${maxiter} ${maxeval}
        minimize 1e-12 1e-08 ${maxiter} ${maxeval}
        minimize 1e-12 1e-08 10000 ${maxeval}
        minimize 1e-12 1e-08 10000 20000
WARNING: Resetting reneighboring criteria during minimization (../min.cpp:168)
Memory usage per processor = 5.28939 Mbytes
Step Temp PotEng Lx Ly Lz 
     104            0   -17365.963    7.7766452    82.515944    4.4898482 
     105            0   -17365.964    7.7766452    82.515944    4.4898482 
     106            0   -17365.965    7.7766452    82.515944    4.4898482 
     107            0   -17365.965    7.7766452    82.515944    4.4898482 
     108            0   -17365.965    7.7766452    82.515944    4.4898482 
Loop time of 1.0955 on 1 procs for 3 steps with 2912 atoms

Minimization stats:
  Stopping criterion = force tolerance
  Energy initial, next-to-last, final = 
          -17365.96322     -17365.9651428     -17365.9651699
  Force two-norm initial, final = 1.20766 1.86674e-10
  Force max component initial, final = 0.150958 1.10305e-11
  Final line search alpha, max atom move = 0 0
  Iterations, force evaluations = 3 477

Pair  time (%) = 0.998628 (91.1576)
Neigh time (%) = 0 (0)
Comm  time (%) = 0.0234503 (2.14061)
Outpt time (%) = 0.00047172 (0.04306)
Other time (%) = 0.0729466 (6.65877)

Nlocal:    2912 ave 2912 max 2912 min
Histogram: 1 0 0 0 0 0 0 0 0 0
Nghost:    7009 ave 7009 max 7009 min
Histogram: 1 0 0 0 0 0 0 0 0 0
Neighs:    77792 ave 77792 max 77792 min
Histogram: 1 0 0 0 0 0 0 0 0 0

Total # of neighbors = 77792
Ave neighs/atom = 26.7143
Neighbor list builds = 0
Dangerous builds = 0
        next i
jump SELF loop1
        displace_atoms upper move ${xstep1} 0.0 ${zstep1} units lattice
        displace_atoms upper move 0.00166666666666667 0.0 ${zstep1} units lattice
        displace_atoms upper move 0.00166666666666667 0.0 0 units lattice
        min_style ${style}
        min_style hftn
        minimize ${etol} ${ftol} ${maxiter} ${maxeval}
        minimize 1e-12 ${ftol} ${maxiter} ${maxeval}
        minimize 1e-12 1e-08 ${maxiter} ${maxeval}
        minimize 1e-12 1e-08 10000 ${maxeval}
        minimize 1e-12 1e-08 10000 20000
WARNING: Resetting reneighboring criteria during minimization (../min.cpp:168)
Memory usage per processor = 5.28939 Mbytes
Step Temp PotEng Lx Ly Lz 
     108            0   -17365.209    7.7766452    82.516733    4.4898482 
     109            0    -17365.21    7.7766452    82.516733    4.4898482 
     110            0   -17365.211    7.7766452    82.516733    4.4898482 
     111            0   -17365.211    7.7766452    82.516733    4.4898482 
     112            0   -17365.211    7.7766452    82.516733    4.4898482 
Loop time of 1.09568 on 1 procs for 3 steps with 2912 atoms

Minimization stats:
  Stopping criterion = force tolerance
  Energy initial, next-to-last, final = 
        -17365.2090721     -17365.2108738     -17365.2109017
  Force two-norm initial, final = 1.22303 2.83313e-10
  Force max component initial, final = 0.152879 3.11875e-11
  Final line search alpha, max atom move = 0 0
  Iterations, force evaluations = 3 475

Pair  time (%) = 0.99759 (91.0475)
Neigh time (%) = 0 (0)
Comm  time (%) = 0.0204638 (1.86768)
Outpt time (%) = 0.000320814 (0.0292799)
Other time (%) = 0.0773061 (7.05553)

Nlocal:    2912 ave 2912 max 2912 min
Histogram: 1 0 0 0 0 0 0 0 0 0
Nghost:    7009 ave 7009 max 7009 min
Histogram: 1 0 0 0 0 0 0 0 0 0
Neighs:    77792 ave 77792 max 77792 min
Histogram: 1 0 0 0 0 0 0 0 0 0

Total # of neighbors = 77792
Ave neighs/atom = 26.7143
Neighbor list builds = 0
Dangerous builds = 0
        next i
jump SELF loop1
        displace_atoms upper move ${xstep1} 0.0 ${zstep1} units lattice
        displace_atoms upper move 0.00166666666666667 0.0 ${zstep1} units lattice
        displace_atoms upper move 0.00166666666666667 0.0 0 units lattice
        min_style ${style}
        min_style hftn
        minimize ${etol} ${ftol} ${maxiter} ${maxeval}
        minimize 1e-12 ${ftol} ${maxiter} ${maxeval}
        minimize 1e-12 1e-08 ${maxiter} ${maxeval}
        minimize 1e-12 1e-08 10000 ${maxeval}
        minimize 1e-12 1e-08 10000 20000
WARNING: Resetting reneighboring criteria during minimization (../min.cpp:168)
Memory usage per processor = 5.28939 Mbytes
Step Temp PotEng Lx Ly Lz 
     112            0    -17364.44    7.7766452    82.517533    4.4898482 
     113            0   -17364.441    7.7766452    82.517533    4.4898482 
     114            0   -17364.442    7.7766452    82.517533    4.4898482 
     115            0   -17364.442    7.7766452    82.517533    4.4898482 
     116            0   -17364.442    7.7766452    82.517533    4.4898482 
Loop time of 1.08917 on 1 procs for 3 steps with 2912 atoms

Minimization stats:
  Stopping criterion = force tolerance
  Energy initial, next-to-last, final = 
        -17364.4403162      -17364.442355     -17364.4423827
  Force two-norm initial, final = 1.23783 1.50183e-10
  Force max component initial, final = 0.154729 7.87302e-12
  Final line search alpha, max atom move = 0 0
  Iterations, force evaluations = 3 475

Pair  time (%) = 0.993904 (91.253)
Neigh time (%) = 0 (0)
Comm  time (%) = 0.0175201 (1.60857)
Outpt time (%) = 0.000244879 (0.022483)
Other time (%) = 0.0775054 (7.11598)

Nlocal:    2912 ave 2912 max 2912 min
Histogram: 1 0 0 0 0 0 0 0 0 0
Nghost:    7009 ave 7009 max 7009 min
Histogram: 1 0 0 0 0 0 0 0 0 0
Neighs:    77792 ave 77792 max 77792 min
Histogram: 1 0 0 0 0 0 0 0 0 0

Total # of neighbors = 77792
Ave neighs/atom = 26.7143
Neighbor list builds = 0
Dangerous builds = 0
        next i
jump SELF loop1
        displace_atoms upper move ${xstep1} 0.0 ${zstep1} units lattice
        displace_atoms upper move 0.00166666666666667 0.0 ${zstep1} units lattice
        displace_atoms upper move 0.00166666666666667 0.0 0 units lattice
        min_style ${style}
        min_style hftn
        minimize ${etol} ${ftol} ${maxiter} ${maxeval}
        minimize 1e-12 ${ftol} ${maxiter} ${maxeval}
        minimize 1e-12 1e-08 ${maxiter} ${maxeval}
        minimize 1e-12 1e-08 10000 ${maxeval}
        minimize 1e-12 1e-08 10000 20000
WARNING: Resetting reneighboring criteria during minimization (../min.cpp:168)
Memory usage per processor = 5.28939 Mbytes
Step Temp PotEng Lx Ly Lz 
     116            0    -17363.66    7.7766452    82.518343    4.4898482 
     117            0   -17363.661    7.7766452    82.518343    4.4898482 
     118            0   -17363.662    7.7766452    82.518343    4.4898482 
     119            0   -17363.662    7.7766452    82.518343    4.4898482 
     120            0   -17363.662    7.7766452    82.518343    4.4898482 
Loop time of 1.11885 on 1 procs for 3 steps with 2912 atoms

Minimization stats:
  Stopping criterion = force tolerance
  Energy initial, next-to-last, final = 
        -17363.6598389     -17363.6617502     -17363.6617722
  Force two-norm initial, final = 1.2483 7.13293e-11
  Force max component initial, final = 0.156037 5.00386e-12
  Final line search alpha, max atom move = 0 0
  Iterations, force evaluations = 3 487

Pair  time (%) = 1.02314 (91.4456)
Neigh time (%) = 0 (0)
Comm  time (%) = 0.0226748 (2.02661)
Outpt time (%) = 0.00023688 (0.0211717)
Other time (%) = 0.072799 (6.50657)

Nlocal:    2912 ave 2912 max 2912 min
Histogram: 1 0 0 0 0 0 0 0 0 0
Nghost:    7009 ave 7009 max 7009 min
Histogram: 1 0 0 0 0 0 0 0 0 0
Neighs:    77792 ave 77792 max 77792 min
Histogram: 1 0 0 0 0 0 0 0 0 0

Total # of neighbors = 77792
Ave neighs/atom = 26.7143
Neighbor list builds = 0
Dangerous builds = 0
        next i
jump SELF loop1
        displace_atoms upper move ${xstep1} 0.0 ${zstep1} units lattice
        displace_atoms upper move 0.00166666666666667 0.0 ${zstep1} units lattice
        displace_atoms upper move 0.00166666666666667 0.0 0 units lattice
        min_style ${style}
        min_style hftn
        minimize ${etol} ${ftol} ${maxiter} ${maxeval}
        minimize 1e-12 ${ftol} ${maxiter} ${maxeval}
        minimize 1e-12 1e-08 ${maxiter} ${maxeval}
        minimize 1e-12 1e-08 10000 ${maxeval}
        minimize 1e-12 1e-08 10000 20000
WARNING: Resetting reneighboring criteria during minimization (../min.cpp:168)
Memory usage per processor = 5.28939 Mbytes
Step Temp PotEng Lx Ly Lz 
     120            0    -17362.87    7.7766452    82.519161    4.4898482 
     121            0    -17362.87    7.7766452    82.519161    4.4898482 
     122            0   -17362.872    7.7766452    82.519161    4.4898482 
     123            0   -17362.872    7.7766452    82.519161    4.4898482 
     124            0   -17362.872    7.7766452    82.519161    4.4898482 
Loop time of 1.0842 on 1 procs for 3 steps with 2912 atoms

Minimization stats:
  Stopping criterion = force tolerance
  Energy initial, next-to-last, final = 
        -17362.8695217     -17362.8716407      -17362.871668
  Force two-norm initial, final = 1.22712 5.76075e-09
  Force max component initial, final = 0.15339 7.237e-10
  Final line search alpha, max atom move = 0 0
  Iterations, force evaluations = 3 473

Pair  time (%) = 0.993879 (91.6689)
Neigh time (%) = 0 (0)
Comm  time (%) = 0.016448 (1.51705)
Outpt time (%) = 0.000239828 (0.0221202)
Other time (%) = 0.0736384 (6.79192)

Nlocal:    2912 ave 2912 max 2912 min
Histogram: 1 0 0 0 0 0 0 0 0 0
Nghost:    7009 ave 7009 max 7009 min
Histogram: 1 0 0 0 0 0 0 0 0 0
Neighs:    77792 ave 77792 max 77792 min
Histogram: 1 0 0 0 0 0 0 0 0 0

Total # of neighbors = 77792
Ave neighs/atom = 26.7143
Neighbor list builds = 0
Dangerous builds = 0
        next i
jump SELF loop1
        displace_atoms upper move ${xstep1} 0.0 ${zstep1} units lattice
        displace_atoms upper move 0.00166666666666667 0.0 ${zstep1} units lattice
        displace_atoms upper move 0.00166666666666667 0.0 0 units lattice
        min_style ${style}
        min_style hftn
        minimize ${etol} ${ftol} ${maxiter} ${maxeval}
        minimize 1e-12 ${ftol} ${maxiter} ${maxeval}
        minimize 1e-12 1e-08 ${maxiter} ${maxeval}
        minimize 1e-12 1e-08 10000 ${maxeval}
        minimize 1e-12 1e-08 10000 20000
WARNING: Resetting reneighboring criteria during minimization (../min.cpp:168)
Memory usage per processor = 5.28939 Mbytes
Step Temp PotEng Lx Ly Lz 
     124            0   -17362.073    7.7766452    82.519971    4.4898482 
     125            0   -17362.073    7.7766452    82.519971    4.4898482 
     126            0   -17362.074    7.7766452    82.519971    4.4898482 
     127            0   -17362.074    7.7766452    82.519971    4.4898482 
     128            0   -17362.074    7.7766452    82.519971    4.4898482 
Loop time of 1.11726 on 1 procs for 3 steps with 2912 atoms

Minimization stats:
  Stopping criterion = force tolerance
  Energy initial, next-to-last, final = 
        -17362.0725807     -17362.0744082     -17362.0744248
  Force two-norm initial, final = 1.16978 1.01747e-10
  Force max component initial, final = 0.146223 7.53668e-12
  Final line search alpha, max atom move = 0 0
  Iterations, force evaluations = 3 487

Pair  time (%) = 1.02592 (91.8249)
Neigh time (%) = 0 (0)
Comm  time (%) = 0.0170108 (1.52255)
Outpt time (%) = 0.000506967 (0.0453759)
Other time (%) = 0.0738192 (6.60716)

Nlocal:    2912 ave 2912 max 2912 min
Histogram: 1 0 0 0 0 0 0 0 0 0
Nghost:    7009 ave 7009 max 7009 min
Histogram: 1 0 0 0 0 0 0 0 0 0
Neighs:    77792 ave 77792 max 77792 min
Histogram: 1 0 0 0 0 0 0 0 0 0

Total # of neighbors = 77792
Ave neighs/atom = 26.7143
Neighbor list builds = 0
Dangerous builds = 0
        next i
jump SELF loop1
        displace_atoms upper move ${xstep1} 0.0 ${zstep1} units lattice
        displace_atoms upper move 0.00166666666666667 0.0 ${zstep1} units lattice
        displace_atoms upper move 0.00166666666666667 0.0 0 units lattice
        min_style ${style}
        min_style hftn
        minimize ${etol} ${ftol} ${maxiter} ${maxeval}
        minimize 1e-12 ${ftol} ${maxiter} ${maxeval}
        minimize 1e-12 1e-08 ${maxiter} ${maxeval}
        minimize 1e-12 1e-08 10000 ${maxeval}
        minimize 1e-12 1e-08 10000 20000
WARNING: Resetting reneighboring criteria during minimization (../min.cpp:168)
Memory usage per processor = 5.28939 Mbytes
Step Temp PotEng Lx Ly Lz 
     128            0   -17361.273    7.7766452     82.52075    4.4898482 
     129            0   -17361.274    7.7766452     82.52075    4.4898482 
     130            0   -17361.275    7.7766452     82.52075    4.4898482 
     131            0   -17361.275    7.7766452     82.52075    4.4898482 
     132            0   -17361.275    7.7766452     82.52075    4.4898482 
Loop time of 1.12556 on 1 procs for 3 steps with 2912 atoms

Minimization stats:
  Stopping criterion = force tolerance
  Energy initial, next-to-last, final = 
        -17361.2731228     -17361.2747203     -17361.2747361
  Force two-norm initial, final = 1.10626 3.73151e-11
  Force max component initial, final = 0.138282 2.75247e-12
  Final line search alpha, max atom move = 0 0
  Iterations, force evaluations = 3 491

Pair  time (%) = 1.03072 (91.5742)
Neigh time (%) = 0 (0)
Comm  time (%) = 0.02177 (1.93416)
Outpt time (%) = 0.000274975 (0.0244301)
Other time (%) = 0.0727921 (6.46721)

Nlocal:    2912 ave 2912 max 2912 min
Histogram: 1 0 0 0 0 0 0 0 0 0
Nghost:    7009 ave 7009 max 7009 min
Histogram: 1 0 0 0 0 0 0 0 0 0
Neighs:    77792 ave 77792 max 77792 min
Histogram: 1 0 0 0 0 0 0 0 0 0

Total # of neighbors = 77792
Ave neighs/atom = 26.7143
Neighbor list builds = 0
Dangerous builds = 0
        next i
jump SELF loop1
        displace_atoms upper move ${xstep1} 0.0 ${zstep1} units lattice
        displace_atoms upper move 0.00166666666666667 0.0 ${zstep1} units lattice
        displace_atoms upper move 0.00166666666666667 0.0 0 units lattice
        min_style ${style}
        min_style hftn
        minimize ${etol} ${ftol} ${maxiter} ${maxeval}
        minimize 1e-12 ${ftol} ${maxiter} ${maxeval}
        minimize 1e-12 1e-08 ${maxiter} ${maxeval}
        minimize 1e-12 1e-08 10000 ${maxeval}
        minimize 1e-12 1e-08 10000 20000
WARNING: Resetting reneighboring criteria during minimization (../min.cpp:168)
Memory usage per processor = 5.28939 Mbytes
Step Temp PotEng Lx Ly Lz 
     132            0   -17360.475    7.7766452    82.521493    4.4898482 
     133            0   -17360.475    7.7766452    82.521493    4.4898482 
     134            0   -17360.476    7.7766452    82.521493    4.4898482 
     135            0   -17360.476    7.7766452    82.521493    4.4898482 
     136            0   -17360.476    7.7766452    82.521493    4.4898482 
Loop time of 1.13671 on 1 procs for 3 steps with 2912 atoms

Minimization stats:
  Stopping criterion = force tolerance
  Energy initial, next-to-last, final = 
        -17360.4748107     -17360.4762687     -17360.4762825
  Force two-norm initial, final = 1.04171 3.14526e-11
  Force max component initial, final = 0.130214 2.42986e-12
  Final line search alpha, max atom move = 0 0
  Iterations, force evaluations = 3 495

Pair  time (%) = 1.04289 (91.7466)
Neigh time (%) = 0 (0)
Comm  time (%) = 0.0178982 (1.57457)
Outpt time (%) = 0.000238921 (0.0210186)
Other time (%) = 0.0756799 (6.65781)

Nlocal:    2912 ave 2912 max 2912 min
Histogram: 1 0 0 0 0 0 0 0 0 0
Nghost:    7009 ave 7009 max 7009 min
Histogram: 1 0 0 0 0 0 0 0 0 0
Neighs:    77792 ave 77792 max 77792 min
Histogram: 1 0 0 0 0 0 0 0 0 0

Total # of neighbors = 77792
Ave neighs/atom = 26.7143
Neighbor list builds = 0
Dangerous builds = 0
        next i
jump SELF loop1
        displace_atoms upper move ${xstep1} 0.0 ${zstep1} units lattice
        displace_atoms upper move 0.00166666666666667 0.0 ${zstep1} units lattice
        displace_atoms upper move 0.00166666666666667 0.0 0 units lattice
        min_style ${style}
        min_style hftn
        minimize ${etol} ${ftol} ${maxiter} ${maxeval}
        minimize 1e-12 ${ftol} ${maxiter} ${maxeval}
        minimize 1e-12 1e-08 ${maxiter} ${maxeval}
        minimize 1e-12 1e-08 10000 ${maxeval}
        minimize 1e-12 1e-08 10000 20000
WARNING: Resetting reneighboring criteria during minimization (../min.cpp:168)
Memory usage per processor = 5.28939 Mbytes
Step Temp PotEng Lx Ly Lz 
     136            0   -17359.681    7.7766452    82.522199    4.4898482 
     137            0   -17359.681    7.7766452    82.522199    4.4898482 
     138            0   -17359.682    7.7766452    82.522199    4.4898482 
     139            0   -17359.682    7.7766452    82.522199    4.4898482 
     140            0   -17359.682    7.7766452    82.522199    4.4898482 
Loop time of 1.31158 on 1 procs for 3 steps with 2912 atoms

Minimization stats:
  Stopping criterion = force tolerance
  Energy initial, next-to-last, final = 
        -17359.6808156     -17359.6820523     -17359.6820664
  Force two-norm initial, final = 0.978262 1.84911e-11
  Force max component initial, final = 0.122283 2.40927e-12
  Final line search alpha, max atom move = 0 0
  Iterations, force evaluations = 3 575

Pair  time (%) = 1.20642 (91.9821)
Neigh time (%) = 0 (0)
Comm  time (%) = 0.0211144 (1.60984)
Outpt time (%) = 0.000349972 (0.0266831)
Other time (%) = 0.0836976 (6.38141)

Nlocal:    2912 ave 2912 max 2912 min
Histogram: 1 0 0 0 0 0 0 0 0 0
Nghost:    7009 ave 7009 max 7009 min
Histogram: 1 0 0 0 0 0 0 0 0 0
Neighs:    77792 ave 77792 max 77792 min
Histogram: 1 0 0 0 0 0 0 0 0 0

Total # of neighbors = 77792
Ave neighs/atom = 26.7143
Neighbor list builds = 0
Dangerous builds = 0
        next i
jump SELF loop1
        displace_atoms upper move ${xstep1} 0.0 ${zstep1} units lattice
        displace_atoms upper move 0.00166666666666667 0.0 ${zstep1} units lattice
        displace_atoms upper move 0.00166666666666667 0.0 0 units lattice
        min_style ${style}
        min_style hftn
        minimize ${etol} ${ftol} ${maxiter} ${maxeval}
        minimize 1e-12 ${ftol} ${maxiter} ${maxeval}
        minimize 1e-12 1e-08 ${maxiter} ${maxeval}
        minimize 1e-12 1e-08 10000 ${maxeval}
        minimize 1e-12 1e-08 10000 20000
WARNING: Resetting reneighboring criteria during minimization (../min.cpp:168)
Memory usage per processor = 5.28939 Mbytes
Step Temp PotEng Lx Ly Lz 
     140            0   -17358.895    7.7766452    82.522869    4.4898482 
     141            0   -17358.895    7.7766452    82.522869    4.4898482 
     142            0   -17358.896    7.7766452    82.522869    4.4898482 
     143            0   -17358.896    7.7766452    82.522869    4.4898482 
     144            0   -17358.896    7.7766452    82.522869    4.4898482 
Loop time of 1.12969 on 1 procs for 3 steps with 2912 atoms

Minimization stats:
  Stopping criterion = force tolerance
  Energy initial, next-to-last, final = 
        -17358.8951615     -17358.8962688     -17358.8962795
  Force two-norm initial, final = 0.911424 1.86006e-11
  Force max component initial, final = 0.113928 2.01115e-12
  Final line search alpha, max atom move = 0 0
  Iterations, force evaluations = 3 493

Pair  time (%) = 1.04173 (92.2143)
Neigh time (%) = 0 (0)
Comm  time (%) = 0.0173113 (1.5324)
Outpt time (%) = 0.000257983 (0.0228367)
Other time (%) = 0.0703849 (6.23048)

Nlocal:    2912 ave 2912 max 2912 min
Histogram: 1 0 0 0 0 0 0 0 0 0
Nghost:    7009 ave 7009 max 7009 min
Histogram: 1 0 0 0 0 0 0 0 0 0
Neighs:    77792 ave 77792 max 77792 min
Histogram: 1 0 0 0 0 0 0 0 0 0

Total # of neighbors = 77792
Ave neighs/atom = 26.7143
Neighbor list builds = 0
Dangerous builds = 0
        next i
jump SELF loop1
        displace_atoms upper move ${xstep1} 0.0 ${zstep1} units lattice
        displace_atoms upper move 0.00166666666666667 0.0 ${zstep1} units lattice
        displace_atoms upper move 0.00166666666666667 0.0 0 units lattice
        min_style ${style}
        min_style hftn
        minimize ${etol} ${ftol} ${maxiter} ${maxeval}
        minimize 1e-12 ${ftol} ${maxiter} ${maxeval}
        minimize 1e-12 1e-08 ${maxiter} ${maxeval}
        minimize 1e-12 1e-08 10000 ${maxeval}
        minimize 1e-12 1e-08 10000 20000
WARNING: Resetting reneighboring criteria during minimization (../min.cpp:168)
Memory usage per processor = 5.28939 Mbytes
Step Temp PotEng Lx Ly Lz 
     144            0   -17358.122    7.7766452    82.523498    4.4898482 
     145            0   -17358.122    7.7766452    82.523498    4.4898482 
     146            0   -17358.123    7.7766452    82.523498    4.4898482 
     147            0   -17358.123    7.7766452    82.523498    4.4898482 
     148            0   -17358.123    7.7766452    82.523498    4.4898482 
Loop time of 1.14007 on 1 procs for 3 steps with 2912 atoms

Minimization stats:
  Stopping criterion = force tolerance
  Energy initial, next-to-last, final = 
        -17358.1217306        -17358.1228     -17358.1228101
  Force two-norm initial, final = 0.842777 1.76863e-11
  Force max component initial, final = 0.105347 2.01115e-12
  Final line search alpha, max atom move = 0 0
  Iterations, force evaluations = 3 497

Pair  time (%) = 1.04955 (92.06)
Neigh time (%) = 0 (0)
Comm  time (%) = 0.0186418 (1.63514)
Outpt time (%) = 0.000263001 (0.0230688)
Other time (%) = 0.0716168 (6.28177)

Nlocal:    2912 ave 2912 max 2912 min
Histogram: 1 0 0 0 0 0 0 0 0 0
Nghost:    7009 ave 7009 max 7009 min
Histogram: 1 0 0 0 0 0 0 0 0 0
Neighs:    77792 ave 77792 max 77792 min
Histogram: 1 0 0 0 0 0 0 0 0 0

Total # of neighbors = 77792
Ave neighs/atom = 26.7143
Neighbor list builds = 0
Dangerous builds = 0
        next i
jump SELF loop1
        displace_atoms upper move ${xstep1} 0.0 ${zstep1} units lattice
        displace_atoms upper move 0.00166666666666667 0.0 ${zstep1} units lattice
        displace_atoms upper move 0.00166666666666667 0.0 0 units lattice
        min_style ${style}
        min_style hftn
        minimize ${etol} ${ftol} ${maxiter} ${maxeval}
        minimize 1e-12 ${ftol} ${maxiter} ${maxeval}
        minimize 1e-12 1e-08 ${maxiter} ${maxeval}
        minimize 1e-12 1e-08 10000 ${maxeval}
        minimize 1e-12 1e-08 10000 20000
WARNING: Resetting reneighboring criteria during minimization (../min.cpp:168)
Memory usage per processor = 5.28939 Mbytes
Step Temp PotEng Lx Ly Lz 
     148            0   -17357.364    7.7766452    82.524086    4.4898482 
     149            0   -17357.364    7.7766452    82.524086    4.4898482 
     150            0   -17357.365    7.7766452    82.524086    4.4898482 
     151            0   -17357.365    7.7766452    82.524086    4.4898482 
     152            0   -17357.365    7.7766452    82.524086    4.4898482 
Loop time of 1.13261 on 1 procs for 3 steps with 2912 atoms

Minimization stats:
  Stopping criterion = force tolerance
  Energy initial, next-to-last, final = 
        -17357.3641687     -17357.3651625     -17357.3651701
  Force two-norm initial, final = 0.773143 7.65239e-11
  Force max component initial, final = 0.0966429 4.61948e-12
  Final line search alpha, max atom move = 0 0
  Iterations, force evaluations = 3 493

Pair  time (%) = 1.03973 (91.7997)
Neigh time (%) = 0 (0)
Comm  time (%) = 0.0177635 (1.56837)
Outpt time (%) = 0.000258954 (0.0228635)
Other time (%) = 0.0748544 (6.60902)

Nlocal:    2912 ave 2912 max 2912 min
Histogram: 1 0 0 0 0 0 0 0 0 0
Nghost:    7009 ave 7009 max 7009 min
Histogram: 1 0 0 0 0 0 0 0 0 0
Neighs:    77792 ave 77792 max 77792 min
Histogram: 1 0 0 0 0 0 0 0 0 0

Total # of neighbors = 77792
Ave neighs/atom = 26.7143
Neighbor list builds = 0
Dangerous builds = 0
        next i
jump SELF loop1
        displace_atoms upper move ${xstep1} 0.0 ${zstep1} units lattice
        displace_atoms upper move 0.00166666666666667 0.0 ${zstep1} units lattice
        displace_atoms upper move 0.00166666666666667 0.0 0 units lattice
        min_style ${style}
        min_style hftn
        minimize ${etol} ${ftol} ${maxiter} ${maxeval}
        minimize 1e-12 ${ftol} ${maxiter} ${maxeval}
        minimize 1e-12 1e-08 ${maxiter} ${maxeval}
        minimize 1e-12 1e-08 10000 ${maxeval}
        minimize 1e-12 1e-08 10000 20000
WARNING: Resetting reneighboring criteria during minimization (../min.cpp:168)
Memory usage per processor = 5.28939 Mbytes
Step Temp PotEng Lx Ly Lz 
     152            0   -17356.626    7.7766452     82.52463    4.4898482 
     153            0   -17356.626    7.7766452     82.52463    4.4898482 
     154            0   -17356.626    7.7766452     82.52463    4.4898482 
     155            0   -17356.626    7.7766452     82.52463    4.4898482 
     156            0   -17356.626    7.7766452     82.52463    4.4898482 
     157            0   -17356.626    7.7766452     82.52463    4.4898482 
     158            0   -17356.626    7.7766452     82.52463    4.4898482 
     159            0   -17356.626    7.7766452     82.52463    4.4898482 
     160            0   -17356.626    7.7766452     82.52463    4.4898482 
     161            0   -17356.626    7.7766452     82.52463    4.4898482 
     162            0   -17356.626    7.7766452     82.52463    4.4898482 
Loop time of 0.185066 on 1 procs for 9 steps with 2912 atoms

Minimization stats:
  Stopping criterion = energy tolerance
  Energy initial, next-to-last, final = 
        -17356.6260977     -17356.6260977     -17356.6261231
  Force two-norm initial, final = 0.701876 0.615173
  Force max component initial, final = 0.0877345 0.0768144
  Final line search alpha, max atom move = 0 0
  Iterations, force evaluations = 9 74

Pair  time (%) = 0.170528 (92.1445)
Neigh time (%) = 0 (0)
Comm  time (%) = 0.00298763 (1.61436)
Outpt time (%) = 0.000623919 (0.337133)
Other time (%) = 0.0109264 (5.90405)

Nlocal:    2912 ave 2912 max 2912 min
Histogram: 1 0 0 0 0 0 0 0 0 0
Nghost:    7009 ave 7009 max 7009 min
Histogram: 1 0 0 0 0 0 0 0 0 0
Neighs:    77792 ave 77792 max 77792 min
Histogram: 1 0 0 0 0 0 0 0 0 0

Total # of neighbors = 77792
Ave neighs/atom = 26.7143
Neighbor list builds = 0
Dangerous builds = 0
        next i
jump SELF loop1
        displace_atoms upper move ${xstep1} 0.0 ${zstep1} units lattice
        displace_atoms upper move 0.00166666666666667 0.0 ${zstep1} units lattice
        displace_atoms upper move 0.00166666666666667 0.0 0 units lattice
        min_style ${style}
        min_style hftn
        minimize ${etol} ${ftol} ${maxiter} ${maxeval}
[...]
        minimize 1e-12 ${ftol} ${maxiter} ${maxeval}
        minimize 1e-12 1e-08 ${maxiter} ${maxeval}
        minimize 1e-12 1e-08 10000 ${maxeval}
        minimize 1e-12 1e-08 10000 20000
WARNING: Resetting reneighboring criteria during minimization (../min.cpp:168)
Memory usage per processor = 5.28939 Mbytes
Step Temp PotEng Lx Ly Lz 
    1996            0   -17375.065    7.7766452    82.505857    4.4898482 
    1997            0   -17375.066    7.7766452    82.505857    4.4898482 
    1998            0   -17375.066    7.7766452    82.505857    4.4898482 
    1999            0   -17375.066    7.7766452    82.505857    4.4898482 
    2000            0   -17375.066    7.7766452    82.505857    4.4898482 
    2001            0   -17375.067    7.7766452    82.505857    4.4898482 
    2002            0   -17375.067    7.7766452    82.505857    4.4898482 
    2003            0   -17375.067    7.7766452    82.505857    4.4898482 
    2004            0   -17375.067    7.7766452    82.505857    4.4898482 
    2005            0   -17375.067    7.7766452    82.505857    4.4898482 
    2006            0   -17375.067    7.7766452    82.505857    4.4898482 
    2007            0   -17375.067    7.7766452    82.505857    4.4898482 
    2008            0   -17375.067    7.7766452    82.505857    4.4898482 
    2009            0   -17375.067    7.7766452    82.505857    4.4898482 
    2010            0   -17375.067    7.7766452    82.505857    4.4898482 
    2011            0   -17375.067    7.7766452    82.505857    4.4898482 
    2012            0   -17375.067    7.7766452    82.505857    4.4898482 
    2013            0   -17375.067    7.7766452    82.505857    4.4898482 
    2014            0   -17375.067    7.7766452    82.505857    4.4898482 
    2015            0   -17375.067    7.7766452    82.505857    4.4898482 
    2016            0   -17375.067    7.7766452    82.505857    4.4898482 
Loop time of 1.0202 on 1 procs for 19 steps with 2912 atoms

Minimization stats:
  Stopping criterion = energy tolerance
  Energy initial, next-to-last, final = 
        -17375.0653735     -17375.0672558     -17375.0672618
  Force two-norm initial, final = 1.02341 0.00992463
  Force max component initial, final = 0.127796 0.000342546
  Final line search alpha, max atom move = 0 0
  Iterations, force evaluations = 19 386

Pair  time (%) = 0.936501 (91.7961)
Neigh time (%) = 0 (0)
Comm  time (%) = 0.0197892 (1.93974)
Outpt time (%) = 0.00218412 (0.214089)
Other time (%) = 0.0617221 (6.05002)

Nlocal:    2912 ave 2912 max 2912 min
Histogram: 1 0 0 0 0 0 0 0 0 0
Nghost:    7129 ave 7129 max 7129 min
Histogram: 1 0 0 0 0 0 0 0 0 0
Neighs:    77856 ave 77856 max 77856 min
Histogram: 1 0 0 0 0 0 0 0 0 0

Total # of neighbors = 77856
Ave neighs/atom = 26.7363
Neighbor list builds = 0
Dangerous builds = 0
        next j
jump SELF loop2
        displace_atoms upper move ${xstep2} 0.0 ${zstep2} units lattice
        displace_atoms upper move 0.000833333333333329 0.0 ${zstep2} units lattice
        displace_atoms upper move 0.000833333333333329 0.0 0.00249999999999999 units lattice
        min_style ${style}
        min_style hftn
        minimize ${etol} ${ftol} ${maxiter} ${maxeval}
        minimize 1e-12 ${ftol} ${maxiter} ${maxeval}
        minimize 1e-12 1e-08 ${maxiter} ${maxeval}
        minimize 1e-12 1e-08 10000 ${maxeval}
        minimize 1e-12 1e-08 10000 20000
WARNING: Resetting reneighboring criteria during minimization (../min.cpp:168)
Memory usage per processor = 5.28939 Mbytes
Step Temp PotEng Lx Ly Lz 
    2016            0   -17375.335    7.7766452    82.505195    4.4898482 
    2017            0   -17375.335    7.7766452    82.505195    4.4898482 
    2018            0   -17375.336    7.7766452    82.505195    4.4898482 
    2019            0   -17375.336    7.7766452    82.505195    4.4898482 
    2020            0   -17375.336    7.7766452    82.505195    4.4898482 
    2021            0   -17375.336    7.7766452    82.505195    4.4898482 
    2022            0   -17375.336    7.7766452    82.505195    4.4898482 
    2023            0   -17375.336    7.7766452    82.505195    4.4898482 
    2024            0   -17375.336    7.7766452    82.505195    4.4898482 
    2025            0   -17375.336    7.7766452    82.505195    4.4898482 
    2026            0   -17375.336    7.7766452    82.505195    4.4898482 
Loop time of 0.188055 on 1 procs for 9 steps with 2912 atoms

Minimization stats:
  Stopping criterion = energy tolerance
  Energy initial, next-to-last, final = 
        -17375.3351118     -17375.3351118     -17375.3355188
  Force two-norm initial, final = 0.909479 0.469486
  Force max component initial, final = 0.113681 0.0553019
  Final line search alpha, max atom move = 0 0
  Iterations, force evaluations = 9 74

Pair  time (%) = 0.171725 (91.3162)
Neigh time (%) = 0 (0)
Comm  time (%) = 0.00531117 (2.82426)
Outpt time (%) = 0.00103427 (0.549982)
Other time (%) = 0.00998491 (5.30957)

Nlocal:    2912 ave 2912 max 2912 min
Histogram: 1 0 0 0 0 0 0 0 0 0
Nghost:    7129 ave 7129 max 7129 min
Histogram: 1 0 0 0 0 0 0 0 0 0
Neighs:    77856 ave 77856 max 77856 min
Histogram: 1 0 0 0 0 0 0 0 0 0

Total # of neighbors = 77856
Ave neighs/atom = 26.7363
Neighbor list builds = 0
Dangerous builds = 0
        next j
jump SELF loop2
        displace_atoms upper move ${xstep2} 0.0 ${zstep2} units lattice
        displace_atoms upper move 0.000833333333333329 0.0 ${zstep2} units lattice
        displace_atoms upper move 0.000833333333333329 0.0 0.00249999999999999 units lattice
        min_style ${style}
        min_style hftn
        minimize ${etol} ${ftol} ${maxiter} ${maxeval}
        minimize 1e-12 ${ftol} ${maxiter} ${maxeval}
        minimize 1e-12 1e-08 ${maxiter} ${maxeval}
        minimize 1e-12 1e-08 10000 ${maxeval}
        minimize 1e-12 1e-08 10000 20000
WARNING: Resetting reneighboring criteria during minimization (../min.cpp:168)
Memory usage per processor = 5.28939 Mbytes
Step Temp PotEng Lx Ly Lz 
    2026            0    -17375.56    7.7766452    82.505195    4.4898482 
    2027            0   -17375.561    7.7766452    82.505195    4.4898482 
    2028            0   -17375.561    7.7766452    82.505195    4.4898482 
    2029            0   -17375.562    7.7766452    82.505195    4.4898482 
    2030            0   -17375.563    7.7766452    82.505195    4.4898482 
    2031            0   -17375.563    7.7766452    82.505195    4.4898482 
    2032            0   -17375.563    7.7766452    82.505195    4.4898482 
    2033            0   -17375.563    7.7766452    82.505195    4.4898482 
    2034            0   -17375.563    7.7766452    82.505195    4.4898482 
    2035            0   -17375.563    7.7766452    82.505195    4.4898482 
    2036            0   -17375.563    7.7766452    82.505195    4.4898482 
    2037            0   -17375.563    7.7766452    82.505195    4.4898482 
    2038            0   -17375.563    7.7766452    82.505195    4.4898482 
    2039            0   -17375.563    7.7766452    82.505195    4.4898482 
    2040            0   -17375.563    7.7766452    82.505195    4.4898482 
    2041            0   -17375.563    7.7766452    82.505195    4.4898482 
    2042            0   -17375.563    7.7766452    82.505195    4.4898482 
    2043            0   -17375.563    7.7766452    82.505195    4.4898482 
    2044            0   -17375.563    7.7766452    82.505195    4.4898482 
    2045            0   -17375.563    7.7766452    82.505195    4.4898482 
Loop time of 1.2005 on 1 procs for 18 steps with 2912 atoms

Minimization stats:
  Stopping criterion = energy tolerance
  Energy initial, next-to-last, final = 
        -17375.5602996     -17375.5632103     -17375.5632103
  Force two-norm initial, final = 1.21719 0.0413803
  Force max component initial, final = 0.150878 0.00332626
  Final line search alpha, max atom move = 0 0
  Iterations, force evaluations = 18 465

Pair  time (%) = 1.09819 (91.4776)
Neigh time (%) = 0 (0)
Comm  time (%) = 0.0212202 (1.76761)
Outpt time (%) = 0.0072167 (0.601142)
Other time (%) = 0.0738749 (6.15369)

Nlocal:    2912 ave 2912 max 2912 min
Histogram: 1 0 0 0 0 0 0 0 0 0
Nghost:    7129 ave 7129 max 7129 min
Histogram: 1 0 0 0 0 0 0 0 0 0
Neighs:    77856 ave 77856 max 77856 min
Histogram: 1 0 0 0 0 0 0 0 0 0

Total # of neighbors = 77856
Ave neighs/atom = 26.7363
Neighbor list builds = 0
Dangerous builds = 0
        next j
jump SELF loop2
        displace_atoms upper move ${xstep2} 0.0 ${zstep2} units lattice
        displace_atoms upper move 0.000833333333333329 0.0 ${zstep2} units lattice
        displace_atoms upper move 0.000833333333333329 0.0 0.00249999999999999 units lattice
        min_style ${style}
        min_style hftn
        minimize ${etol} ${ftol} ${maxiter} ${maxeval}
        minimize 1e-12 ${ftol} ${maxiter} ${maxeval}
        minimize 1e-12 1e-08 ${maxiter} ${maxeval}
        minimize 1e-12 1e-08 10000 ${maxeval}
        minimize 1e-12 1e-08 10000 20000
WARNING: Resetting reneighboring criteria during minimization (../min.cpp:168)
Memory usage per processor = 5.28939 Mbytes
Step Temp PotEng Lx Ly Lz 
    2045            0   -17375.745    7.7766452    82.503774    4.4898482 
    2046            0   -17375.745    7.7766452    82.503774    4.4898482 
    2047            0   -17375.745    7.7766452    82.503774    4.4898482 
    2048            0   -17375.745    7.7766452    82.503774    4.4898482 
    2049            0   -17375.745    7.7766452    82.503774    4.4898482 
    2050            0   -17375.745    7.7766452    82.503774    4.4898482 
    2051            0   -17375.745    7.7766452    82.503774    4.4898482 
    2052            0   -17375.745    7.7766452    82.503774    4.4898482 
    2053            0   -17375.745    7.7766452    82.503774    4.4898482 
    2054            0   -17375.745    7.7766452    82.503774    4.4898482 
    2055            0   -17375.745    7.7766452    82.503774    4.4898482 
    2056            0   -17375.745    7.7766452    82.503774    4.4898482 
    2057            0   -17375.745    7.7766452    82.503774    4.4898482 
    2058            0   -17375.745    7.7766452    82.503774    4.4898482 
    2059            0   -17375.745    7.7766452    82.503774    4.4898482 
    2060            0   -17375.745    7.7766452    82.503774    4.4898482 
    2061            0   -17375.745    7.7766452    82.503774    4.4898482 
    2062            0   -17375.745    7.7766452    82.503774    4.4898482 
Loop time of 0.929482 on 1 procs for 16 steps with 2912 atoms

Minimization stats:
  Stopping criterion = energy tolerance
  Energy initial, next-to-last, final = 
        -17375.7445668     -17375.7450469     -17375.7450472
  Force two-norm initial, final = 0.624949 0.0134225
  Force max component initial, final = 0.0779523 0.000527329
  Final line search alpha, max atom move = 0 0
  Iterations, force evaluations = 16 379

Pair  time (%) = 0.843618 (90.7621)
Neigh time (%) = 0 (0)
Comm  time (%) = 0.024474 (2.63308)
Outpt time (%) = 0.00174577 (0.187822)
Other time (%) = 0.0596447 (6.41698)

Nlocal:    2912 ave 2912 max 2912 min
Histogram: 1 0 0 0 0 0 0 0 0 0
Nghost:    7129 ave 7129 max 7129 min
Histogram: 1 0 0 0 0 0 0 0 0 0
Neighs:    77856 ave 77856 max 77856 min
Histogram: 1 0 0 0 0 0 0 0 0 0

Total # of neighbors = 77856
Ave neighs/atom = 26.7363
Neighbor list builds = 0
Dangerous builds = 0
        next j
jump SELF loop2
        displace_atoms upper move ${xstep2} 0.0 ${zstep2} units lattice
        displace_atoms upper move 0.000833333333333329 0.0 ${zstep2} units lattice
        displace_atoms upper move 0.000833333333333329 0.0 0.00249999999999999 units lattice
        min_style ${style}
        min_style hftn
        minimize ${etol} ${ftol} ${maxiter} ${maxeval}
        minimize 1e-12 ${ftol} ${maxiter} ${maxeval}
        minimize 1e-12 1e-08 ${maxiter} ${maxeval}
        minimize 1e-12 1e-08 10000 ${maxeval}
        minimize 1e-12 1e-08 10000 20000
WARNING: Resetting reneighboring criteria during minimization (../min.cpp:168)
Memory usage per processor = 5.28939 Mbytes
Step Temp PotEng Lx Ly Lz 
    2062            0   -17375.878    7.7766452    82.502968    4.4898482 
    2063            0   -17375.878    7.7766452    82.502968    4.4898482 
    2064            0   -17375.878    7.7766452    82.502968    4.4898482 
    2065            0   -17375.879    7.7766452    82.502968    4.4898482 
    2066            0   -17375.879    7.7766452    82.502968    4.4898482 
    2067            0   -17375.879    7.7766452    82.502968    4.4898482 
    2068            0   -17375.879    7.7766452    82.502968    4.4898482 
    2069            0   -17375.879    7.7766452    82.502968    4.4898482 
    2070            0   -17375.879    7.7766452    82.502968    4.4898482 
    2071            0   -17375.879    7.7766452    82.502968    4.4898482 
    2072            0   -17375.879    7.7766452    82.502968    4.4898482 
    2073            0   -17375.879    7.7766452    82.502968    4.4898482 
    2074            0   -17375.879    7.7766452    82.502968    4.4898482 
    2075            0   -17375.879    7.7766452    82.502968    4.4898482 
    2076            0   -17375.879    7.7766452    82.502968    4.4898482 
    2077            0   -17375.879    7.7766452    82.502968    4.4898482 
Loop time of 0.784654 on 1 procs for 14 steps with 2912 atoms

Minimization stats:
  Stopping criterion = energy tolerance
  Energy initial, next-to-last, final = 
        -17375.8782461     -17375.8786899     -17375.8786988
  Force two-norm initial, final = 0.456302 0.0167495
  Force max component initial, final = 0.0570141 0.000846668
  Final line search alpha, max atom move = 0 0
  Iterations, force evaluations = 14 333

Pair  time (%) = 0.716294 (91.2878)
Neigh time (%) = 0 (0)
Comm  time (%) = 0.0136436 (1.73881)
Outpt time (%) = 0.00457982 (0.583674)
Other time (%) = 0.0501369 (6.38968)

Nlocal:    2912 ave 2912 max 2912 min
Histogram: 1 0 0 0 0 0 0 0 0 0
Nghost:    7129 ave 7129 max 7129 min
Histogram: 1 0 0 0 0 0 0 0 0 0
Neighs:    77856 ave 77856 max 77856 min
Histogram: 1 0 0 0 0 0 0 0 0 0

Total # of neighbors = 77856
Ave neighs/atom = 26.7363
Neighbor list builds = 0
Dangerous builds = 0
        next j
jump SELF loop2
        displace_atoms upper move ${xstep2} 0.0 ${zstep2} units lattice
        displace_atoms upper move 0.000833333333333329 0.0 ${zstep2} units lattice
        displace_atoms upper move 0.000833333333333329 0.0 0.00249999999999999 units lattice
        min_style ${style}
        min_style hftn
        minimize ${etol} ${ftol} ${maxiter} ${maxeval}
        minimize 1e-12 ${ftol} ${maxiter} ${maxeval}
        minimize 1e-12 1e-08 ${maxiter} ${maxeval}
        minimize 1e-12 1e-08 10000 ${maxeval}
        minimize 1e-12 1e-08 10000 20000
WARNING: Resetting reneighboring criteria during minimization (../min.cpp:168)
Memory usage per processor = 5.28939 Mbytes
Step Temp PotEng Lx Ly Lz 
    2077            0   -17375.961    7.7766452    82.502565    4.4898482 
    2078            0   -17375.961    7.7766452    82.502565    4.4898482 
    2079            0   -17375.961    7.7766452    82.502565    4.4898482 
    2080            0   -17375.961    7.7766452    82.502565    4.4898482 
    2081            0   -17375.961    7.7766452    82.502565    4.4898482 
    2082            0   -17375.961    7.7766452    82.502565    4.4898482 
    2083            0   -17375.961    7.7766452    82.502565    4.4898482 
    2084            0   -17375.961    7.7766452    82.502565    4.4898482 
    2085            0   -17375.961    7.7766452    82.502565    4.4898482 
    2086            0   -17375.961    7.7766452    82.502565    4.4898482 
    2087            0   -17375.961    7.7766452    82.502565    4.4898482 
    2088            0   -17375.961    7.7766452    82.502565    4.4898482 
    2089            0   -17375.961    7.7766452    82.502565    4.4898482 
    2090            0   -17375.961    7.7766452    82.502565    4.4898482 
    2091            0   -17375.961    7.7766452    82.502565    4.4898482 
    2092            0   -17375.961    7.7766452    82.502565    4.4898482 
Loop time of 0.646355 on 1 procs for 14 steps with 2912 atoms

Minimization stats:
  Stopping criterion = energy tolerance
  Energy initial, next-to-last, final = 
        -17375.9606906     -17375.9612698     -17375.9612703
  Force two-norm initial, final = 0.278041 0.0129848
  Force max component initial, final = 0.0346954 0.000548088
  Final line search alpha, max atom move = 0 0
  Iterations, force evaluations = 14 261

Pair  time (%) = 0.589649 (91.2268)
Neigh time (%) = 0 (0)
Comm  time (%) = 0.0144006 (2.22796)
Outpt time (%) = 0.00142493 (0.220457)
Other time (%) = 0.0408806 (6.32479)

Nlocal:    2912 ave 2912 max 2912 min
Histogram: 1 0 0 0 0 0 0 0 0 0
Nghost:    7129 ave 7129 max 7129 min
Histogram: 1 0 0 0 0 0 0 0 0 0
Neighs:    77856 ave 77856 max 77856 min
Histogram: 1 0 0 0 0 0 0 0 0 0

Total # of neighbors = 77856
Ave neighs/atom = 26.7363
Neighbor list builds = 0
Dangerous builds = 0
        next j
jump SELF loop2
        displace_atoms upper move ${xstep2} 0.0 ${zstep2} units lattice
        displace_atoms upper move 0.000833333333333329 0.0 ${zstep2} units lattice
        displace_atoms upper move 0.000833333333333329 0.0 0.00249999999999999 units lattice
        min_style ${style}
        min_style hftn
        minimize ${etol} ${ftol} ${maxiter} ${maxeval}
        minimize 1e-12 ${ftol} ${maxiter} ${maxeval}
        minimize 1e-12 1e-08 ${maxiter} ${maxeval}
        minimize 1e-12 1e-08 10000 ${maxeval}
        minimize 1e-12 1e-08 10000 20000
WARNING: Resetting reneighboring criteria during minimization (../min.cpp:168)
Memory usage per processor = 5.28939 Mbytes
Step Temp PotEng Lx Ly Lz 
    2092            0   -17375.989    7.7766452    82.502544    4.4898482 
    2093            0   -17375.989    7.7766452    82.502544    4.4898482 
    2094            0   -17375.989    7.7766452    82.502544    4.4898482 
    2095            0   -17375.989    7.7766452    82.502544    4.4898482 
    2096            0   -17375.989    7.7766452    82.502544    4.4898482 
    2097            0   -17375.989    7.7766452    82.502544    4.4898482 
    2098            0   -17375.989    7.7766452    82.502544    4.4898482 
    2099            0   -17375.989    7.7766452    82.502544    4.4898482 
    2100            0   -17375.989    7.7766452    82.502544    4.4898482 
    2101            0   -17375.989    7.7766452    82.502544    4.4898482 
    2102            0   -17375.989    7.7766452    82.502544    4.4898482 
    2103            0   -17375.989    7.7766452    82.502544    4.4898482 
    2104            0   -17375.989    7.7766452    82.502544    4.4898482 
    2105            0   -17375.989    7.7766452    82.502544    4.4898482 
    2106            0   -17375.989    7.7766452    82.502544    4.4898482 
    2107            0   -17375.989    7.7766452    82.502544    4.4898482 
Loop time of 0.643148 on 1 procs for 14 steps with 2912 atoms

Minimization stats:
  Stopping criterion = energy tolerance
  Energy initial, next-to-last, final = 
        -17375.9892343     -17375.9893892     -17375.9893905
  Force two-norm initial, final = 0.0928235 0.0108641
  Force max component initial, final = 0.0114998 0.000443659
  Final line search alpha, max atom move = 0 0
  Iterations, force evaluations = 14 259

Pair  time (%) = 0.583744 (90.7636)
Neigh time (%) = 0 (0)
Comm  time (%) = 0.0153083 (2.38022)
Outpt time (%) = 0.00190706 (0.29652)
Other time (%) = 0.0421886 (6.5597)

Nlocal:    2912 ave 2912 max 2912 min
Histogram: 1 0 0 0 0 0 0 0 0 0
Nghost:    7129 ave 7129 max 7129 min
Histogram: 1 0 0 0 0 0 0 0 0 0
Neighs:    77856 ave 77856 max 77856 min
Histogram: 1 0 0 0 0 0 0 0 0 0

Total # of neighbors = 77856
Ave neighs/atom = 26.7363
Neighbor list builds = 0
Dangerous builds = 0
        next j
jump SELF loop2


