LAMMPS (28 Jun 2014)
# attempt at getting generalized stacking fault (GSF) energy curve

#file prefix
variable prefix string gsf_V_ductilenew
variable dumpfile string ${prefix}.*.dump
variable dumpfile string gsf_V_ductilenew.*.dump
variable restartfile string ${prefix}.*.equil
variable restartfile string gsf_V_ductilenew.*.equil

#Mass (g/mol)
variable m equal 1

# lattice constant (in Angstroms) and orientation of axes (given by lattice vectors)
variable rho equal 0.9165
variable x1 equal 1
variable x2 equal 0
variable x3 equal 0
variable y1 equal 0
variable y2 equal 1
variable y3 equal 0
# length of lattice in different directions (using orientation of lattice vectors)
variable ax equal sqrt(${x1}*${x1}+${x2}*${x2}+${x3}*${x3})
variable ax equal sqrt(1*${x1}+${x2}*${x2}+${x3}*${x3})
variable ax equal sqrt(1*1+${x2}*${x2}+${x3}*${x3})
variable ax equal sqrt(1*1+0*${x2}+${x3}*${x3})
variable ax equal sqrt(1*1+0*0+${x3}*${x3})
variable ax equal sqrt(1*1+0*0+0*${x3})
variable ax equal sqrt(1*1+0*0+0*0)
variable ay equal sqrt(${y1}*${y1}+${y2}*${y2}+${y3}*${y3})
variable ay equal sqrt(0*${y1}+${y2}*${y2}+${y3}*${y3})
variable ay equal sqrt(0*0+${y2}*${y2}+${y3}*${y3})
variable ay equal sqrt(0*0+1*${y2}+${y3}*${y3})
variable ay equal sqrt(0*0+1*1+${y3}*${y3})
variable ay equal sqrt(0*0+1*1+0*${y3})
variable ay equal sqrt(0*0+1*1+0*0)
variable az equal 1

# size of box in lattice units
variable lxpos equal 1
variable lxneg equal -1*${lxpos}
variable lxneg equal -1*1
variable lypos equal 10
variable lyneg equal -1*${lypos}
variable lyneg equal -1*10
variable lzpos equal 0
variable lzneg equal -1

# Define minimization parameters and damping
variable etol equal 1.0e-12
variable ftol equal 1.0e-8
variable maxiter equal 10000
variable maxeval equal 20000
variable style string cg

# boundary conditions
dimension	2
boundary	p s p
atom_style	atomic

# create geometry
units		lj
lattice         hex ${rho}
lattice         hex 0.9165
Lattice spacing in x,y,z = 1.12245 1.94415 1.12245
region		myregion block ${lxneg} ${lxpos} ${lyneg} ${lypos} ${lzneg} ${lzpos} units lattice
region		myregion block -1 ${lxpos} ${lyneg} ${lypos} ${lzneg} ${lzpos} units lattice
region		myregion block -1 1 ${lyneg} ${lypos} ${lzneg} ${lzpos} units lattice
region		myregion block -1 1 -10 ${lypos} ${lzneg} ${lzpos} units lattice
region		myregion block -1 1 -10 10 ${lzneg} ${lzpos} units lattice
region		myregion block -1 1 -10 10 -1 ${lzpos} units lattice
region		myregion block -1 1 -10 10 -1 0 units lattice
create_box	3 myregion
Created orthogonal box = (-1.12245 -19.4415 -1.12245) to (1.12245 19.4415 0)
  1 by 1 by 1 MPI processor grid
create_atoms	1 box
Created 82 atoms

# define masses
mass * $m
mass * 1

# my fake/morse potential
pair_style      table linear 3001
pair_coeff      * * vpotential_ductilenew dummy
neighbor	0.3 bin
neigh_modify	delay 5

# define groups
region	    upper block INF INF 0.01 ${lypos} INF INF units lattice
region	    upper block INF INF 0.01 10 INF INF units lattice
group		upper region upper
40 atoms in group upper

# Setup output
thermo 1
thermo_style custom step temp pe lx ly lz
thermo_modify norm no

# Compute initial state by relaxing box
min_style ${style}
min_style cg
minimize ${etol} ${ftol} ${maxiter} ${maxeval}
minimize 1e-12 ${ftol} ${maxiter} ${maxeval}
minimize 1e-12 1e-08 ${maxiter} ${maxeval}
minimize 1e-12 1e-08 10000 ${maxeval}
minimize 1e-12 1e-08 10000 20000
WARNING: Resetting reneighboring criteria during minimization (../min.cpp:168)
Memory usage per processor = 3.35169 Mbytes
Step Temp PotEng Lx Ly Lz 
       0            0   -241.99993    2.2449075    38.890715    1.1224537 
       1            0   -241.99993    2.2449075    38.890715    1.1224537 
       2            0   -241.99993    2.2449075    38.890715    1.1224537 
Loop time of 0.000445117 on 1 procs for 2 steps with 82 atoms

Minimization stats:
  Stopping criterion = linesearch alpha is zero
  Energy initial, next-to-last, final = 
        -241.999927696     -241.999929863     -241.999929863
  Force two-norm initial, final = 0.000778805 0.00455994
  Force max component initial, final = 0.000389403 0.00179508
  Final line search alpha, max atom move = 0.000488281 8.76506e-07
  Iterations, force evaluations = 2 16

Pair  time (%) = 0.000259999 (58.4114)
Neigh time (%) = 0 (0)
Comm  time (%) = 2.09101e-05 (4.69765)
Outpt time (%) = 7.90547e-05 (17.7604)
Other time (%) = 8.51533e-05 (19.1305)

Nlocal:    82 ave 82 max 82 min
Histogram: 1 0 0 0 0 0 0 0 0 0
Nghost:    185 ave 185 max 185 min
Histogram: 1 0 0 0 0 0 0 0 0 0
Neighs:    718 ave 718 max 718 min
Histogram: 1 0 0 0 0 0 0 0 0 0

Total # of neighbors = 718
Ave neighs/atom = 8.7561
Neighbor list builds = 0
Dangerous builds = 0

# don't allow atoms to relax in x-direction
fix 2 all setforce 0.0 NULL 0.0

# GSF energy curve will have 100*2 steps
variable nsteps equal 300
variable sstep1 equal 1.
variable xstep1 equal ${sstep1}/(${ax}*${nsteps})
variable xstep1 equal 1/(${ax}*${nsteps})
variable xstep1 equal 1/(1*${nsteps})
variable xstep1 equal 1/(1*300)

variable i loop ${nsteps}
variable i loop 300
label loop1
        displace_atoms upper move ${xstep1} 0.0 0.0 units lattice
        displace_atoms upper move 0.00333333333333333 0.0 0.0 units lattice
        min_style ${style}
        min_style cg
        minimize ${etol} ${ftol} ${maxiter} ${maxeval}
        minimize 1e-12 ${ftol} ${maxiter} ${maxeval}
        minimize 1e-12 1e-08 ${maxiter} ${maxeval}
        minimize 1e-12 1e-08 10000 ${maxeval}
        minimize 1e-12 1e-08 10000 20000
WARNING: Resetting reneighboring criteria during minimization (../min.cpp:168)
Memory usage per processor = 3.35169 Mbytes
Step Temp PotEng Lx Ly Lz 
       2            0   -241.99976    2.2449075    38.890812    1.1224537 
       3            0   -241.99976    2.2449075    38.890812    1.1224537 
Loop time of 0.000296992 on 1 procs for 1 steps with 82 atoms

Minimization stats:
  Stopping criterion = linesearch alpha is zero
  Energy initial, next-to-last, final = 
        -241.999757399     -241.999757399     -241.999757399
  Force two-norm initial, final = 0.00478129 0.00478129
  Force max component initial, final = 0.00179508 0.00179508
  Final line search alpha, max atom move = 0.000488281 8.76506e-07
  Iterations, force evaluations = 1 12

Pair  time (%) = 0.000214803 (72.3263)
Neigh time (%) = 0 (0)
Comm  time (%) = 1.66198e-05 (5.59604)
Outpt time (%) = 0 (0)
Other time (%) = 6.55688e-05 (22.0776)

Nlocal:    82 ave 82 max 82 min
Histogram: 1 0 0 0 0 0 0 0 0 0
Nghost:    185 ave 185 max 185 min
Histogram: 1 0 0 0 0 0 0 0 0 0
Neighs:    718 ave 718 max 718 min
Histogram: 1 0 0 0 0 0 0 0 0 0

Total # of neighbors = 718
Ave neighs/atom = 8.7561
Neighbor list builds = 0
Dangerous builds = 0
        # write_dump all atom ${dumpfile}
        next i
jump SELF loop1
        displace_atoms upper move ${xstep1} 0.0 0.0 units lattice
        displace_atoms upper move 0.00333333333333333 0.0 0.0 units lattice
        min_style ${style}
        min_style cg
        minimize ${etol} ${ftol} ${maxiter} ${maxeval}
        minimize 1e-12 ${ftol} ${maxiter} ${maxeval}
        minimize 1e-12 1e-08 ${maxiter} ${maxeval}
        minimize 1e-12 1e-08 10000 ${maxeval}
        minimize 1e-12 1e-08 10000 20000
WARNING: Resetting reneighboring criteria during minimization (../min.cpp:168)
Memory usage per processor = 3.35169 Mbytes
Step Temp PotEng Lx Ly Lz 
       3            0   -241.99924    2.2449075    38.890812    1.1224537 
       4            0   -241.99924    2.2449075    38.890812    1.1224537 
Loop time of 0.000147997 on 1 procs for 1 steps with 82 atoms

Minimization stats:
  Stopping criterion = linesearch alpha is zero
  Energy initial, next-to-last, final = 
        -241.999241512     -241.999241512     -241.999241512
  Force two-norm initial, final = 0.00732734 0.00732734
  Force max component initial, final = 0.00286779 0.00286779
  Final line search alpha, max atom move = 0.00012207 3.50072e-07
  Iterations, force evaluations = 1 14

Pair  time (%) = 0.000121556 (82.1341)
Neigh time (%) = 0 (0)
Comm  time (%) = 9.1478e-06 (6.18107)
Outpt time (%) = 0 (0)
Other time (%) = 1.72931e-05 (11.6848)

Nlocal:    82 ave 82 max 82 min
Histogram: 1 0 0 0 0 0 0 0 0 0
Nghost:    185 ave 185 max 185 min
Histogram: 1 0 0 0 0 0 0 0 0 0
Neighs:    718 ave 718 max 718 min
Histogram: 1 0 0 0 0 0 0 0 0 0

Total # of neighbors = 718
Ave neighs/atom = 8.7561
Neighbor list builds = 0
Dangerous builds = 0
        # write_dump all atom ${dumpfile}
        next i
jump SELF loop1
        displace_atoms upper move ${xstep1} 0.0 0.0 units lattice
        displace_atoms upper move 0.00333333333333333 0.0 0.0 units lattice
        min_style ${style}
        min_style cg
        minimize ${etol} ${ftol} ${maxiter} ${maxeval}
        minimize 1e-12 ${ftol} ${maxiter} ${maxeval}
        minimize 1e-12 1e-08 ${maxiter} ${maxeval}
        minimize 1e-12 1e-08 10000 ${maxeval}
        minimize 1e-12 1e-08 10000 20000
WARNING: Resetting reneighboring criteria during minimization (../min.cpp:168)
Memory usage per processor = 3.35169 Mbytes
Step Temp PotEng Lx Ly Lz 
       4            0   -241.99838    2.2449075    38.890812    1.1224537 
       5            0   -241.99838    2.2449075    38.890812    1.1224537 
Loop time of 0.00033208 on 1 procs for 1 steps with 82 atoms

Minimization stats:
  Stopping criterion = linesearch alpha is zero
  Energy initial, next-to-last, final = 
        -241.998383655     -241.998383655     -241.998383655
  Force two-norm initial, final = 0.01366 0.01366
  Force max component initial, final = 0.00643821 0.00643821
  Final line search alpha, max atom move = 6.10352e-05 3.92957e-07
  Iterations, force evaluations = 1 15

Pair  time (%) = 0.000246959 (74.3674)
Neigh time (%) = 0 (0)
Comm  time (%) = 1.91755e-05 (5.77435)
Outpt time (%) = 0 (0)
Other time (%) = 6.59453e-05 (19.8583)

Nlocal:    82 ave 82 max 82 min
Histogram: 1 0 0 0 0 0 0 0 0 0
Nghost:    185 ave 185 max 185 min
Histogram: 1 0 0 0 0 0 0 0 0 0
Neighs:    718 ave 718 max 718 min
Histogram: 1 0 0 0 0 0 0 0 0 0

Total # of neighbors = 718
Ave neighs/atom = 8.7561
Neighbor list builds = 0
Dangerous builds = 0
        # write_dump all atom ${dumpfile}
        next i
jump SELF loop1
        displace_atoms upper move ${xstep1} 0.0 0.0 units lattice
        displace_atoms upper move 0.00333333333333333 0.0 0.0 units lattice
        min_style ${style}
        min_style cg
        minimize ${etol} ${ftol} ${maxiter} ${maxeval}
        minimize 1e-12 ${ftol} ${maxiter} ${maxeval}
        minimize 1e-12 1e-08 ${maxiter} ${maxeval}
        minimize 1e-12 1e-08 10000 ${maxeval}
        minimize 1e-12 1e-08 10000 20000
WARNING: Resetting reneighboring criteria during minimization (../min.cpp:168)
Memory usage per processor = 3.35169 Mbytes
Step Temp PotEng Lx Ly Lz 
       5            0   -241.99718    2.2449075    38.890812    1.1224537 
       6            0   -241.99718    2.2449075    38.890812    1.1224537 
Loop time of 0.000339893 on 1 procs for 1 steps with 82 atoms

Minimization stats:
  Stopping criterion = linesearch alpha is zero
  Energy initial, next-to-last, final = 
        -241.997184208     -241.997184208     -241.997184208
  Force two-norm initial, final = 0.0233072 0.0233072
  Force max component initial, final = 0.0114284 0.0114284
  Final line search alpha, max atom move = 1.52588e-05 1.74383e-07
  Iterations, force evaluations = 1 17

Pair  time (%) = 0.000275977 (81.1952)
Neigh time (%) = 0 (0)
Comm  time (%) = 2.11766e-05 (6.23039)
Outpt time (%) = 0 (0)
Other time (%) = 4.27397e-05 (12.5744)

Nlocal:    82 ave 82 max 82 min
Histogram: 1 0 0 0 0 0 0 0 0 0
Nghost:    185 ave 185 max 185 min
Histogram: 1 0 0 0 0 0 0 0 0 0
Neighs:    718 ave 718 max 718 min
Histogram: 1 0 0 0 0 0 0 0 0 0

Total # of neighbors = 718
Ave neighs/atom = 8.7561
Neighbor list builds = 0
Dangerous builds = 0
        # write_dump all atom ${dumpfile}
        next i
jump SELF loop1
        displace_atoms upper move ${xstep1} 0.0 0.0 units lattice
        displace_atoms upper move 0.00333333333333333 0.0 0.0 units lattice
        min_style ${style}
        min_style cg
        minimize ${etol} ${ftol} ${maxiter} ${maxeval}
        minimize 1e-12 ${ftol} ${maxiter} ${maxeval}
        minimize 1e-12 1e-08 ${maxiter} ${maxeval}
        minimize 1e-12 1e-08 10000 ${maxeval}
        minimize 1e-12 1e-08 10000 20000
WARNING: Resetting reneighboring criteria during minimization (../min.cpp:168)
Memory usage per processor = 3.35169 Mbytes
Step Temp PotEng Lx Ly Lz 
       6            0   -241.99564    2.2449075    38.890812    1.1224537 
       7            0   -241.99564    2.2449075    38.890812    1.1224537 
       8            0   -241.99564    2.2449075    38.890812    1.1224537 
       9            0   -241.99564    2.2449075    38.890812    1.1224537 
Loop time of 0.00077791 on 1 procs for 3 steps with 82 atoms

Minimization stats:
  Stopping criterion = linesearch alpha is zero
  Energy initial, next-to-last, final = 
        -241.995643567     -241.995644433     -241.995644433
  Force two-norm initial, final = 0.0359625 0.0312651
  Force max component initial, final = 0.0178361 0.015482
  Final line search alpha, max atom move = 7.62939e-06 1.18118e-07
  Iterations, force evaluations = 3 42

Pair  time (%) = 0.000618506 (79.5088)
Neigh time (%) = 0 (0)
Comm  time (%) = 5.08478e-05 (6.53646)
Outpt time (%) = 1.50045e-05 (1.92883)
Other time (%) = 9.35509e-05 (12.0259)

Nlocal:    82 ave 82 max 82 min
Histogram: 1 0 0 0 0 0 0 0 0 0
Nghost:    185 ave 185 max 185 min
Histogram: 1 0 0 0 0 0 0 0 0 0
Neighs:    718 ave 718 max 718 min
Histogram: 1 0 0 0 0 0 0 0 0 0

Total # of neighbors = 718
Ave neighs/atom = 8.7561
Neighbor list builds = 0
Dangerous builds = 0
        # write_dump all atom ${dumpfile}
        next i
jump SELF loop1
        displace_atoms upper move ${xstep1} 0.0 0.0 units lattice
        displace_atoms upper move 0.00333333333333333 0.0 0.0 units lattice
        min_style ${style}
        min_style cg
        minimize ${etol} ${ftol} ${maxiter} ${maxeval}
        minimize 1e-12 ${ftol} ${maxiter} ${maxeval}
        minimize 1e-12 1e-08 ${maxiter} ${maxeval}
        minimize 1e-12 1e-08 10000 ${maxeval}
        minimize 1e-12 1e-08 10000 20000
WARNING: Resetting reneighboring criteria during minimization (../min.cpp:168)
Memory usage per processor = 3.35169 Mbytes
Step Temp PotEng Lx Ly Lz 
       9            0   -241.99376    2.2449075    38.890809    1.1224537 
      10            0   -241.99377    2.2449075    38.890809    1.1224537 
      11            0   -241.99377    2.2449075    38.890809    1.1224537 
Loop time of 0.000511069 on 1 procs for 2 steps with 82 atoms

Minimization stats:
  Stopping criterion = linesearch alpha is zero
  Energy initial, next-to-last, final = 
        -241.993760152     -241.993767243     -241.993767243
  Force two-norm initial, final = 0.046848 0.0156938
  Force max component initial, final = 0.0233238 0.00704691
  Final line search alpha, max atom move = 3.05176e-05 2.15055e-07
  Iterations, force evaluations = 2 24

Pair  time (%) = 0.000409145 (80.0567)
Neigh time (%) = 0 (0)
Comm  time (%) = 3.20051e-05 (6.26239)
Outpt time (%) = 7.01635e-06 (1.37288)
Other time (%) = 6.29025e-05 (12.308)

Nlocal:    82 ave 82 max 82 min
Histogram: 1 0 0 0 0 0 0 0 0 0
Nghost:    185 ave 185 max 185 min
Histogram: 1 0 0 0 0 0 0 0 0 0
Neighs:    718 ave 718 max 718 min
Histogram: 1 0 0 0 0 0 0 0 0 0

Total # of neighbors = 718
Ave neighs/atom = 8.7561
Neighbor list builds = 0
Dangerous builds = 0
        # write_dump all atom ${dumpfile}
        next i
jump SELF loop1
        displace_atoms upper move ${xstep1} 0.0 0.0 units lattice
        displace_atoms upper move 0.00333333333333333 0.0 0.0 units lattice
        min_style ${style}
        min_style cg
        minimize ${etol} ${ftol} ${maxiter} ${maxeval}
        minimize 1e-12 ${ftol} ${maxiter} ${maxeval}
        minimize 1e-12 1e-08 ${maxiter} ${maxeval}
        minimize 1e-12 1e-08 10000 ${maxeval}
        minimize 1e-12 1e-08 10000 20000
WARNING: Resetting reneighboring criteria during minimization (../min.cpp:168)
Memory usage per processor = 3.35169 Mbytes
Step Temp PotEng Lx Ly Lz 
      11            0   -241.99155    2.2449075    38.890789    1.1224537 
      12            0   -241.99155    2.2449075    38.890789    1.1224537 
      13            0   -241.99155    2.2449075    38.890789    1.1224537 
Loop time of 0.000568015 on 1 procs for 2 steps with 82 atoms

Minimization stats:
  Stopping criterion = linesearch alpha is zero
  Energy initial, next-to-last, final = 
        -241.991550751     -241.991550944     -241.991550944
  Force two-norm initial, final = 0.0288861 0.0279066
  Force max component initial, final = 0.0125837 0.0120304
  Final line search alpha, max atom move = 1.52588e-05 1.83569e-07
  Iterations, force evaluations = 2 29

Pair  time (%) = 0.00046232 (81.3922)
Neigh time (%) = 0 (0)
Comm  time (%) = 3.74328e-05 (6.5901)
Outpt time (%) = 5.94789e-06 (1.04714)
Other time (%) = 6.23147e-05 (10.9706)

Nlocal:    82 ave 82 max 82 min
Histogram: 1 0 0 0 0 0 0 0 0 0
Nghost:    185 ave 185 max 185 min
Histogram: 1 0 0 0 0 0 0 0 0 0
Neighs:    718 ave 718 max 718 min
Histogram: 1 0 0 0 0 0 0 0 0 0

Total # of neighbors = 718
Ave neighs/atom = 8.7561
Neighbor list builds = 0
Dangerous builds = 0
        # write_dump all atom ${dumpfile}
        next i
jump SELF loop1
        displace_atoms upper move ${xstep1} 0.0 0.0 units lattice
        displace_atoms upper move 0.00333333333333333 0.0 0.0 units lattice
        min_style ${style}
        min_style cg
        minimize ${etol} ${ftol} ${maxiter} ${maxeval}
        minimize 1e-12 ${ftol} ${maxiter} ${maxeval}
        minimize 1e-12 1e-08 ${maxiter} ${maxeval}
        minimize 1e-12 1e-08 10000 ${maxeval}
        minimize 1e-12 1e-08 10000 20000
WARNING: Resetting reneighboring criteria during minimization (../min.cpp:168)
Memory usage per processor = 3.35169 Mbytes
Step Temp PotEng Lx Ly Lz 
      13            0   -241.98899    2.2449075    38.890788    1.1224537 
      14            0     -241.989    2.2449075    38.890788    1.1224537 
      15            0     -241.989    2.2449075    38.890788    1.1224537 
      16            0     -241.989    2.2449075    38.890788    1.1224537 
      17            0     -241.989    2.2449075    38.890788    1.1224537 
      18            0     -241.989    2.2449075    38.890788    1.1224537 
Loop time of 0.00105802 on 1 procs for 5 steps with 82 atoms

Minimization stats:
  Stopping criterion = linesearch alpha is zero
  Energy initial, next-to-last, final = 
        -241.988993908     -241.989002581     -241.989002581
  Force two-norm initial, final = 0.0474892 0.0179964
  Force max component initial, final = 0.0226681 0.00742928
  Final line search alpha, max atom move = 3.05176e-05 2.26724e-07
  Iterations, force evaluations = 5 56

Pair  time (%) = 0.00084418 (79.7887)
Neigh time (%) = 0 (0)
Comm  time (%) = 7.2194e-05 (6.82351)
Outpt time (%) = 2.27509e-05 (2.15033)
Other time (%) = 0.000118894 (11.2374)

Nlocal:    82 ave 82 max 82 min
Histogram: 1 0 0 0 0 0 0 0 0 0
Nghost:    185 ave 185 max 185 min
Histogram: 1 0 0 0 0 0 0 0 0 0
Neighs:    718 ave 718 max 718 min
Histogram: 1 0 0 0 0 0 0 0 0 0

Total # of neighbors = 718
Ave neighs/atom = 8.7561
Neighbor list builds = 0
Dangerous builds = 0
        # write_dump all atom ${dumpfile}
        next i
jump SELF loop1
        displace_atoms upper move ${xstep1} 0.0 0.0 units lattice
        displace_atoms upper move 0.00333333333333333 0.0 0.0 units lattice
        min_style ${style}
        min_style cg
        minimize ${etol} ${ftol} ${maxiter} ${maxeval}
        minimize 1e-12 ${ftol} ${maxiter} ${maxeval}
        minimize 1e-12 1e-08 ${maxiter} ${maxeval}
        minimize 1e-12 1e-08 10000 ${maxeval}
        minimize 1e-12 1e-08 10000 20000
WARNING: Resetting reneighboring criteria during minimization (../min.cpp:168)
Memory usage per processor = 3.35169 Mbytes
Step Temp PotEng Lx Ly Lz 
      18            0   -241.98612    2.2449075    38.890779    1.1224537 
      19            0   -241.98612    2.2449075    38.890779    1.1224537 
      20            0   -241.98612    2.2449075    38.890779    1.1224537 
Loop time of 0.00190102 on 1 procs for 2 steps with 82 atoms

Minimization stats:
  Stopping criterion = linesearch alpha is zero
  Energy initial, next-to-last, final = 
        -241.986116497     -241.986124687     -241.986124687
  Force two-norm initial, final = 0.0355695 0.0258083
  Force max component initial, final = 0.0158538 0.00976393
  Final line search alpha, max atom move = 1.52588e-05 1.48986e-07
  Iterations, force evaluations = 2 24

Pair  time (%) = 0.000379999 (19.9892)
Neigh time (%) = 0 (0)
Comm  time (%) = 0.00145368 (76.4686)
Outpt time (%) = 5.02693e-06 (0.264434)
Other time (%) = 6.23108e-05 (3.27776)

Nlocal:    82 ave 82 max 82 min
Histogram: 1 0 0 0 0 0 0 0 0 0
Nghost:    185 ave 185 max 185 min
Histogram: 1 0 0 0 0 0 0 0 0 0
Neighs:    718 ave 718 max 718 min
Histogram: 1 0 0 0 0 0 0 0 0 0

Total # of neighbors = 718
Ave neighs/atom = 8.7561
Neighbor list builds = 0
Dangerous builds = 0
        # write_dump all atom ${dumpfile}
        next i
jump SELF loop1
        displace_atoms upper move ${xstep1} 0.0 0.0 units lattice
        displace_atoms upper move 0.00333333333333333 0.0 0.0 units lattice
        min_style ${style}
        min_style cg
        minimize ${etol} ${ftol} ${maxiter} ${maxeval}
        minimize 1e-12 ${ftol} ${maxiter} ${maxeval}
        minimize 1e-12 1e-08 ${maxiter} ${maxeval}
        minimize 1e-12 1e-08 10000 ${maxeval}
        minimize 1e-12 1e-08 10000 20000
WARNING: Resetting reneighboring criteria during minimization (../min.cpp:168)
Memory usage per processor = 3.35169 Mbytes
Step Temp PotEng Lx Ly Lz 
      20            0   -241.98298    2.2449075    38.890775    1.1224537 
      21            0   -241.98298    2.2449075    38.890775    1.1224537 
Loop time of 0.000348941 on 1 procs for 1 steps with 82 atoms

Minimization stats:
  Stopping criterion = linesearch alpha is zero
  Energy initial, next-to-last, final = 
        -241.982984079     -241.982984079     -241.982984079
  Force two-norm initial, final = 0.0262448 0.0262448
  Force max component initial, final = 0.00976393 0.00976393
  Final line search alpha, max atom move = 1.52588e-05 1.48986e-07
  Iterations, force evaluations = 1 17

Pair  time (%) = 0.000285971 (81.954)
Neigh time (%) = 0 (0)
Comm  time (%) = 2.19134e-05 (6.27998)
Outpt time (%) = 0 (0)
Other time (%) = 4.10564e-05 (11.766)

Nlocal:    82 ave 82 max 82 min
Histogram: 1 0 0 0 0 0 0 0 0 0
Nghost:    185 ave 185 max 185 min
Histogram: 1 0 0 0 0 0 0 0 0 0
Neighs:    718 ave 718 max 718 min
Histogram: 1 0 0 0 0 0 0 0 0 0

Total # of neighbors = 718
Ave neighs/atom = 8.7561
Neighbor list builds = 0
Dangerous builds = 0
        # write_dump all atom ${dumpfile}
        next i
jump SELF loop1
        displace_atoms upper move ${xstep1} 0.0 0.0 units lattice
        displace_atoms upper move 0.00333333333333333 0.0 0.0 units lattice
        min_style ${style}
        min_style cg
        minimize ${etol} ${ftol} ${maxiter} ${maxeval}
        minimize 1e-12 ${ftol} ${maxiter} ${maxeval}
        minimize 1e-12 1e-08 ${maxiter} ${maxeval}
        minimize 1e-12 1e-08 10000 ${maxeval}
        minimize 1e-12 1e-08 10000 20000
WARNING: Resetting reneighboring criteria during minimization (../min.cpp:168)
Memory usage per processor = 3.35169 Mbytes
Step Temp PotEng Lx Ly Lz 
      21            0   -241.97973    2.2449075    38.890775    1.1224537 
      22            0   -241.97973    2.2449075    38.890775    1.1224537 
Loop time of 0.000357906 on 1 procs for 1 steps with 82 atoms

Minimization stats:
  Stopping criterion = linesearch alpha is zero
  Energy initial, next-to-last, final = 
         -241.97972715      -241.97972715      -241.97972715
  Force two-norm initial, final = 0.0297642 0.0297642
  Force max component initial, final = 0.0103087 0.0103087
  Final line search alpha, max atom move = 7.62939e-06 7.86493e-08
  Iterations, force evaluations = 1 18

Pair  time (%) = 0.000291856 (81.5455)
Neigh time (%) = 0 (0)
Comm  time (%) = 2.57228e-05 (7.18703)
Outpt time (%) = 0 (0)
Other time (%) = 4.0327e-05 (11.2675)

Nlocal:    82 ave 82 max 82 min
Histogram: 1 0 0 0 0 0 0 0 0 0
Nghost:    185 ave 185 max 185 min
Histogram: 1 0 0 0 0 0 0 0 0 0
Neighs:    718 ave 718 max 718 min
Histogram: 1 0 0 0 0 0 0 0 0 0

Total # of neighbors = 718
Ave neighs/atom = 8.7561
Neighbor list builds = 0
Dangerous builds = 0
        # write_dump all atom ${dumpfile}
        next i
jump SELF loop1
        displace_atoms upper move ${xstep1} 0.0 0.0 units lattice
        displace_atoms upper move 0.00333333333333333 0.0 0.0 units lattice
        min_style ${style}
        min_style cg
        minimize ${etol} ${ftol} ${maxiter} ${maxeval}
        minimize 1e-12 ${ftol} ${maxiter} ${maxeval}
        minimize 1e-12 1e-08 ${maxiter} ${maxeval}
        minimize 1e-12 1e-08 10000 ${maxeval}
        minimize 1e-12 1e-08 10000 20000
WARNING: Resetting reneighboring criteria during minimization (../min.cpp:168)
Memory usage per processor = 3.35169 Mbytes
Step Temp PotEng Lx Ly Lz 
      22            0   -241.97636    2.2449075    38.890775    1.1224537 
      23            0   -241.97636    2.2449075    38.890775    1.1224537 
      24            0   -241.97636    2.2449075    38.890775    1.1224537 
      25            0   -241.97636    2.2449075    38.890775    1.1224537 
      26            0   -241.97636    2.2449075    38.890775    1.1224537 
Loop time of 0.00123009 on 1 procs for 4 steps with 82 atoms

Minimization stats:
  Stopping criterion = linesearch alpha is zero
  Energy initial, next-to-last, final = 
        -241.976356685      -241.97635869      -241.97635869
  Force two-norm initial, final = 0.03154 0.0158858
  Force max component initial, final = 0.0115536 0.00495688
  Final line search alpha, max atom move = 3.05176e-05 1.51272e-07
  Iterations, force evaluations = 4 50

Pair  time (%) = 0.000974487 (79.2205)
Neigh time (%) = 0 (0)
Comm  time (%) = 9.23749e-05 (7.50957)
Outpt time (%) = 2.88653e-05 (2.34659)
Other time (%) = 0.000134367 (10.9233)

Nlocal:    82 ave 82 max 82 min
Histogram: 1 0 0 0 0 0 0 0 0 0
Nghost:    185 ave 185 max 185 min
Histogram: 1 0 0 0 0 0 0 0 0 0
Neighs:    718 ave 718 max 718 min
Histogram: 1 0 0 0 0 0 0 0 0 0

Total # of neighbors = 718
Ave neighs/atom = 8.7561
Neighbor list builds = 0
Dangerous builds = 0
        # write_dump all atom ${dumpfile}
        next i
jump SELF loop1
        displace_atoms upper move ${xstep1} 0.0 0.0 units lattice
        displace_atoms upper move 0.00333333333333333 0.0 0.0 units lattice
        min_style ${style}
        min_style cg
        minimize ${etol} ${ftol} ${maxiter} ${maxeval}
        minimize 1e-12 ${ftol} ${maxiter} ${maxeval}
        minimize 1e-12 1e-08 ${maxiter} ${maxeval}
        minimize 1e-12 1e-08 10000 ${maxeval}
        minimize 1e-12 1e-08 10000 20000
WARNING: Resetting reneighboring criteria during minimization (../min.cpp:168)
Memory usage per processor = 3.35169 Mbytes
Step Temp PotEng Lx Ly Lz 
      26            0   -241.97287    2.2449075    38.890775    1.1224537 
      27            0   -241.97287    2.2449075    38.890775    1.1224537 
Loop time of 0.000356915 on 1 procs for 1 steps with 82 atoms

Minimization stats:
  Stopping criterion = linesearch alpha is zero
  Energy initial, next-to-last, final = 
        -241.972870966     -241.972870966     -241.972870966
  Force two-norm initial, final = 0.0156111 0.0156111
  Force max component initial, final = 0.00495688 0.00495688
  Final line search alpha, max atom move = 3.05176e-05 1.51272e-07
  Iterations, force evaluations = 1 16

Pair  time (%) = 0.000282125 (79.0455)
Neigh time (%) = 0 (0)
Comm  time (%) = 3.10967e-05 (8.71264)
Outpt time (%) = 0 (0)
Other time (%) = 4.3693e-05 (12.2418)

Nlocal:    82 ave 82 max 82 min
Histogram: 1 0 0 0 0 0 0 0 0 0
Nghost:    185 ave 185 max 185 min
Histogram: 1 0 0 0 0 0 0 0 0 0
Neighs:    718 ave 718 max 718 min
Histogram: 1 0 0 0 0 0 0 0 0 0

Total # of neighbors = 718
Ave neighs/atom = 8.7561
Neighbor list builds = 0
Dangerous builds = 0
        # write_dump all atom ${dumpfile}
        next i
jump SELF loop1
        displace_atoms upper move ${xstep1} 0.0 0.0 units lattice
        displace_atoms upper move 0.00333333333333333 0.0 0.0 units lattice
        min_style ${style}
        min_style cg
        minimize ${etol} ${ftol} ${maxiter} ${maxeval}
        minimize 1e-12 ${ftol} ${maxiter} ${maxeval}
        minimize 1e-12 1e-08 ${maxiter} ${maxeval}
        minimize 1e-12 1e-08 10000 ${maxeval}
        minimize 1e-12 1e-08 10000 20000
WARNING: Resetting reneighboring criteria during minimization (../min.cpp:168)
Memory usage per processor = 3.35169 Mbytes
Step Temp PotEng Lx Ly Lz 
      27            0   -241.96927    2.2449075    38.890775    1.1224537 
      28            0   -241.96927    2.2449075    38.890775    1.1224537 
Loop time of 0.000320891 on 1 procs for 1 steps with 82 atoms

Minimization stats:
  Stopping criterion = linesearch alpha is zero
  Energy initial, next-to-last, final = 
        -241.969268747     -241.969268747     -241.969268747
  Force two-norm initial, final = 0.0143651 0.0143651
  Force max component initial, final = 0.00495688 0.00495688
  Final line search alpha, max atom move = 3.05176e-05 1.51272e-07
  Iterations, force evaluations = 1 16

Pair  time (%) = 0.000262161 (81.6977)
Neigh time (%) = 0 (0)
Comm  time (%) = 2.39885e-05 (7.4756)
Outpt time (%) = 0 (0)
Other time (%) = 3.47418e-05 (10.8267)

Nlocal:    82 ave 82 max 82 min
Histogram: 1 0 0 0 0 0 0 0 0 0
Nghost:    185 ave 185 max 185 min
Histogram: 1 0 0 0 0 0 0 0 0 0
Neighs:    718 ave 718 max 718 min
Histogram: 1 0 0 0 0 0 0 0 0 0

Total # of neighbors = 718
Ave neighs/atom = 8.7561
Neighbor list builds = 0
Dangerous builds = 0
        # write_dump all atom ${dumpfile}
        next i
jump SELF loop1
        displace_atoms upper move ${xstep1} 0.0 0.0 units lattice
        displace_atoms upper move 0.00333333333333333 0.0 0.0 units lattice
        min_style ${style}
        min_style cg
        minimize ${etol} ${ftol} ${maxiter} ${maxeval}
        minimize 1e-12 ${ftol} ${maxiter} ${maxeval}
        minimize 1e-12 1e-08 ${maxiter} ${maxeval}
        minimize 1e-12 1e-08 10000 ${maxeval}
        minimize 1e-12 1e-08 10000 20000
WARNING: Resetting reneighboring criteria during minimization (../min.cpp:168)
Memory usage per processor = 3.35169 Mbytes
Step Temp PotEng Lx Ly Lz 
      28            0   -241.96555    2.2449075    38.890775    1.1224537 
      29            0   -241.96555    2.2449075    38.890775    1.1224537 
Loop time of 0.000300981 on 1 procs for 1 steps with 82 atoms

Minimization stats:
  Stopping criterion = linesearch alpha is zero
  Energy initial, next-to-last, final = 
        -241.965547793     -241.965547793     -241.965547793
  Force two-norm initial, final = 0.0142947 0.0142947
  Force max component initial, final = 0.00495688 0.00495688
  Final line search alpha, max atom move = 6.10352e-05 3.02544e-07
  Iterations, force evaluations = 1 15

Pair  time (%) = 0.000240154 (79.7904)
Neigh time (%) = 0 (0)
Comm  time (%) = 1.91946e-05 (6.37733)
Outpt time (%) = 0 (0)
Other time (%) = 4.16327e-05 (13.8323)

Nlocal:    82 ave 82 max 82 min
Histogram: 1 0 0 0 0 0 0 0 0 0
Nghost:    175 ave 175 max 175 min
Histogram: 1 0 0 0 0 0 0 0 0 0
Neighs:    718 ave 718 max 718 min
Histogram: 1 0 0 0 0 0 0 0 0 0

Total # of neighbors = 718
Ave neighs/atom = 8.7561
Neighbor list builds = 0
Dangerous builds = 0
        # write_dump all atom ${dumpfile}
        next i
jump SELF loop1
        displace_atoms upper move ${xstep1} 0.0 0.0 units lattice
        displace_atoms upper move 0.00333333333333333 0.0 0.0 units lattice
        min_style ${style}
        min_style cg
        minimize ${etol} ${ftol} ${maxiter} ${maxeval}
        minimize 1e-12 ${ftol} ${maxiter} ${maxeval}
        minimize 1e-12 1e-08 ${maxiter} ${maxeval}
        minimize 1e-12 1e-08 10000 ${maxeval}
        minimize 1e-12 1e-08 10000 20000
WARNING: Resetting reneighboring criteria during minimization (../min.cpp:168)
Memory usage per processor = 3.35169 Mbytes
Step Temp PotEng Lx Ly Lz 
      29            0   -241.96171    2.2449075    38.890775    1.1224537 
      30            0   -241.96171    2.2449075    38.890775    1.1224537 
      31            0   -241.96171    2.2449075    38.890775    1.1224537 
Loop time of 0.000718013 on 1 procs for 2 steps with 82 atoms

Minimization stats:
  Stopping criterion = linesearch alpha is zero
  Energy initial, next-to-last, final = 
        -241.961709073     -241.961709633     -241.961709633
  Force two-norm initial, final = 0.0188486 0.0164297
  Force max component initial, final = 0.00633952 0.00508523
  Final line search alpha, max atom move = 3.05176e-05 1.55189e-07
  Iterations, force evaluations = 2 25

Pair  time (%) = 0.000611683 (85.1911)
Neigh time (%) = 0 (0)
Comm  time (%) = 3.79547e-05 (5.28607)
Outpt time (%) = 6.97258e-06 (0.971094)
Other time (%) = 6.14028e-05 (8.55177)

Nlocal:    82 ave 82 max 82 min
Histogram: 1 0 0 0 0 0 0 0 0 0
Nghost:    175 ave 175 max 175 min
Histogram: 1 0 0 0 0 0 0 0 0 0
Neighs:    718 ave 718 max 718 min
Histogram: 1 0 0 0 0 0 0 0 0 0

Total # of neighbors = 718
Ave neighs/atom = 8.7561
Neighbor list builds = 0
Dangerous builds = 0
        # write_dump all atom ${dumpfile}
        next i
jump SELF loop1
        displace_atoms upper move ${xstep1} 0.0 0.0 units lattice
        displace_atoms upper move 0.00333333333333333 0.0 0.0 units lattice
        min_style ${style}
        min_style cg
        minimize ${etol} ${ftol} ${maxiter} ${maxeval}
        minimize 1e-12 ${ftol} ${maxiter} ${maxeval}
        minimize 1e-12 1e-08 ${maxiter} ${maxeval}
        minimize 1e-12 1e-08 10000 ${maxeval}
        minimize 1e-12 1e-08 10000 20000
WARNING: Resetting reneighboring criteria during minimization (../min.cpp:168)
Memory usage per processor = 3.35169 Mbytes
Step Temp PotEng Lx Ly Lz 
      31            0   -241.95775    2.2449075    38.890775    1.1224537 
      32            0   -241.95775    2.2449075    38.890775    1.1224537 
      33            0   -241.95775    2.2449075    38.890775    1.1224537 
Loop time of 0.000430963 on 1 procs for 2 steps with 82 atoms

Minimization stats:
  Stopping criterion = linesearch alpha is zero
  Energy initial, next-to-last, final = 
        -241.957747193      -241.95775197      -241.95775197
  Force two-norm initial, final = 0.0254431 0.0199558
  Force max component initial, final = 0.0106596 0.0077688
  Final line search alpha, max atom move = 1.52588e-05 1.18542e-07
  Iterations, force evaluations = 2 24

Pair  time (%) = 0.000344956 (80.0431)
Neigh time (%) = 0 (0)
Comm  time (%) = 2.45243e-05 (5.69058)
Outpt time (%) = 5.97164e-06 (1.38565)
Other time (%) = 5.55108e-05 (12.8806)

Nlocal:    82 ave 82 max 82 min
Histogram: 1 0 0 0 0 0 0 0 0 0
Nghost:    175 ave 175 max 175 min
Histogram: 1 0 0 0 0 0 0 0 0 0
Neighs:    718 ave 718 max 718 min
Histogram: 1 0 0 0 0 0 0 0 0 0

Total # of neighbors = 718
Ave neighs/atom = 8.7561
Neighbor list builds = 0
Dangerous builds = 0
        # write_dump all atom ${dumpfile}
        next i
jump SELF loop1
        displace_atoms upper move ${xstep1} 0.0 0.0 units lattice
        displace_atoms upper move 0.00333333333333333 0.0 0.0 units lattice
        min_style ${style}
        min_style cg
        minimize ${etol} ${ftol} ${maxiter} ${maxeval}
        minimize 1e-12 ${ftol} ${maxiter} ${maxeval}
        minimize 1e-12 1e-08 ${maxiter} ${maxeval}
        minimize 1e-12 1e-08 10000 ${maxeval}
        minimize 1e-12 1e-08 10000 20000
WARNING: Resetting reneighboring criteria during minimization (../min.cpp:168)
Memory usage per processor = 3.35169 Mbytes
Step Temp PotEng Lx Ly Lz 
      33            0   -241.95368    2.2449075    38.890775    1.1224537 
      34            0   -241.95368    2.2449075    38.890775    1.1224537 
      35            0   -241.95368    2.2449075    38.890775    1.1224537 
      36            0   -241.95368    2.2449075    38.890775    1.1224537 
Loop time of 0.000706003 on 1 procs for 3 steps with 82 atoms

Minimization stats:
  Stopping criterion = linesearch alpha is zero
  Energy initial, next-to-last, final = 
        -241.953677408     -241.953678337     -241.953678337
  Force two-norm initial, final = 0.0190751 0.0169654
  Force max component initial, final = 0.0077688 0.00628937
  Final line search alpha, max atom move = 3.05176e-05 1.91936e-07
  Iterations, force evaluations = 3 36

Pair  time (%) = 0.000565417 (80.0871)
Neigh time (%) = 0 (0)
Comm  time (%) = 4.63064e-05 (6.55895)
Outpt time (%) = 1.49281e-05 (2.11445)
Other time (%) = 7.93515e-05 (11.2395)

Nlocal:    82 ave 82 max 82 min
Histogram: 1 0 0 0 0 0 0 0 0 0
Nghost:    175 ave 175 max 175 min
Histogram: 1 0 0 0 0 0 0 0 0 0
Neighs:    718 ave 718 max 718 min
Histogram: 1 0 0 0 0 0 0 0 0 0

Total # of neighbors = 718
Ave neighs/atom = 8.7561
Neighbor list builds = 0
Dangerous builds = 0
        # write_dump all atom ${dumpfile}
        next i
jump SELF loop1
        displace_atoms upper move ${xstep1} 0.0 0.0 units lattice
        displace_atoms upper move 0.00333333333333333 0.0 0.0 units lattice
        min_style ${style}
        min_style cg
        minimize ${etol} ${ftol} ${maxiter} ${maxeval}
        minimize 1e-12 ${ftol} ${maxiter} ${maxeval}
        minimize 1e-12 1e-08 ${maxiter} ${maxeval}
        minimize 1e-12 1e-08 10000 ${maxeval}
        minimize 1e-12 1e-08 10000 20000
WARNING: Resetting reneighboring criteria during minimization (../min.cpp:168)
Memory usage per processor = 3.35169 Mbytes
Step Temp PotEng Lx Ly Lz 
      36            0   -241.94948    2.2449075    38.890776    1.1224537 
      37            0   -241.94949    2.2449075    38.890776    1.1224537 
      38            0   -241.94949    2.2449075    38.890776    1.1224537 
Loop time of 0.000527908 on 1 procs for 2 steps with 82 atoms

Minimization stats:
  Stopping criterion = linesearch alpha is zero
  Energy initial, next-to-last, final = 
         -241.94948063     -241.949486551     -241.949486551
  Force two-norm initial, final = 0.0288637 0.021979
  Force max component initial, final = 0.012034 0.00828068
  Final line search alpha, max atom move = 1.52588e-05 1.26353e-07
  Iterations, force evaluations = 2 24

Pair  time (%) = 0.000431029 (81.6484)
Neigh time (%) = 0 (0)
Comm  time (%) = 3.28383e-05 (6.22046)
Outpt time (%) = 5.91693e-06 (1.12082)
Other time (%) = 5.81242e-05 (11.0103)

Nlocal:    82 ave 82 max 82 min
Histogram: 1 0 0 0 0 0 0 0 0 0
Nghost:    175 ave 175 max 175 min
Histogram: 1 0 0 0 0 0 0 0 0 0
Neighs:    718 ave 718 max 718 min
Histogram: 1 0 0 0 0 0 0 0 0 0

Total # of neighbors = 718
Ave neighs/atom = 8.7561
Neighbor list builds = 0
Dangerous builds = 0
        # write_dump all atom ${dumpfile}
        next i
jump SELF loop1
        displace_atoms upper move ${xstep1} 0.0 0.0 units lattice
        displace_atoms upper move 0.00333333333333333 0.0 0.0 units lattice
        min_style ${style}
        min_style cg
        minimize ${etol} ${ftol} ${maxiter} ${maxeval}
        minimize 1e-12 ${ftol} ${maxiter} ${maxeval}
        minimize 1e-12 1e-08 ${maxiter} ${maxeval}
        minimize 1e-12 1e-08 10000 ${maxeval}
        minimize 1e-12 1e-08 10000 20000
WARNING: Resetting reneighboring criteria during minimization (../min.cpp:168)
Memory usage per processor = 3.35169 Mbytes
Step Temp PotEng Lx Ly Lz 
      38            0   -241.94518    2.2449075    38.890777    1.1224537 
      39            0   -241.94518    2.2449075    38.890777    1.1224537 
Loop time of 0.000338958 on 1 procs for 1 steps with 82 atoms

Minimization stats:
  Stopping criterion = linesearch alpha is zero
  Energy initial, next-to-last, final = 
        -241.945179485     -241.945179485     -241.945179485
  Force two-norm initial, final = 0.0228425 0.0228425
  Force max component initial, final = 0.00828068 0.00828068
  Final line search alpha, max atom move = 1.52588e-05 1.26353e-07
  Iterations, force evaluations = 1 17

Pair  time (%) = 0.000278927 (82.2894)
Neigh time (%) = 0 (0)
Comm  time (%) = 2.11163e-05 (6.22978)
Outpt time (%) = 0 (0)
Other time (%) = 3.89152e-05 (11.4808)

Nlocal:    82 ave 82 max 82 min
Histogram: 1 0 0 0 0 0 0 0 0 0
Nghost:    175 ave 175 max 175 min
Histogram: 1 0 0 0 0 0 0 0 0 0
Neighs:    718 ave 718 max 718 min
Histogram: 1 0 0 0 0 0 0 0 0 0

Total # of neighbors = 718
Ave neighs/atom = 8.7561
Neighbor list builds = 0
Dangerous builds = 0
        # write_dump all atom ${dumpfile}
        next i
jump SELF loop1
        displace_atoms upper move ${xstep1} 0.0 0.0 units lattice
        displace_atoms upper move 0.00333333333333333 0.0 0.0 units lattice
        min_style ${style}
        min_style cg
        minimize ${etol} ${ftol} ${maxiter} ${maxeval}
        minimize 1e-12 ${ftol} ${maxiter} ${maxeval}
        minimize 1e-12 1e-08 ${maxiter} ${maxeval}
        minimize 1e-12 1e-08 10000 ${maxeval}
        minimize 1e-12 1e-08 10000 20000
WARNING: Resetting reneighboring criteria during minimization (../min.cpp:168)
Memory usage per processor = 3.35169 Mbytes
Step Temp PotEng Lx Ly Lz 
      39            0   -241.94075    2.2449075    38.890777    1.1224537 
      40            0   -241.94076    2.2449075    38.890777    1.1224537 
      41            0   -241.94076    2.2449075    38.890777    1.1224537 
Loop time of 0.0130371 on 1 procs for 2 steps with 82 atoms

Minimization stats:
  Stopping criterion = linesearch alpha is zero
  Energy initial, next-to-last, final = 
        -241.940745575     -241.940763387     -241.940763387
  Force two-norm initial, final = 0.0404297 0.0306774
  Force max component initial, final = 0.0176231 0.0114332
  Final line search alpha, max atom move = 7.62939e-06 8.72288e-08
  Iterations, force evaluations = 2 25

Pair  time (%) = 0.00218635 (16.7703)
Neigh time (%) = 0 (0)
Comm  time (%) = 0.000170016 (1.3041)
Outpt time (%) = 4.80042e-05 (0.368213)
Other time (%) = 0.0106327 (81.5574)

Nlocal:    82 ave 82 max 82 min
Histogram: 1 0 0 0 0 0 0 0 0 0
Nghost:    175 ave 175 max 175 min
Histogram: 1 0 0 0 0 0 0 0 0 0
Neighs:    718 ave 718 max 718 min
Histogram: 1 0 0 0 0 0 0 0 0 0

Total # of neighbors = 718
Ave neighs/atom = 8.7561
Neighbor list builds = 0
Dangerous builds = 0
        # write_dump all atom ${dumpfile}
        next i
jump SELF loop1
        displace_atoms upper move ${xstep1} 0.0 0.0 units lattice
        displace_atoms upper move 0.00333333333333333 0.0 0.0 units lattice
        min_style ${style}
        min_style cg
        minimize ${etol} ${ftol} ${maxiter} ${maxeval}
        minimize 1e-12 ${ftol} ${maxiter} ${maxeval}
        minimize 1e-12 1e-08 ${maxiter} ${maxeval}
        minimize 1e-12 1e-08 10000 ${maxeval}
        minimize 1e-12 1e-08 10000 20000
WARNING: Resetting reneighboring criteria during minimization (../min.cpp:168)
Memory usage per processor = 3.35169 Mbytes
Step Temp PotEng Lx Ly Lz 
      41            0   -241.93623    2.2449075    38.890778    1.1224537 
      42            0   -241.93623    2.2449075    38.890778    1.1224537 
Loop time of 0.00371698 on 1 procs for 1 steps with 82 atoms

Minimization stats:
  Stopping criterion = linesearch alpha is zero
  Energy initial, next-to-last, final = 
        -241.936225257     -241.936225257     -241.936225257
  Force two-norm initial, final = 0.0286526 0.0286526
  Force max component initial, final = 0.0114332 0.0114332
  Final line search alpha, max atom move = 7.62939e-06 8.72288e-08
  Iterations, force evaluations = 1 18

Pair  time (%) = 0.00172924 (46.5226)
Neigh time (%) = 0 (0)
Comm  time (%) = 0.00011897 (3.20073)
Outpt time (%) = 0 (0)
Other time (%) = 0.00186877 (50.2766)

Nlocal:    82 ave 82 max 82 min
Histogram: 1 0 0 0 0 0 0 0 0 0
Nghost:    175 ave 175 max 175 min
Histogram: 1 0 0 0 0 0 0 0 0 0
Neighs:    718 ave 718 max 718 min
Histogram: 1 0 0 0 0 0 0 0 0 0

Total # of neighbors = 718
Ave neighs/atom = 8.7561
Neighbor list builds = 0
Dangerous builds = 0
        # write_dump all atom ${dumpfile}
        next i
jump SELF loop1
        displace_atoms upper move ${xstep1} 0.0 0.0 units lattice
        displace_atoms upper move 0.00333333333333333 0.0 0.0 units lattice
        min_style ${style}
        min_style cg
        minimize ${etol} ${ftol} ${maxiter} ${maxeval}
        minimize 1e-12 ${ftol} ${maxiter} ${maxeval}
        minimize 1e-12 1e-08 ${maxiter} ${maxeval}
        minimize 1e-12 1e-08 10000 ${maxeval}
        minimize 1e-12 1e-08 10000 20000
WARNING: Resetting reneighboring criteria during minimization (../min.cpp:168)
Memory usage per processor = 3.35169 Mbytes
Step Temp PotEng Lx Ly Lz 
      42            0   -241.93157    2.2449075    38.890778    1.1224537 
      43            0   -241.93158    2.2449075    38.890778    1.1224537 
      44            0    -241.9316    2.2449075    38.890778    1.1224537 
      45            0    -241.9316    2.2449075    38.890778    1.1224537 
Loop time of 0.00126492 on 1 procs for 3 steps with 82 atoms

Minimization stats:
  Stopping criterion = linesearch alpha is zero
  Energy initial, next-to-last, final = 
        -241.931567658     -241.931595399     -241.931595399
  Force two-norm initial, final = 0.0480962 0.0228045
  Force max component initial, final = 0.0200718 0.009499
  Final line search alpha, max atom move = 1.52588e-05 1.44943e-07
  Iterations, force evaluations = 3 31

Pair  time (%) = 0.00101597 (80.3189)
Neigh time (%) = 0 (0)
Comm  time (%) = 7.92271e-05 (6.26339)
Outpt time (%) = 2.89918e-05 (2.29198)
Other time (%) = 0.000140732 (11.1257)

Nlocal:    82 ave 82 max 82 min
Histogram: 1 0 0 0 0 0 0 0 0 0
Nghost:    175 ave 175 max 175 min
Histogram: 1 0 0 0 0 0 0 0 0 0
Neighs:    718 ave 718 max 718 min
Histogram: 1 0 0 0 0 0 0 0 0 0

Total # of neighbors = 718
Ave neighs/atom = 8.7561
Neighbor list builds = 0
Dangerous builds = 0
        # write_dump all atom ${dumpfile}
        next i
jump SELF loop1
        displace_atoms upper move ${xstep1} 0.0 0.0 units lattice
        displace_atoms upper move 0.00333333333333333 0.0 0.0 units lattice
        min_style ${style}
        min_style cg
        minimize ${etol} ${ftol} ${maxiter} ${maxeval}
        minimize 1e-12 ${ftol} ${maxiter} ${maxeval}
        minimize 1e-12 1e-08 ${maxiter} ${maxeval}
        minimize 1e-12 1e-08 10000 ${maxeval}
        minimize 1e-12 1e-08 10000 20000
WARNING: Resetting reneighboring criteria during minimization (../min.cpp:168)
Memory usage per processor = 3.35169 Mbytes
Step Temp PotEng Lx Ly Lz 
      45            0   -241.92684    2.2449075    38.890782    1.1224537 
      46            0   -241.92685    2.2449075    38.890782    1.1224537 
      47            0   -241.92685    2.2449075    38.890782    1.1224537 
      48            0   -241.92685    2.2449075    38.890782    1.1224537 
Loop time of 0.00139096 on 1 procs for 3 steps with 82 atoms

Minimization stats:
  Stopping criterion = linesearch alpha is zero
  Energy initial, next-to-last, final = 
        -241.926840573     -241.926847257     -241.926847257
  Force two-norm initial, final = 0.0379557 0.021513
  Force max component initial, final = 0.0151832 0.00644354
  Final line search alpha, max atom move = 1.52588e-05 9.83206e-08
  Iterations, force evaluations = 3 39

Pair  time (%) = 0.00111608 (80.2377)
Neigh time (%) = 0 (0)
Comm  time (%) = 8.06333e-05 (5.79695)
Outpt time (%) = 2.9109e-05 (2.09272)
Other time (%) = 0.000165144 (11.8726)

Nlocal:    82 ave 82 max 82 min
Histogram: 1 0 0 0 0 0 0 0 0 0
Nghost:    175 ave 175 max 175 min
Histogram: 1 0 0 0 0 0 0 0 0 0
Neighs:    718 ave 718 max 718 min
Histogram: 1 0 0 0 0 0 0 0 0 0

Total # of neighbors = 718
Ave neighs/atom = 8.7561
Neighbor list builds = 0
Dangerous builds = 0
        # write_dump all atom ${dumpfile}
        next i
jump SELF loop1
        displace_atoms upper move ${xstep1} 0.0 0.0 units lattice
        displace_atoms upper move 0.00333333333333333 0.0 0.0 units lattice
        min_style ${style}
        min_style cg
        minimize ${etol} ${ftol} ${maxiter} ${maxeval}
        minimize 1e-12 ${ftol} ${maxiter} ${maxeval}
        minimize 1e-12 1e-08 ${maxiter} ${maxeval}
        minimize 1e-12 1e-08 10000 ${maxeval}
        minimize 1e-12 1e-08 10000 20000
WARNING: Resetting reneighboring criteria during minimization (../min.cpp:168)
Memory usage per processor = 3.35169 Mbytes
Step Temp PotEng Lx Ly Lz 
      48            0   -241.92198    2.2449075    38.890783    1.1224537 
      49            0   -241.92199    2.2449075    38.890783    1.1224537 
      50            0   -241.92199    2.2449075    38.890783    1.1224537 
Loop time of 0.00124194 on 1 procs for 2 steps with 82 atoms

Minimization stats:
  Stopping criterion = linesearch alpha is zero
  Energy initial, next-to-last, final = 
        -241.921982494     -241.921987517     -241.921987517
  Force two-norm initial, final = 0.0431683 0.0327936
  Force max component initial, final = 0.0187875 0.0115547
  Final line search alpha, max atom move = 7.62939e-06 8.81551e-08
  Iterations, force evaluations = 2 27

Pair  time (%) = 0.000890744 (71.7219)
Neigh time (%) = 0 (0)
Comm  time (%) = 6.75924e-05 (5.44247)
Outpt time (%) = 7.80363e-05 (6.28341)
Other time (%) = 0.00020557 (16.5523)

Nlocal:    82 ave 82 max 82 min
Histogram: 1 0 0 0 0 0 0 0 0 0
Nghost:    175 ave 175 max 175 min
Histogram: 1 0 0 0 0 0 0 0 0 0
Neighs:    718 ave 718 max 718 min
Histogram: 1 0 0 0 0 0 0 0 0 0

Total # of neighbors = 718
Ave neighs/atom = 8.7561
Neighbor list builds = 0
Dangerous builds = 0
        # write_dump all atom ${dumpfile}
        next i
jump SELF loop1
        displace_atoms upper move ${xstep1} 0.0 0.0 units lattice
        displace_atoms upper move 0.00333333333333333 0.0 0.0 units lattice
        min_style ${style}
        min_style cg
        minimize ${etol} ${ftol} ${maxiter} ${maxeval}
        minimize 1e-12 ${ftol} ${maxiter} ${maxeval}
        minimize 1e-12 1e-08 ${maxiter} ${maxeval}
        minimize 1e-12 1e-08 10000 ${maxeval}
        minimize 1e-12 1e-08 10000 20000
WARNING: Resetting reneighboring criteria during minimization (../min.cpp:168)
Memory usage per processor = 3.35169 Mbytes
Step Temp PotEng Lx Ly Lz 
      50            0   -241.91701    2.2449075    38.890784    1.1224537 
      51            0   -241.91702    2.2449075    38.890784    1.1224537 
      52            0   -241.91705    2.2449075    38.890784    1.1224537 
      53            0   -241.91707    2.2449075    38.890784    1.1224537 
      54            0   -241.91707    2.2449075    38.890784    1.1224537 
Loop time of 0.00170188 on 1 procs for 4 steps with 82 atoms

Minimization stats:
  Stopping criterion = linesearch alpha is zero
  Energy initial, next-to-last, final = 
        -241.917005889     -241.917065214     -241.917065214
  Force two-norm initial, final = 0.0643955 0.0470582
  Force max component initial, final = 0.0300225 0.012694
  Final line search alpha, max atom move = 7.62939e-06 9.68477e-08
  Iterations, force evaluations = 4 38

Pair  time (%) = 0.00116169 (68.2589)
Neigh time (%) = 0 (0)
Comm  time (%) = 9.09481e-05 (5.34396)
Outpt time (%) = 0.000206111 (12.1108)
Other time (%) = 0.000243138 (14.2864)

Nlocal:    82 ave 82 max 82 min
Histogram: 1 0 0 0 0 0 0 0 0 0
Nghost:    175 ave 175 max 175 min
Histogram: 1 0 0 0 0 0 0 0 0 0
Neighs:    718 ave 718 max 718 min
Histogram: 1 0 0 0 0 0 0 0 0 0

Total # of neighbors = 718
Ave neighs/atom = 8.7561
Neighbor list builds = 0
Dangerous builds = 0
        # write_dump all atom ${dumpfile}
        next i
jump SELF loop1
        displace_atoms upper move ${xstep1} 0.0 0.0 units lattice
        displace_atoms upper move 0.00333333333333333 0.0 0.0 units lattice
        min_style ${style}
        min_style cg
        minimize ${etol} ${ftol} ${maxiter} ${maxeval}
        minimize 1e-12 ${ftol} ${maxiter} ${maxeval}
        minimize 1e-12 1e-08 ${maxiter} ${maxeval}
        minimize 1e-12 1e-08 10000 ${maxeval}
        minimize 1e-12 1e-08 10000 20000
WARNING: Resetting reneighboring criteria during minimization (../min.cpp:168)
Memory usage per processor = 3.35169 Mbytes
Step Temp PotEng Lx Ly Lz 
      54            0   -241.91203    2.2449075    38.890794    1.1224537 
      55            0   -241.91205    2.2449075    38.890794    1.1224537 
      56            0   -241.91206    2.2449075    38.890794    1.1224537 
      57            0   -241.91207    2.2449075    38.890794    1.1224537 
      58            0   -241.91208    2.2449075    38.890794    1.1224537 
      59            0   -241.91208    2.2449075    38.890794    1.1224537 
Loop time of 0.00274708 on 1 procs for 5 steps with 82 atoms

Minimization stats:
  Stopping criterion = linesearch alpha is zero
  Energy initial, next-to-last, final = 
        -241.912032629     -241.912079306     -241.912079306
  Force two-norm initial, final = 0.0640264 0.0183425
  Force max component initial, final = 0.023383 0.00498789
  Final line search alpha, max atom move = 1.52588e-05 7.61091e-08
  Iterations, force evaluations = 5 44

Pair  time (%) = 0.00202599 (73.7508)
Neigh time (%) = 0 (0)
Comm  time (%) = 0.000104032 (3.78701)
Outpt time (%) = 0.000321782 (11.7136)
Other time (%) = 0.000295271 (10.7485)

Nlocal:    82 ave 82 max 82 min
Histogram: 1 0 0 0 0 0 0 0 0 0
Nghost:    175 ave 175 max 175 min
Histogram: 1 0 0 0 0 0 0 0 0 0
Neighs:    714 ave 714 max 714 min
Histogram: 1 0 0 0 0 0 0 0 0 0

Total # of neighbors = 714
Ave neighs/atom = 8.70732
Neighbor list builds = 0
Dangerous builds = 0
        # write_dump all atom ${dumpfile}
        next i
jump SELF loop1
        displace_atoms upper move ${xstep1} 0.0 0.0 units lattice
        displace_atoms upper move 0.00333333333333333 0.0 0.0 units lattice
        min_style ${style}
        min_style cg
        minimize ${etol} ${ftol} ${maxiter} ${maxeval}
        minimize 1e-12 ${ftol} ${maxiter} ${maxeval}
        minimize 1e-12 1e-08 ${maxiter} ${maxeval}
        minimize 1e-12 1e-08 10000 ${maxeval}
        minimize 1e-12 1e-08 10000 20000
WARNING: Resetting reneighboring criteria during minimization (../min.cpp:168)
Memory usage per processor = 3.35169 Mbytes
Step Temp PotEng Lx Ly Lz 
      59            0   -241.90709    2.2449075    38.890809    1.1224537 
      60            0   -241.90712    2.2449075    38.890809    1.1224537 
      61            0   -241.90713    2.2449075    38.890809    1.1224537 
      62            0   -241.90714    2.2449075    38.890809    1.1224537 
      63            0   -241.90714    2.2449075    38.890809    1.1224537 
      64            0   -241.90715    2.2449075    38.890809    1.1224537 
      65            0   -241.90715    2.2449075    38.890809    1.1224537 
Loop time of 0.00276502 on 1 procs for 6 steps with 82 atoms

Minimization stats:
  Stopping criterion = linesearch alpha is zero
  Energy initial, next-to-last, final = 
        -241.907093005     -241.907150593     -241.907150593
  Force two-norm initial, final = 0.0722619 0.0247549
  Force max component initial, final = 0.0350069 0.00837127
  Final line search alpha, max atom move = 1.52588e-05 1.27735e-07
  Iterations, force evaluations = 6 51

Pair  time (%) = 0.00212373 (76.8072)
Neigh time (%) = 0 (0)
Comm  time (%) = 0.000211778 (7.65919)
Outpt time (%) = 0.00010296 (3.72366)
Other time (%) = 0.000326547 (11.81)

Nlocal:    82 ave 82 max 82 min
Histogram: 1 0 0 0 0 0 0 0 0 0
Nghost:    175 ave 175 max 175 min
Histogram: 1 0 0 0 0 0 0 0 0 0
Neighs:    714 ave 714 max 714 min
Histogram: 1 0 0 0 0 0 0 0 0 0

Total # of neighbors = 714
Ave neighs/atom = 8.70732
Neighbor list builds = 0
Dangerous builds = 0
        # write_dump all atom ${dumpfile}
        next i
jump SELF loop1
        displace_atoms upper move ${xstep1} 0.0 0.0 units lattice
        displace_atoms upper move 0.00333333333333333 0.0 0.0 units lattice
        min_style ${style}
        min_style cg
        minimize ${etol} ${ftol} ${maxiter} ${maxeval}
        minimize 1e-12 ${ftol} ${maxiter} ${maxeval}
        minimize 1e-12 1e-08 ${maxiter} ${maxeval}
        minimize 1e-12 1e-08 10000 ${maxeval}
        minimize 1e-12 1e-08 10000 20000
WARNING: Resetting reneighboring criteria during minimization (../min.cpp:168)
Memory usage per processor = 3.35169 Mbytes
Step Temp PotEng Lx Ly Lz 
      65            0   -241.90222    2.2449075    38.890822    1.1224537 
      66            0   -241.90224    2.2449075    38.890822    1.1224537 
      67            0   -241.90225    2.2449075    38.890822    1.1224537 
      68            0   -241.90227    2.2449075    38.890822    1.1224537 
      69            0   -241.90228    2.2449075    38.890822    1.1224537 
      70            0   -241.90228    2.2449075    38.890822    1.1224537 
Loop time of 0.00104992 on 1 procs for 5 steps with 82 atoms

Minimization stats:
  Stopping criterion = linesearch alpha is zero
  Energy initial, next-to-last, final = 
         -241.90221815     -241.902282248     -241.902282248
  Force two-norm initial, final = 0.0722002 0.0164559
  Force max component initial, final = 0.0340569 0.00576072
  Final line search alpha, max atom move = 3.05176e-05 1.75803e-07
  Iterations, force evaluations = 5 44

Pair  time (%) = 0.000841115 (80.1123)
Neigh time (%) = 0 (0)
Comm  time (%) = 6.59202e-05 (6.27859)
Outpt time (%) = 2.8093e-05 (2.67573)
Other time (%) = 0.000114792 (10.9334)

Nlocal:    82 ave 82 max 82 min
Histogram: 1 0 0 0 0 0 0 0 0 0
Nghost:    175 ave 175 max 175 min
Histogram: 1 0 0 0 0 0 0 0 0 0
Neighs:    714 ave 714 max 714 min
Histogram: 1 0 0 0 0 0 0 0 0 0

Total # of neighbors = 714
Ave neighs/atom = 8.70732
Neighbor list builds = 0
Dangerous builds = 0
        # write_dump all atom ${dumpfile}
        next i
jump SELF loop1
        displace_atoms upper move ${xstep1} 0.0 0.0 units lattice
        displace_atoms upper move 0.00333333333333333 0.0 0.0 units lattice
        min_style ${style}
        min_style cg
        minimize ${etol} ${ftol} ${maxiter} ${maxeval}
        minimize 1e-12 ${ftol} ${maxiter} ${maxeval}
        minimize 1e-12 1e-08 ${maxiter} ${maxeval}
        minimize 1e-12 1e-08 10000 ${maxeval}
        minimize 1e-12 1e-08 10000 20000
WARNING: Resetting reneighboring criteria during minimization (../min.cpp:168)
Memory usage per processor = 3.35169 Mbytes
Step Temp PotEng Lx Ly Lz 
      70            0    -241.8974    2.2449075    38.890832    1.1224537 
      71            0   -241.89742    2.2449075    38.890832    1.1224537 
      72            0   -241.89743    2.2449075    38.890832    1.1224537 
      73            0   -241.89744    2.2449075    38.890832    1.1224537 
      74            0   -241.89747    2.2449075    38.890832    1.1224537 
      75            0   -241.89748    2.2449075    38.890832    1.1224537 
      76            0   -241.89748    2.2449075    38.890832    1.1224537 
Loop time of 0.00111706 on 1 procs for 6 steps with 82 atoms

Minimization stats:
  Stopping criterion = linesearch alpha is zero
  Energy initial, next-to-last, final = 
         -241.89740148     -241.897480886     -241.897480886
  Force two-norm initial, final = 0.0795756 0.0355816
  Force max component initial, final = 0.0389614 0.0115691
  Final line search alpha, max atom move = 7.62939e-06 8.82654e-08
  Iterations, force evaluations = 6 51

Pair  time (%) = 0.00086804 (77.7077)
Neigh time (%) = 0 (0)
Comm  time (%) = 6.86354e-05 (6.14431)
Outpt time (%) = 5.91718e-05 (5.29711)
Other time (%) = 0.000121211 (10.8509)

Nlocal:    82 ave 82 max 82 min
Histogram: 1 0 0 0 0 0 0 0 0 0
Nghost:    175 ave 175 max 175 min
Histogram: 1 0 0 0 0 0 0 0 0 0
Neighs:    714 ave 714 max 714 min
Histogram: 1 0 0 0 0 0 0 0 0 0

Total # of neighbors = 714
Ave neighs/atom = 8.70732
Neighbor list builds = 0
Dangerous builds = 0
        # write_dump all atom ${dumpfile}
        next i
jump SELF loop1
        displace_atoms upper move ${xstep1} 0.0 0.0 units lattice
        displace_atoms upper move 0.00333333333333333 0.0 0.0 units lattice
        min_style ${style}
        min_style cg
        minimize ${etol} ${ftol} ${maxiter} ${maxeval}
        minimize 1e-12 ${ftol} ${maxiter} ${maxeval}
        minimize 1e-12 1e-08 ${maxiter} ${maxeval}
        minimize 1e-12 1e-08 10000 ${maxeval}
        minimize 1e-12 1e-08 10000 20000
WARNING: Resetting reneighboring criteria during minimization (../min.cpp:168)
Memory usage per processor = 3.35169 Mbytes
Step Temp PotEng Lx Ly Lz 
      76            0   -241.89269    2.2449075    38.890881    1.1224537 
      77            0   -241.89271    2.2449075    38.890881    1.1224537 
      78            0   -241.89272    2.2449075    38.890881    1.1224537 
      79            0   -241.89273    2.2449075    38.890881    1.1224537 
      80            0   -241.89274    2.2449075    38.890881    1.1224537 
      81            0   -241.89275    2.2449075    38.890881    1.1224537 
      82            0   -241.89275    2.2449075    38.890881    1.1224537 
      83            0   -241.89275    2.2449075    38.890881    1.1224537 
Loop time of 0.00123007 on 1 procs for 7 steps with 82 atoms

Minimization stats:
  Stopping criterion = linesearch alpha is zero
  Energy initial, next-to-last, final = 
        -241.892688223     -241.892750247     -241.892750247
  Force two-norm initial, final = 0.0689286 0.0291864
  Force max component initial, final = 0.0303165 0.00807157
  Final line search alpha, max atom move = 7.62939e-06 6.15812e-08
  Iterations, force evaluations = 7 62

Pair  time (%) = 0.000972022 (79.0215)
Neigh time (%) = 0 (0)
Comm  time (%) = 7.96155e-05 (6.47242)
Outpt time (%) = 3.39297e-05 (2.75835)
Other time (%) = 0.000144506 (11.7477)

Nlocal:    82 ave 82 max 82 min
Histogram: 1 0 0 0 0 0 0 0 0 0
Nghost:    175 ave 175 max 175 min
Histogram: 1 0 0 0 0 0 0 0 0 0
Neighs:    714 ave 714 max 714 min
Histogram: 1 0 0 0 0 0 0 0 0 0

Total # of neighbors = 714
Ave neighs/atom = 8.70732
Neighbor list builds = 0
Dangerous builds = 0
        # write_dump all atom ${dumpfile}
        next i
jump SELF loop1
        displace_atoms upper move ${xstep1} 0.0 0.0 units lattice
        displace_atoms upper move 0.00333333333333333 0.0 0.0 units lattice
        min_style ${style}
        min_style cg
        minimize ${etol} ${ftol} ${maxiter} ${maxeval}
        minimize 1e-12 ${ftol} ${maxiter} ${maxeval}
        minimize 1e-12 1e-08 ${maxiter} ${maxeval}
        minimize 1e-12 1e-08 10000 ${maxeval}
        minimize 1e-12 1e-08 10000 20000
WARNING: Resetting reneighboring criteria during minimization (../min.cpp:168)
Memory usage per processor = 3.35169 Mbytes
Step Temp PotEng Lx Ly Lz 
      83            0   -241.88803    2.2449075    38.891028    1.1224537 
      84            0   -241.88805    2.2449075    38.891028    1.1224537 
      85            0   -241.88805    2.2449075    38.891028    1.1224537 
      86            0   -241.88805    2.2449075    38.891028    1.1224537 
      87            0   -241.88806    2.2449075    38.891028    1.1224537 
      88            0   -241.88807    2.2449075    38.891028    1.1224537 
      89            0   -241.88807    2.2449075    38.891028    1.1224537 
      90            0   -241.88807    2.2449075    38.891028    1.1224537 
Loop time of 0.00100503 on 1 procs for 7 steps with 82 atoms

Minimization stats:
  Stopping criterion = linesearch alpha is zero
  Energy initial, next-to-last, final = 
        -241.888026284     -241.888074479     -241.888074479
  Force two-norm initial, final = 0.0691412 0.0173234
  Force max component initial, final = 0.0318047 0.00442389
  Final line search alpha, max atom move = 1.52588e-05 6.75032e-08
  Iterations, force evaluations = 7 59

Pair  time (%) = 0.000793175 (78.9208)
Neigh time (%) = 0 (0)
Comm  time (%) = 6.35304e-05 (6.32127)
Outpt time (%) = 2.69798e-05 (2.68449)
Other time (%) = 0.000121341 (12.0734)

Nlocal:    82 ave 82 max 82 min
Histogram: 1 0 0 0 0 0 0 0 0 0
Nghost:    175 ave 175 max 175 min
Histogram: 1 0 0 0 0 0 0 0 0 0
Neighs:    714 ave 714 max 714 min
Histogram: 1 0 0 0 0 0 0 0 0 0

Total # of neighbors = 714
Ave neighs/atom = 8.70732
Neighbor list builds = 0
Dangerous builds = 0
        # write_dump all atom ${dumpfile}
        next i
jump SELF loop1
        displace_atoms upper move ${xstep1} 0.0 0.0 units lattice
        displace_atoms upper move 0.00333333333333333 0.0 0.0 units lattice
        min_style ${style}
        min_style cg
        minimize ${etol} ${ftol} ${maxiter} ${maxeval}
        minimize 1e-12 ${ftol} ${maxiter} ${maxeval}
        minimize 1e-12 1e-08 ${maxiter} ${maxeval}
        minimize 1e-12 1e-08 10000 ${maxeval}
        minimize 1e-12 1e-08 10000 20000
WARNING: Resetting reneighboring criteria during minimization (../min.cpp:168)
Memory usage per processor = 3.35169 Mbytes
Step Temp PotEng Lx Ly Lz 
      90            0   -241.88339    2.2449075    38.891246    1.1224537 
      91            0   -241.88341    2.2449075    38.891246    1.1224537 
      92            0   -241.88342    2.2449075    38.891246    1.1224537 
      93            0   -241.88343    2.2449075    38.891246    1.1224537 
      94            0   -241.88344    2.2449075    38.891246    1.1224537 
      95            0   -241.88346    2.2449075    38.891246    1.1224537 
      96            0   -241.88346    2.2449075    38.891246    1.1224537 
      97            0   -241.88346    2.2449075    38.891246    1.1224537 
Loop time of 0.00115295 on 1 procs for 7 steps with 82 atoms

Minimization stats:
  Stopping criterion = linesearch alpha is zero
  Energy initial, next-to-last, final = 
        -241.883394303     -241.883463806     -241.883463806
  Force two-norm initial, final = 0.0689517 0.0124144
  Force max component initial, final = 0.0335893 0.00370304
  Final line search alpha, max atom move = 3.05176e-05 1.13008e-07
  Iterations, force evaluations = 7 57

Pair  time (%) = 0.000919982 (79.7934)
Neigh time (%) = 0 (0)
Comm  time (%) = 6.89811e-05 (5.98298)
Outpt time (%) = 3.50149e-05 (3.03697)
Other time (%) = 0.000128977 (11.1866)

Nlocal:    82 ave 82 max 82 min
Histogram: 1 0 0 0 0 0 0 0 0 0
Nghost:    175 ave 175 max 175 min
Histogram: 1 0 0 0 0 0 0 0 0 0
Neighs:    714 ave 714 max 714 min
Histogram: 1 0 0 0 0 0 0 0 0 0

Total # of neighbors = 714
Ave neighs/atom = 8.70732
Neighbor list builds = 0
Dangerous builds = 0
        # write_dump all atom ${dumpfile}
        next i
jump SELF loop1
        displace_atoms upper move ${xstep1} 0.0 0.0 units lattice
        displace_atoms upper move 0.00333333333333333 0.0 0.0 units lattice
        min_style ${style}
        min_style cg
        minimize ${etol} ${ftol} ${maxiter} ${maxeval}
        minimize 1e-12 ${ftol} ${maxiter} ${maxeval}
        minimize 1e-12 1e-08 ${maxiter} ${maxeval}
        minimize 1e-12 1e-08 10000 ${maxeval}
        minimize 1e-12 1e-08 10000 20000
WARNING: Resetting reneighboring criteria during minimization (../min.cpp:168)
Memory usage per processor = 3.35169 Mbytes
Step Temp PotEng Lx Ly Lz 
      97            0   -241.87884    2.2449075    38.891507    1.1224537 
      98            0   -241.87886    2.2449075    38.891507    1.1224537 
      99            0   -241.87886    2.2449075    38.891507    1.1224537 
     100            0   -241.87887    2.2449075    38.891507    1.1224537 
     101            0   -241.87888    2.2449075    38.891507    1.1224537 
     102            0    -241.8789    2.2449075    38.891507    1.1224537 
     103            0   -241.87891    2.2449075    38.891507    1.1224537 
     104            0   -241.87893    2.2449075    38.891507    1.1224537 
     105            0   -241.87893    2.2449075    38.891507    1.1224537 
     106            0   -241.87893    2.2449075    38.891507    1.1224537 
Loop time of 0.00115093 on 1 procs for 9 steps with 82 atoms

Minimization stats:
  Stopping criterion = linesearch alpha is zero
  Energy initial, next-to-last, final = 
        -241.878835964     -241.878932447     -241.878932447
  Force two-norm initial, final = 0.0770447 0.0168121
  Force max component initial, final = 0.0380234 0.00365156
  Final line search alpha, max atom move = 3.05176e-05 1.11437e-07
  Iterations, force evaluations = 9 70

Pair  time (%) = 0.000907805 (78.8757)
Neigh time (%) = 0 (0)
Comm  time (%) = 7.40796e-05 (6.43649)
Outpt time (%) = 4.10472e-05 (3.56644)
Other time (%) = 0.000127999 (11.1213)

Nlocal:    82 ave 82 max 82 min
Histogram: 1 0 0 0 0 0 0 0 0 0
Nghost:    175 ave 175 max 175 min
Histogram: 1 0 0 0 0 0 0 0 0 0
Neighs:    714 ave 714 max 714 min
Histogram: 1 0 0 0 0 0 0 0 0 0

Total # of neighbors = 714
Ave neighs/atom = 8.70732
Neighbor list builds = 0
Dangerous builds = 0
        # write_dump all atom ${dumpfile}
        next i
jump SELF loop1
        displace_atoms upper move ${xstep1} 0.0 0.0 units lattice
        displace_atoms upper move 0.00333333333333333 0.0 0.0 units lattice
        min_style ${style}
        min_style cg
        minimize ${etol} ${ftol} ${maxiter} ${maxeval}
        minimize 1e-12 ${ftol} ${maxiter} ${maxeval}
        minimize 1e-12 1e-08 ${maxiter} ${maxeval}
        minimize 1e-12 1e-08 10000 ${maxeval}
        minimize 1e-12 1e-08 10000 20000
WARNING: Resetting reneighboring criteria during minimization (../min.cpp:168)
Memory usage per processor = 3.35169 Mbytes
Step Temp PotEng Lx Ly Lz 
     106            0   -241.87439    2.2449075    38.892388    1.1224537 
     107            0   -241.87442    2.2449075    38.892388    1.1224537 
     108            0   -241.87443    2.2449075    38.892388    1.1224537 
     109            0   -241.87443    2.2449075    38.892388    1.1224537 
     110            0   -241.87444    2.2449075    38.892388    1.1224537 
     111            0   -241.87444    2.2449075    38.892388    1.1224537 
     112            0   -241.87444    2.2449075    38.892388    1.1224537 
     113            0   -241.87444    2.2449075    38.892388    1.1224537 
     114            0   -241.87444    2.2449075    38.892388    1.1224537 
     115            0   -241.87444    2.2449075    38.892388    1.1224537 
Loop time of 0.00178105 on 1 procs for 9 steps with 82 atoms

Minimization stats:
  Stopping criterion = linesearch alpha is zero
  Energy initial, next-to-last, final = 
        -241.874393931     -241.874443564     -241.874443564
  Force two-norm initial, final = 0.0699656 0.0116833
  Force max component initial, final = 0.0341149 0.00178905
  Final line search alpha, max atom move = 6.10352e-05 1.09195e-07
  Iterations, force evaluations = 9 73

Pair  time (%) = 0.0014766 (82.9064)
Neigh time (%) = 0 (0)
Comm  time (%) = 9.10632e-05 (5.11291)
Outpt time (%) = 5.00383e-05 (2.80949)
Other time (%) = 0.000163342 (9.17115)

Nlocal:    82 ave 82 max 82 min
Histogram: 1 0 0 0 0 0 0 0 0 0
Nghost:    175 ave 175 max 175 min
Histogram: 1 0 0 0 0 0 0 0 0 0
Neighs:    714 ave 714 max 714 min
Histogram: 1 0 0 0 0 0 0 0 0 0

Total # of neighbors = 714
Ave neighs/atom = 8.70732
Neighbor list builds = 0
Dangerous builds = 0
        # write_dump all atom ${dumpfile}
        next i
jump SELF loop1
        displace_atoms upper move ${xstep1} 0.0 0.0 units lattice
        displace_atoms upper move 0.00333333333333333 0.0 0.0 units lattice
        min_style ${style}
        min_style cg
        minimize ${etol} ${ftol} ${maxiter} ${maxeval}
        minimize 1e-12 ${ftol} ${maxiter} ${maxeval}
        minimize 1e-12 1e-08 ${maxiter} ${maxeval}
        minimize 1e-12 1e-08 10000 ${maxeval}
        minimize 1e-12 1e-08 10000 20000
WARNING: Resetting reneighboring criteria during minimization (../min.cpp:168)
Memory usage per processor = 3.35169 Mbytes
Step Temp PotEng Lx Ly Lz 
     115            0   -241.86995    2.2449075    38.892686    1.1224537 
     116            0   -241.86997    2.2449075    38.892686    1.1224537 
     117            0   -241.86997    2.2449075    38.892686    1.1224537 
     118            0   -241.86998    2.2449075    38.892686    1.1224537 
     119            0   -241.86999    2.2449075    38.892686    1.1224537 
     120            0      -241.87    2.2449075    38.892686    1.1224537 
     121            0   -241.87002    2.2449075    38.892686    1.1224537 
     122            0   -241.87004    2.2449075    38.892686    1.1224537 
     123            0   -241.87005    2.2449075    38.892686    1.1224537 
     124            0   -241.87005    2.2449075    38.892686    1.1224537 
Loop time of 0.00137989 on 1 procs for 9 steps with 82 atoms

Minimization stats:
  Stopping criterion = linesearch alpha is zero
  Energy initial, next-to-last, final = 
        -241.869947618      -241.87004701      -241.87004701
  Force two-norm initial, final = 0.0740172 0.0174679
  Force max component initial, final = 0.0365622 0.00453122
  Final line search alpha, max atom move = 3.05176e-05 1.38282e-07
  Iterations, force evaluations = 9 69

Pair  time (%) = 0.00108687 (78.7648)
Neigh time (%) = 0 (0)
Comm  time (%) = 8.47299e-05 (6.14035)
Outpt time (%) = 4.89349e-05 (3.5463)
Other time (%) = 0.000159357 (11.5486)

Nlocal:    82 ave 82 max 82 min
Histogram: 1 0 0 0 0 0 0 0 0 0
Nghost:    175 ave 175 max 175 min
Histogram: 1 0 0 0 0 0 0 0 0 0
Neighs:    714 ave 714 max 714 min
Histogram: 1 0 0 0 0 0 0 0 0 0

Total # of neighbors = 714
Ave neighs/atom = 8.70732
Neighbor list builds = 0
Dangerous builds = 0
        # write_dump all atom ${dumpfile}
        next i
jump SELF loop1
        displace_atoms upper move ${xstep1} 0.0 0.0 units lattice
        displace_atoms upper move 0.00333333333333333 0.0 0.0 units lattice
        min_style ${style}
        min_style cg
        minimize ${etol} ${ftol} ${maxiter} ${maxeval}
        minimize 1e-12 ${ftol} ${maxiter} ${maxeval}
        minimize 1e-12 1e-08 ${maxiter} ${maxeval}
        minimize 1e-12 1e-08 10000 ${maxeval}
        minimize 1e-12 1e-08 10000 20000
WARNING: Resetting reneighboring criteria during minimization (../min.cpp:168)
Memory usage per processor = 3.35169 Mbytes
Step Temp PotEng Lx Ly Lz 
     124            0   -241.86562    2.2449075    38.893896    1.1224537 
     125            0   -241.86564    2.2449075    38.893896    1.1224537 
     126            0   -241.86566    2.2449075    38.893896    1.1224537 
     127            0   -241.86566    2.2449075    38.893896    1.1224537 
     128            0   -241.86567    2.2449075    38.893896    1.1224537 
     129            0   -241.86568    2.2449075    38.893896    1.1224537 
     130            0   -241.86569    2.2449075    38.893896    1.1224537 
     131            0   -241.86569    2.2449075    38.893896    1.1224537 
     132            0    -241.8657    2.2449075    38.893896    1.1224537 
     133            0    -241.8657    2.2449075    38.893896    1.1224537 
     134            0    -241.8657    2.2449075    38.893896    1.1224537 
Loop time of 0.00160507 on 1 procs for 10 steps with 82 atoms

Minimization stats:
  Stopping criterion = linesearch alpha is zero
  Energy initial, next-to-last, final = 
        -241.865617906     -241.865700272     -241.865700272
  Force two-norm initial, final = 0.0775242 0.0137428
  Force max component initial, final = 0.0377775 0.00287871
  Final line search alpha, max atom move = 3.05176e-05 8.78513e-08
  Iterations, force evaluations = 10 76

Pair  time (%) = 0.00128171 (79.8539)
Neigh time (%) = 0 (0)
Comm  time (%) = 9.81669e-05 (6.11606)
Outpt time (%) = 5.47979e-05 (3.41405)
Other time (%) = 0.000170393 (10.616)

Nlocal:    82 ave 82 max 82 min
Histogram: 1 0 0 0 0 0 0 0 0 0
Nghost:    175 ave 175 max 175 min
Histogram: 1 0 0 0 0 0 0 0 0 0
Neighs:    714 ave 714 max 714 min
Histogram: 1 0 0 0 0 0 0 0 0 0

Total # of neighbors = 714
Ave neighs/atom = 8.70732
Neighbor list builds = 0
Dangerous builds = 0
        # write_dump all atom ${dumpfile}
        next i
jump SELF loop1
        displace_atoms upper move ${xstep1} 0.0 0.0 units lattice
        displace_atoms upper move 0.00333333333333333 0.0 0.0 units lattice
        min_style ${style}
        min_style cg
        minimize ${etol} ${ftol} ${maxiter} ${maxeval}
        minimize 1e-12 ${ftol} ${maxiter} ${maxeval}
        minimize 1e-12 1e-08 ${maxiter} ${maxeval}
        minimize 1e-12 1e-08 10000 ${maxeval}
        minimize 1e-12 1e-08 10000 20000
WARNING: Resetting reneighboring criteria during minimization (../min.cpp:168)
Memory usage per processor = 3.35169 Mbytes
Step Temp PotEng Lx Ly Lz 
     134            0   -241.86134    2.2449075    38.894953    1.1224537 
     135            0   -241.86136    2.2449075    38.894953    1.1224537 
     136            0   -241.86136    2.2449075    38.894953    1.1224537 
     137            0   -241.86137    2.2449075    38.894953    1.1224537 
     138            0   -241.86138    2.2449075    38.894953    1.1224537 
     139            0   -241.86139    2.2449075    38.894953    1.1224537 
     140            0    -241.8614    2.2449075    38.894953    1.1224537 
     141            0   -241.86141    2.2449075    38.894953    1.1224537 
     142            0   -241.86141    2.2449075    38.894953    1.1224537 
Loop time of 0.00135803 on 1 procs for 8 steps with 82 atoms

Minimization stats:
  Stopping criterion = linesearch alpha is zero
  Energy initial, next-to-last, final = 
        -241.861338518     -241.861412453     -241.861412453
  Force two-norm initial, final = 0.0727137 0.0167122
  Force max component initial, final = 0.0357592 0.00457311
  Final line search alpha, max atom move = 3.05176e-05 1.3956e-07
  Iterations, force evaluations = 8 64

Pair  time (%) = 0.00107096 (78.8613)
Neigh time (%) = 0 (0)
Comm  time (%) = 8.5613e-05 (6.30421)
Outpt time (%) = 4.49646e-05 (3.31102)
Other time (%) = 0.000156492 (11.5235)

Nlocal:    82 ave 82 max 82 min
Histogram: 1 0 0 0 0 0 0 0 0 0
Nghost:    175 ave 175 max 175 min
Histogram: 1 0 0 0 0 0 0 0 0 0
Neighs:    714 ave 714 max 714 min
Histogram: 1 0 0 0 0 0 0 0 0 0

Total # of neighbors = 714
Ave neighs/atom = 8.70732
Neighbor list builds = 0
Dangerous builds = 0
        # write_dump all atom ${dumpfile}
        next i
jump SELF loop1
        displace_atoms upper move ${xstep1} 0.0 0.0 units lattice
        displace_atoms upper move 0.00333333333333333 0.0 0.0 units lattice
        min_style ${style}
        min_style cg
        minimize ${etol} ${ftol} ${maxiter} ${maxeval}
        minimize 1e-12 ${ftol} ${maxiter} ${maxeval}
        minimize 1e-12 1e-08 ${maxiter} ${maxeval}
        minimize 1e-12 1e-08 10000 ${maxeval}
        minimize 1e-12 1e-08 10000 20000
WARNING: Resetting reneighboring criteria during minimization (../min.cpp:168)
Memory usage per processor = 3.35169 Mbytes
Step Temp PotEng Lx Ly Lz 
     142            0   -241.85711    2.2449075    38.895801    1.1224537 
     143            0   -241.85713    2.2449075    38.895801    1.1224537 
     144            0   -241.85714    2.2449075    38.895801    1.1224537 
     145            0   -241.85714    2.2449075    38.895801    1.1224537 
     146            0   -241.85715    2.2449075    38.895801    1.1224537 
     147            0   -241.85717    2.2449075    38.895801    1.1224537 
     148            0   -241.85718    2.2449075    38.895801    1.1224537 
     149            0   -241.85719    2.2449075    38.895801    1.1224537 
     150            0   -241.85721    2.2449075    38.895801    1.1224537 
     151            0   -241.85723    2.2449075    38.895801    1.1224537 
     152            0   -241.85727    2.2449075    38.895801    1.1224537 
[...]
Other time (%) = 7.13223e-05 (17.1474)

Nlocal:    82 ave 82 max 82 min
Histogram: 1 0 0 0 0 0 0 0 0 0
Nghost:    185 ave 185 max 185 min
Histogram: 1 0 0 0 0 0 0 0 0 0
Neighs:    718 ave 718 max 718 min
Histogram: 1 0 0 0 0 0 0 0 0 0

Total # of neighbors = 718
Ave neighs/atom = 8.7561
Neighbor list builds = 0
Dangerous builds = 0
        # write_dump all atom ${dumpfile}
        next i
jump SELF loop1
        displace_atoms upper move ${xstep1} 0.0 0.0 units lattice
        displace_atoms upper move 0.00333333333333333 0.0 0.0 units lattice
        min_style ${style}
        min_style cg
        minimize ${etol} ${ftol} ${maxiter} ${maxeval}
        minimize 1e-12 ${ftol} ${maxiter} ${maxeval}
        minimize 1e-12 1e-08 ${maxiter} ${maxeval}
        minimize 1e-12 1e-08 10000 ${maxeval}
        minimize 1e-12 1e-08 10000 20000
WARNING: Resetting reneighboring criteria during minimization (../min.cpp:168)
Memory usage per processor = 3.35169 Mbytes
Step Temp PotEng Lx Ly Lz 
    1260            0   -241.98274    2.2449075    38.905717    1.1224537 
    1261            0   -241.98274    2.2449075    38.905717    1.1224537 
Loop time of 0.000384036 on 1 procs for 1 steps with 82 atoms

Minimization stats:
  Stopping criterion = linesearch alpha is zero
  Energy initial, next-to-last, final = 
        -241.982741936     -241.982741936     -241.982741936
  Force two-norm initial, final = 0.040545 0.040545
  Force max component initial, final = 0.0148031 0.0148031
  Final line search alpha, max atom move = 3.8147e-06 5.64693e-08
  Iterations, force evaluations = 1 19

Pair  time (%) = 0.000315948 (82.2704)
Neigh time (%) = 0 (0)
Comm  time (%) = 2.50186e-05 (6.51464)
Outpt time (%) = 0 (0)
Other time (%) = 4.30697e-05 (11.215)

Nlocal:    82 ave 82 max 82 min
Histogram: 1 0 0 0 0 0 0 0 0 0
Nghost:    185 ave 185 max 185 min
Histogram: 1 0 0 0 0 0 0 0 0 0
Neighs:    718 ave 718 max 718 min
Histogram: 1 0 0 0 0 0 0 0 0 0

Total # of neighbors = 718
Ave neighs/atom = 8.7561
Neighbor list builds = 0
Dangerous builds = 0
        # write_dump all atom ${dumpfile}
        next i
jump SELF loop1
        displace_atoms upper move ${xstep1} 0.0 0.0 units lattice
        displace_atoms upper move 0.00333333333333333 0.0 0.0 units lattice
        min_style ${style}
        min_style cg
        minimize ${etol} ${ftol} ${maxiter} ${maxeval}
        minimize 1e-12 ${ftol} ${maxiter} ${maxeval}
        minimize 1e-12 1e-08 ${maxiter} ${maxeval}
        minimize 1e-12 1e-08 10000 ${maxeval}
        minimize 1e-12 1e-08 10000 20000
WARNING: Resetting reneighboring criteria during minimization (../min.cpp:168)
Memory usage per processor = 3.35169 Mbytes
Step Temp PotEng Lx Ly Lz 
    1261            0   -241.98588    2.2449075    38.905717    1.1224537 
    1262            0   -241.98588    2.2449075    38.905717    1.1224537 
Loop time of 0.000388004 on 1 procs for 1 steps with 82 atoms

Minimization stats:
  Stopping criterion = linesearch alpha is zero
  Energy initial, next-to-last, final = 
        -241.985882057     -241.985882057     -241.985882057
  Force two-norm initial, final = 0.0408823 0.0408823
  Force max component initial, final = 0.0148031 0.0148031
  Final line search alpha, max atom move = 3.8147e-06 5.64693e-08
  Iterations, force evaluations = 1 19

Pair  time (%) = 0.000322005 (82.9902)
Neigh time (%) = 0 (0)
Comm  time (%) = 2.46484e-05 (6.35262)
Outpt time (%) = 0 (0)
Other time (%) = 4.13504e-05 (10.6572)

Nlocal:    82 ave 82 max 82 min
Histogram: 1 0 0 0 0 0 0 0 0 0
Nghost:    185 ave 185 max 185 min
Histogram: 1 0 0 0 0 0 0 0 0 0
Neighs:    718 ave 718 max 718 min
Histogram: 1 0 0 0 0 0 0 0 0 0

Total # of neighbors = 718
Ave neighs/atom = 8.7561
Neighbor list builds = 0
Dangerous builds = 0
        # write_dump all atom ${dumpfile}
        next i
jump SELF loop1
        displace_atoms upper move ${xstep1} 0.0 0.0 units lattice
        displace_atoms upper move 0.00333333333333333 0.0 0.0 units lattice
        min_style ${style}
        min_style cg
        minimize ${etol} ${ftol} ${maxiter} ${maxeval}
        minimize 1e-12 ${ftol} ${maxiter} ${maxeval}
        minimize 1e-12 1e-08 ${maxiter} ${maxeval}
        minimize 1e-12 1e-08 10000 ${maxeval}
        minimize 1e-12 1e-08 10000 20000
WARNING: Resetting reneighboring criteria during minimization (../min.cpp:168)
Memory usage per processor = 3.35169 Mbytes
Step Temp PotEng Lx Ly Lz 
    1262            0   -241.98874    2.2449075    38.905717    1.1224537 
    1263            0   -241.98874    2.2449075    38.905717    1.1224537 
Loop time of 0.000425117 on 1 procs for 1 steps with 82 atoms

Minimization stats:
  Stopping criterion = linesearch alpha is zero
  Energy initial, next-to-last, final = 
        -241.988739045     -241.988739045     -241.988739045
  Force two-norm initial, final = 0.0506649 0.0506649
  Force max component initial, final = 0.0153866 0.0153866
  Final line search alpha, max atom move = 3.8147e-06 5.86953e-08
  Iterations, force evaluations = 1 19

Pair  time (%) = 0.000356779 (83.925)
Neigh time (%) = 0 (0)
Comm  time (%) = 2.59583e-05 (6.10615)
Outpt time (%) = 0 (0)
Other time (%) = 4.23795e-05 (9.96889)

Nlocal:    82 ave 82 max 82 min
Histogram: 1 0 0 0 0 0 0 0 0 0
Nghost:    185 ave 185 max 185 min
Histogram: 1 0 0 0 0 0 0 0 0 0
Neighs:    718 ave 718 max 718 min
Histogram: 1 0 0 0 0 0 0 0 0 0

Total # of neighbors = 718
Ave neighs/atom = 8.7561
Neighbor list builds = 0
Dangerous builds = 0
        # write_dump all atom ${dumpfile}
        next i
jump SELF loop1
        displace_atoms upper move ${xstep1} 0.0 0.0 units lattice
        displace_atoms upper move 0.00333333333333333 0.0 0.0 units lattice
        min_style ${style}
        min_style cg
        minimize ${etol} ${ftol} ${maxiter} ${maxeval}
        minimize 1e-12 ${ftol} ${maxiter} ${maxeval}
        minimize 1e-12 1e-08 ${maxiter} ${maxeval}
        minimize 1e-12 1e-08 10000 ${maxeval}
        minimize 1e-12 1e-08 10000 20000
WARNING: Resetting reneighboring criteria during minimization (../min.cpp:168)
Memory usage per processor = 3.35169 Mbytes
Step Temp PotEng Lx Ly Lz 
    1263            0   -241.99126    2.2449075    38.905717    1.1224537 
    1264            0   -241.99127    2.2449075    38.905717    1.1224537 
    1265            0   -241.99127    2.2449075    38.905717    1.1224537 
    1266            0   -241.99127    2.2449075    38.905717    1.1224537 
Loop time of 0.00156199 on 1 procs for 3 steps with 82 atoms

Minimization stats:
  Stopping criterion = linesearch alpha is zero
  Energy initial, next-to-last, final = 
        -241.991263202     -241.991273567     -241.991273567
  Force two-norm initial, final = 0.0655516 0.0347891
  Force max component initial, final = 0.0258812 0.0119036
  Final line search alpha, max atom move = 7.62939e-06 9.08173e-08
  Iterations, force evaluations = 3 39

Pair  time (%) = 0.00112141 (71.7935)
Neigh time (%) = 0 (0)
Comm  time (%) = 0.000203194 (13.0087)
Outpt time (%) = 1.59434e-05 (1.02071)
Other time (%) = 0.000221446 (14.1772)

Nlocal:    82 ave 82 max 82 min
Histogram: 1 0 0 0 0 0 0 0 0 0
Nghost:    185 ave 185 max 185 min
Histogram: 1 0 0 0 0 0 0 0 0 0
Neighs:    718 ave 718 max 718 min
Histogram: 1 0 0 0 0 0 0 0 0 0

Total # of neighbors = 718
Ave neighs/atom = 8.7561
Neighbor list builds = 0
Dangerous builds = 0
        # write_dump all atom ${dumpfile}
        next i
jump SELF loop1
        displace_atoms upper move ${xstep1} 0.0 0.0 units lattice
        displace_atoms upper move 0.00333333333333333 0.0 0.0 units lattice
        min_style ${style}
        min_style cg
        minimize ${etol} ${ftol} ${maxiter} ${maxeval}
        minimize 1e-12 ${ftol} ${maxiter} ${maxeval}
        minimize 1e-12 1e-08 ${maxiter} ${maxeval}
        minimize 1e-12 1e-08 10000 ${maxeval}
        minimize 1e-12 1e-08 10000 20000
WARNING: Resetting reneighboring criteria during minimization (../min.cpp:168)
Memory usage per processor = 3.35169 Mbytes
Step Temp PotEng Lx Ly Lz 
    1266            0   -241.99347    2.2449075    38.905701    1.1224537 
    1267            0   -241.99348    2.2449075    38.905701    1.1224537 
    1268            0   -241.99348    2.2449075    38.905701    1.1224537 
    1269            0   -241.99349    2.2449075    38.905701    1.1224537 
    1270            0    -241.9935    2.2449075    38.905701    1.1224537 
    1271            0    -241.9935    2.2449075    38.905701    1.1224537 
Loop time of 0.0010111 on 1 procs for 5 steps with 82 atoms

Minimization stats:
  Stopping criterion = linesearch alpha is zero
  Energy initial, next-to-last, final = 
        -241.993465156     -241.993495334     -241.993495334
  Force two-norm initial, final = 0.0490706 0.0382982
  Force max component initial, final = 0.0210142 0.0113602
  Final line search alpha, max atom move = 7.62939e-06 8.66714e-08
  Iterations, force evaluations = 5 48

Pair  time (%) = 0.000774671 (76.6163)
Neigh time (%) = 0 (0)
Comm  time (%) = 6.41186e-05 (6.34145)
Outpt time (%) = 2.09996e-05 (2.07689)
Other time (%) = 0.000151316 (14.9654)

Nlocal:    82 ave 82 max 82 min
Histogram: 1 0 0 0 0 0 0 0 0 0
Nghost:    185 ave 185 max 185 min
Histogram: 1 0 0 0 0 0 0 0 0 0
Neighs:    718 ave 718 max 718 min
Histogram: 1 0 0 0 0 0 0 0 0 0

Total # of neighbors = 718
Ave neighs/atom = 8.7561
Neighbor list builds = 0
Dangerous builds = 0
        # write_dump all atom ${dumpfile}
        next i
jump SELF loop1
        displace_atoms upper move ${xstep1} 0.0 0.0 units lattice
        displace_atoms upper move 0.00333333333333333 0.0 0.0 units lattice
        min_style ${style}
        min_style cg
        minimize ${etol} ${ftol} ${maxiter} ${maxeval}
        minimize 1e-12 ${ftol} ${maxiter} ${maxeval}
        minimize 1e-12 1e-08 ${maxiter} ${maxeval}
        minimize 1e-12 1e-08 10000 ${maxeval}
        minimize 1e-12 1e-08 10000 20000
WARNING: Resetting reneighboring criteria during minimization (../min.cpp:168)
Memory usage per processor = 3.35169 Mbytes
Step Temp PotEng Lx Ly Lz 
    1271            0   -241.99536    2.2449075    38.905146    1.1224537 
    1272            0   -241.99536    2.2449075    38.905146    1.1224537 
Loop time of 0.000364966 on 1 procs for 1 steps with 82 atoms

Minimization stats:
  Stopping criterion = linesearch alpha is zero
  Energy initial, next-to-last, final = 
         -241.99536001      -241.99536001      -241.99536001
  Force two-norm initial, final = 0.0383269 0.0383269
  Force max component initial, final = 0.0113602 0.0113602
  Final line search alpha, max atom move = 7.62939e-06 8.66714e-08
  Iterations, force evaluations = 1 18

Pair  time (%) = 0.000302883 (82.9892)
Neigh time (%) = 0 (0)
Comm  time (%) = 2.2855e-05 (6.26222)
Outpt time (%) = 0 (0)
Other time (%) = 3.92287e-05 (10.7486)

Nlocal:    82 ave 82 max 82 min
Histogram: 1 0 0 0 0 0 0 0 0 0
Nghost:    185 ave 185 max 185 min
Histogram: 1 0 0 0 0 0 0 0 0 0
Neighs:    718 ave 718 max 718 min
Histogram: 1 0 0 0 0 0 0 0 0 0

Total # of neighbors = 718
Ave neighs/atom = 8.7561
Neighbor list builds = 0
Dangerous builds = 0
        # write_dump all atom ${dumpfile}
        next i
jump SELF loop1
        displace_atoms upper move ${xstep1} 0.0 0.0 units lattice
        displace_atoms upper move 0.00333333333333333 0.0 0.0 units lattice
        min_style ${style}
        min_style cg
        minimize ${etol} ${ftol} ${maxiter} ${maxeval}
        minimize 1e-12 ${ftol} ${maxiter} ${maxeval}
        minimize 1e-12 1e-08 ${maxiter} ${maxeval}
        minimize 1e-12 1e-08 10000 ${maxeval}
        minimize 1e-12 1e-08 10000 20000
WARNING: Resetting reneighboring criteria during minimization (../min.cpp:168)
Memory usage per processor = 3.35169 Mbytes
Step Temp PotEng Lx Ly Lz 
    1272            0   -241.99689    2.2449075    38.905146    1.1224537 
    1273            0   -241.99689    2.2449075    38.905146    1.1224537 
    1274            0   -241.99689    2.2449075    38.905146    1.1224537 
Loop time of 0.000697113 on 1 procs for 2 steps with 82 atoms

Minimization stats:
  Stopping criterion = linesearch alpha is zero
  Energy initial, next-to-last, final = 
        -241.996887112      -241.99689306      -241.99689306
  Force two-norm initial, final = 0.0427675 0.020442
  Force max component initial, final = 0.0113602 0.00541666
  Final line search alpha, max atom move = 1.52588e-05 8.26516e-08
  Iterations, force evaluations = 2 25

Pair  time (%) = 0.000576387 (82.682)
Neigh time (%) = 0 (0)
Comm  time (%) = 4.59017e-05 (6.58455)
Outpt time (%) = 1.60239e-05 (2.29861)
Other time (%) = 5.88001e-05 (8.43481)

Nlocal:    82 ave 82 max 82 min
Histogram: 1 0 0 0 0 0 0 0 0 0
Nghost:    185 ave 185 max 185 min
Histogram: 1 0 0 0 0 0 0 0 0 0
Neighs:    718 ave 718 max 718 min
Histogram: 1 0 0 0 0 0 0 0 0 0

Total # of neighbors = 718
Ave neighs/atom = 8.7561
Neighbor list builds = 0
Dangerous builds = 0
        # write_dump all atom ${dumpfile}
        next i
jump SELF loop1
        displace_atoms upper move ${xstep1} 0.0 0.0 units lattice
        displace_atoms upper move 0.00333333333333333 0.0 0.0 units lattice
        min_style ${style}
        min_style cg
        minimize ${etol} ${ftol} ${maxiter} ${maxeval}
        minimize 1e-12 ${ftol} ${maxiter} ${maxeval}
        minimize 1e-12 1e-08 ${maxiter} ${maxeval}
        minimize 1e-12 1e-08 10000 ${maxeval}
        minimize 1e-12 1e-08 10000 20000
WARNING: Resetting reneighboring criteria during minimization (../min.cpp:168)
Memory usage per processor = 3.35169 Mbytes
Step Temp PotEng Lx Ly Lz 
    1274            0   -241.99808    2.2449075    38.905127    1.1224537 
    1275            0   -241.99808    2.2449075    38.905127    1.1224537 
Loop time of 0.000346892 on 1 procs for 1 steps with 82 atoms

Minimization stats:
  Stopping criterion = linesearch alpha is zero
  Energy initial, next-to-last, final = 
        -241.998083699     -241.998083699     -241.998083699
  Force two-norm initial, final = 0.0230306 0.0230306
  Force max component initial, final = 0.00541666 0.00541666
  Final line search alpha, max atom move = 1.52588e-05 8.26516e-08
  Iterations, force evaluations = 1 17

Pair  time (%) = 0.000285087 (82.1832)
Neigh time (%) = 0 (0)
Comm  time (%) = 2.41455e-05 (6.96052)
Outpt time (%) = 0 (0)
Other time (%) = 3.76594e-05 (10.8562)

Nlocal:    82 ave 82 max 82 min
Histogram: 1 0 0 0 0 0 0 0 0 0
Nghost:    185 ave 185 max 185 min
Histogram: 1 0 0 0 0 0 0 0 0 0
Neighs:    718 ave 718 max 718 min
Histogram: 1 0 0 0 0 0 0 0 0 0

Total # of neighbors = 718
Ave neighs/atom = 8.7561
Neighbor list builds = 0
Dangerous builds = 0
        # write_dump all atom ${dumpfile}
        next i
jump SELF loop1
        displace_atoms upper move ${xstep1} 0.0 0.0 units lattice
        displace_atoms upper move 0.00333333333333333 0.0 0.0 units lattice
        min_style ${style}
        min_style cg
        minimize ${etol} ${ftol} ${maxiter} ${maxeval}
        minimize 1e-12 ${ftol} ${maxiter} ${maxeval}
        minimize 1e-12 1e-08 ${maxiter} ${maxeval}
        minimize 1e-12 1e-08 10000 ${maxeval}
        minimize 1e-12 1e-08 10000 20000
WARNING: Resetting reneighboring criteria during minimization (../min.cpp:168)
Memory usage per processor = 3.35169 Mbytes
Step Temp PotEng Lx Ly Lz 
    1275            0   -241.99893    2.2449075    38.905127    1.1224537 
    1276            0   -241.99894    2.2449075    38.905127    1.1224537 
    1277            0   -241.99894    2.2449075    38.905127    1.1224537 
Loop time of 0.000467894 on 1 procs for 2 steps with 82 atoms

Minimization stats:
  Stopping criterion = linesearch alpha is zero
  Energy initial, next-to-last, final = 
        -241.998932518     -241.998939676     -241.998939676
  Force two-norm initial, final = 0.0270237 0.0179096
  Force max component initial, final = 0.00887016 0.00557868
  Final line search alpha, max atom move = 3.05176e-05 1.70248e-07
  Iterations, force evaluations = 2 23

Pair  time (%) = 0.00038065 (81.354)
Neigh time (%) = 0 (0)
Comm  time (%) = 3.03416e-05 (6.48471)
Outpt time (%) = 6.04149e-06 (1.29121)
Other time (%) = 5.08603e-05 (10.8701)

Nlocal:    82 ave 82 max 82 min
Histogram: 1 0 0 0 0 0 0 0 0 0
Nghost:    185 ave 185 max 185 min
Histogram: 1 0 0 0 0 0 0 0 0 0
Neighs:    718 ave 718 max 718 min
Histogram: 1 0 0 0 0 0 0 0 0 0

Total # of neighbors = 718
Ave neighs/atom = 8.7561
Neighbor list builds = 0
Dangerous builds = 0
        # write_dump all atom ${dumpfile}
        next i
jump SELF loop1
        displace_atoms upper move ${xstep1} 0.0 0.0 units lattice
        displace_atoms upper move 0.00333333333333333 0.0 0.0 units lattice
        min_style ${style}
        min_style cg
        minimize ${etol} ${ftol} ${maxiter} ${maxeval}
        minimize 1e-12 ${ftol} ${maxiter} ${maxeval}
        minimize 1e-12 1e-08 ${maxiter} ${maxeval}
        minimize 1e-12 1e-08 10000 ${maxeval}
        minimize 1e-12 1e-08 10000 20000
WARNING: Resetting reneighboring criteria during minimization (../min.cpp:168)
Memory usage per processor = 3.35169 Mbytes
Step Temp PotEng Lx Ly Lz 
    1277            0   -241.99945    2.2449075     38.90509    1.1224537 
    1278            0   -241.99945    2.2449075     38.90509    1.1224537 
Loop time of 0.000376956 on 1 procs for 1 steps with 82 atoms

Minimization stats:
  Stopping criterion = linesearch alpha is zero
  Energy initial, next-to-last, final = 
        -241.999452582     -241.999452582     -241.999452582
  Force two-norm initial, final = 0.0165911 0.0165911
  Force max component initial, final = 0.00557868 0.00557868
  Final line search alpha, max atom move = 3.05176e-05 1.70248e-07
  Iterations, force evaluations = 1 16

Pair  time (%) = 0.000274297 (72.7662)
Neigh time (%) = 0 (0)
Comm  time (%) = 2.30082e-05 (6.10369)
Outpt time (%) = 0 (0)
Other time (%) = 7.96511e-05 (21.1301)

Nlocal:    82 ave 82 max 82 min
Histogram: 1 0 0 0 0 0 0 0 0 0
Nghost:    185 ave 185 max 185 min
Histogram: 1 0 0 0 0 0 0 0 0 0
Neighs:    718 ave 718 max 718 min
Histogram: 1 0 0 0 0 0 0 0 0 0

Total # of neighbors = 718
Ave neighs/atom = 8.7561
Neighbor list builds = 0
Dangerous builds = 0
        # write_dump all atom ${dumpfile}
        next i
jump SELF loop1
        displace_atoms upper move ${xstep1} 0.0 0.0 units lattice
        displace_atoms upper move 0.00333333333333333 0.0 0.0 units lattice
        min_style ${style}
        min_style cg
        minimize ${etol} ${ftol} ${maxiter} ${maxeval}
        minimize 1e-12 ${ftol} ${maxiter} ${maxeval}
        minimize 1e-12 1e-08 ${maxiter} ${maxeval}
        minimize 1e-12 1e-08 10000 ${maxeval}
        minimize 1e-12 1e-08 10000 20000
WARNING: Resetting reneighboring criteria during minimization (../min.cpp:168)
Memory usage per processor = 3.35169 Mbytes
Step Temp PotEng Lx Ly Lz 
    1278            0   -241.99962    2.2449075     38.90509    1.1224537 
    1279            0   -241.99962    2.2449075     38.90509    1.1224537 
Loop time of 0.000348991 on 1 procs for 1 steps with 82 atoms

Minimization stats:
  Stopping criterion = linesearch alpha is zero
  Energy initial, next-to-last, final = 
        -241.999624235     -241.999624235     -241.999624235
  Force two-norm initial, final = 0.0163763 0.0163763
  Force max component initial, final = 0.00557868 0.00557868
  Final line search alpha, max atom move = 3.05176e-05 1.70248e-07
  Iterations, force evaluations = 1 16

Pair  time (%) = 0.000285065 (81.6825)
Neigh time (%) = 0 (0)
Comm  time (%) = 1.81472e-05 (5.19989)
Outpt time (%) = 0 (0)
Other time (%) = 4.57794e-05 (13.1176)

Nlocal:    82 ave 82 max 82 min
Histogram: 1 0 0 0 0 0 0 0 0 0
Nghost:    185 ave 185 max 185 min
Histogram: 1 0 0 0 0 0 0 0 0 0
Neighs:    718 ave 718 max 718 min
Histogram: 1 0 0 0 0 0 0 0 0 0

Total # of neighbors = 718
Ave neighs/atom = 8.7561
Neighbor list builds = 0
Dangerous builds = 0
        # write_dump all atom ${dumpfile}
        next i
jump SELF loop1


