LAMMPS (28 Jun 2014)
# attempt at getting generalized stacking fault (GSF) energy curve

#file prefix
variable prefix string gsf_V_inter1new
variable dumpfile string ${prefix}.*.dump
variable dumpfile string gsf_V_inter1new.*.dump
variable restartfile string ${prefix}.*.equil
variable restartfile string gsf_V_inter1new.*.equil

#Mass (g/mol)
variable m equal 1

# lattice constant (in Angstroms) and orientation of axes (given by lattice vectors)
variable rho equal 0.9165
variable x1 equal 1
variable x2 equal 0
variable x3 equal 0
variable y1 equal 0
variable y2 equal 1
variable y3 equal 0
# length of lattice in different directions (using orientation of lattice vectors)
variable ax equal sqrt(${x1}*${x1}+${x2}*${x2}+${x3}*${x3})
variable ax equal sqrt(1*${x1}+${x2}*${x2}+${x3}*${x3})
variable ax equal sqrt(1*1+${x2}*${x2}+${x3}*${x3})
variable ax equal sqrt(1*1+0*${x2}+${x3}*${x3})
variable ax equal sqrt(1*1+0*0+${x3}*${x3})
variable ax equal sqrt(1*1+0*0+0*${x3})
variable ax equal sqrt(1*1+0*0+0*0)
variable ay equal sqrt(${y1}*${y1}+${y2}*${y2}+${y3}*${y3})
variable ay equal sqrt(0*${y1}+${y2}*${y2}+${y3}*${y3})
variable ay equal sqrt(0*0+${y2}*${y2}+${y3}*${y3})
variable ay equal sqrt(0*0+1*${y2}+${y3}*${y3})
variable ay equal sqrt(0*0+1*1+${y3}*${y3})
variable ay equal sqrt(0*0+1*1+0*${y3})
variable ay equal sqrt(0*0+1*1+0*0)
variable az equal 1

# size of box in lattice units
variable lxpos equal 1
variable lxneg equal -1*${lxpos}
variable lxneg equal -1*1
variable lypos equal 10
variable lyneg equal -1*${lypos}
variable lyneg equal -1*10
variable lzpos equal 0
variable lzneg equal -1

# Define minimization parameters and damping
variable etol equal 1.0e-12
variable ftol equal 1.0e-8
variable maxiter equal 10000
variable maxeval equal 20000
variable style string cg

# boundary conditions
dimension	2
boundary	p s p
atom_style	atomic

# create geometry
units		lj
lattice         hex ${rho}
lattice         hex 0.9165
Lattice spacing in x,y,z = 1.12245 1.94415 1.12245
region		myregion block ${lxneg} ${lxpos} ${lyneg} ${lypos} ${lzneg} ${lzpos} units lattice
region		myregion block -1 ${lxpos} ${lyneg} ${lypos} ${lzneg} ${lzpos} units lattice
region		myregion block -1 1 ${lyneg} ${lypos} ${lzneg} ${lzpos} units lattice
region		myregion block -1 1 -10 ${lypos} ${lzneg} ${lzpos} units lattice
region		myregion block -1 1 -10 10 ${lzneg} ${lzpos} units lattice
region		myregion block -1 1 -10 10 -1 ${lzpos} units lattice
region		myregion block -1 1 -10 10 -1 0 units lattice
create_box	3 myregion
Created orthogonal box = (-1.12245 -19.4415 -1.12245) to (1.12245 19.4415 0)
  1 by 1 by 1 MPI processor grid
create_atoms	1 box
Created 82 atoms

# define masses
mass * $m
mass * 1

# my fake/morse potential
pair_style      table linear 3001
pair_coeff      * * vpotential_inter1new dummy
neighbor	0.3 bin
neigh_modify	delay 5

# define groups
region	    upper block INF INF 0.01 ${lypos} INF INF units lattice
region	    upper block INF INF 0.01 10 INF INF units lattice
group		upper region upper
40 atoms in group upper

# Setup output
thermo 1
thermo_style custom step temp pe lx ly lz
thermo_modify norm no

# Compute initial state by relaxing box
min_style ${style}
min_style cg
minimize ${etol} ${ftol} ${maxiter} ${maxeval}
minimize 1e-12 ${ftol} ${maxiter} ${maxeval}
minimize 1e-12 1e-08 ${maxiter} ${maxeval}
minimize 1e-12 1e-08 10000 ${maxeval}
minimize 1e-12 1e-08 10000 20000
WARNING: Resetting reneighboring criteria during minimization (../min.cpp:168)
Memory usage per processor = 3.35169 Mbytes
Step Temp PotEng Lx Ly Lz 
       0            0   -241.99993    2.2449075    38.890715    1.1224537 
       1            0   -241.99993    2.2449075    38.890715    1.1224537 
       2            0   -241.99993    2.2449075    38.890715    1.1224537 
Loop time of 0.000338094 on 1 procs for 2 steps with 82 atoms

Minimization stats:
  Stopping criterion = linesearch alpha is zero
  Energy initial, next-to-last, final = 
        -241.999927696     -241.999929863     -241.999929863
  Force two-norm initial, final = 0.000778805 0.00455994
  Force max component initial, final = 0.000389403 0.00179508
  Final line search alpha, max atom move = 0.000488281 8.76506e-07
  Iterations, force evaluations = 2 16

Pair  time (%) = 0.000267922 (79.2448)
Neigh time (%) = 0 (0)
Comm  time (%) = 1.98361e-05 (5.86704)
Outpt time (%) = 9.07853e-06 (2.68521)
Other time (%) = 4.12575e-05 (12.2029)

Nlocal:    82 ave 82 max 82 min
Histogram: 1 0 0 0 0 0 0 0 0 0
Nghost:    185 ave 185 max 185 min
Histogram: 1 0 0 0 0 0 0 0 0 0
Neighs:    718 ave 718 max 718 min
Histogram: 1 0 0 0 0 0 0 0 0 0

Total # of neighbors = 718
Ave neighs/atom = 8.7561
Neighbor list builds = 0
Dangerous builds = 0

# don't allow atoms to relax in x-direction
fix 2 all setforce 0.0 NULL 0.0

# GSF energy curve will have 100*2 steps
variable nsteps equal 300
variable sstep1 equal 1.
variable xstep1 equal ${sstep1}/(${ax}*${nsteps})
variable xstep1 equal 1/(${ax}*${nsteps})
variable xstep1 equal 1/(1*${nsteps})
variable xstep1 equal 1/(1*300)

variable i loop ${nsteps}
variable i loop 300
label loop1
        displace_atoms upper move ${xstep1} 0.0 0.0 units lattice
        displace_atoms upper move 0.00333333333333333 0.0 0.0 units lattice
        min_style ${style}
        min_style cg
        minimize ${etol} ${ftol} ${maxiter} ${maxeval}
        minimize 1e-12 ${ftol} ${maxiter} ${maxeval}
        minimize 1e-12 1e-08 ${maxiter} ${maxeval}
        minimize 1e-12 1e-08 10000 ${maxeval}
        minimize 1e-12 1e-08 10000 20000
WARNING: Resetting reneighboring criteria during minimization (../min.cpp:168)
Memory usage per processor = 3.35169 Mbytes
Step Temp PotEng Lx Ly Lz 
       2            0   -241.99976    2.2449075    38.890812    1.1224537 
       3            0   -241.99976    2.2449075    38.890812    1.1224537 
Loop time of 0.000319101 on 1 procs for 1 steps with 82 atoms

Minimization stats:
  Stopping criterion = linesearch alpha is zero
  Energy initial, next-to-last, final = 
        -241.999757399     -241.999757399     -241.999757399
  Force two-norm initial, final = 0.00478129 0.00478129
  Force max component initial, final = 0.00179508 0.00179508
  Final line search alpha, max atom move = 0.000488281 8.76506e-07
  Iterations, force evaluations = 1 12

Pair  time (%) = 0.000267093 (83.7017)
Neigh time (%) = 0 (0)
Comm  time (%) = 1.79849e-05 (5.63612)
Outpt time (%) = 0 (0)
Other time (%) = 3.40231e-05 (10.6622)

Nlocal:    82 ave 82 max 82 min
Histogram: 1 0 0 0 0 0 0 0 0 0
Nghost:    185 ave 185 max 185 min
Histogram: 1 0 0 0 0 0 0 0 0 0
Neighs:    718 ave 718 max 718 min
Histogram: 1 0 0 0 0 0 0 0 0 0

Total # of neighbors = 718
Ave neighs/atom = 8.7561
Neighbor list builds = 0
Dangerous builds = 0
        # write_dump all atom ${dumpfile}
        next i
jump SELF loop1
        displace_atoms upper move ${xstep1} 0.0 0.0 units lattice
        displace_atoms upper move 0.00333333333333333 0.0 0.0 units lattice
        min_style ${style}
        min_style cg
        minimize ${etol} ${ftol} ${maxiter} ${maxeval}
        minimize 1e-12 ${ftol} ${maxiter} ${maxeval}
        minimize 1e-12 1e-08 ${maxiter} ${maxeval}
        minimize 1e-12 1e-08 10000 ${maxeval}
        minimize 1e-12 1e-08 10000 20000
WARNING: Resetting reneighboring criteria during minimization (../min.cpp:168)
Memory usage per processor = 3.35169 Mbytes
Step Temp PotEng Lx Ly Lz 
       3            0   -241.99924    2.2449075    38.890812    1.1224537 
       4            0   -241.99924    2.2449075    38.890812    1.1224537 
Loop time of 0.000292031 on 1 procs for 1 steps with 82 atoms

Minimization stats:
  Stopping criterion = linesearch alpha is zero
  Energy initial, next-to-last, final = 
        -241.999241512     -241.999241512     -241.999241512
  Force two-norm initial, final = 0.00732734 0.00732734
  Force max component initial, final = 0.00286779 0.00286779
  Final line search alpha, max atom move = 0.00012207 3.50072e-07
  Iterations, force evaluations = 1 14

Pair  time (%) = 0.000239205 (81.9106)
Neigh time (%) = 0 (0)
Comm  time (%) = 1.86268e-05 (6.37835)
Outpt time (%) = 0 (0)
Other time (%) = 3.42e-05 (11.7111)

Nlocal:    82 ave 82 max 82 min
Histogram: 1 0 0 0 0 0 0 0 0 0
Nghost:    185 ave 185 max 185 min
Histogram: 1 0 0 0 0 0 0 0 0 0
Neighs:    718 ave 718 max 718 min
Histogram: 1 0 0 0 0 0 0 0 0 0

Total # of neighbors = 718
Ave neighs/atom = 8.7561
Neighbor list builds = 0
Dangerous builds = 0
        # write_dump all atom ${dumpfile}
        next i
jump SELF loop1
        displace_atoms upper move ${xstep1} 0.0 0.0 units lattice
        displace_atoms upper move 0.00333333333333333 0.0 0.0 units lattice
        min_style ${style}
        min_style cg
        minimize ${etol} ${ftol} ${maxiter} ${maxeval}
        minimize 1e-12 ${ftol} ${maxiter} ${maxeval}
        minimize 1e-12 1e-08 ${maxiter} ${maxeval}
        minimize 1e-12 1e-08 10000 ${maxeval}
        minimize 1e-12 1e-08 10000 20000
WARNING: Resetting reneighboring criteria during minimization (../min.cpp:168)
Memory usage per processor = 3.35169 Mbytes
Step Temp PotEng Lx Ly Lz 
       4            0   -241.99838    2.2449075    38.890812    1.1224537 
       5            0   -241.99838    2.2449075    38.890812    1.1224537 
Loop time of 0.000275934 on 1 procs for 1 steps with 82 atoms

Minimization stats:
  Stopping criterion = linesearch alpha is zero
  Energy initial, next-to-last, final = 
        -241.998383655     -241.998383655     -241.998383655
  Force two-norm initial, final = 0.01366 0.01366
  Force max component initial, final = 0.00643821 0.00643821
  Final line search alpha, max atom move = 6.10352e-05 3.92957e-07
  Iterations, force evaluations = 1 15

Pair  time (%) = 0.000222992 (80.8134)
Neigh time (%) = 0 (0)
Comm  time (%) = 1.41285e-05 (5.12025)
Outpt time (%) = 0 (0)
Other time (%) = 3.88138e-05 (14.0663)

Nlocal:    82 ave 82 max 82 min
Histogram: 1 0 0 0 0 0 0 0 0 0
Nghost:    185 ave 185 max 185 min
Histogram: 1 0 0 0 0 0 0 0 0 0
Neighs:    718 ave 718 max 718 min
Histogram: 1 0 0 0 0 0 0 0 0 0

Total # of neighbors = 718
Ave neighs/atom = 8.7561
Neighbor list builds = 0
Dangerous builds = 0
        # write_dump all atom ${dumpfile}
        next i
jump SELF loop1
        displace_atoms upper move ${xstep1} 0.0 0.0 units lattice
        displace_atoms upper move 0.00333333333333333 0.0 0.0 units lattice
        min_style ${style}
        min_style cg
        minimize ${etol} ${ftol} ${maxiter} ${maxeval}
        minimize 1e-12 ${ftol} ${maxiter} ${maxeval}
        minimize 1e-12 1e-08 ${maxiter} ${maxeval}
        minimize 1e-12 1e-08 10000 ${maxeval}
        minimize 1e-12 1e-08 10000 20000
WARNING: Resetting reneighboring criteria during minimization (../min.cpp:168)
Memory usage per processor = 3.35169 Mbytes
Step Temp PotEng Lx Ly Lz 
       5            0   -241.99718    2.2449075    38.890812    1.1224537 
       6            0   -241.99718    2.2449075    38.890812    1.1224537 
Loop time of 0.000347978 on 1 procs for 1 steps with 82 atoms

Minimization stats:
  Stopping criterion = linesearch alpha is zero
  Energy initial, next-to-last, final = 
        -241.997184208     -241.997184208     -241.997184208
  Force two-norm initial, final = 0.0233072 0.0233072
  Force max component initial, final = 0.0114284 0.0114284
  Final line search alpha, max atom move = 1.52588e-05 1.74383e-07
  Iterations, force evaluations = 1 17

Pair  time (%) = 0.000289942 (83.3221)
Neigh time (%) = 0 (0)
Comm  time (%) = 2.40874e-05 (6.92211)
Outpt time (%) = 0 (0)
Other time (%) = 3.3948e-05 (9.7558)

Nlocal:    82 ave 82 max 82 min
Histogram: 1 0 0 0 0 0 0 0 0 0
Nghost:    185 ave 185 max 185 min
Histogram: 1 0 0 0 0 0 0 0 0 0
Neighs:    718 ave 718 max 718 min
Histogram: 1 0 0 0 0 0 0 0 0 0

Total # of neighbors = 718
Ave neighs/atom = 8.7561
Neighbor list builds = 0
Dangerous builds = 0
        # write_dump all atom ${dumpfile}
        next i
jump SELF loop1
        displace_atoms upper move ${xstep1} 0.0 0.0 units lattice
        displace_atoms upper move 0.00333333333333333 0.0 0.0 units lattice
        min_style ${style}
        min_style cg
        minimize ${etol} ${ftol} ${maxiter} ${maxeval}
        minimize 1e-12 ${ftol} ${maxiter} ${maxeval}
        minimize 1e-12 1e-08 ${maxiter} ${maxeval}
        minimize 1e-12 1e-08 10000 ${maxeval}
        minimize 1e-12 1e-08 10000 20000
WARNING: Resetting reneighboring criteria during minimization (../min.cpp:168)
Memory usage per processor = 3.35169 Mbytes
Step Temp PotEng Lx Ly Lz 
       6            0   -241.99564    2.2449075    38.890812    1.1224537 
       7            0   -241.99564    2.2449075    38.890812    1.1224537 
       8            0   -241.99564    2.2449075    38.890812    1.1224537 
       9            0   -241.99564    2.2449075    38.890812    1.1224537 
Loop time of 0.000837954 on 1 procs for 3 steps with 82 atoms

Minimization stats:
  Stopping criterion = linesearch alpha is zero
  Energy initial, next-to-last, final = 
        -241.995643567     -241.995644433     -241.995644433
  Force two-norm initial, final = 0.0359625 0.0312651
  Force max component initial, final = 0.0178361 0.015482
  Final line search alpha, max atom move = 7.62939e-06 1.18118e-07
  Iterations, force evaluations = 3 42

Pair  time (%) = 0.000689092 (82.2351)
Neigh time (%) = 0 (0)
Comm  time (%) = 5.29696e-05 (6.3213)
Outpt time (%) = 1.19373e-05 (1.42458)
Other time (%) = 8.39549e-05 (10.019)

Nlocal:    82 ave 82 max 82 min
Histogram: 1 0 0 0 0 0 0 0 0 0
Nghost:    185 ave 185 max 185 min
Histogram: 1 0 0 0 0 0 0 0 0 0
Neighs:    718 ave 718 max 718 min
Histogram: 1 0 0 0 0 0 0 0 0 0

Total # of neighbors = 718
Ave neighs/atom = 8.7561
Neighbor list builds = 0
Dangerous builds = 0
        # write_dump all atom ${dumpfile}
        next i
jump SELF loop1
        displace_atoms upper move ${xstep1} 0.0 0.0 units lattice
        displace_atoms upper move 0.00333333333333333 0.0 0.0 units lattice
        min_style ${style}
        min_style cg
        minimize ${etol} ${ftol} ${maxiter} ${maxeval}
        minimize 1e-12 ${ftol} ${maxiter} ${maxeval}
        minimize 1e-12 1e-08 ${maxiter} ${maxeval}
        minimize 1e-12 1e-08 10000 ${maxeval}
        minimize 1e-12 1e-08 10000 20000
WARNING: Resetting reneighboring criteria during minimization (../min.cpp:168)
Memory usage per processor = 3.35169 Mbytes
Step Temp PotEng Lx Ly Lz 
       9            0   -241.99376    2.2449075    38.890809    1.1224537 
      10            0   -241.99377    2.2449075    38.890809    1.1224537 
      11            0   -241.99377    2.2449075    38.890809    1.1224537 
Loop time of 0.000490012 on 1 procs for 2 steps with 82 atoms

Minimization stats:
  Stopping criterion = linesearch alpha is zero
  Energy initial, next-to-last, final = 
        -241.993760152     -241.993767243     -241.993767243
  Force two-norm initial, final = 0.046848 0.0156938
  Force max component initial, final = 0.0233238 0.00704691
  Final line search alpha, max atom move = 3.05176e-05 2.15055e-07
  Iterations, force evaluations = 2 24

Pair  time (%) = 0.000403081 (82.2595)
Neigh time (%) = 0 (0)
Comm  time (%) = 3.38388e-05 (6.90571)
Outpt time (%) = 6.08631e-06 (1.24207)
Other time (%) = 4.70056e-05 (9.59274)

Nlocal:    82 ave 82 max 82 min
Histogram: 1 0 0 0 0 0 0 0 0 0
Nghost:    185 ave 185 max 185 min
Histogram: 1 0 0 0 0 0 0 0 0 0
Neighs:    718 ave 718 max 718 min
Histogram: 1 0 0 0 0 0 0 0 0 0

Total # of neighbors = 718
Ave neighs/atom = 8.7561
Neighbor list builds = 0
Dangerous builds = 0
        # write_dump all atom ${dumpfile}
        next i
jump SELF loop1
        displace_atoms upper move ${xstep1} 0.0 0.0 units lattice
        displace_atoms upper move 0.00333333333333333 0.0 0.0 units lattice
        min_style ${style}
        min_style cg
        minimize ${etol} ${ftol} ${maxiter} ${maxeval}
        minimize 1e-12 ${ftol} ${maxiter} ${maxeval}
        minimize 1e-12 1e-08 ${maxiter} ${maxeval}
        minimize 1e-12 1e-08 10000 ${maxeval}
        minimize 1e-12 1e-08 10000 20000
WARNING: Resetting reneighboring criteria during minimization (../min.cpp:168)
Memory usage per processor = 3.35169 Mbytes
Step Temp PotEng Lx Ly Lz 
      11            0   -241.99155    2.2449075    38.890789    1.1224537 
      12            0   -241.99155    2.2449075    38.890789    1.1224537 
      13            0   -241.99155    2.2449075    38.890789    1.1224537 
Loop time of 0.000446937 on 1 procs for 2 steps with 82 atoms

Minimization stats:
  Stopping criterion = linesearch alpha is zero
  Energy initial, next-to-last, final = 
        -241.991550751     -241.991550944     -241.991550944
  Force two-norm initial, final = 0.0288861 0.0279066
  Force max component initial, final = 0.0125837 0.0120304
  Final line search alpha, max atom move = 1.52588e-05 1.83569e-07
  Iterations, force evaluations = 2 29

Pair  time (%) = 0.000357841 (80.0652)
Neigh time (%) = 0 (0)
Comm  time (%) = 3.31801e-05 (7.42389)
Outpt time (%) = 5.90913e-06 (1.32214)
Other time (%) = 5.00069e-05 (11.1888)

Nlocal:    82 ave 82 max 82 min
Histogram: 1 0 0 0 0 0 0 0 0 0
Nghost:    185 ave 185 max 185 min
Histogram: 1 0 0 0 0 0 0 0 0 0
Neighs:    718 ave 718 max 718 min
Histogram: 1 0 0 0 0 0 0 0 0 0

Total # of neighbors = 718
Ave neighs/atom = 8.7561
Neighbor list builds = 0
Dangerous builds = 0
        # write_dump all atom ${dumpfile}
        next i
jump SELF loop1
        displace_atoms upper move ${xstep1} 0.0 0.0 units lattice
        displace_atoms upper move 0.00333333333333333 0.0 0.0 units lattice
        min_style ${style}
        min_style cg
        minimize ${etol} ${ftol} ${maxiter} ${maxeval}
        minimize 1e-12 ${ftol} ${maxiter} ${maxeval}
        minimize 1e-12 1e-08 ${maxiter} ${maxeval}
        minimize 1e-12 1e-08 10000 ${maxeval}
        minimize 1e-12 1e-08 10000 20000
WARNING: Resetting reneighboring criteria during minimization (../min.cpp:168)
Memory usage per processor = 3.35169 Mbytes
Step Temp PotEng Lx Ly Lz 
      13            0   -241.98899    2.2449075    38.890788    1.1224537 
      14            0     -241.989    2.2449075    38.890788    1.1224537 
      15            0     -241.989    2.2449075    38.890788    1.1224537 
      16            0     -241.989    2.2449075    38.890788    1.1224537 
      17            0     -241.989    2.2449075    38.890788    1.1224537 
      18            0     -241.989    2.2449075    38.890788    1.1224537 
Loop time of 0.00182898 on 1 procs for 5 steps with 82 atoms

Minimization stats:
  Stopping criterion = linesearch alpha is zero
  Energy initial, next-to-last, final = 
        -241.988993908     -241.989002581     -241.989002581
  Force two-norm initial, final = 0.0474892 0.0179964
  Force max component initial, final = 0.0226681 0.00742928
  Final line search alpha, max atom move = 3.05176e-05 2.26724e-07
  Iterations, force evaluations = 5 56

Pair  time (%) = 0.00156875 (85.772)
Neigh time (%) = 0 (0)
Comm  time (%) = 8.68152e-05 (4.74665)
Outpt time (%) = 3.36461e-05 (1.83961)
Other time (%) = 0.000139765 (7.64171)

Nlocal:    82 ave 82 max 82 min
Histogram: 1 0 0 0 0 0 0 0 0 0
Nghost:    185 ave 185 max 185 min
Histogram: 1 0 0 0 0 0 0 0 0 0
Neighs:    718 ave 718 max 718 min
Histogram: 1 0 0 0 0 0 0 0 0 0

Total # of neighbors = 718
Ave neighs/atom = 8.7561
Neighbor list builds = 0
Dangerous builds = 0
        # write_dump all atom ${dumpfile}
        next i
jump SELF loop1
        displace_atoms upper move ${xstep1} 0.0 0.0 units lattice
        displace_atoms upper move 0.00333333333333333 0.0 0.0 units lattice
        min_style ${style}
        min_style cg
        minimize ${etol} ${ftol} ${maxiter} ${maxeval}
        minimize 1e-12 ${ftol} ${maxiter} ${maxeval}
        minimize 1e-12 1e-08 ${maxiter} ${maxeval}
        minimize 1e-12 1e-08 10000 ${maxeval}
        minimize 1e-12 1e-08 10000 20000
WARNING: Resetting reneighboring criteria during minimization (../min.cpp:168)
Memory usage per processor = 3.35169 Mbytes
Step Temp PotEng Lx Ly Lz 
      18            0   -241.98612    2.2449075    38.890779    1.1224537 
      19            0   -241.98612    2.2449075    38.890779    1.1224537 
      20            0   -241.98612    2.2449075    38.890779    1.1224537 
Loop time of 0.00046106 on 1 procs for 2 steps with 82 atoms

Minimization stats:
  Stopping criterion = linesearch alpha is zero
  Energy initial, next-to-last, final = 
        -241.986116508     -241.986124678     -241.986124678
  Force two-norm initial, final = 0.0356101 0.0258677
  Force max component initial, final = 0.0158765 0.009777
  Final line search alpha, max atom move = 1.52588e-05 1.49185e-07
  Iterations, force evaluations = 2 24

Pair  time (%) = 0.00038712 (83.9632)
Neigh time (%) = 0 (0)
Comm  time (%) = 2.98907e-05 (6.48304)
Outpt time (%) = -7.06641e-08 (-0.0153265)
Other time (%) = 4.41192e-05 (9.56909)

Nlocal:    82 ave 82 max 82 min
Histogram: 1 0 0 0 0 0 0 0 0 0
Nghost:    185 ave 185 max 185 min
Histogram: 1 0 0 0 0 0 0 0 0 0
Neighs:    718 ave 718 max 718 min
Histogram: 1 0 0 0 0 0 0 0 0 0

Total # of neighbors = 718
Ave neighs/atom = 8.7561
Neighbor list builds = 0
Dangerous builds = 0
        # write_dump all atom ${dumpfile}
        next i
jump SELF loop1
        displace_atoms upper move ${xstep1} 0.0 0.0 units lattice
        displace_atoms upper move 0.00333333333333333 0.0 0.0 units lattice
        min_style ${style}
        min_style cg
        minimize ${etol} ${ftol} ${maxiter} ${maxeval}
        minimize 1e-12 ${ftol} ${maxiter} ${maxeval}
        minimize 1e-12 1e-08 ${maxiter} ${maxeval}
        minimize 1e-12 1e-08 10000 ${maxeval}
        minimize 1e-12 1e-08 10000 20000
WARNING: Resetting reneighboring criteria during minimization (../min.cpp:168)
Memory usage per processor = 3.35169 Mbytes
Step Temp PotEng Lx Ly Lz 
      20            0   -241.98297    2.2449075    38.890775    1.1224537 
      21            0   -241.98297    2.2449075    38.890775    1.1224537 
Loop time of 0.0003159 on 1 procs for 1 steps with 82 atoms

Minimization stats:
  Stopping criterion = linesearch alpha is zero
  Energy initial, next-to-last, final = 
        -241.982973877     -241.982973877     -241.982973877
  Force two-norm initial, final = 0.0241765 0.0241765
  Force max component initial, final = 0.009777 0.009777
  Final line search alpha, max atom move = 1.52588e-05 1.49185e-07
  Iterations, force evaluations = 1 17

Pair  time (%) = 0.000257026 (81.3632)
Neigh time (%) = 0 (0)
Comm  time (%) = 1.90107e-05 (6.01797)
Outpt time (%) = 0 (0)
Other time (%) = 3.98628e-05 (12.6188)

Nlocal:    82 ave 82 max 82 min
Histogram: 1 0 0 0 0 0 0 0 0 0
Nghost:    185 ave 185 max 185 min
Histogram: 1 0 0 0 0 0 0 0 0 0
Neighs:    718 ave 718 max 718 min
Histogram: 1 0 0 0 0 0 0 0 0 0

Total # of neighbors = 718
Ave neighs/atom = 8.7561
Neighbor list builds = 0
Dangerous builds = 0
        # write_dump all atom ${dumpfile}
        next i
jump SELF loop1
        displace_atoms upper move ${xstep1} 0.0 0.0 units lattice
        displace_atoms upper move 0.00333333333333333 0.0 0.0 units lattice
        min_style ${style}
        min_style cg
        minimize ${etol} ${ftol} ${maxiter} ${maxeval}
        minimize 1e-12 ${ftol} ${maxiter} ${maxeval}
        minimize 1e-12 1e-08 ${maxiter} ${maxeval}
        minimize 1e-12 1e-08 10000 ${maxeval}
        minimize 1e-12 1e-08 10000 20000
WARNING: Resetting reneighboring criteria during minimization (../min.cpp:168)
Memory usage per processor = 3.35169 Mbytes
Step Temp PotEng Lx Ly Lz 
      21            0   -241.97967    2.2449075    38.890775    1.1224537 
      22            0   -241.97967    2.2449075    38.890775    1.1224537 
Loop time of 0.000345096 on 1 procs for 1 steps with 82 atoms

Minimization stats:
  Stopping criterion = linesearch alpha is zero
  Energy initial, next-to-last, final = 
          -241.9796747       -241.9796747       -241.9796747
  Force two-norm initial, final = 0.0243385 0.0243385
  Force max component initial, final = 0.009777 0.009777
  Final line search alpha, max atom move = 1.52588e-05 1.49185e-07
  Iterations, force evaluations = 1 17

Pair  time (%) = 0.000278119 (80.5919)
Neigh time (%) = 0 (0)
Comm  time (%) = 2.28861e-05 (6.6318)
Outpt time (%) = 0 (0)
Other time (%) = 4.40904e-05 (12.7763)

Nlocal:    82 ave 82 max 82 min
Histogram: 1 0 0 0 0 0 0 0 0 0
Nghost:    185 ave 185 max 185 min
Histogram: 1 0 0 0 0 0 0 0 0 0
Neighs:    718 ave 718 max 718 min
Histogram: 1 0 0 0 0 0 0 0 0 0

Total # of neighbors = 718
Ave neighs/atom = 8.7561
Neighbor list builds = 0
Dangerous builds = 0
        # write_dump all atom ${dumpfile}
        next i
jump SELF loop1
        displace_atoms upper move ${xstep1} 0.0 0.0 units lattice
        displace_atoms upper move 0.00333333333333333 0.0 0.0 units lattice
        min_style ${style}
        min_style cg
        minimize ${etol} ${ftol} ${maxiter} ${maxeval}
        minimize 1e-12 ${ftol} ${maxiter} ${maxeval}
        minimize 1e-12 1e-08 ${maxiter} ${maxeval}
        minimize 1e-12 1e-08 10000 ${maxeval}
        minimize 1e-12 1e-08 10000 20000
WARNING: Resetting reneighboring criteria during minimization (../min.cpp:168)
Memory usage per processor = 3.35169 Mbytes
Step Temp PotEng Lx Ly Lz 
      22            0   -241.97623    2.2449075    38.890775    1.1224537 
      23            0   -241.97623    2.2449075    38.890775    1.1224537 
Loop time of 0.000353908 on 1 procs for 1 steps with 82 atoms

Minimization stats:
  Stopping criterion = linesearch alpha is zero
  Energy initial, next-to-last, final = 
        -241.976229683     -241.976229683     -241.976229683
  Force two-norm initial, final = 0.0232332 0.0232332
  Force max component initial, final = 0.009777 0.009777
  Final line search alpha, max atom move = 1.52588e-05 1.49185e-07
  Iterations, force evaluations = 1 17

Pair  time (%) = 0.000293933 (83.0534)
Neigh time (%) = 0 (0)
Comm  time (%) = 2.30147e-05 (6.50303)
Outpt time (%) = 0 (0)
Other time (%) = 3.69605e-05 (10.4435)

Nlocal:    82 ave 82 max 82 min
Histogram: 1 0 0 0 0 0 0 0 0 0
Nghost:    185 ave 185 max 185 min
Histogram: 1 0 0 0 0 0 0 0 0 0
Neighs:    718 ave 718 max 718 min
Histogram: 1 0 0 0 0 0 0 0 0 0

Total # of neighbors = 718
Ave neighs/atom = 8.7561
Neighbor list builds = 0
Dangerous builds = 0
        # write_dump all atom ${dumpfile}
        next i
jump SELF loop1
        displace_atoms upper move ${xstep1} 0.0 0.0 units lattice
        displace_atoms upper move 0.00333333333333333 0.0 0.0 units lattice
        min_style ${style}
        min_style cg
        minimize ${etol} ${ftol} ${maxiter} ${maxeval}
        minimize 1e-12 ${ftol} ${maxiter} ${maxeval}
        minimize 1e-12 1e-08 ${maxiter} ${maxeval}
        minimize 1e-12 1e-08 10000 ${maxeval}
        minimize 1e-12 1e-08 10000 20000
WARNING: Resetting reneighboring criteria during minimization (../min.cpp:168)
Memory usage per processor = 3.35169 Mbytes
Step Temp PotEng Lx Ly Lz 
      23            0   -241.97264    2.2449075    38.890775    1.1224537 
      24            0   -241.97264    2.2449075    38.890775    1.1224537 
Loop time of 0.000348078 on 1 procs for 1 steps with 82 atoms

Minimization stats:
  Stopping criterion = linesearch alpha is zero
  Energy initial, next-to-last, final = 
        -241.972637243     -241.972637243     -241.972637243
  Force two-norm initial, final = 0.0217411 0.0217411
  Force max component initial, final = 0.009777 0.009777
  Final line search alpha, max atom move = 1.52588e-05 1.49185e-07
  Iterations, force evaluations = 1 17

Pair  time (%) = 0.000287988 (82.7367)
Neigh time (%) = 0 (0)
Comm  time (%) = 1.7895e-05 (5.14109)
Outpt time (%) = 0 (0)
Other time (%) = 4.21946e-05 (12.1222)

Nlocal:    82 ave 82 max 82 min
Histogram: 1 0 0 0 0 0 0 0 0 0
Nghost:    185 ave 185 max 185 min
Histogram: 1 0 0 0 0 0 0 0 0 0
Neighs:    718 ave 718 max 718 min
Histogram: 1 0 0 0 0 0 0 0 0 0

Total # of neighbors = 718
Ave neighs/atom = 8.7561
Neighbor list builds = 0
Dangerous builds = 0
        # write_dump all atom ${dumpfile}
        next i
jump SELF loop1
        displace_atoms upper move ${xstep1} 0.0 0.0 units lattice
        displace_atoms upper move 0.00333333333333333 0.0 0.0 units lattice
        min_style ${style}
        min_style cg
        minimize ${etol} ${ftol} ${maxiter} ${maxeval}
        minimize 1e-12 ${ftol} ${maxiter} ${maxeval}
        minimize 1e-12 1e-08 ${maxiter} ${maxeval}
        minimize 1e-12 1e-08 10000 ${maxeval}
        minimize 1e-12 1e-08 10000 20000
WARNING: Resetting reneighboring criteria during minimization (../min.cpp:168)
Memory usage per processor = 3.35169 Mbytes
Step Temp PotEng Lx Ly Lz 
      24            0    -241.9689    2.2449075    38.890775    1.1224537 
      25            0    -241.9689    2.2449075    38.890775    1.1224537 
Loop time of 0.000319042 on 1 procs for 1 steps with 82 atoms

Minimization stats:
  Stopping criterion = linesearch alpha is zero
  Energy initial, next-to-last, final = 
        -241.968899749     -241.968899749     -241.968899749
  Force two-norm initial, final = 0.0220973 0.0220973
  Force max component initial, final = 0.009777 0.009777
  Final line search alpha, max atom move = 1.52588e-05 1.49185e-07
  Iterations, force evaluations = 1 17

Pair  time (%) = 0.000258885 (81.1445)
Neigh time (%) = 0 (0)
Comm  time (%) = 2.18212e-05 (6.83962)
Outpt time (%) = 0 (0)
Other time (%) = 3.83356e-05 (12.0158)

Nlocal:    82 ave 82 max 82 min
Histogram: 1 0 0 0 0 0 0 0 0 0
Nghost:    185 ave 185 max 185 min
Histogram: 1 0 0 0 0 0 0 0 0 0
Neighs:    718 ave 718 max 718 min
Histogram: 1 0 0 0 0 0 0 0 0 0

Total # of neighbors = 718
Ave neighs/atom = 8.7561
Neighbor list builds = 0
Dangerous builds = 0
        # write_dump all atom ${dumpfile}
        next i
jump SELF loop1
        displace_atoms upper move ${xstep1} 0.0 0.0 units lattice
        displace_atoms upper move 0.00333333333333333 0.0 0.0 units lattice
        min_style ${style}
        min_style cg
        minimize ${etol} ${ftol} ${maxiter} ${maxeval}
        minimize 1e-12 ${ftol} ${maxiter} ${maxeval}
        minimize 1e-12 1e-08 ${maxiter} ${maxeval}
        minimize 1e-12 1e-08 10000 ${maxeval}
        minimize 1e-12 1e-08 10000 20000
WARNING: Resetting reneighboring criteria during minimization (../min.cpp:168)
Memory usage per processor = 3.35169 Mbytes
Step Temp PotEng Lx Ly Lz 
      25            0   -241.96501    2.2449075    38.890775    1.1224537 
      26            0   -241.96501    2.2449075    38.890775    1.1224537 
      27            0   -241.96501    2.2449075    38.890775    1.1224537 
Loop time of 0.000592046 on 1 procs for 2 steps with 82 atoms

Minimization stats:
  Stopping criterion = linesearch alpha is zero
  Energy initial, next-to-last, final = 
        -241.965012068     -241.965013283     -241.965013283
  Force two-norm initial, final = 0.0270997 0.0236042
  Force max component initial, final = 0.009777 0.008741
  Final line search alpha, max atom move = 1.52588e-05 1.33377e-07
  Iterations, force evaluations = 2 26

Pair  time (%) = 0.000463041 (78.2104)
Neigh time (%) = 0 (0)
Comm  time (%) = 3.95314e-05 (6.67708)
Outpt time (%) = 6.00028e-06 (1.01348)
Other time (%) = 8.34727e-05 (14.099)

Nlocal:    82 ave 82 max 82 min
Histogram: 1 0 0 0 0 0 0 0 0 0
Nghost:    175 ave 175 max 175 min
Histogram: 1 0 0 0 0 0 0 0 0 0
Neighs:    718 ave 718 max 718 min
Histogram: 1 0 0 0 0 0 0 0 0 0

Total # of neighbors = 718
Ave neighs/atom = 8.7561
Neighbor list builds = 0
Dangerous builds = 0
        # write_dump all atom ${dumpfile}
        next i
jump SELF loop1
        displace_atoms upper move ${xstep1} 0.0 0.0 units lattice
        displace_atoms upper move 0.00333333333333333 0.0 0.0 units lattice
        min_style ${style}
        min_style cg
        minimize ${etol} ${ftol} ${maxiter} ${maxeval}
        minimize 1e-12 ${ftol} ${maxiter} ${maxeval}
        minimize 1e-12 1e-08 ${maxiter} ${maxeval}
        minimize 1e-12 1e-08 10000 ${maxeval}
        minimize 1e-12 1e-08 10000 20000
WARNING: Resetting reneighboring criteria during minimization (../min.cpp:168)
Memory usage per processor = 3.35169 Mbytes
Step Temp PotEng Lx Ly Lz 
      27            0   -241.96098    2.2449075    38.890775    1.1224537 
      28            0   -241.96099    2.2449075    38.890775    1.1224537 
      29            0   -241.96099    2.2449075    38.890775    1.1224537 
Loop time of 0.000421951 on 1 procs for 2 steps with 82 atoms

Minimization stats:
  Stopping criterion = linesearch alpha is zero
  Energy initial, next-to-last, final = 
        -241.960977728     -241.960986143     -241.960986143
  Force two-norm initial, final = 0.0333522 0.0232061
  Force max component initial, final = 0.0133078 0.00896966
  Final line search alpha, max atom move = 1.52588e-05 1.36866e-07
  Iterations, force evaluations = 2 24

Pair  time (%) = 0.000298077 (70.6424)
Neigh time (%) = 0 (0)
Comm  time (%) = 1.52894e-05 (3.6235)
Outpt time (%) = -1.04425e-07 (-0.024748)
Other time (%) = 0.00010869 (25.7588)

Nlocal:    82 ave 82 max 82 min
Histogram: 1 0 0 0 0 0 0 0 0 0
Nghost:    175 ave 175 max 175 min
Histogram: 1 0 0 0 0 0 0 0 0 0
Neighs:    718 ave 718 max 718 min
Histogram: 1 0 0 0 0 0 0 0 0 0

Total # of neighbors = 718
Ave neighs/atom = 8.7561
Neighbor list builds = 0
Dangerous builds = 0
        # write_dump all atom ${dumpfile}
        next i
jump SELF loop1
        displace_atoms upper move ${xstep1} 0.0 0.0 units lattice
        displace_atoms upper move 0.00333333333333333 0.0 0.0 units lattice
        min_style ${style}
        min_style cg
        minimize ${etol} ${ftol} ${maxiter} ${maxeval}
        minimize 1e-12 ${ftol} ${maxiter} ${maxeval}
        minimize 1e-12 1e-08 ${maxiter} ${maxeval}
        minimize 1e-12 1e-08 10000 ${maxeval}
        minimize 1e-12 1e-08 10000 20000
WARNING: Resetting reneighboring criteria during minimization (../min.cpp:168)
Memory usage per processor = 3.35169 Mbytes
Step Temp PotEng Lx Ly Lz 
      29            0   -241.95681    2.2449075    38.890775    1.1224537 
      30            0   -241.95681    2.2449075    38.890775    1.1224537 
Loop time of 0.000379891 on 1 procs for 1 steps with 82 atoms

Minimization stats:
  Stopping criterion = linesearch alpha is zero
  Energy initial, next-to-last, final = 
        -241.956811104     -241.956811104     -241.956811104
  Force two-norm initial, final = 0.0233609 0.0233609
  Force max component initial, final = 0.00896966 0.00896966
  Final line search alpha, max atom move = 1.52588e-05 1.36866e-07
  Iterations, force evaluations = 1 17

Pair  time (%) = 0.000306268 (80.6201)
Neigh time (%) = 0 (0)
Comm  time (%) = 2.53019e-05 (6.66032)
Outpt time (%) = 0 (0)
Other time (%) = 4.83205e-05 (12.7196)

Nlocal:    82 ave 82 max 82 min
Histogram: 1 0 0 0 0 0 0 0 0 0
Nghost:    175 ave 175 max 175 min
Histogram: 1 0 0 0 0 0 0 0 0 0
Neighs:    718 ave 718 max 718 min
Histogram: 1 0 0 0 0 0 0 0 0 0

Total # of neighbors = 718
Ave neighs/atom = 8.7561
Neighbor list builds = 0
Dangerous builds = 0
        # write_dump all atom ${dumpfile}
        next i
jump SELF loop1
        displace_atoms upper move ${xstep1} 0.0 0.0 units lattice
        displace_atoms upper move 0.00333333333333333 0.0 0.0 units lattice
        min_style ${style}
        min_style cg
        minimize ${etol} ${ftol} ${maxiter} ${maxeval}
        minimize 1e-12 ${ftol} ${maxiter} ${maxeval}
        minimize 1e-12 1e-08 ${maxiter} ${maxeval}
        minimize 1e-12 1e-08 10000 ${maxeval}
        minimize 1e-12 1e-08 10000 20000
WARNING: Resetting reneighboring criteria during minimization (../min.cpp:168)
Memory usage per processor = 3.35169 Mbytes
Step Temp PotEng Lx Ly Lz 
      30            0   -241.95248    2.2449075    38.890775    1.1224537 
      31            0    -241.9525    2.2449075    38.890775    1.1224537 
      32            0    -241.9525    2.2449075    38.890775    1.1224537 
Loop time of 0.000487939 on 1 procs for 2 steps with 82 atoms

Minimization stats:
  Stopping criterion = linesearch alpha is zero
  Energy initial, next-to-last, final = 
        -241.952484222     -241.952498084     -241.952498084
  Force two-norm initial, final = 0.0358091 0.0260543
  Force max component initial, final = 0.0142456 0.00995157
  Final line search alpha, max atom move = 1.52588e-05 1.51849e-07
  Iterations, force evaluations = 2 24

Pair  time (%) = 0.000394905 (80.9332)
Neigh time (%) = 0 (0)
Comm  time (%) = 3.17843e-05 (6.51399)
Outpt time (%) = 5.89457e-06 (1.20806)
Other time (%) = 5.53553e-05 (11.3447)

Nlocal:    82 ave 82 max 82 min
Histogram: 1 0 0 0 0 0 0 0 0 0
Nghost:    175 ave 175 max 175 min
Histogram: 1 0 0 0 0 0 0 0 0 0
Neighs:    718 ave 718 max 718 min
Histogram: 1 0 0 0 0 0 0 0 0 0

Total # of neighbors = 718
Ave neighs/atom = 8.7561
Neighbor list builds = 0
Dangerous builds = 0
        # write_dump all atom ${dumpfile}
        next i
jump SELF loop1
        displace_atoms upper move ${xstep1} 0.0 0.0 units lattice
        displace_atoms upper move 0.00333333333333333 0.0 0.0 units lattice
        min_style ${style}
        min_style cg
        minimize ${etol} ${ftol} ${maxiter} ${maxeval}
        minimize 1e-12 ${ftol} ${maxiter} ${maxeval}
        minimize 1e-12 1e-08 ${maxiter} ${maxeval}
        minimize 1e-12 1e-08 10000 ${maxeval}
        minimize 1e-12 1e-08 10000 20000
WARNING: Resetting reneighboring criteria during minimization (../min.cpp:168)
Memory usage per processor = 3.35169 Mbytes
Step Temp PotEng Lx Ly Lz 
      32            0   -241.94804    2.2449075    38.890776    1.1224537 
      33            0   -241.94804    2.2449075    38.890776    1.1224537 
      34            0   -241.94804    2.2449075    38.890776    1.1224537 
Loop time of 0.000544037 on 1 procs for 2 steps with 82 atoms

Minimization stats:
  Stopping criterion = linesearch alpha is zero
  Energy initial, next-to-last, final = 
        -241.948035576     -241.948038244     -241.948038244
  Force two-norm initial, final = 0.027427 0.0228431
  Force max component initial, final = 0.00995157 0.00775641
  Final line search alpha, max atom move = 1.52588e-05 1.18353e-07
  Iterations, force evaluations = 2 25

Pair  time (%) = 0.00045022 (82.7555)
Neigh time (%) = 0 (0)
Comm  time (%) = 2.90556e-05 (5.34075)
Outpt time (%) = 7.06455e-06 (1.29854)
Other time (%) = 5.76961e-05 (10.6052)

Nlocal:    82 ave 82 max 82 min
Histogram: 1 0 0 0 0 0 0 0 0 0
Nghost:    175 ave 175 max 175 min
Histogram: 1 0 0 0 0 0 0 0 0 0
Neighs:    718 ave 718 max 718 min
Histogram: 1 0 0 0 0 0 0 0 0 0

Total # of neighbors = 718
Ave neighs/atom = 8.7561
Neighbor list builds = 0
Dangerous builds = 0
        # write_dump all atom ${dumpfile}
        next i
jump SELF loop1
        displace_atoms upper move ${xstep1} 0.0 0.0 units lattice
        displace_atoms upper move 0.00333333333333333 0.0 0.0 units lattice
        min_style ${style}
        min_style cg
        minimize ${etol} ${ftol} ${maxiter} ${maxeval}
        minimize 1e-12 ${ftol} ${maxiter} ${maxeval}
        minimize 1e-12 1e-08 ${maxiter} ${maxeval}
        minimize 1e-12 1e-08 10000 ${maxeval}
        minimize 1e-12 1e-08 10000 20000
WARNING: Resetting reneighboring criteria during minimization (../min.cpp:168)
Memory usage per processor = 3.35169 Mbytes
Step Temp PotEng Lx Ly Lz 
      34            0   -241.94343    2.2449075    38.890776    1.1224537 
      35            0   -241.94344    2.2449075    38.890776    1.1224537 
      36            0   -241.94345    2.2449075    38.890776    1.1224537 
      37            0   -241.94345    2.2449075    38.890776    1.1224537 
Loop time of 0.000650974 on 1 procs for 3 steps with 82 atoms

Minimization stats:
  Stopping criterion = linesearch alpha is zero
  Energy initial, next-to-last, final = 
        -241.943430309     -241.943448178     -241.943448178
  Force two-norm initial, final = 0.0392667 0.0220997
  Force max component initial, final = 0.0164198 0.00674291
  Final line search alpha, max atom move = 1.52588e-05 1.02889e-07
  Iterations, force evaluations = 3 32

Pair  time (%) = 0.000525795 (80.7705)
Neigh time (%) = 0 (0)
Comm  time (%) = 3.81557e-05 (5.86133)
Outpt time (%) = 1.18336e-05 (1.81783)
Other time (%) = 7.51896e-05 (11.5503)

Nlocal:    82 ave 82 max 82 min
Histogram: 1 0 0 0 0 0 0 0 0 0
Nghost:    175 ave 175 max 175 min
Histogram: 1 0 0 0 0 0 0 0 0 0
Neighs:    718 ave 718 max 718 min
Histogram: 1 0 0 0 0 0 0 0 0 0

Total # of neighbors = 718
Ave neighs/atom = 8.7561
Neighbor list builds = 0
Dangerous builds = 0
        # write_dump all atom ${dumpfile}
        next i
jump SELF loop1
        displace_atoms upper move ${xstep1} 0.0 0.0 units lattice
        displace_atoms upper move 0.00333333333333333 0.0 0.0 units lattice
        min_style ${style}
        min_style cg
        minimize ${etol} ${ftol} ${maxiter} ${maxeval}
        minimize 1e-12 ${ftol} ${maxiter} ${maxeval}
        minimize 1e-12 1e-08 ${maxiter} ${maxeval}
        minimize 1e-12 1e-08 10000 ${maxeval}
        minimize 1e-12 1e-08 10000 20000
WARNING: Resetting reneighboring criteria during minimization (../min.cpp:168)
Memory usage per processor = 3.35169 Mbytes
Step Temp PotEng Lx Ly Lz 
      37            0   -241.93871    2.2449075    38.890779    1.1224537 
      38            0   -241.93872    2.2449075    38.890779    1.1224537 
      39            0   -241.93872    2.2449075    38.890779    1.1224537 
Loop time of 0.000487001 on 1 procs for 2 steps with 82 atoms

Minimization stats:
  Stopping criterion = linesearch alpha is zero
  Energy initial, next-to-last, final = 
        -241.938711647     -241.938721879     -241.938721879
  Force two-norm initial, final = 0.0279552 0.0236054
  Force max component initial, final = 0.00956639 0.00851627
  Final line search alpha, max atom move = 1.52588e-05 1.29948e-07
  Iterations, force evaluations = 2 24

Pair  time (%) = 0.000399199 (81.9709)
Neigh time (%) = 0 (0)
Comm  time (%) = 2.7889e-05 (5.72669)
Outpt time (%) = 7.0167e-06 (1.4408)
Other time (%) = 5.28963e-05 (10.8616)

Nlocal:    82 ave 82 max 82 min
Histogram: 1 0 0 0 0 0 0 0 0 0
Nghost:    175 ave 175 max 175 min
Histogram: 1 0 0 0 0 0 0 0 0 0
Neighs:    718 ave 718 max 718 min
Histogram: 1 0 0 0 0 0 0 0 0 0

Total # of neighbors = 718
Ave neighs/atom = 8.7561
Neighbor list builds = 0
Dangerous builds = 0
        # write_dump all atom ${dumpfile}
        next i
jump SELF loop1
        displace_atoms upper move ${xstep1} 0.0 0.0 units lattice
        displace_atoms upper move 0.00333333333333333 0.0 0.0 units lattice
        min_style ${style}
        min_style cg
        minimize ${etol} ${ftol} ${maxiter} ${maxeval}
        minimize 1e-12 ${ftol} ${maxiter} ${maxeval}
        minimize 1e-12 1e-08 ${maxiter} ${maxeval}
        minimize 1e-12 1e-08 10000 ${maxeval}
        minimize 1e-12 1e-08 10000 20000
WARNING: Resetting reneighboring criteria during minimization (../min.cpp:168)
Memory usage per processor = 3.35169 Mbytes
Step Temp PotEng Lx Ly Lz 
      39            0   -241.93385    2.2449075    38.890781    1.1224537 
      40            0   -241.93386    2.2449075    38.890781    1.1224537 
      41            0   -241.93386    2.2449075    38.890781    1.1224537 
      42            0   -241.93386    2.2449075    38.890781    1.1224537 
Loop time of 0.000640059 on 1 procs for 3 steps with 82 atoms

Minimization stats:
  Stopping criterion = linesearch alpha is zero
  Energy initial, next-to-last, final = 
        -241.933847878     -241.933861373     -241.933861373
  Force two-norm initial, final = 0.0324182 0.0194382
  Force max component initial, final = 0.0116481 0.00655126
  Final line search alpha, max atom move = 3.05176e-05 1.99929e-07
  Iterations, force evaluations = 3 31

Pair  time (%) = 0.000517955 (80.9229)
Neigh time (%) = 0 (0)
Comm  time (%) = 3.78668e-05 (5.91613)
Outpt time (%) = 1.09583e-05 (1.71207)
Other time (%) = 7.32795e-05 (11.4489)

Nlocal:    82 ave 82 max 82 min
Histogram: 1 0 0 0 0 0 0 0 0 0
Nghost:    175 ave 175 max 175 min
Histogram: 1 0 0 0 0 0 0 0 0 0
Neighs:    718 ave 718 max 718 min
Histogram: 1 0 0 0 0 0 0 0 0 0

Total # of neighbors = 718
Ave neighs/atom = 8.7561
Neighbor list builds = 0
Dangerous builds = 0
        # write_dump all atom ${dumpfile}
        next i
jump SELF loop1
        displace_atoms upper move ${xstep1} 0.0 0.0 units lattice
        displace_atoms upper move 0.00333333333333333 0.0 0.0 units lattice
        min_style ${style}
        min_style cg
        minimize ${etol} ${ftol} ${maxiter} ${maxeval}
        minimize 1e-12 ${ftol} ${maxiter} ${maxeval}
        minimize 1e-12 1e-08 ${maxiter} ${maxeval}
        minimize 1e-12 1e-08 10000 ${maxeval}
        minimize 1e-12 1e-08 10000 20000
WARNING: Resetting reneighboring criteria during minimization (../min.cpp:168)
Memory usage per processor = 3.35169 Mbytes
Step Temp PotEng Lx Ly Lz 
      42            0   -241.92886    2.2449075    38.890784    1.1224537 
      43            0   -241.92886    2.2449075    38.890784    1.1224537 
      44            0   -241.92887    2.2449075    38.890784    1.1224537 
      45            0   -241.92887    2.2449075    38.890784    1.1224537 
      46            0   -241.92888    2.2449075    38.890784    1.1224537 
      47            0   -241.92888    2.2449075    38.890784    1.1224537 
Loop time of 0.00095896 on 1 procs for 5 steps with 82 atoms

Minimization stats:
  Stopping criterion = linesearch alpha is zero
  Energy initial, next-to-last, final = 
        -241.928856614     -241.928877719     -241.928877719
  Force two-norm initial, final = 0.0382477 0.0162098
  Force max component initial, final = 0.0164701 0.00487845
  Final line search alpha, max atom move = 3.05176e-05 1.48878e-07
  Iterations, force evaluations = 5 46

Pair  time (%) = 0.000773372 (80.6469)
Neigh time (%) = 0 (0)
Comm  time (%) = 5.67521e-05 (5.91809)
Outpt time (%) = 2.69768e-05 (2.81313)
Other time (%) = 0.000101859 (10.6219)

Nlocal:    82 ave 82 max 82 min
Histogram: 1 0 0 0 0 0 0 0 0 0
Nghost:    175 ave 175 max 175 min
Histogram: 1 0 0 0 0 0 0 0 0 0
Neighs:    718 ave 718 max 718 min
Histogram: 1 0 0 0 0 0 0 0 0 0

Total # of neighbors = 718
Ave neighs/atom = 8.7561
Neighbor list builds = 0
Dangerous builds = 0
        # write_dump all atom ${dumpfile}
        next i
jump SELF loop1
        displace_atoms upper move ${xstep1} 0.0 0.0 units lattice
        displace_atoms upper move 0.00333333333333333 0.0 0.0 units lattice
        min_style ${style}
        min_style cg
        minimize ${etol} ${ftol} ${maxiter} ${maxeval}
        minimize 1e-12 ${ftol} ${maxiter} ${maxeval}
        minimize 1e-12 1e-08 ${maxiter} ${maxeval}
        minimize 1e-12 1e-08 10000 ${maxeval}
        minimize 1e-12 1e-08 10000 20000
WARNING: Resetting reneighboring criteria during minimization (../min.cpp:168)
Memory usage per processor = 3.35169 Mbytes
Step Temp PotEng Lx Ly Lz 
      47            0   -241.92375    2.2449075     38.89079    1.1224537 
      48            0   -241.92376    2.2449075     38.89079    1.1224537 
      49            0   -241.92377    2.2449075     38.89079    1.1224537 
      50            0   -241.92377    2.2449075     38.89079    1.1224537 
Loop time of 0.021155 on 1 procs for 3 steps with 82 atoms

Minimization stats:
  Stopping criterion = linesearch alpha is zero
  Energy initial, next-to-last, final = 
        -241.923746311      -241.92376637      -241.92376637
  Force two-norm initial, final = 0.037036 0.0193566
  Force max component initial, final = 0.0166772 0.00784096
  Final line search alpha, max atom move = 1.52588e-05 1.19644e-07
  Iterations, force evaluations = 3 31

Pair  time (%) = 0.000581869 (2.7505)
Neigh time (%) = 0 (0)
Comm  time (%) = 6.79457e-05 (0.32118)
Outpt time (%) = 1.42006e-05 (0.0671262)
Other time (%) = 0.020491 (96.8612)

Nlocal:    82 ave 82 max 82 min
Histogram: 1 0 0 0 0 0 0 0 0 0
Nghost:    175 ave 175 max 175 min
Histogram: 1 0 0 0 0 0 0 0 0 0
Neighs:    718 ave 718 max 718 min
Histogram: 1 0 0 0 0 0 0 0 0 0

Total # of neighbors = 718
Ave neighs/atom = 8.7561
Neighbor list builds = 0
Dangerous builds = 0
        # write_dump all atom ${dumpfile}
        next i
jump SELF loop1
        displace_atoms upper move ${xstep1} 0.0 0.0 units lattice
        displace_atoms upper move 0.00333333333333333 0.0 0.0 units lattice
        min_style ${style}
        min_style cg
        minimize ${etol} ${ftol} ${maxiter} ${maxeval}
        minimize 1e-12 ${ftol} ${maxiter} ${maxeval}
        minimize 1e-12 1e-08 ${maxiter} ${maxeval}
        minimize 1e-12 1e-08 10000 ${maxeval}
        minimize 1e-12 1e-08 10000 20000
WARNING: Resetting reneighboring criteria during minimization (../min.cpp:168)
Memory usage per processor = 3.35169 Mbytes
Step Temp PotEng Lx Ly Lz 
      50            0   -241.91851    2.2449075    38.890795    1.1224537 
      51            0   -241.91852    2.2449075    38.890795    1.1224537 
      52            0   -241.91853    2.2449075    38.890795    1.1224537 
      53            0   -241.91853    2.2449075    38.890795    1.1224537 
Loop time of 0.000632964 on 1 procs for 3 steps with 82 atoms

Minimization stats:
  Stopping criterion = linesearch alpha is zero
  Energy initial, next-to-last, final = 
        -241.918513337     -241.918533023     -241.918533023
  Force two-norm initial, final = 0.0417613 0.0192529
  Force max component initial, final = 0.0185049 0.00748937
  Final line search alpha, max atom move = 1.52588e-05 1.14279e-07
  Iterations, force evaluations = 3 31

Pair  time (%) = 0.000513133 (81.0683)
Neigh time (%) = 0 (0)
Comm  time (%) = 3.67073e-05 (5.79926)
Outpt time (%) = 1.28539e-05 (2.03074)
Other time (%) = 7.02697e-05 (11.1017)

Nlocal:    82 ave 82 max 82 min
Histogram: 1 0 0 0 0 0 0 0 0 0
Nghost:    175 ave 175 max 175 min
Histogram: 1 0 0 0 0 0 0 0 0 0
Neighs:    718 ave 718 max 718 min
Histogram: 1 0 0 0 0 0 0 0 0 0

Total # of neighbors = 718
Ave neighs/atom = 8.7561
Neighbor list builds = 0
Dangerous builds = 0
        # write_dump all atom ${dumpfile}
        next i
jump SELF loop1
        displace_atoms upper move ${xstep1} 0.0 0.0 units lattice
        displace_atoms upper move 0.00333333333333333 0.0 0.0 units lattice
        min_style ${style}
        min_style cg
        minimize ${etol} ${ftol} ${maxiter} ${maxeval}
        minimize 1e-12 ${ftol} ${maxiter} ${maxeval}
        minimize 1e-12 1e-08 ${maxiter} ${maxeval}
        minimize 1e-12 1e-08 10000 ${maxeval}
        minimize 1e-12 1e-08 10000 20000
WARNING: Resetting reneighboring criteria during minimization (../min.cpp:168)
Memory usage per processor = 3.35169 Mbytes
Step Temp PotEng Lx Ly Lz 
      53            0   -241.91316    2.2449075    38.890799    1.1224537 
      54            0   -241.91317    2.2449075    38.890799    1.1224537 
      55            0   -241.91318    2.2449075    38.890799    1.1224537 
      56            0   -241.91319    2.2449075    38.890799    1.1224537 
      57            0   -241.91319    2.2449075    38.890799    1.1224537 
Loop time of 0.000830068 on 1 procs for 4 steps with 82 atoms

Minimization stats:
  Stopping criterion = linesearch alpha is zero
  Energy initial, next-to-last, final = 
        -241.913160338     -241.913185062     -241.913185062
  Force two-norm initial, final = 0.0466958 0.0163935
  Force max component initial, final = 0.0212876 0.00470398
  Final line search alpha, max atom move = 3.05176e-05 1.43554e-07
  Iterations, force evaluations = 4 38

Pair  time (%) = 0.000679544 (81.866)
Neigh time (%) = 0 (0)
Comm  time (%) = 4.82646e-05 (5.81454)
Outpt time (%) = 1.61157e-05 (1.94149)
Other time (%) = 8.61442e-05 (10.378)

Nlocal:    82 ave 82 max 82 min
Histogram: 1 0 0 0 0 0 0 0 0 0
Nghost:    175 ave 175 max 175 min
Histogram: 1 0 0 0 0 0 0 0 0 0
Neighs:    718 ave 718 max 718 min
Histogram: 1 0 0 0 0 0 0 0 0 0

Total # of neighbors = 718
Ave neighs/atom = 8.7561
Neighbor list builds = 0
Dangerous builds = 0
        # write_dump all atom ${dumpfile}
        next i
jump SELF loop1
        displace_atoms upper move ${xstep1} 0.0 0.0 units lattice
        displace_atoms upper move 0.00333333333333333 0.0 0.0 units lattice
        min_style ${style}
        min_style cg
        minimize ${etol} ${ftol} ${maxiter} ${maxeval}
        minimize 1e-12 ${ftol} ${maxiter} ${maxeval}
        minimize 1e-12 1e-08 ${maxiter} ${maxeval}
        minimize 1e-12 1e-08 10000 ${maxeval}
        minimize 1e-12 1e-08 10000 20000
WARNING: Resetting reneighboring criteria during minimization (../min.cpp:168)
Memory usage per processor = 3.35169 Mbytes
Step Temp PotEng Lx Ly Lz 
      57            0   -241.90775    2.2449075    38.890805    1.1224537 
      58            0   -241.90776    2.2449075    38.890805    1.1224537 
      59            0   -241.90778    2.2449075    38.890805    1.1224537 
      60            0    -241.9078    2.2449075    38.890805    1.1224537 
      61            0    -241.9078    2.2449075    38.890805    1.1224537 
Loop time of 0.000950042 on 1 procs for 4 steps with 82 atoms

Minimization stats:
  Stopping criterion = linesearch alpha is zero
  Energy initial, next-to-last, final = 
         -241.90774745     -241.907798615     -241.907798615
  Force two-norm initial, final = 0.0712554 0.0393685
  Force max component initial, final = 0.0346787 0.0151824
  Final line search alpha, max atom move = 7.62939e-06 1.15833e-07
  Iterations, force evaluations = 4 38

Pair  time (%) = 0.000762785 (80.2896)
Neigh time (%) = 0 (0)
Comm  time (%) = 6.05725e-05 (6.37577)
Outpt time (%) = 1.71841e-05 (1.80877)
Other time (%) = 0.0001095 (11.5259)

Nlocal:    82 ave 82 max 82 min
Histogram: 1 0 0 0 0 0 0 0 0 0
Nghost:    175 ave 175 max 175 min
Histogram: 1 0 0 0 0 0 0 0 0 0
Neighs:    714 ave 714 max 714 min
Histogram: 1 0 0 0 0 0 0 0 0 0

Total # of neighbors = 714
Ave neighs/atom = 8.70732
Neighbor list builds = 0
Dangerous builds = 0
        # write_dump all atom ${dumpfile}
        next i
jump SELF loop1
        displace_atoms upper move ${xstep1} 0.0 0.0 units lattice
        displace_atoms upper move 0.00333333333333333 0.0 0.0 units lattice
        min_style ${style}
        min_style cg
        minimize ${etol} ${ftol} ${maxiter} ${maxeval}
        minimize 1e-12 ${ftol} ${maxiter} ${maxeval}
        minimize 1e-12 1e-08 ${maxiter} ${maxeval}
        minimize 1e-12 1e-08 10000 ${maxeval}
        minimize 1e-12 1e-08 10000 20000
WARNING: Resetting reneighboring criteria during minimization (../min.cpp:168)
Memory usage per processor = 3.35169 Mbytes
Step Temp PotEng Lx Ly Lz 
      61            0   -241.90239    2.2449075    38.890814    1.1224537 
      62            0   -241.90242    2.2449075    38.890814    1.1224537 
      63            0   -241.90243    2.2449075    38.890814    1.1224537 
      64            0   -241.90245    2.2449075    38.890814    1.1224537 
      65            0   -241.90247    2.2449075    38.890814    1.1224537 
      66            0   -241.90247    2.2449075    38.890814    1.1224537 
Loop time of 0.000891035 on 1 procs for 5 steps with 82 atoms

Minimization stats:
  Stopping criterion = linesearch alpha is zero
  Energy initial, next-to-last, final = 
        -241.902394734     -241.902469154     -241.902469154
  Force two-norm initial, final = 0.0729086 0.0383902
  Force max component initial, final = 0.031091 0.0127652
  Final line search alpha, max atom move = 7.62939e-06 9.73911e-08
  Iterations, force evaluations = 5 44

Pair  time (%) = 0.000721173 (80.9365)
Neigh time (%) = 0 (0)
Comm  time (%) = 5.52371e-05 (6.19921)
Outpt time (%) = 2.27963e-05 (2.55841)
Other time (%) = 9.18288e-05 (10.3059)

Nlocal:    82 ave 82 max 82 min
Histogram: 1 0 0 0 0 0 0 0 0 0
Nghost:    175 ave 175 max 175 min
Histogram: 1 0 0 0 0 0 0 0 0 0
Neighs:    714 ave 714 max 714 min
Histogram: 1 0 0 0 0 0 0 0 0 0

Total # of neighbors = 714
Ave neighs/atom = 8.70732
Neighbor list builds = 0
Dangerous builds = 0
        # write_dump all atom ${dumpfile}
        next i
jump SELF loop1
        displace_atoms upper move ${xstep1} 0.0 0.0 units lattice
        displace_atoms upper move 0.00333333333333333 0.0 0.0 units lattice
        min_style ${style}
        min_style cg
        minimize ${etol} ${ftol} ${maxiter} ${maxeval}
        minimize 1e-12 ${ftol} ${maxiter} ${maxeval}
        minimize 1e-12 1e-08 ${maxiter} ${maxeval}
        minimize 1e-12 1e-08 10000 ${maxeval}
        minimize 1e-12 1e-08 10000 20000
WARNING: Resetting reneighboring criteria during minimization (../min.cpp:168)
Memory usage per processor = 3.35169 Mbytes
Step Temp PotEng Lx Ly Lz 
      66            0    -241.8971    2.2449075    38.890835    1.1224537 
      67            0   -241.89711    2.2449075    38.890835    1.1224537 
      68            0   -241.89712    2.2449075    38.890835    1.1224537 
      69            0   -241.89713    2.2449075    38.890835    1.1224537 
      70            0   -241.89714    2.2449075    38.890835    1.1224537 
      71            0   -241.89714    2.2449075    38.890835    1.1224537 
      72            0   -241.89714    2.2449075    38.890835    1.1224537 
      73            0   -241.89714    2.2449075    38.890835    1.1224537 
Loop time of 0.00124406 on 1 procs for 7 steps with 82 atoms

Minimization stats:
  Stopping criterion = linesearch alpha is zero
  Energy initial, next-to-last, final = 
        -241.897099323     -241.897140914     -241.897140914
  Force two-norm initial, final = 0.066461 0.0151068
  Force max component initial, final = 0.0282524 0.00362821
  Final line search alpha, max atom move = 3.05176e-05 1.10724e-07
  Iterations, force evaluations = 7 60

Pair  time (%) = 0.00100452 (80.7457)
Neigh time (%) = 0 (0)
Comm  time (%) = 7.07164e-05 (5.68433)
Outpt time (%) = 3.66251e-05 (2.944)
Other time (%) = 0.000132193 (10.6259)

Nlocal:    82 ave 82 max 82 min
Histogram: 1 0 0 0 0 0 0 0 0 0
Nghost:    175 ave 175 max 175 min
Histogram: 1 0 0 0 0 0 0 0 0 0
Neighs:    714 ave 714 max 714 min
Histogram: 1 0 0 0 0 0 0 0 0 0

Total # of neighbors = 714
Ave neighs/atom = 8.70732
Neighbor list builds = 0
Dangerous builds = 0
        # write_dump all atom ${dumpfile}
        next i
jump SELF loop1
        displace_atoms upper move ${xstep1} 0.0 0.0 units lattice
        displace_atoms upper move 0.00333333333333333 0.0 0.0 units lattice
        min_style ${style}
        min_style cg
        minimize ${etol} ${ftol} ${maxiter} ${maxeval}
        minimize 1e-12 ${ftol} ${maxiter} ${maxeval}
        minimize 1e-12 1e-08 ${maxiter} ${maxeval}
        minimize 1e-12 1e-08 10000 ${maxeval}
        minimize 1e-12 1e-08 10000 20000
WARNING: Resetting reneighboring criteria during minimization (../min.cpp:168)
Memory usage per processor = 3.35169 Mbytes
Step Temp PotEng Lx Ly Lz 
      73            0   -241.89178    2.2449075    38.890867    1.1224537 
      74            0    -241.8918    2.2449075    38.890867    1.1224537 
      75            0    -241.8918    2.2449075    38.890867    1.1224537 
      76            0   -241.89182    2.2449075    38.890867    1.1224537 
      77            0   -241.89183    2.2449075    38.890867    1.1224537 
      78            0   -241.89184    2.2449075    38.890867    1.1224537 
      79            0   -241.89184    2.2449075    38.890867    1.1224537 
Loop time of 0.00142011 on 1 procs for 6 steps with 82 atoms

Minimization stats:
  Stopping criterion = linesearch alpha is zero
  Energy initial, next-to-last, final = 
        -241.891780969     -241.891839148     -241.891839148
  Force two-norm initial, final = 0.0697402 0.0429183
  Force max component initial, final = 0.0341181 0.0122689
  Final line search alpha, max atom move = 3.8147e-06 4.68022e-08
  Iterations, force evaluations = 6 52

Pair  time (%) = 0.00120387 (84.7727)
Neigh time (%) = 0 (0)
Comm  time (%) = 5.68447e-05 (4.00284)
Outpt time (%) = 3.17667e-05 (2.23692)
Other time (%) = 0.000127633 (8.98751)

Nlocal:    82 ave 82 max 82 min
Histogram: 1 0 0 0 0 0 0 0 0 0
Nghost:    175 ave 175 max 175 min
Histogram: 1 0 0 0 0 0 0 0 0 0
Neighs:    714 ave 714 max 714 min
Histogram: 1 0 0 0 0 0 0 0 0 0

Total # of neighbors = 714
Ave neighs/atom = 8.70732
Neighbor list builds = 0
Dangerous builds = 0
        # write_dump all atom ${dumpfile}
        next i
jump SELF loop1
        displace_atoms upper move ${xstep1} 0.0 0.0 units lattice
        displace_atoms upper move 0.00333333333333333 0.0 0.0 units lattice
        min_style ${style}
        min_style cg
        minimize ${etol} ${ftol} ${maxiter} ${maxeval}
        minimize 1e-12 ${ftol} ${maxiter} ${maxeval}
        minimize 1e-12 1e-08 ${maxiter} ${maxeval}
        minimize 1e-12 1e-08 10000 ${maxeval}
        minimize 1e-12 1e-08 10000 20000
WARNING: Resetting reneighboring criteria during minimization (../min.cpp:168)
Memory usage per processor = 3.35169 Mbytes
Step Temp PotEng Lx Ly Lz 
      79            0   -241.88651    2.2449075    38.890949    1.1224537 
      80            0   -241.88653    2.2449075    38.890949    1.1224537 
      81            0   -241.88654    2.2449075    38.890949    1.1224537 
      82            0   -241.88654    2.2449075    38.890949    1.1224537 
      83            0   -241.88656    2.2449075    38.890949    1.1224537 
      84            0   -241.88658    2.2449075    38.890949    1.1224537 
      85            0   -241.88658    2.2449075    38.890949    1.1224537 
      86            0   -241.88658    2.2449075    38.890949    1.1224537 
Loop time of 0.0231419 on 1 procs for 7 steps with 82 atoms

Minimization stats:
  Stopping criterion = linesearch alpha is zero
  Energy initial, next-to-last, final = 
        -241.886514788     -241.886582456     -241.886582456
  Force two-norm initial, final = 0.0597465 0.0236825
  Force max component initial, final = 0.0241342 0.00664465
  Final line search alpha, max atom move = 1.52588e-05 1.01389e-07
  Iterations, force evaluations = 7 59

Pair  time (%) = 0.00098616 (4.26136)
Neigh time (%) = 0 (0)
Comm  time (%) = 7.98245e-05 (0.344935)
Outpt time (%) = 0.021941 (94.8106)
Other time (%) = 0.000134938 (0.583088)

Nlocal:    82 ave 82 max 82 min
Histogram: 1 0 0 0 0 0 0 0 0 0
Nghost:    175 ave 175 max 175 min
Histogram: 1 0 0 0 0 0 0 0 0 0
Neighs:    714 ave 714 max 714 min
Histogram: 1 0 0 0 0 0 0 0 0 0

Total # of neighbors = 714
Ave neighs/atom = 8.70732
Neighbor list builds = 0
Dangerous builds = 0
        # write_dump all atom ${dumpfile}
        next i
jump SELF loop1
        displace_atoms upper move ${xstep1} 0.0 0.0 units lattice
        displace_atoms upper move 0.00333333333333333 0.0 0.0 units lattice
        min_style ${style}
        min_style cg
        minimize ${etol} ${ftol} ${maxiter} ${maxeval}
        minimize 1e-12 ${ftol} ${maxiter} ${maxeval}
        minimize 1e-12 1e-08 ${maxiter} ${maxeval}
        minimize 1e-12 1e-08 10000 ${maxeval}
        minimize 1e-12 1e-08 10000 20000
WARNING: Resetting reneighboring criteria during minimization (../min.cpp:168)
Memory usage per processor = 3.35169 Mbytes
Step Temp PotEng Lx Ly Lz 
      86            0   -241.88128    2.2449075    38.891138    1.1224537 
      87            0   -241.88129    2.2449075    38.891138    1.1224537 
      88            0    -241.8813    2.2449075    38.891138    1.1224537 
      89            0   -241.88131    2.2449075    38.891138    1.1224537 
      90            0   -241.88132    2.2449075    38.891138    1.1224537 
      91            0   -241.88133    2.2449075    38.891138    1.1224537 
      92            0   -241.88133    2.2449075    38.891138    1.1224537 
      93            0   -241.88134    2.2449075    38.891138    1.1224537 
      94            0   -241.88134    2.2449075    38.891138    1.1224537 
      95            0   -241.88134    2.2449075    38.891138    1.1224537 
      96            0   -241.88134    2.2449075    38.891138    1.1224537 
      97            0   -241.88134    2.2449075    38.891138    1.1224537 
Loop time of 0.00203794 on 1 procs for 11 steps with 82 atoms

Minimization stats:
  Stopping criterion = linesearch alpha is zero
  Energy initial, next-to-last, final = 
        -241.881276861     -241.881343178     -241.881343178
  Force two-norm initial, final = 0.0723248 0.0130074
  Force max component initial, final = 0.0342473 0.00269671
  Final line search alpha, max atom move = 3.05176e-05 8.22971e-08
  Iterations, force evaluations = 11 85

Pair  time (%) = 0.00164977 (80.9529)
Neigh time (%) = 0 (0)
Comm  time (%) = 0.000115371 (5.66118)
Outpt time (%) = 5.92087e-05 (2.90532)
Other time (%) = 0.000213588 (10.4806)

Nlocal:    82 ave 82 max 82 min
Histogram: 1 0 0 0 0 0 0 0 0 0
Nghost:    175 ave 175 max 175 min
Histogram: 1 0 0 0 0 0 0 0 0 0
Neighs:    714 ave 714 max 714 min
Histogram: 1 0 0 0 0 0 0 0 0 0

Total # of neighbors = 714
Ave neighs/atom = 8.70732
Neighbor list builds = 0
Dangerous builds = 0
        # write_dump all atom ${dumpfile}
        next i
jump SELF loop1
        displace_atoms upper move ${xstep1} 0.0 0.0 units lattice
        displace_atoms upper move 0.00333333333333333 0.0 0.0 units lattice
        min_style ${style}
        min_style cg
        minimize ${etol} ${ftol} ${maxiter} ${maxeval}
        minimize 1e-12 ${ftol} ${maxiter} ${maxeval}
        minimize 1e-12 1e-08 ${maxiter} ${maxeval}
        minimize 1e-12 1e-08 10000 ${maxeval}
        minimize 1e-12 1e-08 10000 20000
WARNING: Resetting reneighboring criteria during minimization (../min.cpp:168)
Memory usage per processor = 3.35169 Mbytes
Step Temp PotEng Lx Ly Lz 
      97            0   -241.87606    2.2449075    38.891462    1.1224537 
      98            0   -241.87607    2.2449075    38.891462    1.1224537 
      99            0   -241.87608    2.2449075    38.891462    1.1224537 
     100            0   -241.87609    2.2449075    38.891462    1.1224537 
     101            0    -241.8761    2.2449075    38.891462    1.1224537 
     102            0    -241.8761    2.2449075    38.891462    1.1224537 
Loop time of 0.000928033 on 1 procs for 5 steps with 82 atoms

Minimization stats:
  Stopping criterion = linesearch alpha is zero
  Energy initial, next-to-last, final = 
        -241.876056734     -241.876101515     -241.876101515
  Force two-norm initial, final = 0.0724024 0.0341473
  Force max component initial, final = 0.0356292 0.00914062
  Final line search alpha, max atom move = 7.62939e-06 6.97374e-08
  Iterations, force evaluations = 5 45

Pair  time (%) = 0.000749042 (80.7129)
Neigh time (%) = 0 (0)
Comm  time (%) = 5.85574e-05 (6.30984)
Outpt time (%) = 2.77171e-05 (2.98665)
Other time (%) = 9.27158e-05 (9.99058)

Nlocal:    82 ave 82 max 82 min
Histogram: 1 0 0 0 0 0 0 0 0 0
Nghost:    175 ave 175 max 175 min
Histogram: 1 0 0 0 0 0 0 0 0 0
Neighs:    714 ave 714 max 714 min
Histogram: 1 0 0 0 0 0 0 0 0 0

Total # of neighbors = 714
Ave neighs/atom = 8.70732
Neighbor list builds = 0
Dangerous builds = 0
        # write_dump all atom ${dumpfile}
        next i
jump SELF loop1
        displace_atoms upper move ${xstep1} 0.0 0.0 units lattice
        displace_atoms upper move 0.00333333333333333 0.0 0.0 units lattice
        min_style ${style}
        min_style cg
        minimize ${etol} ${ftol} ${maxiter} ${maxeval}
        minimize 1e-12 ${ftol} ${maxiter} ${maxeval}
        minimize 1e-12 1e-08 ${maxiter} ${maxeval}
        minimize 1e-12 1e-08 10000 ${maxeval}
        minimize 1e-12 1e-08 10000 20000
WARNING: Resetting reneighboring criteria during minimization (../min.cpp:168)
Memory usage per processor = 3.35169 Mbytes
Step Temp PotEng Lx Ly Lz 
     102            0   -241.87084    2.2449075    38.891647    1.1224537 
     103            0   -241.87087    2.2449075    38.891647    1.1224537 
     104            0   -241.87088    2.2449075    38.891647    1.1224537 
     105            0   -241.87088    2.2449075    38.891647    1.1224537 
     106            0    -241.8709    2.2449075    38.891647    1.1224537 
     107            0   -241.87092    2.2449075    38.891647    1.1224537 
     108            0   -241.87093    2.2449075    38.891647    1.1224537 
     109            0   -241.87095    2.2449075    38.891647    1.1224537 
     110            0   -241.87095    2.2449075    38.891647    1.1224537 
     111            0   -241.87095    2.2449075    38.891647    1.1224537 
     112            0   -241.87095    2.2449075    38.891647    1.1224537 
     113            0   -241.87095    2.2449075    38.891647    1.1224537 
Loop time of 0.00207599 on 1 procs for 11 steps with 82 atoms

Minimization stats:
  Stopping criterion = linesearch alpha is zero
  Energy initial, next-to-last, final = 
        -241.870836604     -241.870952799     -241.870952799
  Force two-norm initial, final = 0.0894121 0.0138115
  Force max component initial, final = 0.0415945 0.00344222
  Final line search alpha, max atom move = 6.10352e-05 2.10097e-07
  Iterations, force evaluations = 11 91

Pair  time (%) = 0.0016556 (79.7498)
Neigh time (%) = 0 (0)
Comm  time (%) = 0.000115881 (5.58198)
Outpt time (%) = 6.96485e-05 (3.35495)
Other time (%) = 0.000234862 (11.3133)

Nlocal:    82 ave 82 max 82 min
Histogram: 1 0 0 0 0 0 0 0 0 0
Nghost:    175 ave 175 max 175 min
Histogram: 1 0 0 0 0 0 0 0 0 0
Neighs:    714 ave 714 max 714 min
Histogram: 1 0 0 0 0 0 0 0 0 0

Total # of neighbors = 714
Ave neighs/atom = 8.70732
Neighbor list builds = 0
Dangerous builds = 0
        # write_dump all atom ${dumpfile}
        next i
jump SELF loop1
        displace_atoms upper move ${xstep1} 0.0 0.0 units lattice
        displace_atoms upper move 0.00333333333333333 0.0 0.0 units lattice
        min_style ${style}
        min_style cg
        minimize ${etol} ${ftol} ${maxiter} ${maxeval}
        minimize 1e-12 ${ftol} ${maxiter} ${maxeval}
        minimize 1e-12 1e-08 ${maxiter} ${maxeval}
        minimize 1e-12 1e-08 10000 ${maxeval}
        minimize 1e-12 1e-08 10000 20000
WARNING: Resetting reneighboring criteria during minimization (../min.cpp:168)
Memory usage per processor = 3.35169 Mbytes
Step Temp PotEng Lx Ly Lz 
     113            0   -241.86573    2.2449075    38.892252    1.1224537 
     114            0   -241.86573    2.2449075    38.892252    1.1224537 
     115            0   -241.86573    2.2449075    38.892252    1.1224537 
Loop time of 0.000668095 on 1 procs for 2 steps with 82 atoms

Minimization stats:
  Stopping criterion = linesearch alpha is zero
  Energy initial, next-to-last, final = 
        -241.865731988     -241.865732992     -241.865732992
  Force two-norm initial, final = 0.0711992 0.0677669
  Force max component initial, final = 0.034973 0.0332178
  Final line search alpha, max atom move = 1.90735e-06 6.33579e-08
  Iterations, force evaluations = 2 32

Pair  time (%) = 0.00055361 (82.8639)
Neigh time (%) = 0 (0)
Comm  time (%) = 3.92282e-05 (5.87166)
Outpt time (%) = 5.92833e-06 (0.887349)
Other time (%) = 6.93287e-05 (10.3771)

Nlocal:    82 ave 82 max 82 min
Histogram: 1 0 0 0 0 0 0 0 0 0
Nghost:    175 ave 175 max 175 min
Histogram: 1 0 0 0 0 0 0 0 0 0
Neighs:    714 ave 714 max 714 min
Histogram: 1 0 0 0 0 0 0 0 0 0

Total # of neighbors = 714
Ave neighs/atom = 8.70732
Neighbor list builds = 0
Dangerous builds = 0
        # write_dump all atom ${dumpfile}
        next i
jump SELF loop1
        displace_atoms upper move ${xstep1} 0.0 0.0 units lattice
        displace_atoms upper move 0.00333333333333333 0.0 0.0 units lattice
        min_style ${style}
        min_style cg
        minimize ${etol} ${ftol} ${maxiter} ${maxeval}
        minimize 1e-12 ${ftol} ${maxiter} ${maxeval}
        minimize 1e-12 1e-08 ${maxiter} ${maxeval}
        minimize 1e-12 1e-08 10000 ${maxeval}
        minimize 1e-12 1e-08 10000 20000
WARNING: Resetting reneighboring criteria during minimization (../min.cpp:168)
Memory usage per processor = 3.35169 Mbytes
Step Temp PotEng Lx Ly Lz 
     115            0   -241.86046    2.2449075    38.892252    1.1224537 
     116            0   -241.86055    2.2449075    38.892252    1.1224537 
     117            0   -241.86056    2.2449075    38.892252    1.1224537 
     118            0   -241.86057    2.2449075    38.892252    1.1224537 
     119            0   -241.86058    2.2449075    38.892252    1.1224537 
     120            0    -241.8606    2.2449075    38.892252    1.1224537 
     121            0   -241.86061    2.2449075    38.892252    1.1224537 
     122            0   -241.86061    2.2449075    38.892252    1.1224537 
Loop time of 0.00187501 on 1 procs for 7 steps with 82 atoms

Minimization stats:
  Stopping criterion = linesearch alpha is zero
  Energy initial, next-to-last, final = 
         -241.86045654     -241.860612176     -241.860612176
  Force two-norm initial, final = 0.14194 0.0408843
  Force max component initial, final = 0.0706565 0.0106873
  Final line search alpha, max atom move = 7.62939e-06 8.15373e-08
  Iterations, force evaluations = 7 59

Pair  time (%) = 0.000974399 (51.9677)
Neigh time (%) = 0 (0)
Comm  time (%) = 8.89533e-05 (4.74416)
Outpt time (%) = 0.000682123 (36.3798)
Other time (%) = 0.000129533 (6.90837)

Nlocal:    82 ave 82 max 82 min
Histogram: 1 0 0 0 0 0 0 0 0 0
Nghost:    175 ave 175 max 175 min
Histogram: 1 0 0 0 0 0 0 0 0 0
Neighs:    714 ave 714 max 714 min
Histogram: 1 0 0 0 0 0 0 0 0 0

Total # of neighbors = 714
Ave neighs/atom = 8.70732
Neighbor list builds = 0
Dangerous builds = 0
        # write_dump all atom ${dumpfile}
        next i
jump SELF loop1
        displace_atoms upper move ${xstep1} 0.0 0.0 units lattice
        displace_atoms upper move 0.00333333333333333 0.0 0.0 units lattice
        min_style ${style}
        min_style cg
        minimize ${etol} ${ftol} ${maxiter} ${maxeval}
        minimize 1e-12 ${ftol} ${maxiter} ${maxeval}
        minimize 1e-12 1e-08 ${maxiter} ${maxeval}
        minimize 1e-12 1e-08 10000 ${maxeval}
        minimize 1e-12 1e-08 10000 20000
WARNING: Resetting reneighboring criteria during minimization (../min.cpp:168)
Memory usage per processor = 3.35169 Mbytes
Step Temp PotEng Lx Ly Lz 
     122            0   -241.85544    2.2449075    38.892602    1.1224537 
     123            0   -241.85546    2.2449075    38.892602    1.1224537 
     124            0   -241.85546    2.2449075    38.892602    1.1224537 
Loop time of 0.000381043 on 1 procs for 2 steps with 82 atoms

Minimization stats:
  Stopping criterion = linesearch alpha is zero
  Energy initial, next-to-last, final = 
        -241.855436301     -241.855464903     -241.855464903
  Force two-norm initial, final = 0.0743747 0.0302089
  Force max component initial, final = 0.0315393 0.0101677
  Final line search alpha, max atom move = 7.62939e-06 7.75735e-08
  Iterations, force evaluations = 2 26

Pair  time (%) = 0.000311719 (81.8068)
Neigh time (%) = 0 (0)
Comm  time (%) = 2.18978e-05 (5.74682)
Outpt time (%) = 6.11704e-06 (1.60534)
Other time (%) = 4.13092e-05 (10.8411)

Nlocal:    82 ave 82 max 82 min
Histogram: 1 0 0 0 0 0 0 0 0 0
Nghost:    175 ave 175 max 175 min
Histogram: 1 0 0 0 0 0 0 0 0 0
Neighs:    714 ave 714 max 714 min
Histogram: 1 0 0 0 0 0 0 0 0 0

Total # of neighbors = 714
Ave neighs/atom = 8.70732
Neighbor list builds = 0
Dangerous builds = 0
        # write_dump all atom ${dumpfile}
        next i
jump SELF loop1
        displace_atoms upper move ${xstep1} 0.0 0.0 units lattice
        displace_atoms upper move 0.00333333333333333 0.0 0.0 units lattice
        min_style ${style}
        min_style cg
        minimize ${etol} ${ftol} ${maxiter} ${maxeval}
        minimize 1e-12 ${ftol} ${maxiter} ${maxeval}
        minimize 1e-12 1e-08 ${maxiter} ${maxeval}
        minimize 1e-12 1e-08 10000 ${maxeval}
        minimize 1e-12 1e-08 10000 20000
WARNING: Resetting reneighboring criteria during minimization (../min.cpp:168)
Memory usage per processor = 3.35169 Mbytes
Step Temp PotEng Lx Ly Lz 
     124            0   -241.85027    2.2449075    38.892619    1.1224537 
     125            0   -241.85032    2.2449075    38.892619    1.1224537 
     126            0   -241.85035    2.2449075    38.892619    1.1224537 
     127            0   -241.85036    2.2449075    38.892619    1.1224537 
     128            0   -241.85036    2.2449075    38.892619    1.1224537 
Loop time of 0.000849021 on 1 procs for 4 steps with 82 atoms

Minimization stats:
  Stopping criterion = linesearch alpha is zero
  Energy initial, next-to-last, final = 
        -241.850271445     -241.850355242     -241.850355242
  Force two-norm initial, final = 0.094978 0.0332576
  Force max component initial, final = 0.0458185 0.0100438
  Final line search alpha, max atom move = 7.62939e-06 7.6628e-08
  Iterations, force evaluations = 4 40

Pair  time (%) = 0.000688113 (81.0478)
Neigh time (%) = 0 (0)
Comm  time (%) = 6.31186e-05 (7.43428)
Outpt time (%) = 1.712e-05 (2.01644)
Other time (%) = 8.06694e-05 (9.50146)

Nlocal:    82 ave 82 max 82 min
Histogram: 1 0 0 0 0 0 0 0 0 0
Nghost:    175 ave 175 max 175 min
Histogram: 1 0 0 0 0 0 0 0 0 0
Neighs:    714 ave 714 max 714 min
Histogram: 1 0 0 0 0 0 0 0 0 0

Total # of neighbors = 714
Ave neighs/atom = 8.70732
Neighbor list builds = 0
Dangerous builds = 0
        # write_dump all atom ${dumpfile}
        next i
jump SELF loop1
        displace_atoms upper move ${xstep1} 0.0 0.0 units lattice
        displace_atoms upper move 0.00333333333333333 0.0 0.0 units lattice
        min_style ${style}
        min_style cg
        minimize ${etol} ${ftol} ${maxiter} ${maxeval}
        minimize 1e-12 ${ftol} ${maxiter} ${maxeval}
        minimize 1e-12 1e-08 ${maxiter} ${maxeval}
        minimize 1e-12 1e-08 10000 ${maxeval}
        minimize 1e-12 1e-08 10000 20000
WARNING: Resetting reneighboring criteria during minimization (../min.cpp:168)
Memory usage per processor = 3.35169 Mbytes
Step Temp PotEng Lx Ly Lz 
     128            0   -241.84523    2.2449075    38.892735    1.1224537 
     129            0   -241.84525    2.2449075    38.892735    1.1224537 
     130            0   -241.84528    2.2449075    38.892735    1.1224537 
     131            0   -241.84529    2.2449075    38.892735    1.1224537 
     132            0   -241.84531    2.2449075    38.892735    1.1224537 
     133            0   -241.84531    2.2449075    38.892735    1.1224537 
     134            0   -241.84531    2.2449075    38.892735    1.1224537 
Loop time of 0.00167909 on 1 procs for 6 steps with 82 atoms

Minimization stats:
  Stopping criterion = linesearch alpha is zero
  Energy initial, next-to-last, final = 
        -241.845225275     -241.845308007     -241.845308007
  Force two-norm initial, final = 0.0690561 0.0595741
  Force max component initial, final = 0.0308998 0.0198077
  Final line search alpha, max atom move = 1.90735e-06 3.77801e-08
  Iterations, force evaluations = 6 58

Pair  time (%) = 0.00144292 (85.9343)
Neigh time (%) = 0 (0)
Comm  time (%) = 7.48159e-05 (4.45573)
Outpt time (%) = 3.51907e-05 (2.09582)
Other time (%) = 0.00012617 (7.51416)

Nlocal:    82 ave 82 max 82 min
Histogram: 1 0 0 0 0 0 0 0 0 0
Nghost:    175 ave 175 max 175 min
Histogram: 1 0 0 0 0 0 0 0 0 0
Neighs:    714 ave 714 max 714 min
Histogram: 1 0 0 0 0 0 0 0 0 0

Total # of neighbors = 714
Ave neighs/atom = 8.70732
Neighbor list builds = 0
Dangerous builds = 0
        # write_dump all atom ${dumpfile}
        next i
jump SELF loop1
        displace_atoms upper move ${xstep1} 0.0 0.0 units lattice
        displace_atoms upper move 0.00333333333333333 0.0 0.0 units lattice
        min_style ${style}
        min_style cg
        minimize ${etol} ${ftol} ${maxiter} ${maxeval}
        minimize 1e-12 ${ftol} ${maxiter} ${maxeval}
        minimize 1e-12 1e-08 ${maxiter} ${maxeval}
[...]
Neighbor list builds = 0
Dangerous builds = 0
        # write_dump all atom ${dumpfile}
        next i
jump SELF loop1
        displace_atoms upper move ${xstep1} 0.0 0.0 units lattice
        displace_atoms upper move 0.00333333333333333 0.0 0.0 units lattice
        min_style ${style}
        min_style cg
        minimize ${etol} ${ftol} ${maxiter} ${maxeval}
        minimize 1e-12 ${ftol} ${maxiter} ${maxeval}
        minimize 1e-12 1e-08 ${maxiter} ${maxeval}
        minimize 1e-12 1e-08 10000 ${maxeval}
        minimize 1e-12 1e-08 10000 20000
WARNING: Resetting reneighboring criteria during minimization (../min.cpp:168)
Memory usage per processor = 3.35169 Mbytes
Step Temp PotEng Lx Ly Lz 
    1295            0    -241.9829    2.2449075    38.899644    1.1224537 
    1296            0    -241.9829    2.2449075    38.899644    1.1224537 
Loop time of 0.00120202 on 1 procs for 1 steps with 82 atoms

Minimization stats:
  Stopping criterion = linesearch alpha is zero
  Energy initial, next-to-last, final = 
        -241.982898906     -241.982898906     -241.982898906
  Force two-norm initial, final = 0.0190945 0.0190945
  Force max component initial, final = 0.00657787 0.00657787
  Final line search alpha, max atom move = 3.05176e-05 2.00741e-07
  Iterations, force evaluations = 1 16

Pair  time (%) = 0.00106695 (88.7629)
Neigh time (%) = 0 (0)
Comm  time (%) = 6.61258e-05 (5.5012)
Outpt time (%) = 0 (0)
Other time (%) = 6.89466e-05 (5.73588)

Nlocal:    82 ave 82 max 82 min
Histogram: 1 0 0 0 0 0 0 0 0 0
Nghost:    185 ave 185 max 185 min
Histogram: 1 0 0 0 0 0 0 0 0 0
Neighs:    718 ave 718 max 718 min
Histogram: 1 0 0 0 0 0 0 0 0 0

Total # of neighbors = 718
Ave neighs/atom = 8.7561
Neighbor list builds = 0
Dangerous builds = 0
        # write_dump all atom ${dumpfile}
        next i
jump SELF loop1
        displace_atoms upper move ${xstep1} 0.0 0.0 units lattice
        displace_atoms upper move 0.00333333333333333 0.0 0.0 units lattice
        min_style ${style}
        min_style cg
        minimize ${etol} ${ftol} ${maxiter} ${maxeval}
        minimize 1e-12 ${ftol} ${maxiter} ${maxeval}
        minimize 1e-12 1e-08 ${maxiter} ${maxeval}
        minimize 1e-12 1e-08 10000 ${maxeval}
        minimize 1e-12 1e-08 10000 20000
WARNING: Resetting reneighboring criteria during minimization (../min.cpp:168)
Memory usage per processor = 3.35169 Mbytes
Step Temp PotEng Lx Ly Lz 
    1296            0   -241.98604    2.2449075    38.899644    1.1224537 
    1297            0   -241.98604    2.2449075    38.899644    1.1224537 
Loop time of 0.000336991 on 1 procs for 1 steps with 82 atoms

Minimization stats:
  Stopping criterion = linesearch alpha is zero
  Energy initial, next-to-last, final = 
        -241.986043094     -241.986043094     -241.986043094
  Force two-norm initial, final = 0.0176868 0.0176868
  Force max component initial, final = 0.00657787 0.00657787
  Final line search alpha, max atom move = 3.05176e-05 2.00741e-07
  Iterations, force evaluations = 1 16

Pair  time (%) = 0.000281794 (83.6206)
Neigh time (%) = 0 (0)
Comm  time (%) = 2.05123e-05 (6.08689)
Outpt time (%) = 0 (0)
Other time (%) = 3.46849e-05 (10.2925)

Nlocal:    82 ave 82 max 82 min
Histogram: 1 0 0 0 0 0 0 0 0 0
Nghost:    185 ave 185 max 185 min
Histogram: 1 0 0 0 0 0 0 0 0 0
Neighs:    718 ave 718 max 718 min
Histogram: 1 0 0 0 0 0 0 0 0 0

Total # of neighbors = 718
Ave neighs/atom = 8.7561
Neighbor list builds = 0
Dangerous builds = 0
        # write_dump all atom ${dumpfile}
        next i
jump SELF loop1
        displace_atoms upper move ${xstep1} 0.0 0.0 units lattice
        displace_atoms upper move 0.00333333333333333 0.0 0.0 units lattice
        min_style ${style}
        min_style cg
        minimize ${etol} ${ftol} ${maxiter} ${maxeval}
        minimize 1e-12 ${ftol} ${maxiter} ${maxeval}
        minimize 1e-12 1e-08 ${maxiter} ${maxeval}
        minimize 1e-12 1e-08 10000 ${maxeval}
        minimize 1e-12 1e-08 10000 20000
WARNING: Resetting reneighboring criteria during minimization (../min.cpp:168)
Memory usage per processor = 3.35169 Mbytes
Step Temp PotEng Lx Ly Lz 
    1297            0    -241.9889    2.2449075    38.899644    1.1224537 
    1298            0   -241.98891    2.2449075    38.899644    1.1224537 
    1299            0   -241.98891    2.2449075    38.899644    1.1224537 
    1300            0   -241.98891    2.2449075    38.899644    1.1224537 
Loop time of 0.000662894 on 1 procs for 3 steps with 82 atoms

Minimization stats:
  Stopping criterion = linesearch alpha is zero
  Energy initial, next-to-last, final = 
        -241.988895522     -241.988907053     -241.988907053
  Force two-norm initial, final = 0.0296728 0.0197974
  Force max component initial, final = 0.0119338 0.00579153
  Final line search alpha, max atom move = 3.05176e-05 1.76744e-07
  Iterations, force evaluations = 3 32

Pair  time (%) = 0.000539548 (81.3928)
Neigh time (%) = 0 (0)
Comm  time (%) = 4.36488e-05 (6.58457)
Outpt time (%) = 1.08727e-05 (1.64019)
Other time (%) = 6.88247e-05 (10.3825)

Nlocal:    82 ave 82 max 82 min
Histogram: 1 0 0 0 0 0 0 0 0 0
Nghost:    185 ave 185 max 185 min
Histogram: 1 0 0 0 0 0 0 0 0 0
Neighs:    718 ave 718 max 718 min
Histogram: 1 0 0 0 0 0 0 0 0 0

Total # of neighbors = 718
Ave neighs/atom = 8.7561
Neighbor list builds = 0
Dangerous builds = 0
        # write_dump all atom ${dumpfile}
        next i
jump SELF loop1
        displace_atoms upper move ${xstep1} 0.0 0.0 units lattice
        displace_atoms upper move 0.00333333333333333 0.0 0.0 units lattice
        min_style ${style}
        min_style cg
        minimize ${etol} ${ftol} ${maxiter} ${maxeval}
        minimize 1e-12 ${ftol} ${maxiter} ${maxeval}
        minimize 1e-12 1e-08 ${maxiter} ${maxeval}
        minimize 1e-12 1e-08 10000 ${maxeval}
        minimize 1e-12 1e-08 10000 20000
WARNING: Resetting reneighboring criteria during minimization (../min.cpp:168)
Memory usage per processor = 3.35169 Mbytes
Step Temp PotEng Lx Ly Lz 
    1300            0   -241.99143    2.2449075    38.899624    1.1224537 
    1301            0   -241.99144    2.2449075    38.899624    1.1224537 
    1302            0   -241.99144    2.2449075    38.899624    1.1224537 
Loop time of 0.000517926 on 1 procs for 2 steps with 82 atoms

Minimization stats:
  Stopping criterion = linesearch alpha is zero
  Energy initial, next-to-last, final = 
        -241.991433561     -241.991439423     -241.991439423
  Force two-norm initial, final = 0.0233172 0.0192034
  Force max component initial, final = 0.0070801 0.00634811
  Final line search alpha, max atom move = 3.05176e-05 1.93729e-07
  Iterations, force evaluations = 2 23

Pair  time (%) = 0.000424963 (82.0508)
Neigh time (%) = 0 (0)
Comm  time (%) = 3.3051e-05 (6.38141)
Outpt time (%) = 6.02088e-06 (1.1625)
Other time (%) = 5.38917e-05 (10.4053)

Nlocal:    82 ave 82 max 82 min
Histogram: 1 0 0 0 0 0 0 0 0 0
Nghost:    185 ave 185 max 185 min
Histogram: 1 0 0 0 0 0 0 0 0 0
Neighs:    718 ave 718 max 718 min
Histogram: 1 0 0 0 0 0 0 0 0 0

Total # of neighbors = 718
Ave neighs/atom = 8.7561
Neighbor list builds = 0
Dangerous builds = 0
        # write_dump all atom ${dumpfile}
        next i
jump SELF loop1
        displace_atoms upper move ${xstep1} 0.0 0.0 units lattice
        displace_atoms upper move 0.00333333333333333 0.0 0.0 units lattice
        min_style ${style}
        min_style cg
        minimize ${etol} ${ftol} ${maxiter} ${maxeval}
        minimize 1e-12 ${ftol} ${maxiter} ${maxeval}
        minimize 1e-12 1e-08 ${maxiter} ${maxeval}
        minimize 1e-12 1e-08 10000 ${maxeval}
        minimize 1e-12 1e-08 10000 20000
WARNING: Resetting reneighboring criteria during minimization (../min.cpp:168)
Memory usage per processor = 3.35169 Mbytes
Step Temp PotEng Lx Ly Lz 
    1302            0   -241.99363    2.2449075     38.89961    1.1224537 
    1303            0   -241.99364    2.2449075     38.89961    1.1224537 
    1304            0   -241.99365    2.2449075     38.89961    1.1224537 
    1305            0   -241.99365    2.2449075     38.89961    1.1224537 
Loop time of 0.000663062 on 1 procs for 3 steps with 82 atoms

Minimization stats:
  Stopping criterion = linesearch alpha is zero
  Energy initial, next-to-last, final = 
        -241.993633224     -241.993645993     -241.993645993
  Force two-norm initial, final = 0.0239699 0.0243459
  Force max component initial, final = 0.00740289 0.00854184
  Final line search alpha, max atom move = 1.52588e-05 1.30338e-07
  Iterations, force evaluations = 3 32

Pair  time (%) = 0.00054005 (81.4478)
Neigh time (%) = 0 (0)
Comm  time (%) = 4.47446e-05 (6.74817)
Outpt time (%) = 1.20241e-05 (1.81342)
Other time (%) = 6.6244e-05 (9.99062)

Nlocal:    82 ave 82 max 82 min
Histogram: 1 0 0 0 0 0 0 0 0 0
Nghost:    185 ave 185 max 185 min
Histogram: 1 0 0 0 0 0 0 0 0 0
Neighs:    718 ave 718 max 718 min
Histogram: 1 0 0 0 0 0 0 0 0 0

Total # of neighbors = 718
Ave neighs/atom = 8.7561
Neighbor list builds = 0
Dangerous builds = 0
        # write_dump all atom ${dumpfile}
        next i
jump SELF loop1
        displace_atoms upper move ${xstep1} 0.0 0.0 units lattice
        displace_atoms upper move 0.00333333333333333 0.0 0.0 units lattice
        min_style ${style}
        min_style cg
        minimize ${etol} ${ftol} ${maxiter} ${maxeval}
        minimize 1e-12 ${ftol} ${maxiter} ${maxeval}
        minimize 1e-12 1e-08 ${maxiter} ${maxeval}
        minimize 1e-12 1e-08 10000 ${maxeval}
        minimize 1e-12 1e-08 10000 20000
WARNING: Resetting reneighboring criteria during minimization (../min.cpp:168)
Memory usage per processor = 3.35169 Mbytes
Step Temp PotEng Lx Ly Lz 
    1305            0   -241.99551    2.2449075    38.899575    1.1224537 
    1306            0   -241.99551    2.2449075    38.899575    1.1224537 
Loop time of 0.000343048 on 1 procs for 1 steps with 82 atoms

Minimization stats:
  Stopping criterion = linesearch alpha is zero
  Energy initial, next-to-last, final = 
        -241.995509908     -241.995509908     -241.995509908
  Force two-norm initial, final = 0.0174599 0.0174599
  Force max component initial, final = 0.00603011 0.00603011
  Final line search alpha, max atom move = 3.05176e-05 1.84024e-07
  Iterations, force evaluations = 1 16

Pair  time (%) = 0.000284135 (82.8266)
Neigh time (%) = 0 (0)
Comm  time (%) = 2.32409e-05 (6.77484)
Outpt time (%) = 0 (0)
Other time (%) = 3.56719e-05 (10.3985)

Nlocal:    82 ave 82 max 82 min
Histogram: 1 0 0 0 0 0 0 0 0 0
Nghost:    185 ave 185 max 185 min
Histogram: 1 0 0 0 0 0 0 0 0 0
Neighs:    718 ave 718 max 718 min
Histogram: 1 0 0 0 0 0 0 0 0 0

Total # of neighbors = 718
Ave neighs/atom = 8.7561
Neighbor list builds = 0
Dangerous builds = 0
        # write_dump all atom ${dumpfile}
        next i
jump SELF loop1
        displace_atoms upper move ${xstep1} 0.0 0.0 units lattice
        displace_atoms upper move 0.00333333333333333 0.0 0.0 units lattice
        min_style ${style}
        min_style cg
        minimize ${etol} ${ftol} ${maxiter} ${maxeval}
        minimize 1e-12 ${ftol} ${maxiter} ${maxeval}
        minimize 1e-12 1e-08 ${maxiter} ${maxeval}
        minimize 1e-12 1e-08 10000 ${maxeval}
        minimize 1e-12 1e-08 10000 20000
WARNING: Resetting reneighboring criteria during minimization (../min.cpp:168)
Memory usage per processor = 3.35169 Mbytes
Step Temp PotEng Lx Ly Lz 
    1306            0   -241.99704    2.2449075    38.899575    1.1224537 
    1307            0   -241.99704    2.2449075    38.899575    1.1224537 
    1308            0   -241.99704    2.2449075    38.899575    1.1224537 
    1309            0   -241.99704    2.2449075    38.899575    1.1224537 
Loop time of 0.000688111 on 1 procs for 3 steps with 82 atoms

Minimization stats:
  Stopping criterion = linesearch alpha is zero
  Energy initial, next-to-last, final = 
        -241.997036383     -241.997043386     -241.997043386
  Force two-norm initial, final = 0.0206644 0.0171546
  Force max component initial, final = 0.00603011 0.00478685
  Final line search alpha, max atom move = 3.05176e-05 1.46083e-07
  Iterations, force evaluations = 3 32

Pair  time (%) = 0.000560275 (81.4222)
Neigh time (%) = 0 (0)
Comm  time (%) = 4.31219e-05 (6.26671)
Outpt time (%) = 1.50393e-05 (2.1856)
Other time (%) = 6.96745e-05 (10.1255)

Nlocal:    82 ave 82 max 82 min
Histogram: 1 0 0 0 0 0 0 0 0 0
Nghost:    185 ave 185 max 185 min
Histogram: 1 0 0 0 0 0 0 0 0 0
Neighs:    718 ave 718 max 718 min
Histogram: 1 0 0 0 0 0 0 0 0 0

Total # of neighbors = 718
Ave neighs/atom = 8.7561
Neighbor list builds = 0
Dangerous builds = 0
        # write_dump all atom ${dumpfile}
        next i
jump SELF loop1
        displace_atoms upper move ${xstep1} 0.0 0.0 units lattice
        displace_atoms upper move 0.00333333333333333 0.0 0.0 units lattice
        min_style ${style}
        min_style cg
        minimize ${etol} ${ftol} ${maxiter} ${maxeval}
        minimize 1e-12 ${ftol} ${maxiter} ${maxeval}
        minimize 1e-12 1e-08 ${maxiter} ${maxeval}
        minimize 1e-12 1e-08 10000 ${maxeval}
        minimize 1e-12 1e-08 10000 20000
WARNING: Resetting reneighboring criteria during minimization (../min.cpp:168)
Memory usage per processor = 3.35169 Mbytes
Step Temp PotEng Lx Ly Lz 
    1309            0   -241.99823    2.2449075    38.899558    1.1224537 
    1310            0   -241.99823    2.2449075    38.899558    1.1224537 
    1311            0   -241.99823    2.2449075    38.899558    1.1224537 
Loop time of 0.000524002 on 1 procs for 2 steps with 82 atoms

Minimization stats:
  Stopping criterion = linesearch alpha is zero
  Energy initial, next-to-last, final = 
        -241.998233833     -241.998234564     -241.998234564
  Force two-norm initial, final = 0.0186058 0.0175596
  Force max component initial, final = 0.00478685 0.0043978
  Final line search alpha, max atom move = 3.05176e-05 1.3421e-07
  Iterations, force evaluations = 2 25

Pair  time (%) = 0.000428218 (81.7207)
Neigh time (%) = 0 (0)
Comm  time (%) = 3.30786e-05 (6.31268)
Outpt time (%) = 7.08888e-06 (1.35283)
Other time (%) = 5.56166e-05 (10.6138)

Nlocal:    82 ave 82 max 82 min
Histogram: 1 0 0 0 0 0 0 0 0 0
Nghost:    185 ave 185 max 185 min
Histogram: 1 0 0 0 0 0 0 0 0 0
Neighs:    718 ave 718 max 718 min
Histogram: 1 0 0 0 0 0 0 0 0 0

Total # of neighbors = 718
Ave neighs/atom = 8.7561
Neighbor list builds = 0
Dangerous builds = 0
        # write_dump all atom ${dumpfile}
        next i
jump SELF loop1
        displace_atoms upper move ${xstep1} 0.0 0.0 units lattice
        displace_atoms upper move 0.00333333333333333 0.0 0.0 units lattice
        min_style ${style}
        min_style cg
        minimize ${etol} ${ftol} ${maxiter} ${maxeval}
        minimize 1e-12 ${ftol} ${maxiter} ${maxeval}
        minimize 1e-12 1e-08 ${maxiter} ${maxeval}
        minimize 1e-12 1e-08 10000 ${maxeval}
        minimize 1e-12 1e-08 10000 20000
WARNING: Resetting reneighboring criteria during minimization (../min.cpp:168)
Memory usage per processor = 3.35169 Mbytes
Step Temp PotEng Lx Ly Lz 
    1311            0   -241.99908    2.2449075    38.899555    1.1224537 
    1312            0   -241.99909    2.2449075    38.899555    1.1224537 
    1313            0   -241.99909    2.2449075    38.899555    1.1224537 
    1314            0   -241.99909    2.2449075    38.899555    1.1224537 
Loop time of 0.00225698 on 1 procs for 3 steps with 82 atoms

Minimization stats:
  Stopping criterion = linesearch alpha is zero
  Energy initial, next-to-last, final = 
        -241.999083493     -241.999088494     -241.999088494
  Force two-norm initial, final = 0.0209396 0.0165695
  Force max component initial, final = 0.00639809 0.0042764
  Final line search alpha, max atom move = 3.05176e-05 1.30505e-07
  Iterations, force evaluations = 3 32

Pair  time (%) = 0.000693061 (30.7074)
Neigh time (%) = 0 (0)
Comm  time (%) = 0.00146207 (64.7801)
Outpt time (%) = 1.3073e-05 (0.579224)
Other time (%) = 8.87729e-05 (3.93326)

Nlocal:    82 ave 82 max 82 min
Histogram: 1 0 0 0 0 0 0 0 0 0
Nghost:    185 ave 185 max 185 min
Histogram: 1 0 0 0 0 0 0 0 0 0
Neighs:    718 ave 718 max 718 min
Histogram: 1 0 0 0 0 0 0 0 0 0

Total # of neighbors = 718
Ave neighs/atom = 8.7561
Neighbor list builds = 0
Dangerous builds = 0
        # write_dump all atom ${dumpfile}
        next i
jump SELF loop1
        displace_atoms upper move ${xstep1} 0.0 0.0 units lattice
        displace_atoms upper move 0.00333333333333333 0.0 0.0 units lattice
        min_style ${style}
        min_style cg
        minimize ${etol} ${ftol} ${maxiter} ${maxeval}
        minimize 1e-12 ${ftol} ${maxiter} ${maxeval}
        minimize 1e-12 1e-08 ${maxiter} ${maxeval}
        minimize 1e-12 1e-08 10000 ${maxeval}
        minimize 1e-12 1e-08 10000 20000
WARNING: Resetting reneighboring criteria during minimization (../min.cpp:168)
Memory usage per processor = 3.35169 Mbytes
Step Temp PotEng Lx Ly Lz 
    1314            0    -241.9996    2.2449075     38.89954    1.1224537 
    1315            0    -241.9996    2.2449075     38.89954    1.1224537 
Loop time of 0.000336085 on 1 procs for 1 steps with 82 atoms

Minimization stats:
  Stopping criterion = linesearch alpha is zero
  Energy initial, next-to-last, final = 
         -241.99960093      -241.99960093      -241.99960093
  Force two-norm initial, final = 0.0166628 0.0166628
  Force max component initial, final = 0.0042764 0.0042764
  Final line search alpha, max atom move = 3.05176e-05 1.30505e-07
  Iterations, force evaluations = 1 16

Pair  time (%) = 0.000280023 (83.3189)
Neigh time (%) = 0 (0)
Comm  time (%) = 2.03546e-05 (6.05639)
Outpt time (%) = 0 (0)
Other time (%) = 3.5708e-05 (10.6247)

Nlocal:    82 ave 82 max 82 min
Histogram: 1 0 0 0 0 0 0 0 0 0
Nghost:    185 ave 185 max 185 min
Histogram: 1 0 0 0 0 0 0 0 0 0
Neighs:    718 ave 718 max 718 min
Histogram: 1 0 0 0 0 0 0 0 0 0

Total # of neighbors = 718
Ave neighs/atom = 8.7561
Neighbor list builds = 0
Dangerous builds = 0
        # write_dump all atom ${dumpfile}
        next i
jump SELF loop1
        displace_atoms upper move ${xstep1} 0.0 0.0 units lattice
        displace_atoms upper move 0.00333333333333333 0.0 0.0 units lattice
        min_style ${style}
        min_style cg
        minimize ${etol} ${ftol} ${maxiter} ${maxeval}
        minimize 1e-12 ${ftol} ${maxiter} ${maxeval}
        minimize 1e-12 1e-08 ${maxiter} ${maxeval}
        minimize 1e-12 1e-08 10000 ${maxeval}
        minimize 1e-12 1e-08 10000 20000
WARNING: Resetting reneighboring criteria during minimization (../min.cpp:168)
Memory usage per processor = 3.35169 Mbytes
Step Temp PotEng Lx Ly Lz 
    1315            0   -241.99977    2.2449075     38.89954    1.1224537 
    1316            0   -241.99977    2.2449075     38.89954    1.1224537 
    1317            0   -241.99977    2.2449075     38.89954    1.1224537 
Loop time of 0.000477949 on 1 procs for 2 steps with 82 atoms

Minimization stats:
  Stopping criterion = linesearch alpha is zero
  Energy initial, next-to-last, final = 
        -241.999772552     -241.999774677     -241.999774677
  Force two-norm initial, final = 0.0169367 0.0153445
  Force max component initial, final = 0.0042764 0.00375011
  Final line search alpha, max atom move = 3.05176e-05 1.14444e-07
  Iterations, force evaluations = 2 23

Pair  time (%) = 0.000387971 (81.1741)
Neigh time (%) = 0 (0)
Comm  time (%) = 3.04006e-05 (6.36063)
Outpt time (%) = 8.00448e-06 (1.67476)
Other time (%) = 5.1573e-05 (10.7905)

Nlocal:    82 ave 82 max 82 min
Histogram: 1 0 0 0 0 0 0 0 0 0
Nghost:    185 ave 185 max 185 min
Histogram: 1 0 0 0 0 0 0 0 0 0
Neighs:    718 ave 718 max 718 min
Histogram: 1 0 0 0 0 0 0 0 0 0

Total # of neighbors = 718
Ave neighs/atom = 8.7561
Neighbor list builds = 0
Dangerous builds = 0
        # write_dump all atom ${dumpfile}
        next i
jump SELF loop1


