LAMMPS (28 Jun 2014)
# attempt at getting generalized stacking fault (GSF) energy curve

#file prefix
variable prefix string gsf_V_inter2new2
variable dumpfile string ${prefix}.*.dump
variable dumpfile string gsf_V_inter2new2.*.dump
variable restartfile string ${prefix}.*.equil
variable restartfile string gsf_V_inter2new2.*.equil

#Mass (g/mol)
variable m equal 1

# lattice constant (in Angstroms) and orientation of axes (given by lattice vectors)
variable rho equal 0.9165
variable x1 equal 1
variable x2 equal 0
variable x3 equal 0
variable y1 equal 0
variable y2 equal 1
variable y3 equal 0
# length of lattice in different directions (using orientation of lattice vectors)
variable ax equal sqrt(${x1}*${x1}+${x2}*${x2}+${x3}*${x3})
variable ax equal sqrt(1*${x1}+${x2}*${x2}+${x3}*${x3})
variable ax equal sqrt(1*1+${x2}*${x2}+${x3}*${x3})
variable ax equal sqrt(1*1+0*${x2}+${x3}*${x3})
variable ax equal sqrt(1*1+0*0+${x3}*${x3})
variable ax equal sqrt(1*1+0*0+0*${x3})
variable ax equal sqrt(1*1+0*0+0*0)
variable ay equal sqrt(${y1}*${y1}+${y2}*${y2}+${y3}*${y3})
variable ay equal sqrt(0*${y1}+${y2}*${y2}+${y3}*${y3})
variable ay equal sqrt(0*0+${y2}*${y2}+${y3}*${y3})
variable ay equal sqrt(0*0+1*${y2}+${y3}*${y3})
variable ay equal sqrt(0*0+1*1+${y3}*${y3})
variable ay equal sqrt(0*0+1*1+0*${y3})
variable ay equal sqrt(0*0+1*1+0*0)
variable az equal 1

# size of box in lattice units
variable lxpos equal 1
variable lxneg equal -1*${lxpos}
variable lxneg equal -1*1
variable lypos equal 10
variable lyneg equal -1*${lypos}
variable lyneg equal -1*10
variable lzpos equal 0
variable lzneg equal -1

# Define minimization parameters and damping
variable etol equal 1.0e-12
variable ftol equal 1.0e-8
variable maxiter equal 10000
variable maxeval equal 20000
variable style string cg

# boundary conditions
dimension	2
boundary	p s p
atom_style	atomic

# create geometry
units		lj
lattice         hex ${rho}
lattice         hex 0.9165
Lattice spacing in x,y,z = 1.12245 1.94415 1.12245
region		myregion block ${lxneg} ${lxpos} ${lyneg} ${lypos} ${lzneg} ${lzpos} units lattice
region		myregion block -1 ${lxpos} ${lyneg} ${lypos} ${lzneg} ${lzpos} units lattice
region		myregion block -1 1 ${lyneg} ${lypos} ${lzneg} ${lzpos} units lattice
region		myregion block -1 1 -10 ${lypos} ${lzneg} ${lzpos} units lattice
region		myregion block -1 1 -10 10 ${lzneg} ${lzpos} units lattice
region		myregion block -1 1 -10 10 -1 ${lzpos} units lattice
region		myregion block -1 1 -10 10 -1 0 units lattice
create_box	3 myregion
Created orthogonal box = (-1.12245 -19.4415 -1.12245) to (1.12245 19.4415 0)
  1 by 1 by 1 MPI processor grid
create_atoms	1 box
Created 82 atoms

# define masses
mass * $m
mass * 1

# my fake/morse potential
pair_style      table linear 3001
pair_coeff      * * vpotential_inter2new2 dummy
neighbor	0.3 bin
neigh_modify	delay 5

# define groups
region	    upper block INF INF 0.01 ${lypos} INF INF units lattice
region	    upper block INF INF 0.01 10 INF INF units lattice
group		upper region upper
40 atoms in group upper

# Setup output
thermo 1
thermo_style custom step temp pe lx ly lz
thermo_modify norm no

# Compute initial state by relaxing box
min_style ${style}
min_style cg
minimize ${etol} ${ftol} ${maxiter} ${maxeval}
minimize 1e-12 ${ftol} ${maxiter} ${maxeval}
minimize 1e-12 1e-08 ${maxiter} ${maxeval}
minimize 1e-12 1e-08 10000 ${maxeval}
minimize 1e-12 1e-08 10000 20000
WARNING: Resetting reneighboring criteria during minimization (../min.cpp:168)
Memory usage per processor = 3.35169 Mbytes
Step Temp PotEng Lx Ly Lz 
       0            0   -241.99993    2.2449075    38.890715    1.1224537 
       1            0   -241.99993    2.2449075    38.890715    1.1224537 
       2            0   -241.99993    2.2449075    38.890715    1.1224537 
Loop time of 0.000364905 on 1 procs for 2 steps with 82 atoms

Minimization stats:
  Stopping criterion = linesearch alpha is zero
  Energy initial, next-to-last, final = 
        -241.999927696     -241.999929863     -241.999929863
  Force two-norm initial, final = 0.000778805 0.00455994
  Force max component initial, final = 0.000389403 0.00179508
  Final line search alpha, max atom move = 0.000488281 8.76506e-07
  Iterations, force evaluations = 2 16

Pair  time (%) = 0.000295011 (80.8461)
Neigh time (%) = 0 (0)
Comm  time (%) = 2.05501e-05 (5.63163)
Outpt time (%) = 9.9818e-06 (2.73545)
Other time (%) = 3.93618e-05 (10.7869)

Nlocal:    82 ave 82 max 82 min
Histogram: 1 0 0 0 0 0 0 0 0 0
Nghost:    185 ave 185 max 185 min
Histogram: 1 0 0 0 0 0 0 0 0 0
Neighs:    718 ave 718 max 718 min
Histogram: 1 0 0 0 0 0 0 0 0 0

Total # of neighbors = 718
Ave neighs/atom = 8.7561
Neighbor list builds = 0
Dangerous builds = 0

# don't allow atoms to relax in x-direction
fix 2 all setforce 0.0 NULL 0.0

# GSF energy curve will have 100*2 steps
variable nsteps equal 300
variable sstep1 equal 1.
variable xstep1 equal ${sstep1}/(${ax}*${nsteps})
variable xstep1 equal 1/(${ax}*${nsteps})
variable xstep1 equal 1/(1*${nsteps})
variable xstep1 equal 1/(1*300)

variable i loop ${nsteps}
variable i loop 300
label loop1
        displace_atoms upper move ${xstep1} 0.0 0.0 units lattice
        displace_atoms upper move 0.00333333333333333 0.0 0.0 units lattice
        min_style ${style}
        min_style cg
        minimize ${etol} ${ftol} ${maxiter} ${maxeval}
        minimize 1e-12 ${ftol} ${maxiter} ${maxeval}
        minimize 1e-12 1e-08 ${maxiter} ${maxeval}
        minimize 1e-12 1e-08 10000 ${maxeval}
        minimize 1e-12 1e-08 10000 20000
WARNING: Resetting reneighboring criteria during minimization (../min.cpp:168)
Memory usage per processor = 3.35169 Mbytes
Step Temp PotEng Lx Ly Lz 
       2            0   -241.99976    2.2449075    38.890812    1.1224537 
       3            0   -241.99976    2.2449075    38.890812    1.1224537 
Loop time of 0.00026405 on 1 procs for 1 steps with 82 atoms

Minimization stats:
  Stopping criterion = linesearch alpha is zero
  Energy initial, next-to-last, final = 
        -241.999757399     -241.999757399     -241.999757399
  Force two-norm initial, final = 0.00478129 0.00478129
  Force max component initial, final = 0.00179508 0.00179508
  Final line search alpha, max atom move = 0.000488281 8.76506e-07
  Iterations, force evaluations = 1 12

Pair  time (%) = 0.000215058 (81.4457)
Neigh time (%) = 0 (0)
Comm  time (%) = 1.53668e-05 (5.81966)
Outpt time (%) = 0 (0)
Other time (%) = 3.36259e-05 (12.7346)

Nlocal:    82 ave 82 max 82 min
Histogram: 1 0 0 0 0 0 0 0 0 0
Nghost:    185 ave 185 max 185 min
Histogram: 1 0 0 0 0 0 0 0 0 0
Neighs:    718 ave 718 max 718 min
Histogram: 1 0 0 0 0 0 0 0 0 0

Total # of neighbors = 718
Ave neighs/atom = 8.7561
Neighbor list builds = 0
Dangerous builds = 0
        # write_dump all atom ${dumpfile}
        next i
jump SELF loop1
        displace_atoms upper move ${xstep1} 0.0 0.0 units lattice
        displace_atoms upper move 0.00333333333333333 0.0 0.0 units lattice
        min_style ${style}
        min_style cg
        minimize ${etol} ${ftol} ${maxiter} ${maxeval}
        minimize 1e-12 ${ftol} ${maxiter} ${maxeval}
        minimize 1e-12 1e-08 ${maxiter} ${maxeval}
        minimize 1e-12 1e-08 10000 ${maxeval}
        minimize 1e-12 1e-08 10000 20000
WARNING: Resetting reneighboring criteria during minimization (../min.cpp:168)
Memory usage per processor = 3.35169 Mbytes
Step Temp PotEng Lx Ly Lz 
       3            0   -241.99924    2.2449075    38.890812    1.1224537 
       4            0   -241.99924    2.2449075    38.890812    1.1224537 
Loop time of 0.000129918 on 1 procs for 1 steps with 82 atoms

Minimization stats:
  Stopping criterion = linesearch alpha is zero
  Energy initial, next-to-last, final = 
        -241.999241512     -241.999241512     -241.999241512
  Force two-norm initial, final = 0.00732734 0.00732734
  Force max component initial, final = 0.00286779 0.00286779
  Final line search alpha, max atom move = 0.00012207 3.50072e-07
  Iterations, force evaluations = 1 14

Pair  time (%) = 6.99826e-05 (53.8666)
Neigh time (%) = 0 (0)
Comm  time (%) = 9.54582e-06 (7.34756)
Outpt time (%) = 0 (0)
Other time (%) = 5.03899e-05 (38.7858)

Nlocal:    82 ave 82 max 82 min
Histogram: 1 0 0 0 0 0 0 0 0 0
Nghost:    185 ave 185 max 185 min
Histogram: 1 0 0 0 0 0 0 0 0 0
Neighs:    718 ave 718 max 718 min
Histogram: 1 0 0 0 0 0 0 0 0 0

Total # of neighbors = 718
Ave neighs/atom = 8.7561
Neighbor list builds = 0
Dangerous builds = 0
        # write_dump all atom ${dumpfile}
        next i
jump SELF loop1
        displace_atoms upper move ${xstep1} 0.0 0.0 units lattice
        displace_atoms upper move 0.00333333333333333 0.0 0.0 units lattice
        min_style ${style}
        min_style cg
        minimize ${etol} ${ftol} ${maxiter} ${maxeval}
        minimize 1e-12 ${ftol} ${maxiter} ${maxeval}
        minimize 1e-12 1e-08 ${maxiter} ${maxeval}
        minimize 1e-12 1e-08 10000 ${maxeval}
        minimize 1e-12 1e-08 10000 20000
WARNING: Resetting reneighboring criteria during minimization (../min.cpp:168)
Memory usage per processor = 3.35169 Mbytes
Step Temp PotEng Lx Ly Lz 
       4            0   -241.99838    2.2449075    38.890812    1.1224537 
       5            0   -241.99838    2.2449075    38.890812    1.1224537 
Loop time of 0.000940072 on 1 procs for 1 steps with 82 atoms

Minimization stats:
  Stopping criterion = linesearch alpha is zero
  Energy initial, next-to-last, final = 
        -241.998383655     -241.998383655     -241.998383655
  Force two-norm initial, final = 0.01366 0.01366
  Force max component initial, final = 0.00643821 0.00643821
  Final line search alpha, max atom move = 6.10352e-05 3.92957e-07
  Iterations, force evaluations = 1 15

Pair  time (%) = 0.000835123 (88.8361)
Neigh time (%) = 0 (0)
Comm  time (%) = 4.10667e-05 (4.36846)
Outpt time (%) = 0 (0)
Other time (%) = 6.38824e-05 (6.79548)

Nlocal:    82 ave 82 max 82 min
Histogram: 1 0 0 0 0 0 0 0 0 0
Nghost:    185 ave 185 max 185 min
Histogram: 1 0 0 0 0 0 0 0 0 0
Neighs:    718 ave 718 max 718 min
Histogram: 1 0 0 0 0 0 0 0 0 0

Total # of neighbors = 718
Ave neighs/atom = 8.7561
Neighbor list builds = 0
Dangerous builds = 0
        # write_dump all atom ${dumpfile}
        next i
jump SELF loop1
        displace_atoms upper move ${xstep1} 0.0 0.0 units lattice
        displace_atoms upper move 0.00333333333333333 0.0 0.0 units lattice
        min_style ${style}
        min_style cg
        minimize ${etol} ${ftol} ${maxiter} ${maxeval}
        minimize 1e-12 ${ftol} ${maxiter} ${maxeval}
        minimize 1e-12 1e-08 ${maxiter} ${maxeval}
        minimize 1e-12 1e-08 10000 ${maxeval}
        minimize 1e-12 1e-08 10000 20000
WARNING: Resetting reneighboring criteria during minimization (../min.cpp:168)
Memory usage per processor = 3.35169 Mbytes
Step Temp PotEng Lx Ly Lz 
       5            0   -241.99718    2.2449075    38.890812    1.1224537 
       6            0   -241.99718    2.2449075    38.890812    1.1224537 
Loop time of 0.000361887 on 1 procs for 1 steps with 82 atoms

Minimization stats:
  Stopping criterion = linesearch alpha is zero
  Energy initial, next-to-last, final = 
        -241.997184208     -241.997184208     -241.997184208
  Force two-norm initial, final = 0.0233072 0.0233072
  Force max component initial, final = 0.0114284 0.0114284
  Final line search alpha, max atom move = 1.52588e-05 1.74383e-07
  Iterations, force evaluations = 1 17

Pair  time (%) = 0.00030125 (83.2442)
Neigh time (%) = 0 (0)
Comm  time (%) = 1.83049e-05 (5.05818)
Outpt time (%) = 0 (0)
Other time (%) = 4.23323e-05 (11.6977)

Nlocal:    82 ave 82 max 82 min
Histogram: 1 0 0 0 0 0 0 0 0 0
Nghost:    185 ave 185 max 185 min
Histogram: 1 0 0 0 0 0 0 0 0 0
Neighs:    718 ave 718 max 718 min
Histogram: 1 0 0 0 0 0 0 0 0 0

Total # of neighbors = 718
Ave neighs/atom = 8.7561
Neighbor list builds = 0
Dangerous builds = 0
        # write_dump all atom ${dumpfile}
        next i
jump SELF loop1
        displace_atoms upper move ${xstep1} 0.0 0.0 units lattice
        displace_atoms upper move 0.00333333333333333 0.0 0.0 units lattice
        min_style ${style}
        min_style cg
        minimize ${etol} ${ftol} ${maxiter} ${maxeval}
        minimize 1e-12 ${ftol} ${maxiter} ${maxeval}
        minimize 1e-12 1e-08 ${maxiter} ${maxeval}
        minimize 1e-12 1e-08 10000 ${maxeval}
        minimize 1e-12 1e-08 10000 20000
WARNING: Resetting reneighboring criteria during minimization (../min.cpp:168)
Memory usage per processor = 3.35169 Mbytes
Step Temp PotEng Lx Ly Lz 
       6            0   -241.99564    2.2449075    38.890812    1.1224537 
       7            0   -241.99564    2.2449075    38.890812    1.1224537 
       8            0   -241.99564    2.2449075    38.890812    1.1224537 
       9            0   -241.99564    2.2449075    38.890812    1.1224537 
Loop time of 0.000773116 on 1 procs for 3 steps with 82 atoms

Minimization stats:
  Stopping criterion = linesearch alpha is zero
  Energy initial, next-to-last, final = 
        -241.995643567     -241.995644433     -241.995644433
  Force two-norm initial, final = 0.0359625 0.0312651
  Force max component initial, final = 0.0178361 0.015482
  Final line search alpha, max atom move = 7.62939e-06 1.18118e-07
  Iterations, force evaluations = 3 42

Pair  time (%) = 0.000637586 (82.4696)
Neigh time (%) = 0 (0)
Comm  time (%) = 5.48332e-05 (7.0925)
Outpt time (%) = 1.11026e-05 (1.43609)
Other time (%) = 6.95946e-05 (9.00183)

Nlocal:    82 ave 82 max 82 min
Histogram: 1 0 0 0 0 0 0 0 0 0
Nghost:    185 ave 185 max 185 min
Histogram: 1 0 0 0 0 0 0 0 0 0
Neighs:    718 ave 718 max 718 min
Histogram: 1 0 0 0 0 0 0 0 0 0

Total # of neighbors = 718
Ave neighs/atom = 8.7561
Neighbor list builds = 0
Dangerous builds = 0
        # write_dump all atom ${dumpfile}
        next i
jump SELF loop1
        displace_atoms upper move ${xstep1} 0.0 0.0 units lattice
        displace_atoms upper move 0.00333333333333333 0.0 0.0 units lattice
        min_style ${style}
        min_style cg
        minimize ${etol} ${ftol} ${maxiter} ${maxeval}
        minimize 1e-12 ${ftol} ${maxiter} ${maxeval}
        minimize 1e-12 1e-08 ${maxiter} ${maxeval}
        minimize 1e-12 1e-08 10000 ${maxeval}
        minimize 1e-12 1e-08 10000 20000
WARNING: Resetting reneighboring criteria during minimization (../min.cpp:168)
Memory usage per processor = 3.35169 Mbytes
Step Temp PotEng Lx Ly Lz 
       9            0   -241.99376    2.2449075    38.890809    1.1224537 
      10            0   -241.99377    2.2449075    38.890809    1.1224537 
      11            0   -241.99377    2.2449075    38.890809    1.1224537 
Loop time of 0.000514947 on 1 procs for 2 steps with 82 atoms

Minimization stats:
  Stopping criterion = linesearch alpha is zero
  Energy initial, next-to-last, final = 
        -241.993760152     -241.993767243     -241.993767243
  Force two-norm initial, final = 0.046848 0.0156938
  Force max component initial, final = 0.0233238 0.00704691
  Final line search alpha, max atom move = 3.05176e-05 2.15055e-07
  Iterations, force evaluations = 2 24

Pair  time (%) = 0.000413654 (80.3294)
Neigh time (%) = 0 (0)
Comm  time (%) = 2.92083e-05 (5.67209)
Outpt time (%) = 1.50605e-05 (2.92468)
Other time (%) = 5.70243e-05 (11.0738)

Nlocal:    82 ave 82 max 82 min
Histogram: 1 0 0 0 0 0 0 0 0 0
Nghost:    185 ave 185 max 185 min
Histogram: 1 0 0 0 0 0 0 0 0 0
Neighs:    718 ave 718 max 718 min
Histogram: 1 0 0 0 0 0 0 0 0 0

Total # of neighbors = 718
Ave neighs/atom = 8.7561
Neighbor list builds = 0
Dangerous builds = 0
        # write_dump all atom ${dumpfile}
        next i
jump SELF loop1
        displace_atoms upper move ${xstep1} 0.0 0.0 units lattice
        displace_atoms upper move 0.00333333333333333 0.0 0.0 units lattice
        min_style ${style}
        min_style cg
        minimize ${etol} ${ftol} ${maxiter} ${maxeval}
        minimize 1e-12 ${ftol} ${maxiter} ${maxeval}
        minimize 1e-12 1e-08 ${maxiter} ${maxeval}
        minimize 1e-12 1e-08 10000 ${maxeval}
        minimize 1e-12 1e-08 10000 20000
WARNING: Resetting reneighboring criteria during minimization (../min.cpp:168)
Memory usage per processor = 3.35169 Mbytes
Step Temp PotEng Lx Ly Lz 
      11            0   -241.99155    2.2449075    38.890789    1.1224537 
      12            0   -241.99155    2.2449075    38.890789    1.1224537 
      13            0   -241.99155    2.2449075    38.890789    1.1224537 
Loop time of 0.000618983 on 1 procs for 2 steps with 82 atoms

Minimization stats:
  Stopping criterion = linesearch alpha is zero
  Energy initial, next-to-last, final = 
        -241.991550751     -241.991550944     -241.991550944
  Force two-norm initial, final = 0.0288861 0.0279066
  Force max component initial, final = 0.0125837 0.0120304
  Final line search alpha, max atom move = 1.52588e-05 1.83569e-07
  Iterations, force evaluations = 2 29

Pair  time (%) = 0.000509812 (82.3628)
Neigh time (%) = 0 (0)
Comm  time (%) = 3.83101e-05 (6.18919)
Outpt time (%) = 6.88899e-06 (1.11295)
Other time (%) = 6.39722e-05 (10.335)

Nlocal:    82 ave 82 max 82 min
Histogram: 1 0 0 0 0 0 0 0 0 0
Nghost:    185 ave 185 max 185 min
Histogram: 1 0 0 0 0 0 0 0 0 0
Neighs:    718 ave 718 max 718 min
Histogram: 1 0 0 0 0 0 0 0 0 0

Total # of neighbors = 718
Ave neighs/atom = 8.7561
Neighbor list builds = 0
Dangerous builds = 0
        # write_dump all atom ${dumpfile}
        next i
jump SELF loop1
        displace_atoms upper move ${xstep1} 0.0 0.0 units lattice
        displace_atoms upper move 0.00333333333333333 0.0 0.0 units lattice
        min_style ${style}
        min_style cg
        minimize ${etol} ${ftol} ${maxiter} ${maxeval}
        minimize 1e-12 ${ftol} ${maxiter} ${maxeval}
        minimize 1e-12 1e-08 ${maxiter} ${maxeval}
        minimize 1e-12 1e-08 10000 ${maxeval}
        minimize 1e-12 1e-08 10000 20000
WARNING: Resetting reneighboring criteria during minimization (../min.cpp:168)
Memory usage per processor = 3.35169 Mbytes
Step Temp PotEng Lx Ly Lz 
      13            0   -241.98899    2.2449075    38.890788    1.1224537 
      14            0     -241.989    2.2449075    38.890788    1.1224537 
      15            0     -241.989    2.2449075    38.890788    1.1224537 
      16            0     -241.989    2.2449075    38.890788    1.1224537 
      17            0     -241.989    2.2449075    38.890788    1.1224537 
      18            0     -241.989    2.2449075    38.890788    1.1224537 
Loop time of 0.00113397 on 1 procs for 5 steps with 82 atoms

Minimization stats:
  Stopping criterion = linesearch alpha is zero
  Energy initial, next-to-last, final = 
        -241.988993908     -241.989002581     -241.989002581
  Force two-norm initial, final = 0.0474891 0.0179964
  Force max component initial, final = 0.022668 0.00742926
  Final line search alpha, max atom move = 3.05176e-05 2.26723e-07
  Iterations, force evaluations = 5 56

Pair  time (%) = 0.000921951 (81.3029)
Neigh time (%) = 0 (0)
Comm  time (%) = 6.62974e-05 (5.84648)
Outpt time (%) = 2.79336e-05 (2.46335)
Other time (%) = 0.000117789 (10.3873)

Nlocal:    82 ave 82 max 82 min
Histogram: 1 0 0 0 0 0 0 0 0 0
Nghost:    185 ave 185 max 185 min
Histogram: 1 0 0 0 0 0 0 0 0 0
Neighs:    718 ave 718 max 718 min
Histogram: 1 0 0 0 0 0 0 0 0 0

Total # of neighbors = 718
Ave neighs/atom = 8.7561
Neighbor list builds = 0
Dangerous builds = 0
        # write_dump all atom ${dumpfile}
        next i
jump SELF loop1
        displace_atoms upper move ${xstep1} 0.0 0.0 units lattice
        displace_atoms upper move 0.00333333333333333 0.0 0.0 units lattice
        min_style ${style}
        min_style cg
        minimize ${etol} ${ftol} ${maxiter} ${maxeval}
        minimize 1e-12 ${ftol} ${maxiter} ${maxeval}
        minimize 1e-12 1e-08 ${maxiter} ${maxeval}
        minimize 1e-12 1e-08 10000 ${maxeval}
        minimize 1e-12 1e-08 10000 20000
WARNING: Resetting reneighboring criteria during minimization (../min.cpp:168)
Memory usage per processor = 3.35169 Mbytes
Step Temp PotEng Lx Ly Lz 
      18            0   -241.98612    2.2449075    38.890779    1.1224537 
      19            0   -241.98612    2.2449075    38.890779    1.1224537 
      20            0   -241.98612    2.2449075    38.890779    1.1224537 
Loop time of 0.000469961 on 1 procs for 2 steps with 82 atoms

Minimization stats:
  Stopping criterion = linesearch alpha is zero
  Energy initial, next-to-last, final = 
        -241.986116575     -241.986124626     -241.986124626
  Force two-norm initial, final = 0.0358409 0.026208
  Force max component initial, final = 0.0160058 0.00985142
  Final line search alpha, max atom move = 1.52588e-05 1.50321e-07
  Iterations, force evaluations = 2 24

Pair  time (%) = 0.000380856 (81.0398)
Neigh time (%) = 0 (0)
Comm  time (%) = 2.98447e-05 (6.35046)
Outpt time (%) = 8.96445e-06 (1.90749)
Other time (%) = 5.02965e-05 (10.7023)

Nlocal:    82 ave 82 max 82 min
Histogram: 1 0 0 0 0 0 0 0 0 0
Nghost:    185 ave 185 max 185 min
Histogram: 1 0 0 0 0 0 0 0 0 0
Neighs:    718 ave 718 max 718 min
Histogram: 1 0 0 0 0 0 0 0 0 0

Total # of neighbors = 718
Ave neighs/atom = 8.7561
Neighbor list builds = 0
Dangerous builds = 0
        # write_dump all atom ${dumpfile}
        next i
jump SELF loop1
        displace_atoms upper move ${xstep1} 0.0 0.0 units lattice
        displace_atoms upper move 0.00333333333333333 0.0 0.0 units lattice
        min_style ${style}
        min_style cg
        minimize ${etol} ${ftol} ${maxiter} ${maxeval}
        minimize 1e-12 ${ftol} ${maxiter} ${maxeval}
        minimize 1e-12 1e-08 ${maxiter} ${maxeval}
        minimize 1e-12 1e-08 10000 ${maxeval}
        minimize 1e-12 1e-08 10000 20000
WARNING: Resetting reneighboring criteria during minimization (../min.cpp:168)
Memory usage per processor = 3.35169 Mbytes
Step Temp PotEng Lx Ly Lz 
      20            0   -241.98292    2.2449075    38.890775    1.1224537 
      21            0   -241.98292    2.2449075    38.890775    1.1224537 
Loop time of 0.00037204 on 1 procs for 1 steps with 82 atoms

Minimization stats:
  Stopping criterion = linesearch alpha is zero
  Energy initial, next-to-last, final = 
        -241.982915772     -241.982915772     -241.982915772
  Force two-norm initial, final = 0.0246763 0.0246763
  Force max component initial, final = 0.00985142 0.00985142
  Final line search alpha, max atom move = 1.52588e-05 1.50321e-07
  Iterations, force evaluations = 1 17

Pair  time (%) = 0.000305174 (82.0273)
Neigh time (%) = 0 (0)
Comm  time (%) = 2.53851e-05 (6.82321)
Outpt time (%) = 0 (0)
Other time (%) = 4.14804e-05 (11.1495)

Nlocal:    82 ave 82 max 82 min
Histogram: 1 0 0 0 0 0 0 0 0 0
Nghost:    185 ave 185 max 185 min
Histogram: 1 0 0 0 0 0 0 0 0 0
Neighs:    718 ave 718 max 718 min
Histogram: 1 0 0 0 0 0 0 0 0 0

Total # of neighbors = 718
Ave neighs/atom = 8.7561
Neighbor list builds = 0
Dangerous builds = 0
        # write_dump all atom ${dumpfile}
        next i
jump SELF loop1
        displace_atoms upper move ${xstep1} 0.0 0.0 units lattice
        displace_atoms upper move 0.00333333333333333 0.0 0.0 units lattice
        min_style ${style}
        min_style cg
        minimize ${etol} ${ftol} ${maxiter} ${maxeval}
        minimize 1e-12 ${ftol} ${maxiter} ${maxeval}
        minimize 1e-12 1e-08 ${maxiter} ${maxeval}
        minimize 1e-12 1e-08 10000 ${maxeval}
        minimize 1e-12 1e-08 10000 20000
WARNING: Resetting reneighboring criteria during minimization (../min.cpp:168)
Memory usage per processor = 3.35169 Mbytes
Step Temp PotEng Lx Ly Lz 
      21            0   -241.97937    2.2449075    38.890775    1.1224537 
      22            0   -241.97939    2.2449075    38.890775    1.1224537 
      23            0   -241.97939    2.2449075    38.890775    1.1224537 
Loop time of 0.000540003 on 1 procs for 2 steps with 82 atoms

Minimization stats:
  Stopping criterion = linesearch alpha is zero
  Energy initial, next-to-last, final = 
        -241.979374756      -241.97939259      -241.97939259
  Force two-norm initial, final = 0.0466418 0.034314
  Force max component initial, final = 0.0206625 0.0127603
  Final line search alpha, max atom move = 7.62939e-06 9.73532e-08
  Iterations, force evaluations = 2 25

Pair  time (%) = 0.000443866 (82.197)
Neigh time (%) = 0 (0)
Comm  time (%) = 3.39769e-05 (6.29198)
Outpt time (%) = 7.03102e-06 (1.30203)
Other time (%) = 5.51289e-05 (10.209)

Nlocal:    82 ave 82 max 82 min
Histogram: 1 0 0 0 0 0 0 0 0 0
Nghost:    185 ave 185 max 185 min
Histogram: 1 0 0 0 0 0 0 0 0 0
Neighs:    718 ave 718 max 718 min
Histogram: 1 0 0 0 0 0 0 0 0 0

Total # of neighbors = 718
Ave neighs/atom = 8.7561
Neighbor list builds = 0
Dangerous builds = 0
        # write_dump all atom ${dumpfile}
        next i
jump SELF loop1
        displace_atoms upper move ${xstep1} 0.0 0.0 units lattice
        displace_atoms upper move 0.00333333333333333 0.0 0.0 units lattice
        min_style ${style}
        min_style cg
        minimize ${etol} ${ftol} ${maxiter} ${maxeval}
        minimize 1e-12 ${ftol} ${maxiter} ${maxeval}
        minimize 1e-12 1e-08 ${maxiter} ${maxeval}
        minimize 1e-12 1e-08 10000 ${maxeval}
        minimize 1e-12 1e-08 10000 20000
WARNING: Resetting reneighboring criteria during minimization (../min.cpp:168)
Memory usage per processor = 3.35169 Mbytes
Step Temp PotEng Lx Ly Lz 
      23            0   -241.97554    2.2449075    38.890775    1.1224537 
      24            0   -241.97554    2.2449075    38.890775    1.1224537 
Loop time of 0.000635059 on 1 procs for 1 steps with 82 atoms

Minimization stats:
  Stopping criterion = linesearch alpha is zero
  Energy initial, next-to-last, final = 
        -241.975539704     -241.975539704     -241.975539704
  Force two-norm initial, final = 0.031534 0.031534
  Force max component initial, final = 0.0127603 0.0127603
  Final line search alpha, max atom move = 7.62939e-06 9.73532e-08
  Iterations, force evaluations = 1 18

Pair  time (%) = 0.000556167 (87.5772)
Neigh time (%) = 0 (0)
Comm  time (%) = 3.66531e-05 (5.77161)
Outpt time (%) = 0 (0)
Other time (%) = 4.22389e-05 (6.65117)

Nlocal:    82 ave 82 max 82 min
Histogram: 1 0 0 0 0 0 0 0 0 0
Nghost:    185 ave 185 max 185 min
Histogram: 1 0 0 0 0 0 0 0 0 0
Neighs:    718 ave 718 max 718 min
Histogram: 1 0 0 0 0 0 0 0 0 0

Total # of neighbors = 718
Ave neighs/atom = 8.7561
Neighbor list builds = 0
Dangerous builds = 0
        # write_dump all atom ${dumpfile}
        next i
jump SELF loop1
        displace_atoms upper move ${xstep1} 0.0 0.0 units lattice
        displace_atoms upper move 0.00333333333333333 0.0 0.0 units lattice
        min_style ${style}
        min_style cg
        minimize ${etol} ${ftol} ${maxiter} ${maxeval}
        minimize 1e-12 ${ftol} ${maxiter} ${maxeval}
        minimize 1e-12 1e-08 ${maxiter} ${maxeval}
        minimize 1e-12 1e-08 10000 ${maxeval}
        minimize 1e-12 1e-08 10000 20000
WARNING: Resetting reneighboring criteria during minimization (../min.cpp:168)
Memory usage per processor = 3.35169 Mbytes
Step Temp PotEng Lx Ly Lz 
      24            0   -241.97136    2.2449075    38.890775    1.1224537 
      25            0   -241.97137    2.2449075    38.890775    1.1224537 
      26            0   -241.97139    2.2449075    38.890775    1.1224537 
      27            0   -241.97139    2.2449075    38.890775    1.1224537 
Loop time of 0.000710071 on 1 procs for 3 steps with 82 atoms

Minimization stats:
  Stopping criterion = linesearch alpha is zero
  Energy initial, next-to-last, final = 
        -241.971355746     -241.971389728     -241.971389728
  Force two-norm initial, final = 0.0558468 0.0248973
  Force max component initial, final = 0.0239662 0.0106393
  Final line search alpha, max atom move = 1.52588e-05 1.62343e-07
  Iterations, force evaluations = 3 31

Pair  time (%) = 0.000545232 (76.7856)
Neigh time (%) = 0 (0)
Comm  time (%) = 6.59387e-05 (9.28621)
Outpt time (%) = 1.50442e-05 (2.11869)
Other time (%) = 8.38562e-05 (11.8095)

Nlocal:    82 ave 82 max 82 min
Histogram: 1 0 0 0 0 0 0 0 0 0
Nghost:    185 ave 185 max 185 min
Histogram: 1 0 0 0 0 0 0 0 0 0
Neighs:    718 ave 718 max 718 min
Histogram: 1 0 0 0 0 0 0 0 0 0

Total # of neighbors = 718
Ave neighs/atom = 8.7561
Neighbor list builds = 0
Dangerous builds = 0
        # write_dump all atom ${dumpfile}
        next i
jump SELF loop1
        displace_atoms upper move ${xstep1} 0.0 0.0 units lattice
        displace_atoms upper move 0.00333333333333333 0.0 0.0 units lattice
        min_style ${style}
        min_style cg
        minimize ${etol} ${ftol} ${maxiter} ${maxeval}
        minimize 1e-12 ${ftol} ${maxiter} ${maxeval}
        minimize 1e-12 1e-08 ${maxiter} ${maxeval}
        minimize 1e-12 1e-08 10000 ${maxeval}
        minimize 1e-12 1e-08 10000 20000
WARNING: Resetting reneighboring criteria during minimization (../min.cpp:168)
Memory usage per processor = 3.35169 Mbytes
Step Temp PotEng Lx Ly Lz 
      27            0   -241.96691    2.2449075    38.890777    1.1224537 
      28            0   -241.96692    2.2449075    38.890777    1.1224537 
      29            0   -241.96692    2.2449075    38.890777    1.1224537 
Loop time of 0.000486109 on 1 procs for 2 steps with 82 atoms

Minimization stats:
  Stopping criterion = linesearch alpha is zero
  Energy initial, next-to-last, final = 
        -241.966909665     -241.966917741     -241.966917741
  Force two-norm initial, final = 0.0437816 0.0226178
  Force max component initial, final = 0.0180164 0.00716171
  Final line search alpha, max atom move = 1.52588e-05 1.09279e-07
  Iterations, force evaluations = 2 25

Pair  time (%) = 0.000397652 (81.8031)
Neigh time (%) = 0 (0)
Comm  time (%) = 3.06098e-05 (6.2969)
Outpt time (%) = 3.89258e-06 (0.800763)
Other time (%) = 5.39542e-05 (11.0992)

Nlocal:    82 ave 82 max 82 min
Histogram: 1 0 0 0 0 0 0 0 0 0
Nghost:    185 ave 185 max 185 min
Histogram: 1 0 0 0 0 0 0 0 0 0
Neighs:    718 ave 718 max 718 min
Histogram: 1 0 0 0 0 0 0 0 0 0

Total # of neighbors = 718
Ave neighs/atom = 8.7561
Neighbor list builds = 0
Dangerous builds = 0
        # write_dump all atom ${dumpfile}
        next i
jump SELF loop1
        displace_atoms upper move ${xstep1} 0.0 0.0 units lattice
        displace_atoms upper move 0.00333333333333333 0.0 0.0 units lattice
        min_style ${style}
        min_style cg
        minimize ${etol} ${ftol} ${maxiter} ${maxeval}
        minimize 1e-12 ${ftol} ${maxiter} ${maxeval}
        minimize 1e-12 1e-08 ${maxiter} ${maxeval}
        minimize 1e-12 1e-08 10000 ${maxeval}
        minimize 1e-12 1e-08 10000 20000
WARNING: Resetting reneighboring criteria during minimization (../min.cpp:168)
Memory usage per processor = 3.35169 Mbytes
Step Temp PotEng Lx Ly Lz 
      29            0   -241.96212    2.2449075    38.890778    1.1224537 
      30            0   -241.96213    2.2449075    38.890778    1.1224537 
      31            0   -241.96215    2.2449075    38.890778    1.1224537 
      32            0   -241.96215    2.2449075    38.890778    1.1224537 
Loop time of 0.000645882 on 1 procs for 3 steps with 82 atoms

Minimization stats:
  Stopping criterion = linesearch alpha is zero
  Energy initial, next-to-last, final = 
        -241.962123359      -241.96215136      -241.96215136
  Force two-norm initial, final = 0.0486507 0.0238469
  Force max component initial, final = 0.0216031 0.0101916
  Final line search alpha, max atom move = 1.52588e-05 1.55512e-07
  Iterations, force evaluations = 3 31

Pair  time (%) = 0.000521031 (80.6697)
Neigh time (%) = 0 (0)
Comm  time (%) = 4.23969e-05 (6.56419)
Outpt time (%) = 1.49281e-05 (2.31127)
Other time (%) = 6.75258e-05 (10.4548)

Nlocal:    82 ave 82 max 82 min
Histogram: 1 0 0 0 0 0 0 0 0 0
Nghost:    175 ave 175 max 175 min
Histogram: 1 0 0 0 0 0 0 0 0 0
Neighs:    718 ave 718 max 718 min
Histogram: 1 0 0 0 0 0 0 0 0 0

Total # of neighbors = 718
Ave neighs/atom = 8.7561
Neighbor list builds = 0
Dangerous builds = 0
        # write_dump all atom ${dumpfile}
        next i
jump SELF loop1
        displace_atoms upper move ${xstep1} 0.0 0.0 units lattice
        displace_atoms upper move 0.00333333333333333 0.0 0.0 units lattice
        min_style ${style}
        min_style cg
        minimize ${etol} ${ftol} ${maxiter} ${maxeval}
        minimize 1e-12 ${ftol} ${maxiter} ${maxeval}
        minimize 1e-12 1e-08 ${maxiter} ${maxeval}
        minimize 1e-12 1e-08 10000 ${maxeval}
        minimize 1e-12 1e-08 10000 20000
WARNING: Resetting reneighboring criteria during minimization (../min.cpp:168)
Memory usage per processor = 3.35169 Mbytes
Step Temp PotEng Lx Ly Lz 
      32            0   -241.95706    2.2449075    38.890782    1.1224537 
      33            0   -241.95707    2.2449075    38.890782    1.1224537 
      34            0   -241.95708    2.2449075    38.890782    1.1224537 
      35            0   -241.95708    2.2449075    38.890782    1.1224537 
Loop time of 0.000629114 on 1 procs for 3 steps with 82 atoms

Minimization stats:
  Stopping criterion = linesearch alpha is zero
  Energy initial, next-to-last, final = 
        -241.957059624     -241.957082829     -241.957082829
  Force two-norm initial, final = 0.0492978 0.0219874
  Force max component initial, final = 0.0215775 0.00888963
  Final line search alpha, max atom move = 1.52588e-05 1.35645e-07
  Iterations, force evaluations = 3 31

Pair  time (%) = 0.00050961 (81.0044)
Neigh time (%) = 0 (0)
Comm  time (%) = 3.88526e-05 (6.17576)
Outpt time (%) = 1.59228e-05 (2.53099)
Other time (%) = 6.47288e-05 (10.2889)

Nlocal:    82 ave 82 max 82 min
Histogram: 1 0 0 0 0 0 0 0 0 0
Nghost:    175 ave 175 max 175 min
Histogram: 1 0 0 0 0 0 0 0 0 0
Neighs:    718 ave 718 max 718 min
Histogram: 1 0 0 0 0 0 0 0 0 0

Total # of neighbors = 718
Ave neighs/atom = 8.7561
Neighbor list builds = 0
Dangerous builds = 0
        # write_dump all atom ${dumpfile}
        next i
jump SELF loop1
        displace_atoms upper move ${xstep1} 0.0 0.0 units lattice
        displace_atoms upper move 0.00333333333333333 0.0 0.0 units lattice
        min_style ${style}
        min_style cg
        minimize ${etol} ${ftol} ${maxiter} ${maxeval}
        minimize 1e-12 ${ftol} ${maxiter} ${maxeval}
        minimize 1e-12 1e-08 ${maxiter} ${maxeval}
        minimize 1e-12 1e-08 10000 ${maxeval}
        minimize 1e-12 1e-08 10000 20000
WARNING: Resetting reneighboring criteria during minimization (../min.cpp:168)
Memory usage per processor = 3.35169 Mbytes
Step Temp PotEng Lx Ly Lz 
      35            0    -241.9517    2.2449075    38.890787    1.1224537 
      36            0   -241.95171    2.2449075    38.890787    1.1224537 
      37            0   -241.95172    2.2449075    38.890787    1.1224537 
      38            0   -241.95172    2.2449075    38.890787    1.1224537 
      39            0   -241.95172    2.2449075    38.890787    1.1224537 
Loop time of 0.000761074 on 1 procs for 4 steps with 82 atoms

Minimization stats:
  Stopping criterion = linesearch alpha is zero
  Energy initial, next-to-last, final = 
        -241.951696313     -241.951723973     -241.951723973
  Force two-norm initial, final = 0.0520035 0.0175776
  Force max component initial, final = 0.0235958 0.0050841
  Final line search alpha, max atom move = 3.05176e-05 1.55155e-07
  Iterations, force evaluations = 4 38

Pair  time (%) = 0.000612982 (80.5417)
Neigh time (%) = 0 (0)
Comm  time (%) = 4.97991e-05 (6.54326)
Outpt time (%) = 2.11506e-05 (2.77904)
Other time (%) = 7.71428e-05 (10.136)

Nlocal:    82 ave 82 max 82 min
Histogram: 1 0 0 0 0 0 0 0 0 0
Nghost:    175 ave 175 max 175 min
Histogram: 1 0 0 0 0 0 0 0 0 0
Neighs:    718 ave 718 max 718 min
Histogram: 1 0 0 0 0 0 0 0 0 0

Total # of neighbors = 718
Ave neighs/atom = 8.7561
Neighbor list builds = 0
Dangerous builds = 0
        # write_dump all atom ${dumpfile}
        next i
jump SELF loop1
        displace_atoms upper move ${xstep1} 0.0 0.0 units lattice
        displace_atoms upper move 0.00333333333333333 0.0 0.0 units lattice
        min_style ${style}
        min_style cg
        minimize ${etol} ${ftol} ${maxiter} ${maxeval}
        minimize 1e-12 ${ftol} ${maxiter} ${maxeval}
        minimize 1e-12 1e-08 ${maxiter} ${maxeval}
        minimize 1e-12 1e-08 10000 ${maxeval}
        minimize 1e-12 1e-08 10000 20000
WARNING: Resetting reneighboring criteria during minimization (../min.cpp:168)
Memory usage per processor = 3.35169 Mbytes
Step Temp PotEng Lx Ly Lz 
      39            0   -241.94605    2.2449075    38.890793    1.1224537 
      40            0   -241.94606    2.2449075    38.890793    1.1224537 
      41            0   -241.94606    2.2449075    38.890793    1.1224537 
Loop time of 0.000563887 on 1 procs for 2 steps with 82 atoms

Minimization stats:
  Stopping criterion = linesearch alpha is zero
  Energy initial, next-to-last, final = 
        -241.946052715     -241.946060828     -241.946060828
  Force two-norm initial, final = 0.0486619 0.0319735
  Force max component initial, final = 0.0227032 0.0129171
  Final line search alpha, max atom move = 7.62939e-06 9.85497e-08
  Iterations, force evaluations = 2 27

Pair  time (%) = 0.00046636 (82.7044)
Neigh time (%) = 0 (0)
Comm  time (%) = 3.62672e-05 (6.43165)
Outpt time (%) = 5.92729e-06 (1.05115)
Other time (%) = 5.53329e-05 (9.81276)

Nlocal:    82 ave 82 max 82 min
Histogram: 1 0 0 0 0 0 0 0 0 0
Nghost:    175 ave 175 max 175 min
Histogram: 1 0 0 0 0 0 0 0 0 0
Neighs:    718 ave 718 max 718 min
Histogram: 1 0 0 0 0 0 0 0 0 0

Total # of neighbors = 718
Ave neighs/atom = 8.7561
Neighbor list builds = 0
Dangerous builds = 0
        # write_dump all atom ${dumpfile}
        next i
jump SELF loop1
        displace_atoms upper move ${xstep1} 0.0 0.0 units lattice
        displace_atoms upper move 0.00333333333333333 0.0 0.0 units lattice
        min_style ${style}
        min_style cg
        minimize ${etol} ${ftol} ${maxiter} ${maxeval}
        minimize 1e-12 ${ftol} ${maxiter} ${maxeval}
        minimize 1e-12 1e-08 ${maxiter} ${maxeval}
        minimize 1e-12 1e-08 10000 ${maxeval}
        minimize 1e-12 1e-08 10000 20000
WARNING: Resetting reneighboring criteria during minimization (../min.cpp:168)
Memory usage per processor = 3.35169 Mbytes
Step Temp PotEng Lx Ly Lz 
      41            0   -241.94008    2.2449075    38.890794    1.1224537 
      42            0   -241.94011    2.2449075    38.890794    1.1224537 
      43            0   -241.94012    2.2449075    38.890794    1.1224537 
      44            0   -241.94015    2.2449075    38.890794    1.1224537 
      45            0   -241.94016    2.2449075    38.890794    1.1224537 
      46            0   -241.94016    2.2449075    38.890794    1.1224537 
Loop time of 0.000696912 on 1 procs for 5 steps with 82 atoms

Minimization stats:
  Stopping criterion = linesearch alpha is zero
  Energy initial, next-to-last, final = 
        -241.940082943     -241.940157367     -241.940157367
  Force two-norm initial, final = 0.0777496 0.0192696
  Force max component initial, final = 0.0377164 0.00654925
  Final line search alpha, max atom move = 3.05176e-05 1.99867e-07
  Iterations, force evaluations = 5 45

Pair  time (%) = 0.00055505 (79.6441)
Neigh time (%) = 0 (0)
Comm  time (%) = 4.52538e-05 (6.49347)
Outpt time (%) = 1.80585e-05 (2.59121)
Other time (%) = 7.85503e-05 (11.2712)

Nlocal:    82 ave 82 max 82 min
Histogram: 1 0 0 0 0 0 0 0 0 0
Nghost:    175 ave 175 max 175 min
Histogram: 1 0 0 0 0 0 0 0 0 0
Neighs:    718 ave 718 max 718 min
Histogram: 1 0 0 0 0 0 0 0 0 0

Total # of neighbors = 718
Ave neighs/atom = 8.7561
Neighbor list builds = 0
Dangerous builds = 0
        # write_dump all atom ${dumpfile}
        next i
jump SELF loop1
        displace_atoms upper move ${xstep1} 0.0 0.0 units lattice
        displace_atoms upper move 0.00333333333333333 0.0 0.0 units lattice
        min_style ${style}
        min_style cg
        minimize ${etol} ${ftol} ${maxiter} ${maxeval}
        minimize 1e-12 ${ftol} ${maxiter} ${maxeval}
        minimize 1e-12 1e-08 ${maxiter} ${maxeval}
        minimize 1e-12 1e-08 10000 ${maxeval}
        minimize 1e-12 1e-08 10000 20000
WARNING: Resetting reneighboring criteria during minimization (../min.cpp:168)
Memory usage per processor = 3.35169 Mbytes
Step Temp PotEng Lx Ly Lz 
      46            0   -241.93393    2.2449075    38.890802    1.1224537 
      47            0   -241.93393    2.2449075    38.890802    1.1224537 
      48            0   -241.93393    2.2449075    38.890802    1.1224537 
Loop time of 0.00064191 on 1 procs for 2 steps with 82 atoms

Minimization stats:
  Stopping criterion = linesearch alpha is zero
  Energy initial, next-to-last, final = 
        -241.933928927     -241.933929753     -241.933929753
  Force two-norm initial, final = 0.0514618 0.049012
  Force max component initial, final = 0.0239336 0.0226353
  Final line search alpha, max atom move = 3.8147e-06 8.6347e-08
  Iterations, force evaluations = 2 31

Pair  time (%) = 0.000532293 (82.9233)
Neigh time (%) = 0 (0)
Comm  time (%) = 4.29986e-05 (6.69854)
Outpt time (%) = 6.06081e-06 (0.944185)
Other time (%) = 6.05579e-05 (9.43401)

Nlocal:    82 ave 82 max 82 min
Histogram: 1 0 0 0 0 0 0 0 0 0
Nghost:    175 ave 175 max 175 min
Histogram: 1 0 0 0 0 0 0 0 0 0
Neighs:    718 ave 718 max 718 min
Histogram: 1 0 0 0 0 0 0 0 0 0

Total # of neighbors = 718
Ave neighs/atom = 8.7561
Neighbor list builds = 0
Dangerous builds = 0
        # write_dump all atom ${dumpfile}
        next i
jump SELF loop1
        displace_atoms upper move ${xstep1} 0.0 0.0 units lattice
        displace_atoms upper move 0.00333333333333333 0.0 0.0 units lattice
        min_style ${style}
        min_style cg
        minimize ${etol} ${ftol} ${maxiter} ${maxeval}
        minimize 1e-12 ${ftol} ${maxiter} ${maxeval}
        minimize 1e-12 1e-08 ${maxiter} ${maxeval}
        minimize 1e-12 1e-08 10000 ${maxeval}
        minimize 1e-12 1e-08 10000 20000
WARNING: Resetting reneighboring criteria during minimization (../min.cpp:168)
Memory usage per processor = 3.35169 Mbytes
Step Temp PotEng Lx Ly Lz 
      48            0    -241.9274    2.2449075    38.890802    1.1224537 
      49            0   -241.92743    2.2449075    38.890802    1.1224537 
      50            0   -241.92744    2.2449075    38.890802    1.1224537 
      51            0   -241.92746    2.2449075    38.890802    1.1224537 
      52            0   -241.92748    2.2449075    38.890802    1.1224537 
      53            0   -241.92749    2.2449075    38.890802    1.1224537 
      54            0    -241.9275    2.2449075    38.890802    1.1224537 
      55            0    -241.9275    2.2449075    38.890802    1.1224537 
Loop time of 0.00122508 on 1 procs for 7 steps with 82 atoms

Minimization stats:
  Stopping criterion = linesearch alpha is zero
  Energy initial, next-to-last, final = 
        -241.927395421     -241.927502728     -241.927502728
  Force two-norm initial, final = 0.100813 0.0249444
  Force max component initial, final = 0.0495241 0.00608424
  Final line search alpha, max atom move = 1.52588e-05 9.28381e-08
  Iterations, force evaluations = 7 59

Pair  time (%) = 0.000977248 (79.77)
Neigh time (%) = 0 (0)
Comm  time (%) = 7.57234e-05 (6.18109)
Outpt time (%) = 4.48022e-05 (3.65708)
Other time (%) = 0.000127308 (10.3918)

Nlocal:    82 ave 82 max 82 min
Histogram: 1 0 0 0 0 0 0 0 0 0
Nghost:    175 ave 175 max 175 min
Histogram: 1 0 0 0 0 0 0 0 0 0
Neighs:    718 ave 718 max 718 min
Histogram: 1 0 0 0 0 0 0 0 0 0

Total # of neighbors = 718
Ave neighs/atom = 8.7561
Neighbor list builds = 0
Dangerous builds = 0
        # write_dump all atom ${dumpfile}
        next i
jump SELF loop1
        displace_atoms upper move ${xstep1} 0.0 0.0 units lattice
        displace_atoms upper move 0.00333333333333333 0.0 0.0 units lattice
        min_style ${style}
        min_style cg
        minimize ${etol} ${ftol} ${maxiter} ${maxeval}
        minimize 1e-12 ${ftol} ${maxiter} ${maxeval}
        minimize 1e-12 1e-08 ${maxiter} ${maxeval}
        minimize 1e-12 1e-08 10000 ${maxeval}
        minimize 1e-12 1e-08 10000 20000
WARNING: Resetting reneighboring criteria during minimization (../min.cpp:168)
Memory usage per processor = 3.35169 Mbytes
Step Temp PotEng Lx Ly Lz 
      55            0   -241.92077    2.2449075     38.89083    1.1224537 
      56            0   -241.92078    2.2449075     38.89083    1.1224537 
      57            0   -241.92078    2.2449075     38.89083    1.1224537 
Loop time of 0.000537034 on 1 procs for 2 steps with 82 atoms

Minimization stats:
  Stopping criterion = linesearch alpha is zero
  Energy initial, next-to-last, final = 
        -241.920769389     -241.920782512     -241.920782512
  Force two-norm initial, final = 0.0520073 0.0189395
  Force max component initial, final = 0.0231714 0.00435194
  Final line search alpha, max atom move = 3.05176e-05 1.32811e-07
  Iterations, force evaluations = 2 24

Pair  time (%) = 0.000436085 (81.2024)
Neigh time (%) = 0 (0)
Comm  time (%) = 3.37058e-05 (6.27629)
Outpt time (%) = 6.10179e-06 (1.1362)
Other time (%) = 6.11417e-05 (11.3851)

Nlocal:    82 ave 82 max 82 min
Histogram: 1 0 0 0 0 0 0 0 0 0
Nghost:    175 ave 175 max 175 min
Histogram: 1 0 0 0 0 0 0 0 0 0
Neighs:    718 ave 718 max 718 min
Histogram: 1 0 0 0 0 0 0 0 0 0

Total # of neighbors = 718
Ave neighs/atom = 8.7561
Neighbor list builds = 0
Dangerous builds = 0
        # write_dump all atom ${dumpfile}
        next i
jump SELF loop1
        displace_atoms upper move ${xstep1} 0.0 0.0 units lattice
        displace_atoms upper move 0.00333333333333333 0.0 0.0 units lattice
        min_style ${style}
        min_style cg
        minimize ${etol} ${ftol} ${maxiter} ${maxeval}
        minimize 1e-12 ${ftol} ${maxiter} ${maxeval}
        minimize 1e-12 1e-08 ${maxiter} ${maxeval}
        minimize 1e-12 1e-08 10000 ${maxeval}
        minimize 1e-12 1e-08 10000 20000
WARNING: Resetting reneighboring criteria during minimization (../min.cpp:168)
Memory usage per processor = 3.35169 Mbytes
Step Temp PotEng Lx Ly Lz 
      57            0   -241.91379    2.2449075     38.89083    1.1224537 
      58            0    -241.9138    2.2449075     38.89083    1.1224537 
      59            0   -241.91381    2.2449075     38.89083    1.1224537 
      60            0   -241.91382    2.2449075     38.89083    1.1224537 
      61            0   -241.91382    2.2449075     38.89083    1.1224537 
      62            0   -241.91382    2.2449075     38.89083    1.1224537 
Loop time of 0.00113604 on 1 procs for 5 steps with 82 atoms

Minimization stats:
  Stopping criterion = linesearch alpha is zero
  Energy initial, next-to-last, final = 
        -241.913786186     -241.913820061     -241.913820061
  Force two-norm initial, final = 0.0612998 0.0142704
  Force max component initial, final = 0.0291922 0.00293171
  Final line search alpha, max atom move = 3.05176e-05 8.94687e-08
  Iterations, force evaluations = 5 45

Pair  time (%) = 0.000921981 (81.1571)
Neigh time (%) = 0 (0)
Comm  time (%) = 5.70725e-05 (5.02379)
Outpt time (%) = 2.28242e-05 (2.00909)
Other time (%) = 0.000134167 (11.81)

Nlocal:    82 ave 82 max 82 min
Histogram: 1 0 0 0 0 0 0 0 0 0
Nghost:    175 ave 175 max 175 min
Histogram: 1 0 0 0 0 0 0 0 0 0
Neighs:    718 ave 718 max 718 min
Histogram: 1 0 0 0 0 0 0 0 0 0

Total # of neighbors = 718
Ave neighs/atom = 8.7561
Neighbor list builds = 0
Dangerous builds = 0
        # write_dump all atom ${dumpfile}
        next i
jump SELF loop1
        displace_atoms upper move ${xstep1} 0.0 0.0 units lattice
        displace_atoms upper move 0.00333333333333333 0.0 0.0 units lattice
        min_style ${style}
        min_style cg
        minimize ${etol} ${ftol} ${maxiter} ${maxeval}
        minimize 1e-12 ${ftol} ${maxiter} ${maxeval}
        minimize 1e-12 1e-08 ${maxiter} ${maxeval}
        minimize 1e-12 1e-08 10000 ${maxeval}
        minimize 1e-12 1e-08 10000 20000
WARNING: Resetting reneighboring criteria during minimization (../min.cpp:168)
Memory usage per processor = 3.35169 Mbytes
Step Temp PotEng Lx Ly Lz 
      62            0   -241.90659    2.2449075    38.890838    1.1224537 
      63            0   -241.90659    2.2449075    38.890838    1.1224537 
      64            0    -241.9066    2.2449075    38.890838    1.1224537 
      65            0    -241.9066    2.2449075    38.890838    1.1224537 
      66            0    -241.9066    2.2449075    38.890838    1.1224537 
Loop time of 0.0017749 on 1 procs for 4 steps with 82 atoms

Minimization stats:
  Stopping criterion = linesearch alpha is zero
  Energy initial, next-to-last, final = 
        -241.906585851     -241.906598643     -241.906598643
  Force two-norm initial, final = 0.0610924 0.0265651
  Force max component initial, final = 0.0297511 0.00977091
  Final line search alpha, max atom move = 1.52588e-05 1.49092e-07
  Iterations, force evaluations = 4 47

Pair  time (%) = 0.0013951 (78.6011)
Neigh time (%) = 0 (0)
Comm  time (%) = 0.000129307 (7.28527)
Outpt time (%) = 6.79638e-05 (3.82915)
Other time (%) = 0.000182539 (10.2845)

Nlocal:    82 ave 82 max 82 min
Histogram: 1 0 0 0 0 0 0 0 0 0
Nghost:    175 ave 175 max 175 min
Histogram: 1 0 0 0 0 0 0 0 0 0
Neighs:    718 ave 718 max 718 min
Histogram: 1 0 0 0 0 0 0 0 0 0

Total # of neighbors = 718
Ave neighs/atom = 8.7561
Neighbor list builds = 0
Dangerous builds = 0
        # write_dump all atom ${dumpfile}
        next i
jump SELF loop1
        displace_atoms upper move ${xstep1} 0.0 0.0 units lattice
        displace_atoms upper move 0.00333333333333333 0.0 0.0 units lattice
        min_style ${style}
        min_style cg
        minimize ${etol} ${ftol} ${maxiter} ${maxeval}
        minimize 1e-12 ${ftol} ${maxiter} ${maxeval}
        minimize 1e-12 1e-08 ${maxiter} ${maxeval}
        minimize 1e-12 1e-08 10000 ${maxeval}
        minimize 1e-12 1e-08 10000 20000
WARNING: Resetting reneighboring criteria during minimization (../min.cpp:168)
Memory usage per processor = 3.35169 Mbytes
Step Temp PotEng Lx Ly Lz 
      66            0   -241.89914    2.2449075    38.890839    1.1224537 
      67            0   -241.89918    2.2449075    38.890839    1.1224537 
      68            0    -241.8992    2.2449075    38.890839    1.1224537 
      69            0   -241.89921    2.2449075    38.890839    1.1224537 
      70            0   -241.89923    2.2449075    38.890839    1.1224537 
      71            0   -241.89923    2.2449075    38.890839    1.1224537 
      72            0   -241.89927    2.2449075    38.890839    1.1224537 
      73            0   -241.89928    2.2449075    38.890839    1.1224537 
      74            0   -241.89928    2.2449075    38.890839    1.1224537 
      75            0   -241.89928    2.2449075    38.890839    1.1224537 
      76            0   -241.89929    2.2449075    38.890839    1.1224537 
      77            0   -241.89929    2.2449075    38.890839    1.1224537 
      78            0   -241.89929    2.2449075    38.890839    1.1224537 
Loop time of 0.00288291 on 1 procs for 12 steps with 82 atoms

Minimization stats:
  Stopping criterion = linesearch alpha is zero
  Energy initial, next-to-last, final = 
        -241.899137846     -241.899293628     -241.899293628
  Force two-norm initial, final = 0.0955585 0.0124505
  Force max component initial, final = 0.0469248 0.00228924
  Final line search alpha, max atom move = 6.10352e-05 1.39724e-07
  Iterations, force evaluations = 12 92

Pair  time (%) = 0.00159958 (55.4848)
Neigh time (%) = 0 (0)
Comm  time (%) = 0.000106349 (3.68893)
Outpt time (%) = 8.38044e-05 (2.90693)
Other time (%) = 0.00109318 (37.9194)

Nlocal:    82 ave 82 max 82 min
Histogram: 1 0 0 0 0 0 0 0 0 0
Nghost:    175 ave 175 max 175 min
Histogram: 1 0 0 0 0 0 0 0 0 0
Neighs:    714 ave 714 max 714 min
Histogram: 1 0 0 0 0 0 0 0 0 0

Total # of neighbors = 714
Ave neighs/atom = 8.70732
Neighbor list builds = 0
Dangerous builds = 0
        # write_dump all atom ${dumpfile}
        next i
jump SELF loop1
        displace_atoms upper move ${xstep1} 0.0 0.0 units lattice
        displace_atoms upper move 0.00333333333333333 0.0 0.0 units lattice
        min_style ${style}
        min_style cg
        minimize ${etol} ${ftol} ${maxiter} ${maxeval}
        minimize 1e-12 ${ftol} ${maxiter} ${maxeval}
        minimize 1e-12 1e-08 ${maxiter} ${maxeval}
        minimize 1e-12 1e-08 10000 ${maxeval}
        minimize 1e-12 1e-08 10000 20000
WARNING: Resetting reneighboring criteria during minimization (../min.cpp:168)
Memory usage per processor = 3.35169 Mbytes
Step Temp PotEng Lx Ly Lz 
      78            0    -241.8918    2.2449075    38.890965    1.1224537 
      79            0   -241.89183    2.2449075    38.890965    1.1224537 
      80            0   -241.89183    2.2449075    38.890965    1.1224537 
      81            0   -241.89184    2.2449075    38.890965    1.1224537 
      82            0   -241.89186    2.2449075    38.890965    1.1224537 
      83            0   -241.89187    2.2449075    38.890965    1.1224537 
      84            0   -241.89189    2.2449075    38.890965    1.1224537 
      85            0    -241.8919    2.2449075    38.890965    1.1224537 
      86            0    -241.8919    2.2449075    38.890965    1.1224537 
      87            0    -241.8919    2.2449075    38.890965    1.1224537 
      88            0    -241.8919    2.2449075    38.890965    1.1224537 
      89            0    -241.8919    2.2449075    38.890965    1.1224537 
      90            0    -241.8919    2.2449075    38.890965    1.1224537 
Loop time of 0.00227206 on 1 procs for 12 steps with 82 atoms

Minimization stats:
  Stopping criterion = linesearch alpha is zero
  Energy initial, next-to-last, final = 
         -241.89179989     -241.891900201     -241.891900201
  Force two-norm initial, final = 0.0872398 0.0124675
  Force max component initial, final = 0.0431747 0.0026464
  Final line search alpha, max atom move = 6.10352e-05 1.61523e-07
  Iterations, force evaluations = 12 107

Pair  time (%) = 0.0018389 (80.9356)
Neigh time (%) = 0 (0)
Comm  time (%) = 0.000144836 (6.37465)
Outpt time (%) = 6.68049e-05 (2.94028)
Other time (%) = 0.000221515 (9.74952)

Nlocal:    82 ave 82 max 82 min
Histogram: 1 0 0 0 0 0 0 0 0 0
Nghost:    175 ave 175 max 175 min
Histogram: 1 0 0 0 0 0 0 0 0 0
Neighs:    714 ave 714 max 714 min
Histogram: 1 0 0 0 0 0 0 0 0 0

Total # of neighbors = 714
Ave neighs/atom = 8.70732
Neighbor list builds = 0
Dangerous builds = 0
        # write_dump all atom ${dumpfile}
        next i
jump SELF loop1
        displace_atoms upper move ${xstep1} 0.0 0.0 units lattice
        displace_atoms upper move 0.00333333333333333 0.0 0.0 units lattice
        min_style ${style}
        min_style cg
        minimize ${etol} ${ftol} ${maxiter} ${maxeval}
        minimize 1e-12 ${ftol} ${maxiter} ${maxeval}
        minimize 1e-12 1e-08 ${maxiter} ${maxeval}
        minimize 1e-12 1e-08 10000 ${maxeval}
        minimize 1e-12 1e-08 10000 20000
WARNING: Resetting reneighboring criteria during minimization (../min.cpp:168)
Memory usage per processor = 3.35169 Mbytes
Step Temp PotEng Lx Ly Lz 
      90            0   -241.88437    2.2449075    38.891205    1.1224537 
      91            0   -241.88439    2.2449075    38.891205    1.1224537 
      92            0    -241.8844    2.2449075    38.891205    1.1224537 
      93            0    -241.8844    2.2449075    38.891205    1.1224537 
      94            0    -241.8844    2.2449075    38.891205    1.1224537 
      95            0    -241.8844    2.2449075    38.891205    1.1224537 
Loop time of 0.00114894 on 1 procs for 5 steps with 82 atoms

Minimization stats:
  Stopping criterion = linesearch alpha is zero
  Energy initial, next-to-last, final = 
        -241.884365918     -241.884396917     -241.884396917
  Force two-norm initial, final = 0.0847262 0.0212046
  Force max component initial, final = 0.0419047 0.00649639
  Final line search alpha, max atom move = 1.52588e-05 9.9127e-08
  Iterations, force evaluations = 5 52

Pair  time (%) = 0.000915294 (79.6639)
Neigh time (%) = 0 (0)
Comm  time (%) = 6.73084e-05 (5.85828)
Outpt time (%) = 2.70675e-05 (2.35586)
Other time (%) = 0.000139274 (12.1219)

Nlocal:    82 ave 82 max 82 min
Histogram: 1 0 0 0 0 0 0 0 0 0
Nghost:    175 ave 175 max 175 min
Histogram: 1 0 0 0 0 0 0 0 0 0
Neighs:    714 ave 714 max 714 min
Histogram: 1 0 0 0 0 0 0 0 0 0

Total # of neighbors = 714
Ave neighs/atom = 8.70732
Neighbor list builds = 0
Dangerous builds = 0
        # write_dump all atom ${dumpfile}
        next i
jump SELF loop1
        displace_atoms upper move ${xstep1} 0.0 0.0 units lattice
        displace_atoms upper move 0.00333333333333333 0.0 0.0 units lattice
        min_style ${style}
        min_style cg
        minimize ${etol} ${ftol} ${maxiter} ${maxeval}
        minimize 1e-12 ${ftol} ${maxiter} ${maxeval}
        minimize 1e-12 1e-08 ${maxiter} ${maxeval}
        minimize 1e-12 1e-08 10000 ${maxeval}
        minimize 1e-12 1e-08 10000 20000
WARNING: Resetting reneighboring criteria during minimization (../min.cpp:168)
Memory usage per processor = 3.35169 Mbytes
Step Temp PotEng Lx Ly Lz 
      95            0   -241.87677    2.2449075    38.891233    1.1224537 
      96            0   -241.87682    2.2449075    38.891233    1.1224537 
      97            0   -241.87684    2.2449075    38.891233    1.1224537 
      98            0   -241.87685    2.2449075    38.891233    1.1224537 
      99            0   -241.87687    2.2449075    38.891233    1.1224537 
     100            0   -241.87688    2.2449075    38.891233    1.1224537 
     101            0   -241.87689    2.2449075    38.891233    1.1224537 
     102            0    -241.8769    2.2449075    38.891233    1.1224537 
     103            0   -241.87691    2.2449075    38.891233    1.1224537 
     104            0   -241.87692    2.2449075    38.891233    1.1224537 
     105            0   -241.87693    2.2449075    38.891233    1.1224537 
     106            0   -241.87694    2.2449075    38.891233    1.1224537 
     107            0   -241.87697    2.2449075    38.891233    1.1224537 
     108            0   -241.87699    2.2449075    38.891233    1.1224537 
     109            0   -241.87699    2.2449075    38.891233    1.1224537 
Loop time of 0.00239898 on 1 procs for 14 steps with 82 atoms

Minimization stats:
  Stopping criterion = linesearch alpha is zero
  Energy initial, next-to-last, final = 
        -241.876774358     -241.876992228     -241.876992228
  Force two-norm initial, final = 0.0942167 0.0277566
  Force max component initial, final = 0.04609 0.00806002
  Final line search alpha, max atom move = 7.62939e-06 6.14931e-08
  Iterations, force evaluations = 14 109

Pair  time (%) = 0.00193516 (80.6661)
Neigh time (%) = 0 (0)
Comm  time (%) = 0.000139954 (5.8339)
Outpt time (%) = 7.81538e-05 (3.2578)
Other time (%) = 0.000245708 (10.2422)

Nlocal:    82 ave 82 max 82 min
Histogram: 1 0 0 0 0 0 0 0 0 0
Nghost:    175 ave 175 max 175 min
Histogram: 1 0 0 0 0 0 0 0 0 0
Neighs:    714 ave 714 max 714 min
Histogram: 1 0 0 0 0 0 0 0 0 0

Total # of neighbors = 714
Ave neighs/atom = 8.70732
Neighbor list builds = 0
Dangerous builds = 0
        # write_dump all atom ${dumpfile}
        next i
jump SELF loop1
        displace_atoms upper move ${xstep1} 0.0 0.0 units lattice
        displace_atoms upper move 0.00333333333333333 0.0 0.0 units lattice
        min_style ${style}
        min_style cg
        minimize ${etol} ${ftol} ${maxiter} ${maxeval}
        minimize 1e-12 ${ftol} ${maxiter} ${maxeval}
        minimize 1e-12 1e-08 ${maxiter} ${maxeval}
        minimize 1e-12 1e-08 10000 ${maxeval}
        minimize 1e-12 1e-08 10000 20000
WARNING: Resetting reneighboring criteria during minimization (../min.cpp:168)
Memory usage per processor = 3.35169 Mbytes
Step Temp PotEng Lx Ly Lz 
     109            0   -241.86937    2.2449075    38.892503    1.1224537 
     110            0   -241.86941    2.2449075    38.892503    1.1224537 
     111            0   -241.86942    2.2449075    38.892503    1.1224537 
     112            0   -241.86943    2.2449075    38.892503    1.1224537 
     113            0   -241.86945    2.2449075    38.892503    1.1224537 
     114            0   -241.86946    2.2449075    38.892503    1.1224537 
     115            0   -241.86947    2.2449075    38.892503    1.1224537 
     116            0   -241.86948    2.2449075    38.892503    1.1224537 
     117            0   -241.86949    2.2449075    38.892503    1.1224537 
     118            0   -241.86951    2.2449075    38.892503    1.1224537 
     119            0   -241.86954    2.2449075    38.892503    1.1224537 
     120            0   -241.86956    2.2449075    38.892503    1.1224537 
     121            0    -241.8696    2.2449075    38.892503    1.1224537 
     122            0   -241.86961    2.2449075    38.892503    1.1224537 
     123            0   -241.86965    2.2449075    38.892503    1.1224537 
     124            0   -241.86965    2.2449075    38.892503    1.1224537 
     125            0   -241.86965    2.2449075    38.892503    1.1224537 
     126            0   -241.86965    2.2449075    38.892503    1.1224537 
     127            0   -241.86965    2.2449075    38.892503    1.1224537 
     128            0   -241.86965    2.2449075    38.892503    1.1224537 
Loop time of 0.00416403 on 1 procs for 19 steps with 82 atoms

Minimization stats:
  Stopping criterion = linesearch alpha is zero
  Energy initial, next-to-last, final = 
        -241.869374478      -241.86964963      -241.86964963
  Force two-norm initial, final = 0.0916657 0.0479273
  Force max component initial, final = 0.0437645 0.0117403
  Final line search alpha, max atom move = 3.8147e-06 4.47856e-08
  Iterations, force evaluations = 19 173

Pair  time (%) = 0.00340918 (81.8721)
Neigh time (%) = 0 (0)
Comm  time (%) = 0.000245587 (5.89782)
Outpt time (%) = 0.00011462 (2.75263)
Other time (%) = 0.000394644 (9.47745)

Nlocal:    82 ave 82 max 82 min
Histogram: 1 0 0 0 0 0 0 0 0 0
Nghost:    175 ave 175 max 175 min
Histogram: 1 0 0 0 0 0 0 0 0 0
Neighs:    714 ave 714 max 714 min
Histogram: 1 0 0 0 0 0 0 0 0 0

Total # of neighbors = 714
Ave neighs/atom = 8.70732
Neighbor list builds = 0
Dangerous builds = 0
        # write_dump all atom ${dumpfile}
        next i
jump SELF loop1
        displace_atoms upper move ${xstep1} 0.0 0.0 units lattice
        displace_atoms upper move 0.00333333333333333 0.0 0.0 units lattice
        min_style ${style}
        min_style cg
        minimize ${etol} ${ftol} ${maxiter} ${maxeval}
        minimize 1e-12 ${ftol} ${maxiter} ${maxeval}
        minimize 1e-12 1e-08 ${maxiter} ${maxeval}
        minimize 1e-12 1e-08 10000 ${maxeval}
        minimize 1e-12 1e-08 10000 20000
WARNING: Resetting reneighboring criteria during minimization (../min.cpp:168)
Memory usage per processor = 3.35169 Mbytes
Step Temp PotEng Lx Ly Lz 
     128            0   -241.86204    2.2449075    38.900924    1.1224537 
     129            0   -241.86208    2.2449075    38.900924    1.1224537 
     130            0   -241.86208    2.2449075    38.900924    1.1224537 
     131            0   -241.86209    2.2449075    38.900924    1.1224537 
     132            0   -241.86209    2.2449075    38.900924    1.1224537 
Loop time of 0.000898931 on 1 procs for 4 steps with 82 atoms

Minimization stats:
  Stopping criterion = linesearch alpha is zero
  Energy initial, next-to-last, final = 
        -241.862035011      -241.86208524      -241.86208524
  Force two-norm initial, final = 0.101821 0.0413754
  Force max component initial, final = 0.0452242 0.0129894
  Final line search alpha, max atom move = 3.8147e-06 4.95506e-08
  Iterations, force evaluations = 4 47

Pair  time (%) = 0.000725176 (80.6709)
Neigh time (%) = 0 (0)
Comm  time (%) = 5.92828e-05 (6.5948)
Outpt time (%) = 1.60276e-05 (1.78296)
Other time (%) = 9.84451e-05 (10.9513)

Nlocal:    82 ave 82 max 82 min
Histogram: 1 0 0 0 0 0 0 0 0 0
Nghost:    175 ave 175 max 175 min
Histogram: 1 0 0 0 0 0 0 0 0 0
Neighs:    714 ave 714 max 714 min
Histogram: 1 0 0 0 0 0 0 0 0 0

Total # of neighbors = 714
Ave neighs/atom = 8.70732
Neighbor list builds = 0
Dangerous builds = 0
        # write_dump all atom ${dumpfile}
        next i
jump SELF loop1
        displace_atoms upper move ${xstep1} 0.0 0.0 units lattice
        displace_atoms upper move 0.00333333333333333 0.0 0.0 units lattice
        min_style ${style}
        min_style cg
        minimize ${etol} ${ftol} ${maxiter} ${maxeval}
        minimize 1e-12 ${ftol} ${maxiter} ${maxeval}
        minimize 1e-12 1e-08 ${maxiter} ${maxeval}
        minimize 1e-12 1e-08 10000 ${maxeval}
        minimize 1e-12 1e-08 10000 20000
WARNING: Resetting reneighboring criteria during minimization (../min.cpp:168)
Memory usage per processor = 3.35169 Mbytes
Step Temp PotEng Lx Ly Lz 
     132            0    -241.8544    2.2449075    38.900925    1.1224537 
     133            0   -241.85446    2.2449075    38.900925    1.1224537 
     134            0   -241.85449    2.2449075    38.900925    1.1224537 
     135            0   -241.85449    2.2449075    38.900925    1.1224537 
Loop time of 0.000686042 on 1 procs for 3 steps with 82 atoms

Minimization stats:
  Stopping criterion = linesearch alpha is zero
  Energy initial, next-to-last, final = 
        -241.854399907     -241.854485528     -241.854485528
  Force two-norm initial, final = 0.105242 0.0282943
  Force max component initial, final = 0.0493181 0.00978027
  Final line search alpha, max atom move = 1.52588e-05 1.49235e-07
  Iterations, force evaluations = 3 32

Pair  time (%) = 0.000562717 (82.0237)
Neigh time (%) = 0 (0)
Comm  time (%) = 5.21444e-05 (7.60076)
Outpt time (%) = 1.0922e-05 (1.59203)
Other time (%) = 6.02585e-05 (8.78351)

Nlocal:    82 ave 82 max 82 min
Histogram: 1 0 0 0 0 0 0 0 0 0
Nghost:    175 ave 175 max 175 min
Histogram: 1 0 0 0 0 0 0 0 0 0
Neighs:    714 ave 714 max 714 min
Histogram: 1 0 0 0 0 0 0 0 0 0

Total # of neighbors = 714
Ave neighs/atom = 8.70732
Neighbor list builds = 0
Dangerous builds = 0
        # write_dump all atom ${dumpfile}
        next i
jump SELF loop1
        displace_atoms upper move ${xstep1} 0.0 0.0 units lattice
        displace_atoms upper move 0.00333333333333333 0.0 0.0 units lattice
        min_style ${style}
        min_style cg
        minimize ${etol} ${ftol} ${maxiter} ${maxeval}
        minimize 1e-12 ${ftol} ${maxiter} ${maxeval}
        minimize 1e-12 1e-08 ${maxiter} ${maxeval}
        minimize 1e-12 1e-08 10000 ${maxeval}
        minimize 1e-12 1e-08 10000 20000
WARNING: Resetting reneighboring criteria during minimization (../min.cpp:168)
Memory usage per processor = 3.35169 Mbytes
Step Temp PotEng Lx Ly Lz 
     135            0   -241.84678    2.2449075    38.900942    1.1224537 
     136            0   -241.84681    2.2449075    38.900942    1.1224537 
     137            0   -241.84685    2.2449075    38.900942    1.1224537 
     138            0   -241.84687    2.2449075    38.900942    1.1224537 
     139            0   -241.84687    2.2449075    38.900942    1.1224537 
Loop time of 0.000515006 on 1 procs for 4 steps with 82 atoms

Minimization stats:
  Stopping criterion = linesearch alpha is zero
  Energy initial, next-to-last, final = 
        -241.846777825       -241.8468746       -241.8468746
  Force two-norm initial, final = 0.0902958 0.0246101
  Force max component initial, final = 0.0430763 0.0104319
  Final line search alpha, max atom move = 1.52588e-05 1.59178e-07
  Iterations, force evaluations = 4 38

Pair  time (%) = 0.000377103 (73.2231)
Neigh time (%) = 0 (0)
Comm  time (%) = 3.13937e-05 (6.09579)
Outpt time (%) = 2.00613e-05 (3.89534)
Other time (%) = 8.64479e-05 (16.7858)

Nlocal:    82 ave 82 max 82 min
Histogram: 1 0 0 0 0 0 0 0 0 0
Nghost:    175 ave 175 max 175 min
Histogram: 1 0 0 0 0 0 0 0 0 0
Neighs:    714 ave 714 max 714 min
Histogram: 1 0 0 0 0 0 0 0 0 0

Total # of neighbors = 714
Ave neighs/atom = 8.70732
Neighbor list builds = 0
Dangerous builds = 0
        # write_dump all atom ${dumpfile}
        next i
jump SELF loop1
        displace_atoms upper move ${xstep1} 0.0 0.0 units lattice
        displace_atoms upper move 0.00333333333333333 0.0 0.0 units lattice
        min_style ${style}
        min_style cg
        minimize ${etol} ${ftol} ${maxiter} ${maxeval}
        minimize 1e-12 ${ftol} ${maxiter} ${maxeval}
        minimize 1e-12 1e-08 ${maxiter} ${maxeval}
        minimize 1e-12 1e-08 10000 ${maxeval}
        minimize 1e-12 1e-08 10000 20000
WARNING: Resetting reneighboring criteria during minimization (../min.cpp:168)
Memory usage per processor = 3.35169 Mbytes
Step Temp PotEng Lx Ly Lz 
     139            0   -241.83916    2.2449075     38.90104    1.1224537 
     140            0   -241.83918    2.2449075     38.90104    1.1224537 
     141            0    -241.8392    2.2449075     38.90104    1.1224537 
     142            0   -241.83922    2.2449075     38.90104    1.1224537 
     143            0   -241.83924    2.2449075     38.90104    1.1224537 
     144            0   -241.83924    2.2449075     38.90104    1.1224537 
     145            0   -241.83924    2.2449075     38.90104    1.1224537 
     146            0   -241.83924    2.2449075     38.90104    1.1224537 
     147            0   -241.83924    2.2449075     38.90104    1.1224537 
     148            0   -241.83924    2.2449075     38.90104    1.1224537 
Loop time of 0.0018981 on 1 procs for 9 steps with 82 atoms

Minimization stats:
  Stopping criterion = linesearch alpha is zero
  Energy initial, next-to-last, final = 
        -241.839162224     -241.839244554     -241.839244554
  Force two-norm initial, final = 0.0732175 0.0322472
  Force max component initial, final = 0.0347571 0.01008
  Final line search alpha, max atom move = 7.62939e-06 7.69041e-08
  Iterations, force evaluations = 9 87

Pair  time (%) = 0.00155203 (81.7676)
Neigh time (%) = 0 (0)
Comm  time (%) = 0.000112343 (5.91873)
Outpt time (%) = 5.38294e-05 (2.83597)
Other time (%) = 0.000179896 (9.47771)

Nlocal:    82 ave 82 max 82 min
Histogram: 1 0 0 0 0 0 0 0 0 0
Nghost:    175 ave 175 max 175 min
Histogram: 1 0 0 0 0 0 0 0 0 0
Neighs:    714 ave 714 max 714 min
Histogram: 1 0 0 0 0 0 0 0 0 0

Total # of neighbors = 714
Ave neighs/atom = 8.70732
Neighbor list builds = 0
Dangerous builds = 0
        # write_dump all atom ${dumpfile}
        next i
jump SELF loop1
        displace_atoms upper move ${xstep1} 0.0 0.0 units lattice
        displace_atoms upper move 0.00333333333333333 0.0 0.0 units lattice
        min_style ${style}
        min_style cg
        minimize ${etol} ${ftol} ${maxiter} ${maxeval}
        minimize 1e-12 ${ftol} ${maxiter} ${maxeval}
        minimize 1e-12 1e-08 ${maxiter} ${maxeval}
        minimize 1e-12 1e-08 10000 ${maxeval}
        minimize 1e-12 1e-08 10000 20000
WARNING: Resetting reneighboring criteria during minimization (../min.cpp:168)
Memory usage per processor = 3.35169 Mbytes
Step Temp PotEng Lx Ly Lz 
     148            0   -241.83154    2.2449075    38.901566    1.1224537 
     149            0   -241.83155    2.2449075    38.901566    1.1224537 
     150            0   -241.83156    2.2449075    38.901566    1.1224537 
     151            0   -241.83158    2.2449075    38.901566    1.1224537 
     152            0   -241.83158    2.2449075    38.901566    1.1224537 
     153            0    -241.8316    2.2449075    38.901566    1.1224537 
     154            0    -241.8316    2.2449075    38.901566    1.1224537 
     155            0    -241.8316    2.2449075    38.901566    1.1224537 
     156            0    -241.8316    2.2449075    38.901566    1.1224537 
Loop time of 0.00163899 on 1 procs for 8 steps with 82 atoms

Minimization stats:
  Stopping criterion = linesearch alpha is zero
  Energy initial, next-to-last, final = 
        -241.831537375     -241.831597274     -241.831597274
  Force two-norm initial, final = 0.0614453 0.0248044
  Force max component initial, final = 0.0280582 0.00740628
  Final line search alpha, max atom move = 1.52588e-05 1.13011e-07
  Iterations, force evaluations = 8 77

Pair  time (%) = 0.00133014 (81.1563)
Neigh time (%) = 0 (0)
Comm  time (%) = 0.000101861 (6.2149)
Outpt time (%) = 4.51441e-05 (2.75439)
Other time (%) = 0.000161841 (9.87445)

Nlocal:    82 ave 82 max 82 min
Histogram: 1 0 0 0 0 0 0 0 0 0
Nghost:    175 ave 175 max 175 min
Histogram: 1 0 0 0 0 0 0 0 0 0
Neighs:    714 ave 714 max 714 min
Histogram: 1 0 0 0 0 0 0 0 0 0

Total # of neighbors = 714
Ave neighs/atom = 8.70732
Neighbor list builds = 0
Dangerous builds = 0
        # write_dump all atom ${dumpfile}
        next i
jump SELF loop1
        displace_atoms upper move ${xstep1} 0.0 0.0 units lattice
        displace_atoms upper move 0.00333333333333333 0.0 0.0 units lattice
        min_style ${style}
        min_style cg
        minimize ${etol} ${ftol} ${maxiter} ${maxeval}
        minimize 1e-12 ${ftol} ${maxiter} ${maxeval}
        minimize 1e-12 1e-08 ${maxiter} ${maxeval}
        minimize 1e-12 1e-08 10000 ${maxeval}
        minimize 1e-12 1e-08 10000 20000
WARNING: Resetting reneighboring criteria during minimization (../min.cpp:168)
Memory usage per processor = 3.35169 Mbytes
Step Temp PotEng Lx Ly Lz 
     156            0   -241.82386    2.2449075    38.902085    1.1224537 
     157            0   -241.82388    2.2449075    38.902085    1.1224537 
     158            0   -241.82389    2.2449075    38.902085    1.1224537 
     159            0    -241.8239    2.2449075    38.902085    1.1224537 
     160            0   -241.82391    2.2449075    38.902085    1.1224537 
     161            0   -241.82393    2.2449075    38.902085    1.1224537 
     162            0   -241.82394    2.2449075    38.902085    1.1224537 
     163            0   -241.82395    2.2449075    38.902085    1.1224537 
     164            0   -241.82395    2.2449075    38.902085    1.1224537 
     165            0   -241.82395    2.2449075    38.902085    1.1224537 
Loop time of 0.00213011 on 1 procs for 9 steps with 82 atoms

Minimization stats:
  Stopping criterion = linesearch alpha is zero
  Energy initial, next-to-last, final = 
        -241.823864621     -241.823948747     -241.823948747
  Force two-norm initial, final = 0.0734408 0.0153109
  Force max component initial, final = 0.0347337 0.00340893
  Final line search alpha, max atom move = 3.05176e-05 1.04032e-07
  Iterations, force evaluations = 9 71

Pair  time (%) = 0.00168673 (79.1851)
Neigh time (%) = 0 (0)
Comm  time (%) = 0.000178443 (8.37716)
Outpt time (%) = 4.7866e-05 (2.24711)
Other time (%) = 0.000217072 (10.1907)

Nlocal:    82 ave 82 max 82 min
Histogram: 1 0 0 0 0 0 0 0 0 0
Nghost:    175 ave 175 max 175 min
Histogram: 1 0 0 0 0 0 0 0 0 0
Neighs:    714 ave 714 max 714 min
Histogram: 1 0 0 0 0 0 0 0 0 0

Total # of neighbors = 714
Ave neighs/atom = 8.70732
Neighbor list builds = 0
Dangerous builds = 0
        # write_dump all atom ${dumpfile}
        next i
jump SELF loop1
        displace_atoms upper move ${xstep1} 0.0 0.0 units lattice
        displace_atoms upper move 0.00333333333333333 0.0 0.0 units lattice
        min_style ${style}
        min_style cg
        minimize ${etol} ${ftol} ${maxiter} ${maxeval}
        minimize 1e-12 ${ftol} ${maxiter} ${maxeval}
        minimize 1e-12 1e-08 ${maxiter} ${maxeval}
        minimize 1e-12 1e-08 10000 ${maxeval}
        minimize 1e-12 1e-08 10000 20000
WARNING: Resetting reneighboring criteria during minimization (../min.cpp:168)
Memory usage per processor = 3.35169 Mbytes
Step Temp PotEng Lx Ly Lz 
     165            0   -241.81623    2.2449075    38.903005    1.1224537 
     166            0   -241.81626    2.2449075    38.903005    1.1224537 
     167            0   -241.81627    2.2449075    38.903005    1.1224537 
     168            0   -241.81627    2.2449075    38.903005    1.1224537 
     169            0   -241.81627    2.2449075    38.903005    1.1224537 
     170            0   -241.81627    2.2449075    38.903005    1.1224537 
     171            0   -241.81627    2.2449075    38.903005    1.1224537 
     172            0   -241.81627    2.2449075    38.903005    1.1224537 
Loop time of 0.00122398 on 1 procs for 7 steps with 82 atoms

Minimization stats:
  Stopping criterion = linesearch alpha is zero
  Energy initial, next-to-last, final = 
        -241.816227308     -241.816274326     -241.816274326
  Force two-norm initial, final = 0.0738987 0.0108191
  Force max component initial, final = 0.0362082 0.00186171
  Final line search alpha, max atom move = 6.10352e-05 1.1363e-07
  Iterations, force evaluations = 7 58

Pair  time (%) = 0.000983918 (80.3866)
Neigh time (%) = 0 (0)
Comm  time (%) = 7.06256e-05 (5.77015)
Outpt time (%) = 3.78677e-05 (3.09381)
Other time (%) = 0.000131571 (10.7494)

Nlocal:    82 ave 82 max 82 min
Histogram: 1 0 0 0 0 0 0 0 0 0
Nghost:    175 ave 175 max 175 min
Histogram: 1 0 0 0 0 0 0 0 0 0
Neighs:    714 ave 714 max 714 min
Histogram: 1 0 0 0 0 0 0 0 0 0

Total # of neighbors = 714
Ave neighs/atom = 8.70732
Neighbor list builds = 0
Dangerous builds = 0
        # write_dump all atom ${dumpfile}
        next i
jump SELF loop1
        displace_atoms upper move ${xstep1} 0.0 0.0 units lattice
        displace_atoms upper move 0.00333333333333333 0.0 0.0 units lattice
        min_style ${style}
        min_style cg
        minimize ${etol} ${ftol} ${maxiter} ${maxeval}
        minimize 1e-12 ${ftol} ${maxiter} ${maxeval}
        minimize 1e-12 1e-08 ${maxiter} ${maxeval}
        minimize 1e-12 1e-08 10000 ${maxeval}
        minimize 1e-12 1e-08 10000 20000
WARNING: Resetting reneighboring criteria during minimization (../min.cpp:168)
Memory usage per processor = 3.35169 Mbytes
Step Temp PotEng Lx Ly Lz 
     172            0   -241.80853    2.2449075    38.903247    1.1224537 
     173            0   -241.80855    2.2449075    38.903247    1.1224537 
     174            0   -241.80855    2.2449075    38.903247    1.1224537 
     175            0   -241.80856    2.2449075    38.903247    1.1224537 
     176            0   -241.80858    2.2449075    38.903247    1.1224537 
     177            0   -241.80859    2.2449075    38.903247    1.1224537 
     178            0    -241.8086    2.2449075    38.903247    1.1224537 
     179            0   -241.80862    2.2449075    38.903247    1.1224537 
     180            0   -241.80864    2.2449075    38.903247    1.1224537 
     181            0   -241.80865    2.2449075    38.903247    1.1224537 
     182            0   -241.80868    2.2449075    38.903247    1.1224537 
     183            0   -241.80871    2.2449075    38.903247    1.1224537 
     184            0   -241.80872    2.2449075    38.903247    1.1224537 
     185            0   -241.80873    2.2449075    38.903247    1.1224537 
     186            0   -241.80874    2.2449075    38.903247    1.1224537 
     187            0   -241.80876    2.2449075    38.903247    1.1224537 
     188            0   -241.80877    2.2449075    38.903247    1.1224537 
     189            0   -241.80877    2.2449075    38.903247    1.1224537 
Loop time of 0.00310708 on 1 procs for 17 steps with 82 atoms

Minimization stats:
  Stopping criterion = linesearch alpha is zero
  Energy initial, next-to-last, final = 
        -241.808529939     -241.808772885     -241.808772885
  Force two-norm initial, final = 0.0727283 0.0479694
  Force max component initial, final = 0.0360117 0.0151568
  Final line search alpha, max atom move = 3.8147e-06 5.78186e-08
  Iterations, force evaluations = 17 122

Pair  time (%) = 0.00257441 (82.8562)
[...]
    1233            0   -241.98264    2.2449075      38.9079    1.1224537 
Loop time of 0.000797 on 1 procs for 4 steps with 82 atoms

Minimization stats:
  Stopping criterion = linesearch alpha is zero
  Energy initial, next-to-last, final = 
        -241.982619832     -241.982635999     -241.982635999
  Force two-norm initial, final = 0.0307978 0.0148144
  Force max component initial, final = 0.00996985 0.00320149
  Final line search alpha, max atom move = 3.05176e-05 9.77016e-08
  Iterations, force evaluations = 4 38

Pair  time (%) = 0.000645255 (80.9605)
Neigh time (%) = 0 (0)
Comm  time (%) = 3.74956e-05 (4.7046)
Outpt time (%) = 2.01153e-05 (2.52388)
Other time (%) = 9.41338e-05 (11.811)

Nlocal:    82 ave 82 max 82 min
Histogram: 1 0 0 0 0 0 0 0 0 0
Nghost:    185 ave 185 max 185 min
Histogram: 1 0 0 0 0 0 0 0 0 0
Neighs:    718 ave 718 max 718 min
Histogram: 1 0 0 0 0 0 0 0 0 0

Total # of neighbors = 718
Ave neighs/atom = 8.7561
Neighbor list builds = 0
Dangerous builds = 0
        # write_dump all atom ${dumpfile}
        next i
jump SELF loop1
        displace_atoms upper move ${xstep1} 0.0 0.0 units lattice
        displace_atoms upper move 0.00333333333333333 0.0 0.0 units lattice
        min_style ${style}
        min_style cg
        minimize ${etol} ${ftol} ${maxiter} ${maxeval}
        minimize 1e-12 ${ftol} ${maxiter} ${maxeval}
        minimize 1e-12 1e-08 ${maxiter} ${maxeval}
        minimize 1e-12 1e-08 10000 ${maxeval}
        minimize 1e-12 1e-08 10000 20000
WARNING: Resetting reneighboring criteria during minimization (../min.cpp:168)
Memory usage per processor = 3.35169 Mbytes
Step Temp PotEng Lx Ly Lz 
    1233            0   -241.98581    2.2449075     38.90775    1.1224537 
    1234            0   -241.98582    2.2449075     38.90775    1.1224537 
    1235            0   -241.98582    2.2449075     38.90775    1.1224537 
    1236            0   -241.98582    2.2449075     38.90775    1.1224537 
    1237            0   -241.98582    2.2449075     38.90775    1.1224537 
Loop time of 0.000948075 on 1 procs for 4 steps with 82 atoms

Minimization stats:
  Stopping criterion = linesearch alpha is zero
  Energy initial, next-to-last, final = 
         -241.98581167     -241.985815317     -241.985815317
  Force two-norm initial, final = 0.0249109 0.0162687
  Force max component initial, final = 0.0104278 0.00515636
  Final line search alpha, max atom move = 3.05176e-05 1.5736e-07
  Iterations, force evaluations = 4 50

Pair  time (%) = 0.000771067 (81.3297)
Neigh time (%) = 0 (0)
Comm  time (%) = 6.18641e-05 (6.52524)
Outpt time (%) = 2.09868e-05 (2.21362)
Other time (%) = 9.41574e-05 (9.93143)

Nlocal:    82 ave 82 max 82 min
Histogram: 1 0 0 0 0 0 0 0 0 0
Nghost:    185 ave 185 max 185 min
Histogram: 1 0 0 0 0 0 0 0 0 0
Neighs:    718 ave 718 max 718 min
Histogram: 1 0 0 0 0 0 0 0 0 0

Total # of neighbors = 718
Ave neighs/atom = 8.7561
Neighbor list builds = 0
Dangerous builds = 0
        # write_dump all atom ${dumpfile}
        next i
jump SELF loop1
        displace_atoms upper move ${xstep1} 0.0 0.0 units lattice
        displace_atoms upper move 0.00333333333333333 0.0 0.0 units lattice
        min_style ${style}
        min_style cg
        minimize ${etol} ${ftol} ${maxiter} ${maxeval}
        minimize 1e-12 ${ftol} ${maxiter} ${maxeval}
        minimize 1e-12 1e-08 ${maxiter} ${maxeval}
        minimize 1e-12 1e-08 10000 ${maxeval}
        minimize 1e-12 1e-08 10000 20000
WARNING: Resetting reneighboring criteria during minimization (../min.cpp:168)
Memory usage per processor = 3.35169 Mbytes
Step Temp PotEng Lx Ly Lz 
    1237            0   -241.98866    2.2449075    38.907738    1.1224537 
    1238            0   -241.98866    2.2449075    38.907738    1.1224537 
Loop time of 0.000389025 on 1 procs for 1 steps with 82 atoms

Minimization stats:
  Stopping criterion = linesearch alpha is zero
  Energy initial, next-to-last, final = 
         -241.98866078      -241.98866078      -241.98866078
  Force two-norm initial, final = 0.0361837 0.0361837
  Force max component initial, final = 0.0169833 0.0169833
  Final line search alpha, max atom move = 7.62939e-06 1.29572e-07
  Iterations, force evaluations = 1 18

Pair  time (%) = 0.000325171 (83.5861)
Neigh time (%) = 0 (0)
Comm  time (%) = 2.57355e-05 (6.61538)
Outpt time (%) = 0 (0)
Other time (%) = 3.81187e-05 (9.79852)

Nlocal:    82 ave 82 max 82 min
Histogram: 1 0 0 0 0 0 0 0 0 0
Nghost:    185 ave 185 max 185 min
Histogram: 1 0 0 0 0 0 0 0 0 0
Neighs:    718 ave 718 max 718 min
Histogram: 1 0 0 0 0 0 0 0 0 0

Total # of neighbors = 718
Ave neighs/atom = 8.7561
Neighbor list builds = 0
Dangerous builds = 0
        # write_dump all atom ${dumpfile}
        next i
jump SELF loop1
        displace_atoms upper move ${xstep1} 0.0 0.0 units lattice
        displace_atoms upper move 0.00333333333333333 0.0 0.0 units lattice
        min_style ${style}
        min_style cg
        minimize ${etol} ${ftol} ${maxiter} ${maxeval}
        minimize 1e-12 ${ftol} ${maxiter} ${maxeval}
        minimize 1e-12 1e-08 ${maxiter} ${maxeval}
        minimize 1e-12 1e-08 10000 ${maxeval}
        minimize 1e-12 1e-08 10000 20000
WARNING: Resetting reneighboring criteria during minimization (../min.cpp:168)
Memory usage per processor = 3.35169 Mbytes
Step Temp PotEng Lx Ly Lz 
    1238            0   -241.99118    2.2449075    38.907738    1.1224537 
    1239            0   -241.99118    2.2449075    38.907738    1.1224537 
    1240            0   -241.99118    2.2449075    38.907738    1.1224537 
Loop time of 0.000628001 on 1 procs for 2 steps with 82 atoms

Minimization stats:
  Stopping criterion = linesearch alpha is zero
  Energy initial, next-to-last, final = 
        -241.991175142     -241.991176481     -241.991176481
  Force two-norm initial, final = 0.0562521 0.0507843
  Force max component initial, final = 0.0274374 0.0245629
  Final line search alpha, max atom move = 3.8147e-06 9.36999e-08
  Iterations, force evaluations = 2 30

Pair  time (%) = 0.000522053 (83.1294)
Neigh time (%) = 0 (0)
Comm  time (%) = 4.29178e-05 (6.83403)
Outpt time (%) = 5.98002e-06 (0.952232)
Other time (%) = 5.70497e-05 (9.08433)

Nlocal:    82 ave 82 max 82 min
Histogram: 1 0 0 0 0 0 0 0 0 0
Nghost:    185 ave 185 max 185 min
Histogram: 1 0 0 0 0 0 0 0 0 0
Neighs:    718 ave 718 max 718 min
Histogram: 1 0 0 0 0 0 0 0 0 0

Total # of neighbors = 718
Ave neighs/atom = 8.7561
Neighbor list builds = 0
Dangerous builds = 0
        # write_dump all atom ${dumpfile}
        next i
jump SELF loop1
        displace_atoms upper move ${xstep1} 0.0 0.0 units lattice
        displace_atoms upper move 0.00333333333333333 0.0 0.0 units lattice
        min_style ${style}
        min_style cg
        minimize ${etol} ${ftol} ${maxiter} ${maxeval}
        minimize 1e-12 ${ftol} ${maxiter} ${maxeval}
        minimize 1e-12 1e-08 ${maxiter} ${maxeval}
        minimize 1e-12 1e-08 10000 ${maxeval}
        minimize 1e-12 1e-08 10000 20000
WARNING: Resetting reneighboring criteria during minimization (../min.cpp:168)
Memory usage per processor = 3.35169 Mbytes
Step Temp PotEng Lx Ly Lz 
    1240            0   -241.99336    2.2449075    38.907736    1.1224537 
    1241            0   -241.99337    2.2449075    38.907736    1.1224537 
    1242            0   -241.99338    2.2449075    38.907736    1.1224537 
    1243            0   -241.99339    2.2449075    38.907736    1.1224537 
    1244            0   -241.99341    2.2449075    38.907736    1.1224537 
    1245            0   -241.99342    2.2449075    38.907736    1.1224537 
    1246            0   -241.99344    2.2449075    38.907736    1.1224537 
    1247            0   -241.99344    2.2449075    38.907736    1.1224537 
    1248            0   -241.99344    2.2449075    38.907736    1.1224537 
Loop time of 0.00135192 on 1 procs for 8 steps with 82 atoms

Minimization stats:
  Stopping criterion = linesearch alpha is zero
  Energy initial, next-to-last, final = 
        -241.993355872      -241.99344422      -241.99344422
  Force two-norm initial, final = 0.068448 0.0276715
  Force max component initial, final = 0.0336213 0.00835906
  Final line search alpha, max atom move = 1.52588e-05 1.27549e-07
  Iterations, force evaluations = 8 64

Pair  time (%) = 0.00109164 (80.7475)
Neigh time (%) = 0 (0)
Comm  time (%) = 9.12254e-05 (6.74783)
Outpt time (%) = 3.47438e-05 (2.56996)
Other time (%) = 0.00013431 (9.93472)

Nlocal:    82 ave 82 max 82 min
Histogram: 1 0 0 0 0 0 0 0 0 0
Nghost:    185 ave 185 max 185 min
Histogram: 1 0 0 0 0 0 0 0 0 0
Neighs:    718 ave 718 max 718 min
Histogram: 1 0 0 0 0 0 0 0 0 0

Total # of neighbors = 718
Ave neighs/atom = 8.7561
Neighbor list builds = 0
Dangerous builds = 0
        # write_dump all atom ${dumpfile}
        next i
jump SELF loop1
        displace_atoms upper move ${xstep1} 0.0 0.0 units lattice
        displace_atoms upper move 0.00333333333333333 0.0 0.0 units lattice
        min_style ${style}
        min_style cg
        minimize ${etol} ${ftol} ${maxiter} ${maxeval}
        minimize 1e-12 ${ftol} ${maxiter} ${maxeval}
        minimize 1e-12 1e-08 ${maxiter} ${maxeval}
        minimize 1e-12 1e-08 10000 ${maxeval}
        minimize 1e-12 1e-08 10000 20000
WARNING: Resetting reneighboring criteria during minimization (../min.cpp:168)
Memory usage per processor = 3.35169 Mbytes
Step Temp PotEng Lx Ly Lz 
    1248            0   -241.99531    2.2449075     38.90679    1.1224537 
    1249            0   -241.99531    2.2449075     38.90679    1.1224537 
    1250            0   -241.99532    2.2449075     38.90679    1.1224537 
    1251            0   -241.99532    2.2449075     38.90679    1.1224537 
Loop time of 0.000713017 on 1 procs for 3 steps with 82 atoms

Minimization stats:
  Stopping criterion = linesearch alpha is zero
  Energy initial, next-to-last, final = 
        -241.995307081     -241.995318476     -241.995318476
  Force two-norm initial, final = 0.0390152 0.0184159
  Force max component initial, final = 0.0161075 0.00490781
  Final line search alpha, max atom move = 1.52588e-05 7.48873e-08
  Iterations, force evaluations = 3 31

Pair  time (%) = 0.000577288 (80.9642)
Neigh time (%) = 0 (0)
Comm  time (%) = 4.08832e-05 (5.73383)
Outpt time (%) = 1.18559e-05 (1.66277)
Other time (%) = 8.29893e-05 (11.6392)

Nlocal:    82 ave 82 max 82 min
Histogram: 1 0 0 0 0 0 0 0 0 0
Nghost:    185 ave 185 max 185 min
Histogram: 1 0 0 0 0 0 0 0 0 0
Neighs:    718 ave 718 max 718 min
Histogram: 1 0 0 0 0 0 0 0 0 0

Total # of neighbors = 718
Ave neighs/atom = 8.7561
Neighbor list builds = 0
Dangerous builds = 0
        # write_dump all atom ${dumpfile}
        next i
jump SELF loop1
        displace_atoms upper move ${xstep1} 0.0 0.0 units lattice
        displace_atoms upper move 0.00333333333333333 0.0 0.0 units lattice
        min_style ${style}
        min_style cg
        minimize ${etol} ${ftol} ${maxiter} ${maxeval}
        minimize 1e-12 ${ftol} ${maxiter} ${maxeval}
        minimize 1e-12 1e-08 ${maxiter} ${maxeval}
        minimize 1e-12 1e-08 10000 ${maxeval}
        minimize 1e-12 1e-08 10000 20000
WARNING: Resetting reneighboring criteria during minimization (../min.cpp:168)
Memory usage per processor = 3.35169 Mbytes
Step Temp PotEng Lx Ly Lz 
    1251            0   -241.99685    2.2449075     38.90669    1.1224537 
    1252            0   -241.99685    2.2449075     38.90669    1.1224537 
    1253            0   -241.99685    2.2449075     38.90669    1.1224537 
Loop time of 0.000544053 on 1 procs for 2 steps with 82 atoms

Minimization stats:
  Stopping criterion = linesearch alpha is zero
  Energy initial, next-to-last, final = 
        -241.996847555     -241.996850925     -241.996850925
  Force two-norm initial, final = 0.0210618 0.0241084
  Force max component initial, final = 0.00526126 0.00644548
  Final line search alpha, max atom move = 6.10352e-05 3.93401e-07
  Iterations, force evaluations = 2 22

Pair  time (%) = 0.000392025 (72.0563)
Neigh time (%) = 0 (0)
Comm  time (%) = 8.21231e-05 (15.0947)
Outpt time (%) = 9.10589e-06 (1.67371)
Other time (%) = 6.07996e-05 (11.1753)

Nlocal:    82 ave 82 max 82 min
Histogram: 1 0 0 0 0 0 0 0 0 0
Nghost:    185 ave 185 max 185 min
Histogram: 1 0 0 0 0 0 0 0 0 0
Neighs:    718 ave 718 max 718 min
Histogram: 1 0 0 0 0 0 0 0 0 0

Total # of neighbors = 718
Ave neighs/atom = 8.7561
Neighbor list builds = 0
Dangerous builds = 0
        # write_dump all atom ${dumpfile}
        next i
jump SELF loop1
        displace_atoms upper move ${xstep1} 0.0 0.0 units lattice
        displace_atoms upper move 0.00333333333333333 0.0 0.0 units lattice
        min_style ${style}
        min_style cg
        minimize ${etol} ${ftol} ${maxiter} ${maxeval}
        minimize 1e-12 ${ftol} ${maxiter} ${maxeval}
        minimize 1e-12 1e-08 ${maxiter} ${maxeval}
        minimize 1e-12 1e-08 10000 ${maxeval}
        minimize 1e-12 1e-08 10000 20000
WARNING: Resetting reneighboring criteria during minimization (../min.cpp:168)
Memory usage per processor = 3.35169 Mbytes
Step Temp PotEng Lx Ly Lz 
    1253            0   -241.99804    2.2449075    38.906651    1.1224537 
    1254            0   -241.99804    2.2449075    38.906651    1.1224537 
    1255            0   -241.99804    2.2449075    38.906651    1.1224537 
Loop time of 0.000378954 on 1 procs for 2 steps with 82 atoms

Minimization stats:
  Stopping criterion = linesearch alpha is zero
  Energy initial, next-to-last, final = 
        -241.998041013     -241.998041912     -241.998041912
  Force two-norm initial, final = 0.020823 0.0144999
  Force max component initial, final = 0.00644548 0.00379638
  Final line search alpha, max atom move = 3.05176e-05 1.15856e-07
  Iterations, force evaluations = 2 25

Pair  time (%) = 0.000317517 (83.7876)
Neigh time (%) = 0 (0)
Comm  time (%) = 2.03877e-05 (5.37999)
Outpt time (%) = 9.54373e-07 (0.251844)
Other time (%) = 4.00955e-05 (10.5806)

Nlocal:    82 ave 82 max 82 min
Histogram: 1 0 0 0 0 0 0 0 0 0
Nghost:    185 ave 185 max 185 min
Histogram: 1 0 0 0 0 0 0 0 0 0
Neighs:    718 ave 718 max 718 min
Histogram: 1 0 0 0 0 0 0 0 0 0

Total # of neighbors = 718
Ave neighs/atom = 8.7561
Neighbor list builds = 0
Dangerous builds = 0
        # write_dump all atom ${dumpfile}
        next i
jump SELF loop1
        displace_atoms upper move ${xstep1} 0.0 0.0 units lattice
        displace_atoms upper move 0.00333333333333333 0.0 0.0 units lattice
        min_style ${style}
        min_style cg
        minimize ${etol} ${ftol} ${maxiter} ${maxeval}
        minimize 1e-12 ${ftol} ${maxiter} ${maxeval}
        minimize 1e-12 1e-08 ${maxiter} ${maxeval}
        minimize 1e-12 1e-08 10000 ${maxeval}
        minimize 1e-12 1e-08 10000 20000
WARNING: Resetting reneighboring criteria during minimization (../min.cpp:168)
Memory usage per processor = 3.35169 Mbytes
Step Temp PotEng Lx Ly Lz 
    1255            0   -241.99889    2.2449075    38.906641    1.1224537 
    1256            0    -241.9989    2.2449075    38.906641    1.1224537 
    1257            0    -241.9989    2.2449075    38.906641    1.1224537 
    1258            0   -241.99891    2.2449075    38.906641    1.1224537 
    1259            0   -241.99897    2.2449075    38.906641    1.1224537 
    1260            0   -241.99901    2.2449075    38.906641    1.1224537 
    1261            0   -241.99903    2.2449075    38.906641    1.1224537 
    1262            0   -241.99903    2.2449075    38.906641    1.1224537 
Loop time of 0.00123506 on 1 procs for 7 steps with 82 atoms

Minimization stats:
  Stopping criterion = linesearch alpha is zero
  Energy initial, next-to-last, final = 
        -241.998892936     -241.999034912     -241.999034912
  Force two-norm initial, final = 0.0163125 0.0346212
  Force max component initial, final = 0.00379638 0.00968803
  Final line search alpha, max atom move = 7.62939e-06 7.39138e-08
  Iterations, force evaluations = 7 56

Pair  time (%) = 0.000970835 (78.6061)
Neigh time (%) = 0 (0)
Comm  time (%) = 8.66404e-05 (7.01505)
Outpt time (%) = 3.88374e-05 (3.14457)
Other time (%) = 0.000138751 (11.2343)

Nlocal:    82 ave 82 max 82 min
Histogram: 1 0 0 0 0 0 0 0 0 0
Nghost:    185 ave 185 max 185 min
Histogram: 1 0 0 0 0 0 0 0 0 0
Neighs:    718 ave 718 max 718 min
Histogram: 1 0 0 0 0 0 0 0 0 0

Total # of neighbors = 718
Ave neighs/atom = 8.7561
Neighbor list builds = 0
Dangerous builds = 0
        # write_dump all atom ${dumpfile}
        next i
jump SELF loop1
        displace_atoms upper move ${xstep1} 0.0 0.0 units lattice
        displace_atoms upper move 0.00333333333333333 0.0 0.0 units lattice
        min_style ${style}
        min_style cg
        minimize ${etol} ${ftol} ${maxiter} ${maxeval}
        minimize 1e-12 ${ftol} ${maxiter} ${maxeval}
        minimize 1e-12 1e-08 ${maxiter} ${maxeval}
        minimize 1e-12 1e-08 10000 ${maxeval}
        minimize 1e-12 1e-08 10000 20000
WARNING: Resetting reneighboring criteria during minimization (../min.cpp:168)
Memory usage per processor = 3.35169 Mbytes
Step Temp PotEng Lx Ly Lz 
    1262            0   -241.99955    2.2449075    38.901739    1.1224537 
    1263            0   -241.99955    2.2449075    38.901739    1.1224537 
Loop time of 0.000378911 on 1 procs for 1 steps with 82 atoms

Minimization stats:
  Stopping criterion = linesearch alpha is zero
  Energy initial, next-to-last, final = 
        -241.999548109     -241.999548109     -241.999548109
  Force two-norm initial, final = 0.0354538 0.0354538
  Force max component initial, final = 0.00968803 0.00968803
  Final line search alpha, max atom move = 7.62939e-06 7.39138e-08
  Iterations, force evaluations = 1 18

Pair  time (%) = 0.000315707 (83.3196)
Neigh time (%) = 0 (0)
Comm  time (%) = 2.08684e-05 (5.50746)
Outpt time (%) = 0 (0)
Other time (%) = 4.23355e-05 (11.1729)

Nlocal:    82 ave 82 max 82 min
Histogram: 1 0 0 0 0 0 0 0 0 0
Nghost:    185 ave 185 max 185 min
Histogram: 1 0 0 0 0 0 0 0 0 0
Neighs:    718 ave 718 max 718 min
Histogram: 1 0 0 0 0 0 0 0 0 0

Total # of neighbors = 718
Ave neighs/atom = 8.7561
Neighbor list builds = 0
Dangerous builds = 0
        # write_dump all atom ${dumpfile}
        next i
jump SELF loop1
        displace_atoms upper move ${xstep1} 0.0 0.0 units lattice
        displace_atoms upper move 0.00333333333333333 0.0 0.0 units lattice
        min_style ${style}
        min_style cg
        minimize ${etol} ${ftol} ${maxiter} ${maxeval}
        minimize 1e-12 ${ftol} ${maxiter} ${maxeval}
        minimize 1e-12 1e-08 ${maxiter} ${maxeval}
        minimize 1e-12 1e-08 10000 ${maxeval}
        minimize 1e-12 1e-08 10000 20000
WARNING: Resetting reneighboring criteria during minimization (../min.cpp:168)
Memory usage per processor = 3.35169 Mbytes
Step Temp PotEng Lx Ly Lz 
    1263            0   -241.99972    2.2449075    38.901739    1.1224537 
    1264            0   -241.99972    2.2449075    38.901739    1.1224537 
Loop time of 0.00038792 on 1 procs for 1 steps with 82 atoms

Minimization stats:
  Stopping criterion = linesearch alpha is zero
  Energy initial, next-to-last, final = 
        -241.999718989     -241.999718989     -241.999718989
  Force two-norm initial, final = 0.0358395 0.0358395
  Force max component initial, final = 0.00968803 0.00968803
  Final line search alpha, max atom move = 7.62939e-06 7.39138e-08
  Iterations, force evaluations = 1 18

Pair  time (%) = 0.000323914 (83.5003)
Neigh time (%) = 0 (0)
Comm  time (%) = 2.61292e-05 (6.73572)
Outpt time (%) = 0 (0)
Other time (%) = 3.78764e-05 (9.76399)

Nlocal:    82 ave 82 max 82 min
Histogram: 1 0 0 0 0 0 0 0 0 0
Nghost:    185 ave 185 max 185 min
Histogram: 1 0 0 0 0 0 0 0 0 0
Neighs:    718 ave 718 max 718 min
Histogram: 1 0 0 0 0 0 0 0 0 0

Total # of neighbors = 718
Ave neighs/atom = 8.7561
Neighbor list builds = 0
Dangerous builds = 0
        # write_dump all atom ${dumpfile}
        next i
jump SELF loop1


