LAMMPS (28 Jun 2014)
# attempt at getting GSF energy

#file prefix
variable prefix string gsf_V_brittle_3dnorm
variable dumpfile string ${prefix}.*.dump
variable dumpfile string gsf_V_brittle_3dnorm.*.dump
variable restartfile string ${prefix}.*.equil
variable restartfile string gsf_V_brittle_3dnorm.*.equil

#Mass (g/mol)
variable m equal 1.0

# lattice constant (in Angstroms) and orientation of axes (given by lattice vectors)
variable rho equal 1.4142
variable x1 equal 1
variable x2 equal -2
variable x3 equal 1
variable y1 equal 1
variable y2 equal 1
variable y3 equal 1
variable z1 equal -1
variable z2 equal 0
variable z3 equal 1
# length of lattice in different directions (using orientation of lattice vectors)
variable ax equal sqrt(${x1}*${x1}+${x2}*${x2}+${x3}*${x3})
variable ax equal sqrt(1*${x1}+${x2}*${x2}+${x3}*${x3})
variable ax equal sqrt(1*1+${x2}*${x2}+${x3}*${x3})
variable ax equal sqrt(1*1+-2*${x2}+${x3}*${x3})
variable ax equal sqrt(1*1+-2*-2+${x3}*${x3})
variable ax equal sqrt(1*1+-2*-2+1*${x3})
variable ax equal sqrt(1*1+-2*-2+1*1)
variable ay equal sqrt(${y1}*${y1}+${y2}*${y2}+${y3}*${y3})
variable ay equal sqrt(1*${y1}+${y2}*${y2}+${y3}*${y3})
variable ay equal sqrt(1*1+${y2}*${y2}+${y3}*${y3})
variable ay equal sqrt(1*1+1*${y2}+${y3}*${y3})
variable ay equal sqrt(1*1+1*1+${y3}*${y3})
variable ay equal sqrt(1*1+1*1+1*${y3})
variable ay equal sqrt(1*1+1*1+1*1)
variable az equal sqrt(${z1}*${z1}+${z2}*${z2}+${z3}*${z3})
variable az equal sqrt(-1*${z1}+${z2}*${z2}+${z3}*${z3})
variable az equal sqrt(-1*-1+${z2}*${z2}+${z3}*${z3})
variable az equal sqrt(-1*-1+0*${z2}+${z3}*${z3})
variable az equal sqrt(-1*-1+0*0+${z3}*${z3})
variable az equal sqrt(-1*-1+0*0+1*${z3})
variable az equal sqrt(-1*-1+0*0+1*1)

# size of box in lattice units
variable lxpos equal 2
variable lxneg equal 0
variable lypos equal 15
variable lyneg equal -1*${lypos}
variable lyneg equal -1*15
variable lzpos equal 2
variable lzneg equal 0

# Define minimization parameters and damping
variable etol equal 1.0e-12
variable ftol equal 1.0e-8
variable maxiter equal 10000
variable maxeval equal 20000
variable style string hftn

# boundary conditions
dimension	3
boundary	p s p
atom_style	atomic

# create geometry
units		lj
lattice         fcc ${rho} orient x ${x1} ${x2} ${x3} orient y ${y1} ${y2} ${y3} orient z ${z1} ${z2} ${z3} spacing ${ax} ${ay} ${az}
lattice         fcc 1.4142 orient x ${x1} ${x2} ${x3} orient y ${y1} ${y2} ${y3} orient z ${z1} ${z2} ${z3} spacing ${ax} ${ay} ${az}
lattice         fcc 1.4142 orient x 1 ${x2} ${x3} orient y ${y1} ${y2} ${y3} orient z ${z1} ${z2} ${z3} spacing ${ax} ${ay} ${az}
lattice         fcc 1.4142 orient x 1 -2 ${x3} orient y ${y1} ${y2} ${y3} orient z ${z1} ${z2} ${z3} spacing ${ax} ${ay} ${az}
lattice         fcc 1.4142 orient x 1 -2 1 orient y ${y1} ${y2} ${y3} orient z ${z1} ${z2} ${z3} spacing ${ax} ${ay} ${az}
lattice         fcc 1.4142 orient x 1 -2 1 orient y 1 ${y2} ${y3} orient z ${z1} ${z2} ${z3} spacing ${ax} ${ay} ${az}
lattice         fcc 1.4142 orient x 1 -2 1 orient y 1 1 ${y3} orient z ${z1} ${z2} ${z3} spacing ${ax} ${ay} ${az}
lattice         fcc 1.4142 orient x 1 -2 1 orient y 1 1 1 orient z ${z1} ${z2} ${z3} spacing ${ax} ${ay} ${az}
lattice         fcc 1.4142 orient x 1 -2 1 orient y 1 1 1 orient z -1 ${z2} ${z3} spacing ${ax} ${ay} ${az}
lattice         fcc 1.4142 orient x 1 -2 1 orient y 1 1 1 orient z -1 0 ${z3} spacing ${ax} ${ay} ${az}
lattice         fcc 1.4142 orient x 1 -2 1 orient y 1 1 1 orient z -1 0 1 spacing ${ax} ${ay} ${az}
lattice         fcc 1.4142 orient x 1 -2 1 orient y 1 1 1 orient z -1 0 1 spacing 2.44948974278318 ${ay} ${az}
lattice         fcc 1.4142 orient x 1 -2 1 orient y 1 1 1 orient z -1 0 1 spacing 2.44948974278318 1.73205080756888 ${az}
lattice         fcc 1.4142 orient x 1 -2 1 orient y 1 1 1 orient z -1 0 1 spacing 2.44948974278318 1.73205080756888 1.4142135623731
Lattice spacing in x,y,z = 3.46411 2.4495 2.00001
region		myregion block ${lxneg} ${lxpos} ${lyneg} ${lypos} ${lzneg} ${lzpos} units lattice
region		myregion block 0 ${lxpos} ${lyneg} ${lypos} ${lzneg} ${lzpos} units lattice
region		myregion block 0 2 ${lyneg} ${lypos} ${lzneg} ${lzpos} units lattice
region		myregion block 0 2 -15 ${lypos} ${lzneg} ${lzpos} units lattice
region		myregion block 0 2 -15 15 ${lzneg} ${lzpos} units lattice
region		myregion block 0 2 -15 15 0 ${lzpos} units lattice
region		myregion block 0 2 -15 15 0 2 units lattice
create_box	1 myregion
Created orthogonal box = (0 -36.7425 0) to (6.92823 36.7425 4.00001)
  1 by 1 by 1 MPI processor grid
create_atoms	1 box
Created 2912 atoms

# define masses
mass * $m
mass * 1

# my fake/morse potential
pair_style      table linear 3001
pair_coeff      * * vpotential_brittle3dnorm dummy
neighbor	0.3 bin
neigh_modify	delay 5

# define groups. Nudge to separate planes cleanly
region	    upper block INF INF 0.01 ${lypos} INF INF units lattice
region	    upper block INF INF 0.01 15 INF INF units lattice
group		upper region upper
1440 atoms in group upper

# Setup output
thermo 1
thermo_style custom step temp pe lx ly lz
thermo_modify norm no

# Compute initial state by relaxing box
min_style ${style}
min_style hftn
minimize ${etol} ${ftol} ${maxiter} ${maxeval}
minimize 1e-12 ${ftol} ${maxiter} ${maxeval}
minimize 1e-12 1e-08 ${maxiter} ${maxeval}
minimize 1e-12 1e-08 10000 ${maxeval}
minimize 1e-12 1e-08 10000 20000
WARNING: Resetting reneighboring criteria during minimization (../min.cpp:168)
Memory usage per processor = 5.2861 Mbytes
Step Temp PotEng Lx Ly Lz 
       0            0    -17375.98    6.9282254    73.499624    4.0000128 
       1            0    -17375.98    6.9282254    73.499624    4.0000128 
       2            0    -17375.98    6.9282254    73.499624    4.0000128 
       3            0    -17375.98    6.9282254    73.499624    4.0000128 
       4            0    -17375.98    6.9282254    73.499624    4.0000128 
       5            0    -17375.98    6.9282254    73.499624    4.0000128 
       6            0    -17375.98    6.9282254    73.499624    4.0000128 
       7            0    -17375.98    6.9282254    73.499624    4.0000128 
       8            0    -17375.98    6.9282254    73.499624    4.0000128 
       9            0    -17375.98    6.9282254    73.499624    4.0000128 
Loop time of 0.497215 on 1 procs for 8 steps with 2912 atoms

Minimization stats:
  Stopping criterion = energy tolerance
  Energy initial, next-to-last, final = 
        -17375.9798394     -17375.9798394     -17375.9798394
  Force two-norm initial, final = 0.00609867 0.00609591
  Force max component initial, final = 0.000762334 0.000761988
  Final line search alpha, max atom move = 0 0
  Iterations, force evaluations = 8 189

Pair  time (%) = 0.457852 (92.0832)
Neigh time (%) = 0 (0)
Comm  time (%) = 0.0102548 (2.06245)
Outpt time (%) = 0.00060802 (0.122285)
Other time (%) = 0.0285006 (5.73205)

Nlocal:    2912 ave 2912 max 2912 min
Histogram: 1 0 0 0 0 0 0 0 0 0
Nghost:    7129 ave 7129 max 7129 min
Histogram: 1 0 0 0 0 0 0 0 0 0
Neighs:    112224 ave 112224 max 112224 min
Histogram: 1 0 0 0 0 0 0 0 0 0

Total # of neighbors = 112224
Ave neighs/atom = 38.5385
Neighbor list builds = 0
Dangerous builds = 0

# don't allow atoms to relax in x- and y-directions
fix 2 all setforce 0.0 NULL 0.0

# GSF energy curve will have 100*2 steps
variable nsteps equal 100
# first partial is parallel to x-axis
variable angle1 equal 0
# second partial is at 60 degrees to first partial
variable angle2 equal PI/180*60
# partial dislocations have length a*sqrt(6)/6
variable sstep1 equal sqrt(6)/6
variable sstep2 equal sqrt(6)/6
variable xstep1 equal cos(${angle1})*${sstep1}/(${ax}*${nsteps})
variable xstep1 equal cos(0)*${sstep1}/(${ax}*${nsteps})
variable xstep1 equal cos(0)*0.408248290463863/(${ax}*${nsteps})
variable xstep1 equal cos(0)*0.408248290463863/(2.44948974278318*${nsteps})
variable xstep1 equal cos(0)*0.408248290463863/(2.44948974278318*100)
variable zstep1 equal sin(${angle1})*${sstep1}/(${az}*${nsteps})
variable zstep1 equal sin(0)*${sstep1}/(${az}*${nsteps})
variable zstep1 equal sin(0)*0.408248290463863/(${az}*${nsteps})
variable zstep1 equal sin(0)*0.408248290463863/(1.4142135623731*${nsteps})
variable zstep1 equal sin(0)*0.408248290463863/(1.4142135623731*100)
variable xstep2 equal cos(${angle2})*${sstep2}/(${ax}*${nsteps})
variable xstep2 equal cos(1.0471975511966)*${sstep2}/(${ax}*${nsteps})
variable xstep2 equal cos(1.0471975511966)*0.408248290463863/(${ax}*${nsteps})
variable xstep2 equal cos(1.0471975511966)*0.408248290463863/(2.44948974278318*${nsteps})
variable xstep2 equal cos(1.0471975511966)*0.408248290463863/(2.44948974278318*100)
variable zstep2 equal sin(${angle2})*${sstep2}/(${az}*${nsteps})
variable zstep2 equal sin(1.0471975511966)*${sstep2}/(${az}*${nsteps})
variable zstep2 equal sin(1.0471975511966)*0.408248290463863/(${az}*${nsteps})
variable zstep2 equal sin(1.0471975511966)*0.408248290463863/(1.4142135623731*${nsteps})
variable zstep2 equal sin(1.0471975511966)*0.408248290463863/(1.4142135623731*100)

variable i loop ${nsteps}
variable i loop 100
label loop1
        displace_atoms upper move ${xstep1} 0.0 ${zstep1} units lattice
        displace_atoms upper move 0.00166666666666667 0.0 ${zstep1} units lattice
        displace_atoms upper move 0.00166666666666667 0.0 0 units lattice
        min_style ${style}
        min_style hftn
        minimize ${etol} ${ftol} ${maxiter} ${maxeval}
        minimize 1e-12 ${ftol} ${maxiter} ${maxeval}
        minimize 1e-12 1e-08 ${maxiter} ${maxeval}
        minimize 1e-12 1e-08 10000 ${maxeval}
        minimize 1e-12 1e-08 10000 20000
WARNING: Resetting reneighboring criteria during minimization (../min.cpp:168)
Memory usage per processor = 5.2861 Mbytes
Step Temp PotEng Lx Ly Lz 
       9            0   -17375.952    6.9282254    73.499624    4.0000128 
      10            0   -17375.952    6.9282254    73.499624    4.0000128 
      11            0   -17375.952    6.9282254    73.499624    4.0000128 
      12            0   -17375.952    6.9282254    73.499624    4.0000128 
      13            0   -17375.952    6.9282254    73.499624    4.0000128 
      14            0   -17375.952    6.9282254    73.499624    4.0000128 
      15            0   -17375.952    6.9282254    73.499624    4.0000128 
      16            0   -17375.952    6.9282254    73.499624    4.0000128 
      17            0   -17375.952    6.9282254    73.499624    4.0000128 
Loop time of 0.285814 on 1 procs for 7 steps with 2912 atoms

Minimization stats:
  Stopping criterion = energy tolerance
  Energy initial, next-to-last, final = 
        -17375.9515433     -17375.9515433     -17375.9515433
  Force two-norm initial, final = 0.109461 0.109449
  Force max component initial, final = 0.0136614 0.0136599
  Final line search alpha, max atom move = 0 0
  Iterations, force evaluations = 7 102

Pair  time (%) = 0.265959 (93.0533)
Neigh time (%) = 0 (0)
Comm  time (%) = 0.00515438 (1.8034)
Outpt time (%) = 0.000513936 (0.179815)
Other time (%) = 0.0141864 (4.9635)

Nlocal:    2912 ave 2912 max 2912 min
Histogram: 1 0 0 0 0 0 0 0 0 0
Nghost:    7129 ave 7129 max 7129 min
Histogram: 1 0 0 0 0 0 0 0 0 0
Neighs:    112224 ave 112224 max 112224 min
Histogram: 1 0 0 0 0 0 0 0 0 0

Total # of neighbors = 112224
Ave neighs/atom = 38.5385
Neighbor list builds = 0
Dangerous builds = 0
        next i
jump SELF loop1
        displace_atoms upper move ${xstep1} 0.0 ${zstep1} units lattice
        displace_atoms upper move 0.00166666666666667 0.0 ${zstep1} units lattice
        displace_atoms upper move 0.00166666666666667 0.0 0 units lattice
        min_style ${style}
        min_style hftn
        minimize ${etol} ${ftol} ${maxiter} ${maxeval}
        minimize 1e-12 ${ftol} ${maxiter} ${maxeval}
        minimize 1e-12 1e-08 ${maxiter} ${maxeval}
        minimize 1e-12 1e-08 10000 ${maxeval}
        minimize 1e-12 1e-08 10000 20000
WARNING: Resetting reneighboring criteria during minimization (../min.cpp:168)
Memory usage per processor = 5.2861 Mbytes
Step Temp PotEng Lx Ly Lz 
      17            0   -17375.869    6.9282254    73.499624    4.0000128 
      18            0   -17375.869    6.9282254    73.499624    4.0000128 
      19            0   -17375.869    6.9282254    73.499624    4.0000128 
      20            0   -17375.869    6.9282254    73.499624    4.0000128 
      21            0   -17375.869    6.9282254    73.499624    4.0000128 
      22            0   -17375.869    6.9282254    73.499624    4.0000128 
      23            0   -17375.869    6.9282254    73.499624    4.0000128 
      24            0   -17375.869    6.9282254    73.499624    4.0000128 
      25            0   -17375.869    6.9282254    73.499624    4.0000128 
Loop time of 0.181211 on 1 procs for 7 steps with 2912 atoms

Minimization stats:
  Stopping criterion = energy tolerance
  Energy initial, next-to-last, final = 
        -17375.8694319     -17375.8694319     -17375.8694319
  Force two-norm initial, final = 0.424444 0.424433
  Force max component initial, final = 0.05305 0.0530487
  Final line search alpha, max atom move = 0 0
  Iterations, force evaluations = 7 62

Pair  time (%) = 0.161728 (89.2482)
Neigh time (%) = 0 (0)
Comm  time (%) = 0.00517783 (2.85735)
Outpt time (%) = 0.000966977 (0.533619)
Other time (%) = 0.0133386 (7.36083)

Nlocal:    2912 ave 2912 max 2912 min
Histogram: 1 0 0 0 0 0 0 0 0 0
Nghost:    7264 ave 7264 max 7264 min
Histogram: 1 0 0 0 0 0 0 0 0 0
Neighs:    112224 ave 112224 max 112224 min
Histogram: 1 0 0 0 0 0 0 0 0 0

Total # of neighbors = 112224
Ave neighs/atom = 38.5385
Neighbor list builds = 0
Dangerous builds = 0
        next i
jump SELF loop1
        displace_atoms upper move ${xstep1} 0.0 ${zstep1} units lattice
        displace_atoms upper move 0.00166666666666667 0.0 ${zstep1} units lattice
        displace_atoms upper move 0.00166666666666667 0.0 0 units lattice
        min_style ${style}
        min_style hftn
        minimize ${etol} ${ftol} ${maxiter} ${maxeval}
        minimize 1e-12 ${ftol} ${maxiter} ${maxeval}
        minimize 1e-12 1e-08 ${maxiter} ${maxeval}
        minimize 1e-12 1e-08 10000 ${maxeval}
        minimize 1e-12 1e-08 10000 20000
WARNING: Resetting reneighboring criteria during minimization (../min.cpp:168)
Memory usage per processor = 5.2861 Mbytes
Step Temp PotEng Lx Ly Lz 
      25            0   -17375.735    6.9282254    73.499624    4.0000128 
      26            0   -17375.735    6.9282254    73.499624    4.0000128 
      27            0   -17375.735    6.9282254    73.499624    4.0000128 
      28            0   -17375.735    6.9282254    73.499624    4.0000128 
      29            0   -17375.735    6.9282254    73.499624    4.0000128 
      30            0   -17375.735    6.9282254    73.499624    4.0000128 
      31            0   -17375.735    6.9282254    73.499624    4.0000128 
      32            0   -17375.735    6.9282254    73.499624    4.0000128 
      33            0   -17375.735    6.9282254    73.499624    4.0000128 
      34            0   -17375.735    6.9282254    73.499624    4.0000128 
      35            0   -17375.735    6.9282254    73.499624    4.0000128 
      36            0   -17375.735    6.9282254    73.499624    4.0000128 
      37            0   -17375.735    6.9282254    73.499624    4.0000128 
      38            0   -17375.735    6.9282254    73.499624    4.0000128 
      39            0   -17375.735    6.9282254    73.499624    4.0000128 
      40            0   -17375.735    6.9282254    73.499624    4.0000128 
      41            0   -17375.735    6.9282254    73.499624    4.0000128 
      42            0   -17375.735    6.9282254    73.499624    4.0000128 
Loop time of 0.365206 on 1 procs for 16 steps with 2912 atoms

Minimization stats:
  Stopping criterion = energy tolerance
  Energy initial, next-to-last, final = 
        -17375.7345948     -17375.7349906     -17375.7349934
  Force two-norm initial, final = 0.941728 0.332754
  Force max component initial, final = 0.117713 0.0354725
  Final line search alpha, max atom move = 0 0
  Iterations, force evaluations = 16 113

Pair  time (%) = 0.345293 (94.5475)
Neigh time (%) = 0 (0)
Comm  time (%) = 0.00417776 (1.14395)
Outpt time (%) = 0.00185712 (0.508512)
Other time (%) = 0.0138779 (3.80003)

Nlocal:    2912 ave 2912 max 2912 min
Histogram: 1 0 0 0 0 0 0 0 0 0
Nghost:    7264 ave 7264 max 7264 min
Histogram: 1 0 0 0 0 0 0 0 0 0
Neighs:    112224 ave 112224 max 112224 min
Histogram: 1 0 0 0 0 0 0 0 0 0

Total # of neighbors = 112224
Ave neighs/atom = 38.5385
Neighbor list builds = 0
Dangerous builds = 0
        next i
jump SELF loop1
        displace_atoms upper move ${xstep1} 0.0 ${zstep1} units lattice
        displace_atoms upper move 0.00166666666666667 0.0 ${zstep1} units lattice
        displace_atoms upper move 0.00166666666666667 0.0 0 units lattice
        min_style ${style}
        min_style hftn
        minimize ${etol} ${ftol} ${maxiter} ${maxeval}
        minimize 1e-12 ${ftol} ${maxiter} ${maxeval}
        minimize 1e-12 1e-08 ${maxiter} ${maxeval}
        minimize 1e-12 1e-08 10000 ${maxeval}
        minimize 1e-12 1e-08 10000 20000
WARNING: Resetting reneighboring criteria during minimization (../min.cpp:168)
Memory usage per processor = 5.2861 Mbytes
Step Temp PotEng Lx Ly Lz 
      42            0   -17375.551    6.9282254    73.499622    4.0000128 
      43            0   -17375.551    6.9282254    73.499622    4.0000128 
      44            0   -17375.552    6.9282254    73.499622    4.0000128 
      45            0   -17375.552    6.9282254    73.499622    4.0000128 
      46            0   -17375.552    6.9282254    73.499622    4.0000128 
      47            0   -17375.552    6.9282254    73.499622    4.0000128 
      48            0   -17375.552    6.9282254    73.499622    4.0000128 
      49            0   -17375.552    6.9282254    73.499622    4.0000128 
      50            0   -17375.552    6.9282254    73.499622    4.0000128 
      51            0   -17375.552    6.9282254    73.499622    4.0000128 
      52            0   -17375.552    6.9282254    73.499622    4.0000128 
Loop time of 0.240352 on 1 procs for 9 steps with 2912 atoms

Minimization stats:
  Stopping criterion = energy tolerance
  Energy initial, next-to-last, final = 
        -17375.5511928     -17375.5511928     -17375.5518007
  Force two-norm initial, final = 1.00238 0.402495
  Force max component initial, final = 0.1234 0.0481629
  Final line search alpha, max atom move = 0 0
  Iterations, force evaluations = 9 82

Pair  time (%) = 0.225989 (94.0243)
Neigh time (%) = 0 (0)
Comm  time (%) = 0.00443943 (1.84705)
Outpt time (%) = 0.0007691 (0.319989)
Other time (%) = 0.00915428 (3.8087)

Nlocal:    2912 ave 2912 max 2912 min
Histogram: 1 0 0 0 0 0 0 0 0 0
Nghost:    7264 ave 7264 max 7264 min
Histogram: 1 0 0 0 0 0 0 0 0 0
Neighs:    112224 ave 112224 max 112224 min
Histogram: 1 0 0 0 0 0 0 0 0 0

Total # of neighbors = 112224
Ave neighs/atom = 38.5385
Neighbor list builds = 0
Dangerous builds = 0
        next i
jump SELF loop1
        displace_atoms upper move ${xstep1} 0.0 ${zstep1} units lattice
        displace_atoms upper move 0.00166666666666667 0.0 ${zstep1} units lattice
        displace_atoms upper move 0.00166666666666667 0.0 0 units lattice
        min_style ${style}
        min_style hftn
        minimize ${etol} ${ftol} ${maxiter} ${maxeval}
        minimize 1e-12 ${ftol} ${maxiter} ${maxeval}
        minimize 1e-12 1e-08 ${maxiter} ${maxeval}
        minimize 1e-12 1e-08 10000 ${maxeval}
        minimize 1e-12 1e-08 10000 20000
WARNING: Resetting reneighboring criteria during minimization (../min.cpp:168)
Memory usage per processor = 5.2861 Mbytes
Step Temp PotEng Lx Ly Lz 
      52            0   -17375.322    6.9282254     73.49962    4.0000128 
      53            0   -17375.323    6.9282254     73.49962    4.0000128 
      54            0   -17375.326    6.9282254     73.49962    4.0000128 
      55            0   -17375.326    6.9282254     73.49962    4.0000128 
      56            0   -17375.326    6.9282254     73.49962    4.0000128 
Loop time of 1.5132 on 1 procs for 3 steps with 2912 atoms

Minimization stats:
  Stopping criterion = force tolerance
  Energy initial, next-to-last, final = 
        -17375.3223872     -17375.3255593     -17375.3255794
  Force two-norm initial, final = 1.04744 3.38162e-11
  Force max component initial, final = 0.121475 2.57639e-12
  Final line search alpha, max atom move = 0 0
  Iterations, force evaluations = 3 499

Pair  time (%) = 1.41158 (93.2842)
Neigh time (%) = 0 (0)
Comm  time (%) = 0.021139 (1.39697)
Outpt time (%) = 0.000373062 (0.0246539)
Other time (%) = 0.080111 (5.29414)

Nlocal:    2912 ave 2912 max 2912 min
Histogram: 1 0 0 0 0 0 0 0 0 0
Nghost:    7264 ave 7264 max 7264 min
Histogram: 1 0 0 0 0 0 0 0 0 0
Neighs:    112224 ave 112224 max 112224 min
Histogram: 1 0 0 0 0 0 0 0 0 0

Total # of neighbors = 112224
Ave neighs/atom = 38.5385
Neighbor list builds = 0
Dangerous builds = 0
        next i
jump SELF loop1
        displace_atoms upper move ${xstep1} 0.0 ${zstep1} units lattice
        displace_atoms upper move 0.00166666666666667 0.0 ${zstep1} units lattice
        displace_atoms upper move 0.00166666666666667 0.0 0 units lattice
        min_style ${style}
        min_style hftn
        minimize ${etol} ${ftol} ${maxiter} ${maxeval}
        minimize 1e-12 ${ftol} ${maxiter} ${maxeval}
        minimize 1e-12 1e-08 ${maxiter} ${maxeval}
        minimize 1e-12 1e-08 10000 ${maxeval}
        minimize 1e-12 1e-08 10000 20000
WARNING: Resetting reneighboring criteria during minimization (../min.cpp:168)
Memory usage per processor = 5.2861 Mbytes
Step Temp PotEng Lx Ly Lz 
      56            0   -17375.055    6.9282254    73.500775    4.0000128 
      57            0   -17375.055    6.9282254    73.500775    4.0000128 
      58            0   -17375.055    6.9282254    73.500775    4.0000128 
      59            0   -17375.055    6.9282254    73.500775    4.0000128 
      60            0   -17375.056    6.9282254    73.500775    4.0000128 
      61            0   -17375.056    6.9282254    73.500775    4.0000128 
      62            0   -17375.056    6.9282254    73.500775    4.0000128 
      63            0   -17375.056    6.9282254    73.500775    4.0000128 
      64            0   -17375.056    6.9282254    73.500775    4.0000128 
      65            0   -17375.056    6.9282254    73.500775    4.0000128 
      66            0   -17375.056    6.9282254    73.500775    4.0000128 
      67            0   -17375.056    6.9282254    73.500775    4.0000128 
      68            0   -17375.056    6.9282254    73.500775    4.0000128 
      69            0   -17375.056    6.9282254    73.500775    4.0000128 
      70            0   -17375.056    6.9282254    73.500775    4.0000128 
Loop time of 0.272003 on 1 procs for 13 steps with 2912 atoms

Minimization stats:
  Stopping criterion = energy tolerance
  Energy initial, next-to-last, final = 
        -17375.0549157     -17375.0556184     -17375.0556198
  Force two-norm initial, final = 1.03085 0.370167
  Force max component initial, final = 0.128856 0.0393018
  Final line search alpha, max atom move = 0 0
  Iterations, force evaluations = 13 98

Pair  time (%) = 0.247949 (91.1566)
Neigh time (%) = 0 (0)
Comm  time (%) = 0.00902833 (3.3192)
Outpt time (%) = 0.0043212 (1.58866)
Other time (%) = 0.0107048 (3.93555)

Nlocal:    2912 ave 2912 max 2912 min
Histogram: 1 0 0 0 0 0 0 0 0 0
Nghost:    7264 ave 7264 max 7264 min
Histogram: 1 0 0 0 0 0 0 0 0 0
Neighs:    112224 ave 112224 max 112224 min
Histogram: 1 0 0 0 0 0 0 0 0 0

Total # of neighbors = 112224
Ave neighs/atom = 38.5385
Neighbor list builds = 0
Dangerous builds = 0
        next i
jump SELF loop1
        displace_atoms upper move ${xstep1} 0.0 ${zstep1} units lattice
        displace_atoms upper move 0.00166666666666667 0.0 ${zstep1} units lattice
        displace_atoms upper move 0.00166666666666667 0.0 0 units lattice
        min_style ${style}
        min_style hftn
        minimize ${etol} ${ftol} ${maxiter} ${maxeval}
        minimize 1e-12 ${ftol} ${maxiter} ${maxeval}
        minimize 1e-12 1e-08 ${maxiter} ${maxeval}
        minimize 1e-12 1e-08 10000 ${maxeval}
        minimize 1e-12 1e-08 10000 20000
WARNING: Resetting reneighboring criteria during minimization (../min.cpp:168)
Memory usage per processor = 5.2861 Mbytes
Step Temp PotEng Lx Ly Lz 
      70            0   -17374.744    6.9282254    73.500775    4.0000128 
      71            0   -17374.746    6.9282254    73.500775    4.0000128 
      72            0   -17374.749    6.9282254    73.500775    4.0000128 
      73            0   -17374.749    6.9282254    73.500775    4.0000128 
      74            0   -17374.749    6.9282254    73.500775    4.0000128 
Loop time of 1.37216 on 1 procs for 3 steps with 2912 atoms

Minimization stats:
  Stopping criterion = force tolerance
  Energy initial, next-to-last, final = 
        -17374.7444252       -17374.74872      -17374.748739
  Force two-norm initial, final = 1.50941 3.20465e-10
  Force max component initial, final = 0.187089 2.70779e-11
  Final line search alpha, max atom move = 0 0
  Iterations, force evaluations = 3 481

Pair  time (%) = 1.27709 (93.0716)
Neigh time (%) = 0 (0)
Comm  time (%) = 0.0233826 (1.70407)
Outpt time (%) = 0.000221061 (0.0161105)
Other time (%) = 0.0714649 (5.20821)

Nlocal:    2912 ave 2912 max 2912 min
Histogram: 1 0 0 0 0 0 0 0 0 0
Nghost:    7264 ave 7264 max 7264 min
Histogram: 1 0 0 0 0 0 0 0 0 0
Neighs:    112224 ave 112224 max 112224 min
Histogram: 1 0 0 0 0 0 0 0 0 0

Total # of neighbors = 112224
Ave neighs/atom = 38.5385
Neighbor list builds = 0
Dangerous builds = 0
        next i
jump SELF loop1
        displace_atoms upper move ${xstep1} 0.0 ${zstep1} units lattice
        displace_atoms upper move 0.00166666666666667 0.0 ${zstep1} units lattice
        displace_atoms upper move 0.00166666666666667 0.0 0 units lattice
        min_style ${style}
        min_style hftn
        minimize ${etol} ${ftol} ${maxiter} ${maxeval}
        minimize 1e-12 ${ftol} ${maxiter} ${maxeval}
        minimize 1e-12 1e-08 ${maxiter} ${maxeval}
        minimize 1e-12 1e-08 10000 ${maxeval}
        minimize 1e-12 1e-08 10000 20000
WARNING: Resetting reneighboring criteria during minimization (../min.cpp:168)
Memory usage per processor = 5.2861 Mbytes
Step Temp PotEng Lx Ly Lz 
      74            0   -17374.404    6.9282254    73.502068    4.0000128 
      75            0   -17374.404    6.9282254    73.502068    4.0000128 
      76            0   -17374.406    6.9282254    73.502068    4.0000128 
      77            0   -17374.406    6.9282254    73.502068    4.0000128 
      78            0   -17374.406    6.9282254    73.502068    4.0000128 
Loop time of 1.33062 on 1 procs for 3 steps with 2912 atoms

Minimization stats:
  Stopping criterion = force tolerance
  Energy initial, next-to-last, final = 
        -17374.4039355     -17374.4058038     -17374.4058329
  Force two-norm initial, final = 1.30614 7.34689e-11
  Force max component initial, final = 0.163267 5.13332e-12
  Final line search alpha, max atom move = 0 0
  Iterations, force evaluations = 3 482

Pair  time (%) = 1.21228 (91.1068)
Neigh time (%) = 0 (0)
Comm  time (%) = 0.0387243 (2.91026)
Outpt time (%) = 0.000173155 (0.0130131)
Other time (%) = 0.0794373 (5.96997)

Nlocal:    2912 ave 2912 max 2912 min
Histogram: 1 0 0 0 0 0 0 0 0 0
Nghost:    7264 ave 7264 max 7264 min
Histogram: 1 0 0 0 0 0 0 0 0 0
Neighs:    112224 ave 112224 max 112224 min
Histogram: 1 0 0 0 0 0 0 0 0 0

Total # of neighbors = 112224
Ave neighs/atom = 38.5385
Neighbor list builds = 0
Dangerous builds = 0
        next i
jump SELF loop1
        displace_atoms upper move ${xstep1} 0.0 ${zstep1} units lattice
        displace_atoms upper move 0.00166666666666667 0.0 ${zstep1} units lattice
        displace_atoms upper move 0.00166666666666667 0.0 0 units lattice
        min_style ${style}
        min_style hftn
        minimize ${etol} ${ftol} ${maxiter} ${maxeval}
        minimize 1e-12 ${ftol} ${maxiter} ${maxeval}
        minimize 1e-12 1e-08 ${maxiter} ${maxeval}
        minimize 1e-12 1e-08 10000 ${maxeval}
        minimize 1e-12 1e-08 10000 20000
WARNING: Resetting reneighboring criteria during minimization (../min.cpp:168)
Memory usage per processor = 5.2861 Mbytes
Step Temp PotEng Lx Ly Lz 
      78            0   -17374.029    6.9282254    73.502836    4.0000128 
      79            0   -17374.029    6.9282254    73.502836    4.0000128 
      80            0   -17374.031    6.9282254    73.502836    4.0000128 
      81            0   -17374.031    6.9282254    73.502836    4.0000128 
      82            0   -17374.031    6.9282254    73.502836    4.0000128 
Loop time of 1.29379 on 1 procs for 3 steps with 2912 atoms

Minimization stats:
  Stopping criterion = force tolerance
  Energy initial, next-to-last, final = 
        -17374.0287113     -17374.0310985     -17374.0311304
  Force two-norm initial, final = 1.42498 8.13782e-11
  Force max component initial, final = 0.178123 5.83332e-12
  Final line search alpha, max atom move = 0 0
  Iterations, force evaluations = 3 482

Pair  time (%) = 1.20056 (92.7938)
Neigh time (%) = 0 (0)
Comm  time (%) = 0.0227477 (1.75822)
Outpt time (%) = 0.000259827 (0.0200826)
Other time (%) = 0.0702255 (5.42789)

Nlocal:    2912 ave 2912 max 2912 min
Histogram: 1 0 0 0 0 0 0 0 0 0
Nghost:    7264 ave 7264 max 7264 min
Histogram: 1 0 0 0 0 0 0 0 0 0
Neighs:    112224 ave 112224 max 112224 min
Histogram: 1 0 0 0 0 0 0 0 0 0

Total # of neighbors = 112224
Ave neighs/atom = 38.5385
Neighbor list builds = 0
Dangerous builds = 0
        next i
jump SELF loop1
        displace_atoms upper move ${xstep1} 0.0 ${zstep1} units lattice
        displace_atoms upper move 0.00166666666666667 0.0 ${zstep1} units lattice
        displace_atoms upper move 0.00166666666666667 0.0 0 units lattice
        min_style ${style}
        min_style hftn
        minimize ${etol} ${ftol} ${maxiter} ${maxeval}
        minimize 1e-12 ${ftol} ${maxiter} ${maxeval}
        minimize 1e-12 1e-08 ${maxiter} ${maxeval}
        minimize 1e-12 1e-08 10000 ${maxeval}
        minimize 1e-12 1e-08 10000 20000
WARNING: Resetting reneighboring criteria during minimization (../min.cpp:168)
Memory usage per processor = 5.2861 Mbytes
Step Temp PotEng Lx Ly Lz 
      82            0   -17373.625    6.9282254    73.503674    4.0000128 
      83            0   -17373.626    6.9282254    73.503674    4.0000128 
      84            0   -17373.628    6.9282254    73.503674    4.0000128 
      85            0   -17373.628    6.9282254    73.503674    4.0000128 
      86            0   -17373.628    6.9282254    73.503674    4.0000128 
Loop time of 1.46893 on 1 procs for 3 steps with 2912 atoms

Minimization stats:
  Stopping criterion = force tolerance
  Energy initial, next-to-last, final = 
        -17373.6253387     -17373.6282263     -17373.6282605
  Force two-norm initial, final = 1.52862 9.16183e-11
  Force max component initial, final = 0.191078 6.09581e-12
  Final line search alpha, max atom move = 0 0
  Iterations, force evaluations = 3 485

Pair  time (%) = 1.35121 (91.986)
Neigh time (%) = 0 (0)
Comm  time (%) = 0.0272518 (1.85521)
Outpt time (%) = 0.000286089 (0.019476)
Other time (%) = 0.0901826 (6.13933)

Nlocal:    2912 ave 2912 max 2912 min
Histogram: 1 0 0 0 0 0 0 0 0 0
Nghost:    7264 ave 7264 max 7264 min
Histogram: 1 0 0 0 0 0 0 0 0 0
Neighs:    112224 ave 112224 max 112224 min
Histogram: 1 0 0 0 0 0 0 0 0 0

Total # of neighbors = 112224
Ave neighs/atom = 38.5385
Neighbor list builds = 0
Dangerous builds = 0
        next i
jump SELF loop1
        displace_atoms upper move ${xstep1} 0.0 ${zstep1} units lattice
        displace_atoms upper move 0.00166666666666667 0.0 ${zstep1} units lattice
        displace_atoms upper move 0.00166666666666667 0.0 0 units lattice
        min_style ${style}
        min_style hftn
        minimize ${etol} ${ftol} ${maxiter} ${maxeval}
        minimize 1e-12 ${ftol} ${maxiter} ${maxeval}
        minimize 1e-12 1e-08 ${maxiter} ${maxeval}
        minimize 1e-12 1e-08 10000 ${maxeval}
        minimize 1e-12 1e-08 10000 20000
WARNING: Resetting reneighboring criteria during minimization (../min.cpp:168)
Memory usage per processor = 5.2861 Mbytes
Step Temp PotEng Lx Ly Lz 
      86            0   -17373.197    6.9282254    73.504574    4.0000128 
      87            0   -17373.198    6.9282254    73.504574    4.0000128 
      88            0     -17373.2    6.9282254    73.504574    4.0000128 
      89            0     -17373.2    6.9282254    73.504574    4.0000128 
      90            0     -17373.2    6.9282254    73.504574    4.0000128 
Loop time of 1.38383 on 1 procs for 3 steps with 2912 atoms

Minimization stats:
  Stopping criterion = force tolerance
  Energy initial, next-to-last, final = 
        -17373.1969425     -17373.1998928     -17373.1999272
  Force two-norm initial, final = 1.6198 1.18007e-10
  Force max component initial, final = 0.202475 8.3708e-12
  Final line search alpha, max atom move = 0 0
  Iterations, force evaluations = 3 484

Pair  time (%) = 1.26622 (91.5008)
Neigh time (%) = 0 (0)
Comm  time (%) = 0.0417314 (3.01564)
Outpt time (%) = 0.000237053 (0.0171302)
Other time (%) = 0.075646 (5.46641)

Nlocal:    2912 ave 2912 max 2912 min
Histogram: 1 0 0 0 0 0 0 0 0 0
Nghost:    7264 ave 7264 max 7264 min
Histogram: 1 0 0 0 0 0 0 0 0 0
Neighs:    112224 ave 112224 max 112224 min
Histogram: 1 0 0 0 0 0 0 0 0 0

Total # of neighbors = 112224
Ave neighs/atom = 38.5385
Neighbor list builds = 0
Dangerous builds = 0
        next i
jump SELF loop1
        displace_atoms upper move ${xstep1} 0.0 ${zstep1} units lattice
        displace_atoms upper move 0.00166666666666667 0.0 ${zstep1} units lattice
        displace_atoms upper move 0.00166666666666667 0.0 0 units lattice
        min_style ${style}
        min_style hftn
        minimize ${etol} ${ftol} ${maxiter} ${maxeval}
        minimize 1e-12 ${ftol} ${maxiter} ${maxeval}
        minimize 1e-12 1e-08 ${maxiter} ${maxeval}
        minimize 1e-12 1e-08 10000 ${maxeval}
        minimize 1e-12 1e-08 10000 20000
WARNING: Resetting reneighboring criteria during minimization (../min.cpp:168)
Memory usage per processor = 5.2861 Mbytes
Step Temp PotEng Lx Ly Lz 
      90            0   -17372.746    6.9282254     73.50553    4.0000128 
      91            0   -17372.747    6.9282254     73.50553    4.0000128 
      92            0   -17372.749    6.9282254     73.50553    4.0000128 
      93            0   -17372.749    6.9282254     73.50553    4.0000128 
      94            0   -17372.749    6.9282254     73.50553    4.0000128 
Loop time of 1.3854 on 1 procs for 3 steps with 2912 atoms

Minimization stats:
  Stopping criterion = force tolerance
  Energy initial, next-to-last, final = 
        -17372.7461199     -17372.7492982     -17372.7493279
  Force two-norm initial, final = 1.69853 5.0622e-11
  Force max component initial, final = 0.212316 4.80277e-12
  Final line search alpha, max atom move = 0 0
  Iterations, force evaluations = 3 484

Pair  time (%) = 1.2893 (93.0634)
Neigh time (%) = 0 (0)
Comm  time (%) = 0.0212133 (1.53121)
Outpt time (%) = 0.000227035 (0.0163877)
Other time (%) = 0.0746596 (5.38904)

Nlocal:    2912 ave 2912 max 2912 min
Histogram: 1 0 0 0 0 0 0 0 0 0
Nghost:    7264 ave 7264 max 7264 min
Histogram: 1 0 0 0 0 0 0 0 0 0
Neighs:    112224 ave 112224 max 112224 min
Histogram: 1 0 0 0 0 0 0 0 0 0

Total # of neighbors = 112224
Ave neighs/atom = 38.5385
Neighbor list builds = 0
Dangerous builds = 0
        next i
jump SELF loop1
        displace_atoms upper move ${xstep1} 0.0 ${zstep1} units lattice
        displace_atoms upper move 0.00166666666666667 0.0 ${zstep1} units lattice
        displace_atoms upper move 0.00166666666666667 0.0 0 units lattice
        min_style ${style}
        min_style hftn
        minimize ${etol} ${ftol} ${maxiter} ${maxeval}
        minimize 1e-12 ${ftol} ${maxiter} ${maxeval}
        minimize 1e-12 1e-08 ${maxiter} ${maxeval}
        minimize 1e-12 1e-08 10000 ${maxeval}
        minimize 1e-12 1e-08 10000 20000
WARNING: Resetting reneighboring criteria during minimization (../min.cpp:168)
Memory usage per processor = 5.2861 Mbytes
Step Temp PotEng Lx Ly Lz 
      94            0   -17372.276    6.9282254    73.506535    4.0000128 
      95            0   -17372.276    6.9282254    73.506535    4.0000128 
      96            0   -17372.278    6.9282254    73.506535    4.0000128 
      97            0   -17372.278    6.9282254    73.506535    4.0000128 
      98            0   -17372.278    6.9282254    73.506535    4.0000128 
Loop time of 1.32072 on 1 procs for 3 steps with 2912 atoms

Minimization stats:
  Stopping criterion = force tolerance
  Energy initial, next-to-last, final = 
        -17372.2755997     -17372.2776806     -17372.2777184
  Force two-norm initial, final = 1.45866 4.09091e-11
  Force max component initial, final = 0.182332 3.02361e-12
  Final line search alpha, max atom move = 0 0
  Iterations, force evaluations = 3 474

Pair  time (%) = 1.23115 (93.2188)
Neigh time (%) = 0 (0)
Comm  time (%) = 0.0188332 (1.42599)
Outpt time (%) = 0.000358074 (0.0271121)
Other time (%) = 0.0703697 (5.32815)

Nlocal:    2912 ave 2912 max 2912 min
Histogram: 1 0 0 0 0 0 0 0 0 0
Nghost:    7264 ave 7264 max 7264 min
Histogram: 1 0 0 0 0 0 0 0 0 0
Neighs:    112224 ave 112224 max 112224 min
Histogram: 1 0 0 0 0 0 0 0 0 0

Total # of neighbors = 112224
Ave neighs/atom = 38.5385
Neighbor list builds = 0
Dangerous builds = 0
        next i
jump SELF loop1
        displace_atoms upper move ${xstep1} 0.0 ${zstep1} units lattice
        displace_atoms upper move 0.00166666666666667 0.0 ${zstep1} units lattice
        displace_atoms upper move 0.00166666666666667 0.0 0 units lattice
        min_style ${style}
        min_style hftn
        minimize ${etol} ${ftol} ${maxiter} ${maxeval}
        minimize 1e-12 ${ftol} ${maxiter} ${maxeval}
        minimize 1e-12 1e-08 ${maxiter} ${maxeval}
        minimize 1e-12 1e-08 10000 ${maxeval}
        minimize 1e-12 1e-08 10000 20000
WARNING: Resetting reneighboring criteria during minimization (../min.cpp:168)
Memory usage per processor = 5.2861 Mbytes
Step Temp PotEng Lx Ly Lz 
      98            0   -17371.763    6.9282254    73.507261    4.0000128 
      99            0   -17371.763    6.9282254    73.507261    4.0000128 
     100            0   -17371.764    6.9282254    73.507261    4.0000128 
     101            0   -17371.764    6.9282254    73.507261    4.0000128 
     102            0   -17371.764    6.9282254    73.507261    4.0000128 
Loop time of 1.44379 on 1 procs for 3 steps with 2912 atoms

Minimization stats:
  Stopping criterion = force tolerance
  Energy initial, next-to-last, final = 
        -17371.7631095     -17371.7636857     -17371.7636885
  Force two-norm initial, final = 0.440758 3.16051e-11
  Force max component initial, final = 0.0550948 1.74999e-12
  Final line search alpha, max atom move = 0 0
  Iterations, force evaluations = 3 541

Pair  time (%) = 1.33746 (92.6357)
Neigh time (%) = 0 (0)
Comm  time (%) = 0.0240964 (1.66898)
Outpt time (%) = 0.000413792 (0.0286602)
Other time (%) = 0.0818148 (5.66669)

Nlocal:    2912 ave 2912 max 2912 min
Histogram: 1 0 0 0 0 0 0 0 0 0
Nghost:    7264 ave 7264 max 7264 min
Histogram: 1 0 0 0 0 0 0 0 0 0
Neighs:    112224 ave 112224 max 112224 min
Histogram: 1 0 0 0 0 0 0 0 0 0

Total # of neighbors = 112224
Ave neighs/atom = 38.5385
Neighbor list builds = 0
Dangerous builds = 0
        next i
jump SELF loop1
        displace_atoms upper move ${xstep1} 0.0 ${zstep1} units lattice
        displace_atoms upper move 0.00166666666666667 0.0 ${zstep1} units lattice
        displace_atoms upper move 0.00166666666666667 0.0 0 units lattice
        min_style ${style}
        min_style hftn
        minimize ${etol} ${ftol} ${maxiter} ${maxeval}
        minimize 1e-12 ${ftol} ${maxiter} ${maxeval}
        minimize 1e-12 1e-08 ${maxiter} ${maxeval}
        minimize 1e-12 1e-08 10000 ${maxeval}
        minimize 1e-12 1e-08 10000 20000
WARNING: Resetting reneighboring criteria during minimization (../min.cpp:168)
Memory usage per processor = 5.2861 Mbytes
Step Temp PotEng Lx Ly Lz 
     102            0   -17371.202    6.9282254     73.50748    4.0000128 
     103            0   -17371.202    6.9282254     73.50748    4.0000128 
     104            0   -17371.202    6.9282254     73.50748    4.0000128 
     105            0   -17371.202    6.9282254     73.50748    4.0000128 
     106            0   -17371.202    6.9282254     73.50748    4.0000128 
     107            0   -17371.202    6.9282254     73.50748    4.0000128 
     108            0   -17371.202    6.9282254     73.50748    4.0000128 
     109            0   -17371.202    6.9282254     73.50748    4.0000128 
     110            0   -17371.202    6.9282254     73.50748    4.0000128 
Loop time of 0.164685 on 1 procs for 7 steps with 2912 atoms

Minimization stats:
  Stopping criterion = energy tolerance
  Energy initial, next-to-last, final = 
        -17371.2018005     -17371.2018005     -17371.2018005
  Force two-norm initial, final = 0.534639 0.534624
  Force max component initial, final = 0.0668299 0.066828
  Final line search alpha, max atom move = 0 0
  Iterations, force evaluations = 7 60

Pair  time (%) = 0.150951 (91.6604)
Neigh time (%) = 0 (0)
Comm  time (%) = 0.00481568 (2.92418)
Outpt time (%) = 0.00310609 (1.88608)
Other time (%) = 0.00581239 (3.5294)

Nlocal:    2912 ave 2912 max 2912 min
Histogram: 1 0 0 0 0 0 0 0 0 0
Nghost:    7264 ave 7264 max 7264 min
Histogram: 1 0 0 0 0 0 0 0 0 0
Neighs:    112224 ave 112224 max 112224 min
Histogram: 1 0 0 0 0 0 0 0 0 0

Total # of neighbors = 112224
Ave neighs/atom = 38.5385
Neighbor list builds = 0
Dangerous builds = 0
        next i
jump SELF loop1
        displace_atoms upper move ${xstep1} 0.0 ${zstep1} units lattice
        displace_atoms upper move 0.00166666666666667 0.0 ${zstep1} units lattice
        displace_atoms upper move 0.00166666666666667 0.0 0 units lattice
        min_style ${style}
        min_style hftn
        minimize ${etol} ${ftol} ${maxiter} ${maxeval}
        minimize 1e-12 ${ftol} ${maxiter} ${maxeval}
        minimize 1e-12 1e-08 ${maxiter} ${maxeval}
        minimize 1e-12 1e-08 10000 ${maxeval}
        minimize 1e-12 1e-08 10000 20000
WARNING: Resetting reneighboring criteria during minimization (../min.cpp:168)
Memory usage per processor = 5.2861 Mbytes
Step Temp PotEng Lx Ly Lz 
     110            0   -17370.594    6.9282254     73.50748    4.0000128 
     111            0   -17370.595    6.9282254     73.50748    4.0000128 
     112            0   -17370.596    6.9282254     73.50748    4.0000128 
     113            0   -17370.596    6.9282254     73.50748    4.0000128 
     114            0   -17370.596    6.9282254     73.50748    4.0000128 
Loop time of 1.39613 on 1 procs for 3 steps with 2912 atoms

Minimization stats:
  Stopping criterion = force tolerance
  Energy initial, next-to-last, final = 
        -17370.5941431     -17370.5958167     -17370.5958469
  Force two-norm initial, final = 1.16599 1.30964e-10
  Force max component initial, final = 0.145748 8.11801e-12
  Final line search alpha, max atom move = 0 0
  Iterations, force evaluations = 3 479

Pair  time (%) = 1.28906 (92.3306)
Neigh time (%) = 0 (0)
Comm  time (%) = 0.0213402 (1.52853)
Outpt time (%) = 0.000224932 (0.0161111)
Other time (%) = 0.0855102 (6.1248)

Nlocal:    2912 ave 2912 max 2912 min
Histogram: 1 0 0 0 0 0 0 0 0 0
Nghost:    7264 ave 7264 max 7264 min
Histogram: 1 0 0 0 0 0 0 0 0 0
Neighs:    112224 ave 112224 max 112224 min
Histogram: 1 0 0 0 0 0 0 0 0 0

Total # of neighbors = 112224
Ave neighs/atom = 38.5385
Neighbor list builds = 0
Dangerous builds = 0
        next i
jump SELF loop1
        displace_atoms upper move ${xstep1} 0.0 ${zstep1} units lattice
        displace_atoms upper move 0.00166666666666667 0.0 ${zstep1} units lattice
        displace_atoms upper move 0.00166666666666667 0.0 0 units lattice
        min_style ${style}
        min_style hftn
        minimize ${etol} ${ftol} ${maxiter} ${maxeval}
        minimize 1e-12 ${ftol} ${maxiter} ${maxeval}
        minimize 1e-12 1e-08 ${maxiter} ${maxeval}
        minimize 1e-12 1e-08 10000 ${maxeval}
        minimize 1e-12 1e-08 10000 20000
WARNING: Resetting reneighboring criteria during minimization (../min.cpp:168)
Memory usage per processor = 5.2861 Mbytes
Step Temp PotEng Lx Ly Lz 
     114            0   -17369.946    6.9282254    73.508052    4.0000128 
     115            0   -17369.946    6.9282254    73.508052    4.0000128 
     116            0   -17369.946    6.9282254    73.508052    4.0000128 
     117            0   -17369.946    6.9282254    73.508052    4.0000128 
     118            0   -17369.946    6.9282254    73.508052    4.0000128 
     119            0   -17369.946    6.9282254    73.508052    4.0000128 
     120            0   -17369.946    6.9282254    73.508052    4.0000128 
     121            0   -17369.946    6.9282254    73.508052    4.0000128 
     122            0   -17369.946    6.9282254    73.508052    4.0000128 
     123            0   -17369.946    6.9282254    73.508052    4.0000128 
     124            0   -17369.946    6.9282254    73.508052    4.0000128 
Loop time of 0.194435 on 1 procs for 9 steps with 2912 atoms

Minimization stats:
  Stopping criterion = energy tolerance
  Energy initial, next-to-last, final = 
        -17369.9462519     -17369.9462652     -17369.9462698
  Force two-norm initial, final = 0.712551 0.558511
  Force max component initial, final = 0.0890689 0.0695909
  Final line search alpha, max atom move = 0 0
  Iterations, force evaluations = 9 70

Pair  time (%) = 0.18388 (94.5713)
Neigh time (%) = 0 (0)
Comm  time (%) = 0.0027023 (1.38982)
Outpt time (%) = 0.000618928 (0.318321)
Other time (%) = 0.00723411 (3.72058)

Nlocal:    2912 ave 2912 max 2912 min
Histogram: 1 0 0 0 0 0 0 0 0 0
Nghost:    7264 ave 7264 max 7264 min
Histogram: 1 0 0 0 0 0 0 0 0 0
Neighs:    112160 ave 112160 max 112160 min
Histogram: 1 0 0 0 0 0 0 0 0 0

Total # of neighbors = 112160
Ave neighs/atom = 38.5165
Neighbor list builds = 0
Dangerous builds = 0
        next i
jump SELF loop1
        displace_atoms upper move ${xstep1} 0.0 ${zstep1} units lattice
        displace_atoms upper move 0.00166666666666667 0.0 ${zstep1} units lattice
        displace_atoms upper move 0.00166666666666667 0.0 0 units lattice
        min_style ${style}
        min_style hftn
        minimize ${etol} ${ftol} ${maxiter} ${maxeval}
        minimize 1e-12 ${ftol} ${maxiter} ${maxeval}
        minimize 1e-12 1e-08 ${maxiter} ${maxeval}
        minimize 1e-12 1e-08 10000 ${maxeval}
        minimize 1e-12 1e-08 10000 20000
WARNING: Resetting reneighboring criteria during minimization (../min.cpp:168)
Memory usage per processor = 5.2861 Mbytes
Step Temp PotEng Lx Ly Lz 
     124            0   -17369.256    6.9282254    73.508052    4.0000128 
     125            0   -17369.256    6.9282254    73.508052    4.0000128 
     126            0   -17369.258    6.9282254    73.508052    4.0000128 
     127            0   -17369.258    6.9282254    73.508052    4.0000128 
     128            0   -17369.258    6.9282254    73.508052    4.0000128 
Loop time of 1.5507 on 1 procs for 3 steps with 2912 atoms

Minimization stats:
  Stopping criterion = force tolerance
  Energy initial, next-to-last, final = 
        -17369.2562298     -17369.2579947     -17369.2580181
  Force two-norm initial, final = 1.35528 9.02619e-11
  Force max component initial, final = 0.169318 5.32775e-12
  Final line search alpha, max atom move = 0 0
  Iterations, force evaluations = 3 491

Pair  time (%) = 1.41985 (91.5615)
Neigh time (%) = 0 (0)
Comm  time (%) = 0.0336851 (2.17225)
Outpt time (%) = 0.00285629 (0.184193)
Other time (%) = 0.0943153 (6.08211)

Nlocal:    2912 ave 2912 max 2912 min
Histogram: 1 0 0 0 0 0 0 0 0 0
Nghost:    7264 ave 7264 max 7264 min
Histogram: 1 0 0 0 0 0 0 0 0 0
Neighs:    112160 ave 112160 max 112160 min
Histogram: 1 0 0 0 0 0 0 0 0 0

Total # of neighbors = 112160
Ave neighs/atom = 38.5165
Neighbor list builds = 0
Dangerous builds = 0
        next i
jump SELF loop1
        displace_atoms upper move ${xstep1} 0.0 ${zstep1} units lattice
        displace_atoms upper move 0.00166666666666667 0.0 ${zstep1} units lattice
        displace_atoms upper move 0.00166666666666667 0.0 0 units lattice
        min_style ${style}
        min_style hftn
        minimize ${etol} ${ftol} ${maxiter} ${maxeval}
        minimize 1e-12 ${ftol} ${maxiter} ${maxeval}
        minimize 1e-12 1e-08 ${maxiter} ${maxeval}
        minimize 1e-12 1e-08 10000 ${maxeval}
        minimize 1e-12 1e-08 10000 20000
WARNING: Resetting reneighboring criteria during minimization (../min.cpp:168)
Memory usage per processor = 5.2861 Mbytes
Step Temp PotEng Lx Ly Lz 
     128            0   -17368.531    6.9282254    73.508788    4.0000128 
     129            0   -17368.531    6.9282254    73.508788    4.0000128 
     130            0   -17368.531    6.9282254    73.508788    4.0000128 
     131            0   -17368.531    6.9282254    73.508788    4.0000128 
     132            0   -17368.531    6.9282254    73.508788    4.0000128 
     133            0   -17368.531    6.9282254    73.508788    4.0000128 
     134            0   -17368.531    6.9282254    73.508788    4.0000128 
     135            0   -17368.531    6.9282254    73.508788    4.0000128 
     136            0   -17368.531    6.9282254    73.508788    4.0000128 
     137            0   -17368.531    6.9282254    73.508788    4.0000128 
Loop time of 0.229638 on 1 procs for 8 steps with 2912 atoms

Minimization stats:
  Stopping criterion = energy tolerance
  Energy initial, next-to-last, final = 
        -17368.5312694     -17368.5312694     -17368.5312694
  Force two-norm initial, final = 0.871117 0.871094
  Force max component initial, final = 0.10889 0.108887
  Final line search alpha, max atom move = 0 0
  Iterations, force evaluations = 8 67

Pair  time (%) = 0.212215 (92.4128)
Neigh time (%) = 0 (0)
Comm  time (%) = 0.00719476 (3.13309)
Outpt time (%) = 0.00365827 (1.59306)
Other time (%) = 0.00657003 (2.86104)

Nlocal:    2912 ave 2912 max 2912 min
Histogram: 1 0 0 0 0 0 0 0 0 0
Nghost:    7264 ave 7264 max 7264 min
Histogram: 1 0 0 0 0 0 0 0 0 0
Neighs:    112032 ave 112032 max 112032 min
Histogram: 1 0 0 0 0 0 0 0 0 0

Total # of neighbors = 112032
Ave neighs/atom = 38.4725
Neighbor list builds = 0
Dangerous builds = 0
        next i
jump SELF loop1
        displace_atoms upper move ${xstep1} 0.0 ${zstep1} units lattice
        displace_atoms upper move 0.00166666666666667 0.0 ${zstep1} units lattice
        displace_atoms upper move 0.00166666666666667 0.0 0 units lattice
        min_style ${style}
        min_style hftn
        minimize ${etol} ${ftol} ${maxiter} ${maxeval}
        minimize 1e-12 ${ftol} ${maxiter} ${maxeval}
        minimize 1e-12 1e-08 ${maxiter} ${maxeval}
        minimize 1e-12 1e-08 10000 ${maxeval}
        minimize 1e-12 1e-08 10000 20000
WARNING: Resetting reneighboring criteria during minimization (../min.cpp:168)
Memory usage per processor = 5.2861 Mbytes
Step Temp PotEng Lx Ly Lz 
     137            0   -17367.768    6.9282254    73.508788    4.0000128 
     138            0   -17367.769    6.9282254    73.508788    4.0000128 
     139            0   -17367.771    6.9282254    73.508788    4.0000128 
     140            0   -17367.771    6.9282254    73.508788    4.0000128 
     141            0   -17367.771    6.9282254    73.508788    4.0000128 
Loop time of 1.27869 on 1 procs for 3 steps with 2912 atoms

Minimization stats:
  Stopping criterion = force tolerance
  Energy initial, next-to-last, final = 
        -17367.7676492     -17367.7709146     -17367.7709601
  Force two-norm initial, final = 1.82669 3.23647e-11
  Force max component initial, final = 0.228337 2.56666e-12
  Final line search alpha, max atom move = 0 0
  Iterations, force evaluations = 3 476

Pair  time (%) = 1.1893 (93.0091)
Neigh time (%) = 0 (0)
Comm  time (%) = 0.0178024 (1.39224)
Outpt time (%) = 0.000269069 (0.0210425)
Other time (%) = 0.0713211 (5.57766)

Nlocal:    2912 ave 2912 max 2912 min
Histogram: 1 0 0 0 0 0 0 0 0 0
Nghost:    7264 ave 7264 max 7264 min
Histogram: 1 0 0 0 0 0 0 0 0 0
Neighs:    112032 ave 112032 max 112032 min
Histogram: 1 0 0 0 0 0 0 0 0 0

Total # of neighbors = 112032
Ave neighs/atom = 38.4725
Neighbor list builds = 0
Dangerous builds = 0
        next i
jump SELF loop1
        displace_atoms upper move ${xstep1} 0.0 ${zstep1} units lattice
        displace_atoms upper move 0.00166666666666667 0.0 ${zstep1} units lattice
        displace_atoms upper move 0.00166666666666667 0.0 0 units lattice
        min_style ${style}
        min_style hftn
        minimize ${etol} ${ftol} ${maxiter} ${maxeval}
        minimize 1e-12 ${ftol} ${maxiter} ${maxeval}
        minimize 1e-12 1e-08 ${maxiter} ${maxeval}
        minimize 1e-12 1e-08 10000 ${maxeval}
        minimize 1e-12 1e-08 10000 20000
WARNING: Resetting reneighboring criteria during minimization (../min.cpp:168)
Memory usage per processor = 5.2861 Mbytes
Step Temp PotEng Lx Ly Lz 
     141            0   -17366.977    6.9282254    73.509672    4.0000128 
     142            0   -17366.977    6.9282254    73.509672    4.0000128 
     143            0   -17366.977    6.9282254    73.509672    4.0000128 
     144            0   -17366.977    6.9282254    73.509672    4.0000128 
     145            0   -17366.977    6.9282254    73.509672    4.0000128 
     146            0   -17366.977    6.9282254    73.509672    4.0000128 
     147            0   -17366.977    6.9282254    73.509672    4.0000128 
     148            0   -17366.977    6.9282254    73.509672    4.0000128 
     149            0   -17366.977    6.9282254    73.509672    4.0000128 
     150            0   -17366.977    6.9282254    73.509672    4.0000128 
     151            0   -17366.977    6.9282254    73.509672    4.0000128 
     152            0   -17366.977    6.9282254    73.509672    4.0000128 
     153            0   -17366.977    6.9282254    73.509672    4.0000128 
Loop time of 0.220229 on 1 procs for 11 steps with 2912 atoms

Minimization stats:
  Stopping criterion = energy tolerance
  Energy initial, next-to-last, final = 
        -17366.9771425     -17366.9771935     -17366.9771936
  Force two-norm initial, final = 1.01698 0.464484
  Force max component initial, final = 0.127122 0.0548499
  Final line search alpha, max atom move = 0 0
  Iterations, force evaluations = 11 80

Pair  time (%) = 0.207613 (94.2714)
Neigh time (%) = 0 (0)
Comm  time (%) = 0.00301166 (1.36751)
Outpt time (%) = 0.00107688 (0.488981)
Other time (%) = 0.00852748 (3.8721)

Nlocal:    2912 ave 2912 max 2912 min
Histogram: 1 0 0 0 0 0 0 0 0 0
Nghost:    7264 ave 7264 max 7264 min
Histogram: 1 0 0 0 0 0 0 0 0 0
Neighs:    112032 ave 112032 max 112032 min
Histogram: 1 0 0 0 0 0 0 0 0 0

Total # of neighbors = 112032
Ave neighs/atom = 38.4725
Neighbor list builds = 0
Dangerous builds = 0
        next i
jump SELF loop1
        displace_atoms upper move ${xstep1} 0.0 ${zstep1} units lattice
        displace_atoms upper move 0.00166666666666667 0.0 ${zstep1} units lattice
        displace_atoms upper move 0.00166666666666667 0.0 0 units lattice
        min_style ${style}
        min_style hftn
        minimize ${etol} ${ftol} ${maxiter} ${maxeval}
        minimize 1e-12 ${ftol} ${maxiter} ${maxeval}
        minimize 1e-12 1e-08 ${maxiter} ${maxeval}
        minimize 1e-12 1e-08 10000 ${maxeval}
        minimize 1e-12 1e-08 10000 20000
WARNING: Resetting reneighboring criteria during minimization (../min.cpp:168)
Memory usage per processor = 5.2861 Mbytes
Step Temp PotEng Lx Ly Lz 
     153            0   -17366.153    6.9282254    73.509672    4.0000128 
     154            0   -17366.154    6.9282254    73.509672    4.0000128 
     155            0   -17366.156    6.9282254    73.509672    4.0000128 
     156            0   -17366.156    6.9282254    73.509672    4.0000128 
     157            0   -17366.156    6.9282254    73.509672    4.0000128 
Loop time of 1.40191 on 1 procs for 3 steps with 2912 atoms

Minimization stats:
  Stopping criterion = force tolerance
  Energy initial, next-to-last, final = 
        -17366.1532087     -17366.1564056     -17366.1564275
  Force two-norm initial, final = 1.53367 2.19401e-10
  Force max component initial, final = 0.19076 1.42041e-11
  Final line search alpha, max atom move = 0 0
  Iterations, force evaluations = 3 481

Pair  time (%) = 1.28582 (91.7194)
Neigh time (%) = 0 (0)
Comm  time (%) = 0.0274686 (1.95937)
Outpt time (%) = 0.000527123 (0.0376004)
Other time (%) = 0.0880914 (6.28368)

Nlocal:    2912 ave 2912 max 2912 min
Histogram: 1 0 0 0 0 0 0 0 0 0
Nghost:    7264 ave 7264 max 7264 min
Histogram: 1 0 0 0 0 0 0 0 0 0
Neighs:    112032 ave 112032 max 112032 min
Histogram: 1 0 0 0 0 0 0 0 0 0

Total # of neighbors = 112032
Ave neighs/atom = 38.4725
Neighbor list builds = 0
Dangerous builds = 0
        next i
jump SELF loop1
        displace_atoms upper move ${xstep1} 0.0 ${zstep1} units lattice
        displace_atoms upper move 0.00166666666666667 0.0 ${zstep1} units lattice
        displace_atoms upper move 0.00166666666666667 0.0 0 units lattice
        min_style ${style}
        min_style hftn
        minimize ${etol} ${ftol} ${maxiter} ${maxeval}
        minimize 1e-12 ${ftol} ${maxiter} ${maxeval}
        minimize 1e-12 1e-08 ${maxiter} ${maxeval}
        minimize 1e-12 1e-08 10000 ${maxeval}
        minimize 1e-12 1e-08 10000 20000
WARNING: Resetting reneighboring criteria during minimization (../min.cpp:168)
Memory usage per processor = 5.2861 Mbytes
Step Temp PotEng Lx Ly Lz 
     157            0   -17365.307    6.9282254     73.51069    4.0000128 
     158            0   -17365.307    6.9282254     73.51069    4.0000128 
     159            0   -17365.307    6.9282254     73.51069    4.0000128 
     160            0   -17365.307    6.9282254     73.51069    4.0000128 
     161            0   -17365.307    6.9282254     73.51069    4.0000128 
     162            0   -17365.307    6.9282254     73.51069    4.0000128 
     163            0   -17365.307    6.9282254     73.51069    4.0000128 
     164            0   -17365.307    6.9282254     73.51069    4.0000128 
     165            0   -17365.307    6.9282254     73.51069    4.0000128 
     166            0   -17365.307    6.9282254     73.51069    4.0000128 
     167            0   -17365.307    6.9282254     73.51069    4.0000128 
     168            0   -17365.307    6.9282254     73.51069    4.0000128 
Loop time of 0.283078 on 1 procs for 10 steps with 2912 atoms

Minimization stats:
  Stopping criterion = energy tolerance
  Energy initial, next-to-last, final = 
        -17365.3065525     -17365.3071074     -17365.3072466
  Force two-norm initial, final = 1.14949 0.456664
  Force max component initial, final = 0.143687 0.0520716
  Final line search alpha, max atom move = 0 0
  Iterations, force evaluations = 10 79

Pair  time (%) = 0.25031 (88.4245)
Neigh time (%) = 0 (0)
Comm  time (%) = 0.00360255 (1.27263)
Outpt time (%) = 0.0118451 (4.18439)
Other time (%) = 0.0173202 (6.11852)

Nlocal:    2912 ave 2912 max 2912 min
Histogram: 1 0 0 0 0 0 0 0 0 0
Nghost:    7264 ave 7264 max 7264 min
Histogram: 1 0 0 0 0 0 0 0 0 0
Neighs:    112032 ave 112032 max 112032 min
Histogram: 1 0 0 0 0 0 0 0 0 0

Total # of neighbors = 112032
Ave neighs/atom = 38.4725
Neighbor list builds = 0
Dangerous builds = 0
        next i
jump SELF loop1
        displace_atoms upper move ${xstep1} 0.0 ${zstep1} units lattice
        displace_atoms upper move 0.00166666666666667 0.0 ${zstep1} units lattice
        displace_atoms upper move 0.00166666666666667 0.0 0 units lattice
        min_style ${style}
        min_style hftn
        minimize ${etol} ${ftol} ${maxiter} ${maxeval}
        minimize 1e-12 ${ftol} ${maxiter} ${maxeval}
        minimize 1e-12 1e-08 ${maxiter} ${maxeval}
        minimize 1e-12 1e-08 10000 ${maxeval}
        minimize 1e-12 1e-08 10000 20000
WARNING: Resetting reneighboring criteria during minimization (../min.cpp:168)
Memory usage per processor = 5.2861 Mbytes
Step Temp PotEng Lx Ly Lz 
     168            0   -17364.432    6.9282254     73.51069    4.0000128 
     169            0   -17364.434    6.9282254     73.51069    4.0000128 
     170            0   -17364.436    6.9282254     73.51069    4.0000128 
     171            0   -17364.436    6.9282254     73.51069    4.0000128 
     172            0   -17364.436    6.9282254     73.51069    4.0000128 
Loop time of 1.25046 on 1 procs for 3 steps with 2912 atoms

Minimization stats:
  Stopping criterion = force tolerance
  Energy initial, next-to-last, final = 
         -17364.432358     -17364.4363637     -17364.4363869
  Force two-norm initial, final = 1.64222 3.23678e-11
  Force max component initial, final = 0.203941 2.7611e-12
  Final line search alpha, max atom move = 0 0
  Iterations, force evaluations = 3 472

Pair  time (%) = 1.15998 (92.7642)
Neigh time (%) = 0 (0)
Comm  time (%) = 0.0214058 (1.71184)
Outpt time (%) = 0.000272172 (0.0217659)
Other time (%) = 0.0688028 (5.50221)

Nlocal:    2912 ave 2912 max 2912 min
Histogram: 1 0 0 0 0 0 0 0 0 0
Nghost:    7264 ave 7264 max 7264 min
Histogram: 1 0 0 0 0 0 0 0 0 0
Neighs:    112032 ave 112032 max 112032 min
Histogram: 1 0 0 0 0 0 0 0 0 0

Total # of neighbors = 112032
Ave neighs/atom = 38.4725
Neighbor list builds = 0
Dangerous builds = 0
        next i
jump SELF loop1
        displace_atoms upper move ${xstep1} 0.0 ${zstep1} units lattice
        displace_atoms upper move 0.00166666666666667 0.0 ${zstep1} units lattice
        displace_atoms upper move 0.00166666666666667 0.0 0 units lattice
        min_style ${style}
        min_style hftn
        minimize ${etol} ${ftol} ${maxiter} ${maxeval}
        minimize 1e-12 ${ftol} ${maxiter} ${maxeval}
        minimize 1e-12 1e-08 ${maxiter} ${maxeval}
        minimize 1e-12 1e-08 10000 ${maxeval}
        minimize 1e-12 1e-08 10000 20000
WARNING: Resetting reneighboring criteria during minimization (../min.cpp:168)
Memory usage per processor = 5.2861 Mbytes
Step Temp PotEng Lx Ly Lz 
     172            0   -17363.543    6.9282254    73.511834    4.0000128 
     173            0   -17363.543    6.9282254    73.511834    4.0000128 
     174            0   -17363.544    6.9282254    73.511834    4.0000128 
     175            0   -17363.544    6.9282254    73.511834    4.0000128 
     176            0   -17363.544    6.9282254    73.511834    4.0000128 
Loop time of 1.29803 on 1 procs for 3 steps with 2912 atoms

Minimization stats:
  Stopping criterion = force tolerance
  Energy initial, next-to-last, final = 
        -17363.5427439     -17363.5443496     -17363.5443818
  Force two-norm initial, final = 1.26607 1.60619e-10
  Force max component initial, final = 0.158259 9.13883e-12
  Final line search alpha, max atom move = 0 0
  Iterations, force evaluations = 3 479

Pair  time (%) = 1.20843 (93.0972)
Neigh time (%) = 0 (0)
Comm  time (%) = 0.0178256 (1.37329)
Outpt time (%) = 0.000252146 (0.0194254)
Other time (%) = 0.0715219 (5.51005)

Nlocal:    2912 ave 2912 max 2912 min
Histogram: 1 0 0 0 0 0 0 0 0 0
Nghost:    7264 ave 7264 max 7264 min
Histogram: 1 0 0 0 0 0 0 0 0 0
Neighs:    112032 ave 112032 max 112032 min
Histogram: 1 0 0 0 0 0 0 0 0 0

Total # of neighbors = 112032
Ave neighs/atom = 38.4725
Neighbor list builds = 0
Dangerous builds = 0
        next i
jump SELF loop1
        displace_atoms upper move ${xstep1} 0.0 ${zstep1} units lattice
        displace_atoms upper move 0.00166666666666667 0.0 ${zstep1} units lattice
        displace_atoms upper move 0.00166666666666667 0.0 0 units lattice
        min_style ${style}
        min_style hftn
        minimize ${etol} ${ftol} ${maxiter} ${maxeval}
        minimize 1e-12 ${ftol} ${maxiter} ${maxeval}
        minimize 1e-12 1e-08 ${maxiter} ${maxeval}
        minimize 1e-12 1e-08 10000 ${maxeval}
        minimize 1e-12 1e-08 10000 20000
WARNING: Resetting reneighboring criteria during minimization (../min.cpp:168)
Memory usage per processor = 5.2861 Mbytes
Step Temp PotEng Lx Ly Lz 
     176            0   -17362.634    6.9282254    73.512451    4.0000128 
     177            0   -17362.634    6.9282254    73.512451    4.0000128 
     178            0   -17362.634    6.9282254    73.512451    4.0000128 
     179            0   -17362.634    6.9282254    73.512451    4.0000128 
     180            0   -17362.634    6.9282254    73.512451    4.0000128 
     181            0   -17362.634    6.9282254    73.512451    4.0000128 
     182            0   -17362.634    6.9282254    73.512451    4.0000128 
Loop time of 0.124207 on 1 procs for 5 steps with 2912 atoms

Minimization stats:
  Stopping criterion = energy tolerance
  Energy initial, next-to-last, final = 
        -17362.6339279     -17362.6339279     -17362.6339279
  Force two-norm initial, final = 1.31734 1.31507
  Force max component initial, final = 0.164667 0.164384
  Final line search alpha, max atom move = 0 0
  Iterations, force evaluations = 5 46

Pair  time (%) = 0.114844 (92.4622)
Neigh time (%) = 0 (0)
Comm  time (%) = 0.00173345 (1.39561)
Outpt time (%) = 0.00234179 (1.8854)
Other time (%) = 0.00528721 (4.25677)

Nlocal:    2912 ave 2912 max 2912 min
Histogram: 1 0 0 0 0 0 0 0 0 0
Nghost:    7264 ave 7264 max 7264 min
Histogram: 1 0 0 0 0 0 0 0 0 0
Neighs:    112032 ave 112032 max 112032 min
Histogram: 1 0 0 0 0 0 0 0 0 0

Total # of neighbors = 112032
Ave neighs/atom = 38.4725
Neighbor list builds = 0
Dangerous builds = 0
        next i
jump SELF loop1
        displace_atoms upper move ${xstep1} 0.0 ${zstep1} units lattice
        displace_atoms upper move 0.00166666666666667 0.0 ${zstep1} units lattice
        displace_atoms upper move 0.00166666666666667 0.0 0 units lattice
        min_style ${style}
        min_style hftn
        minimize ${etol} ${ftol} ${maxiter} ${maxeval}
        minimize 1e-12 ${ftol} ${maxiter} ${maxeval}
        minimize 1e-12 1e-08 ${maxiter} ${maxeval}
        minimize 1e-12 1e-08 10000 ${maxeval}
        minimize 1e-12 1e-08 10000 20000
WARNING: Resetting reneighboring criteria during minimization (../min.cpp:168)
Memory usage per processor = 5.2861 Mbytes
Step Temp PotEng Lx Ly Lz 
     182            0   -17361.705    6.9282254    73.512451    4.0000128 
     183            0   -17361.709    6.9282254    73.512451    4.0000128 
     184            0   -17361.712    6.9282254    73.512451    4.0000128 
     185            0   -17361.712    6.9282254    73.512451    4.0000128 
     186            0   -17361.712    6.9282254    73.512451    4.0000128 
Loop time of 1.2965 on 1 procs for 3 steps with 2912 atoms

Minimization stats:
  Stopping criterion = force tolerance
  Energy initial, next-to-last, final = 
        -17361.7052027     -17361.7118359     -17361.7119026
  Force two-norm initial, final = 2.69434 6.20279e-11
  Force max component initial, final = 0.336793 5.84272e-12
  Final line search alpha, max atom move = 0 0
  Iterations, force evaluations = 3 468

Pair  time (%) = 1.20436 (92.893)
Neigh time (%) = 0 (0)
Comm  time (%) = 0.0187766 (1.44825)
Outpt time (%) = 0.000358132 (0.027623)
Other time (%) = 0.0730078 (5.63114)

Nlocal:    2912 ave 2912 max 2912 min
Histogram: 1 0 0 0 0 0 0 0 0 0
Nghost:    7264 ave 7264 max 7264 min
Histogram: 1 0 0 0 0 0 0 0 0 0
Neighs:    112032 ave 112032 max 112032 min
Histogram: 1 0 0 0 0 0 0 0 0 0

Total # of neighbors = 112032
Ave neighs/atom = 38.4725
Neighbor list builds = 0
Dangerous builds = 0
        next i
jump SELF loop1
        displace_atoms upper move ${xstep1} 0.0 ${zstep1} units lattice
        displace_atoms upper move 0.00166666666666667 0.0 ${zstep1} units lattice
        displace_atoms upper move 0.00166666666666667 0.0 0 units lattice
        min_style ${style}
        min_style hftn
        minimize ${etol} ${ftol} ${maxiter} ${maxeval}
        minimize 1e-12 ${ftol} ${maxiter} ${maxeval}
        minimize 1e-12 1e-08 ${maxiter} ${maxeval}
        minimize 1e-12 1e-08 10000 ${maxeval}
        minimize 1e-12 1e-08 10000 20000
WARNING: Resetting reneighboring criteria during minimization (../min.cpp:168)
Memory usage per processor = 5.2861 Mbytes
Step Temp PotEng Lx Ly Lz 
     186            0   -17360.776    6.9282254    73.513769    4.0000128 
     187            0   -17360.776    6.9282254    73.513769    4.0000128 
     188            0   -17360.778    6.9282254    73.513769    4.0000128 
     189            0   -17360.778    6.9282254    73.513769    4.0000128 
     190            0   -17360.778    6.9282254    73.513769    4.0000128 
Loop time of 1.30244 on 1 procs for 3 steps with 2912 atoms

Minimization stats:
  Stopping criterion = force tolerance
  Energy initial, next-to-last, final = 
        -17360.7756426     -17360.7776886     -17360.7777256
  Force two-norm initial, final = 1.41932 1.38006e-10
  Force max component initial, final = 0.177415 5.21148e-12
  Final line search alpha, max atom move = 0 0
  Iterations, force evaluations = 3 472

Pair  time (%) = 1.19611 (91.8365)
Neigh time (%) = 0 (0)
Comm  time (%) = 0.0275722 (2.11697)
Outpt time (%) = 0.000152085 (0.0116769)
Other time (%) = 0.0786008 (6.03489)

Nlocal:    2912 ave 2912 max 2912 min
Histogram: 1 0 0 0 0 0 0 0 0 0
Nghost:    7264 ave 7264 max 7264 min
Histogram: 1 0 0 0 0 0 0 0 0 0
Neighs:    112032 ave 112032 max 112032 min
Histogram: 1 0 0 0 0 0 0 0 0 0

Total # of neighbors = 112032
Ave neighs/atom = 38.4725
Neighbor list builds = 0
Dangerous builds = 0
        next i
jump SELF loop1
        displace_atoms upper move ${xstep1} 0.0 ${zstep1} units lattice
        displace_atoms upper move 0.00166666666666667 0.0 ${zstep1} units lattice
        displace_atoms upper move 0.00166666666666667 0.0 0 units lattice
        min_style ${style}
        min_style hftn
        minimize ${etol} ${ftol} ${maxiter} ${maxeval}
        minimize 1e-12 ${ftol} ${maxiter} ${maxeval}
        minimize 1e-12 1e-08 ${maxiter} ${maxeval}
        minimize 1e-12 1e-08 10000 ${maxeval}
        minimize 1e-12 1e-08 10000 20000
WARNING: Resetting reneighboring criteria during minimization (../min.cpp:168)
Memory usage per processor = 5.2861 Mbytes
Step Temp PotEng Lx Ly Lz 
     190            0   -17359.834    6.9282254    73.514471    4.0000128 
     191            0   -17359.834    6.9282254    73.514471    4.0000128 
     192            0   -17359.836    6.9282254    73.514471    4.0000128 
     193            0   -17359.836    6.9282254    73.514471    4.0000128 
     194            0   -17359.836    6.9282254    73.514471    4.0000128 
Loop time of 1.31119 on 1 procs for 3 steps with 2912 atoms

Minimization stats:
  Stopping criterion = force tolerance
  Energy initial, next-to-last, final = 
        -17359.8336075     -17359.8358491     -17359.8358882
  Force two-norm initial, final = 1.46499 3.5125e-11
  Force max component initial, final = 0.183124 2.34305e-12
  Final line search alpha, max atom move = 0 0
  Iterations, force evaluations = 3 474

Pair  time (%) = 1.20835 (92.1565)
Neigh time (%) = 0 (0)
Comm  time (%) = 0.0297236 (2.26692)
Outpt time (%) = 0.00031085 (0.0237074)
Other time (%) = 0.0728088 (5.55288)

Nlocal:    2912 ave 2912 max 2912 min
Histogram: 1 0 0 0 0 0 0 0 0 0
Nghost:    7264 ave 7264 max 7264 min
Histogram: 1 0 0 0 0 0 0 0 0 0
Neighs:    112032 ave 112032 max 112032 min
Histogram: 1 0 0 0 0 0 0 0 0 0

Total # of neighbors = 112032
Ave neighs/atom = 38.4725
Neighbor list builds = 0
Dangerous builds = 0
        next i
jump SELF loop1
        displace_atoms upper move ${xstep1} 0.0 ${zstep1} units lattice
        displace_atoms upper move 0.00166666666666667 0.0 ${zstep1} units lattice
        displace_atoms upper move 0.00166666666666667 0.0 0 units lattice
        min_style ${style}
        min_style hftn
        minimize ${etol} ${ftol} ${maxiter} ${maxeval}
        minimize 1e-12 ${ftol} ${maxiter} ${maxeval}
        minimize 1e-12 1e-08 ${maxiter} ${maxeval}
        minimize 1e-12 1e-08 10000 ${maxeval}
        minimize 1e-12 1e-08 10000 20000
WARNING: Resetting reneighboring criteria during minimization (../min.cpp:168)
Memory usage per processor = 5.2861 Mbytes
Step Temp PotEng Lx Ly Lz 
     194            0   -17358.887    6.9282254      73.5152    4.0000128 
     195            0   -17358.888    6.9282254      73.5152    4.0000128 
     196            0   -17358.889    6.9282254      73.5152    4.0000128 
     197            0   -17358.889    6.9282254      73.5152    4.0000128 
     198            0   -17358.889    6.9282254      73.5152    4.0000128 
Loop time of 1.30941 on 1 procs for 3 steps with 2912 atoms

Minimization stats:
  Stopping criterion = force tolerance
  Energy initial, next-to-last, final = 
        -17358.8869902     -17358.8893502     -17358.8893889
  Force two-norm initial, final = 1.50928 7.04792e-11
  Force max component initial, final = 0.188659 5.07499e-12
  Final line search alpha, max atom move = 0 0
  Iterations, force evaluations = 3 478

Pair  time (%) = 1.21429 (92.7361)
Neigh time (%) = 0 (0)
Comm  time (%) = 0.0226809 (1.73216)
Outpt time (%) = 0.000246976 (0.0188617)
Other time (%) = 0.0721861 (5.51289)

Nlocal:    2912 ave 2912 max 2912 min
Histogram: 1 0 0 0 0 0 0 0 0 0
Nghost:    7264 ave 7264 max 7264 min
Histogram: 1 0 0 0 0 0 0 0 0 0
Neighs:    112032 ave 112032 max 112032 min
Histogram: 1 0 0 0 0 0 0 0 0 0

Total # of neighbors = 112032
Ave neighs/atom = 38.4725
Neighbor list builds = 0
Dangerous builds = 0
        next i
jump SELF loop1
        displace_atoms upper move ${xstep1} 0.0 ${zstep1} units lattice
        displace_atoms upper move 0.00166666666666667 0.0 ${zstep1} units lattice
        displace_atoms upper move 0.00166666666666667 0.0 0 units lattice
        min_style ${style}
        min_style hftn
        minimize ${etol} ${ftol} ${maxiter} ${maxeval}
        minimize 1e-12 ${ftol} ${maxiter} ${maxeval}
        minimize 1e-12 1e-08 ${maxiter} ${maxeval}
        minimize 1e-12 1e-08 10000 ${maxeval}
        minimize 1e-12 1e-08 10000 20000
WARNING: Resetting reneighboring criteria during minimization (../min.cpp:168)
Memory usage per processor = 5.2861 Mbytes
Step Temp PotEng Lx Ly Lz 
     198            0   -17357.939    6.9282254    73.515957    4.0000128 
     199            0    -17357.94    6.9282254    73.515957    4.0000128 
     200            0   -17357.941    6.9282254    73.515957    4.0000128 
     201            0   -17357.941    6.9282254    73.515957    4.0000128 
     202            0   -17357.941    6.9282254    73.515957    4.0000128 
Loop time of 1.34885 on 1 procs for 3 steps with 2912 atoms

Minimization stats:
  Stopping criterion = force tolerance
  Energy initial, next-to-last, final = 
        -17357.9389043     -17357.9413363     -17357.9413767
  Force two-norm initial, final = 1.55256 2.9331e-11
  Force max component initial, final = 0.19407 2.05139e-12
  Final line search alpha, max atom move = 0 0
  Iterations, force evaluations = 3 489

Pair  time (%) = 1.24405 (92.2306)
Neigh time (%) = 0 (0)
Comm  time (%) = 0.0204727 (1.51779)
Outpt time (%) = 0.000336835 (0.024972)
Other time (%) = 0.0839878 (6.22662)

Nlocal:    2912 ave 2912 max 2912 min
Histogram: 1 0 0 0 0 0 0 0 0 0
Nghost:    7264 ave 7264 max 7264 min
Histogram: 1 0 0 0 0 0 0 0 0 0
Neighs:    112032 ave 112032 max 112032 min
Histogram: 1 0 0 0 0 0 0 0 0 0

Total # of neighbors = 112032
Ave neighs/atom = 38.4725
Neighbor list builds = 0
Dangerous builds = 0
        next i
jump SELF loop1
        displace_atoms upper move ${xstep1} 0.0 ${zstep1} units lattice
        displace_atoms upper move 0.00166666666666667 0.0 ${zstep1} units lattice
        displace_atoms upper move 0.00166666666666667 0.0 0 units lattice
        min_style ${style}
        min_style hftn
        minimize ${etol} ${ftol} ${maxiter} ${maxeval}
        minimize 1e-12 ${ftol} ${maxiter} ${maxeval}
        minimize 1e-12 1e-08 ${maxiter} ${maxeval}
        minimize 1e-12 1e-08 10000 ${maxeval}
        minimize 1e-12 1e-08 10000 20000
WARNING: Resetting reneighboring criteria during minimization (../min.cpp:168)
Memory usage per processor = 5.2861 Mbytes
Step Temp PotEng Lx Ly Lz 
     202            0   -17356.993    6.9282254    73.516744    4.0000128 
     203            0   -17356.994    6.9282254    73.516744    4.0000128 
     204            0   -17356.995    6.9282254    73.516744    4.0000128 
     205            0   -17356.995    6.9282254    73.516744    4.0000128 
     206            0   -17356.995    6.9282254    73.516744    4.0000128 
Loop time of 1.27508 on 1 procs for 3 steps with 2912 atoms

Minimization stats:
  Stopping criterion = force tolerance
  Energy initial, next-to-last, final = 
        -17356.9926095     -17356.9951238      -17356.995165
  Force two-norm initial, final = 1.59343 3.42931e-11
  Force max component initial, final = 0.199179 2.08055e-12
  Final line search alpha, max atom move = 0 0
  Iterations, force evaluations = 3 472

Pair  time (%) = 1.18464 (92.907)
Neigh time (%) = 0 (0)
Comm  time (%) = 0.0199201 (1.56226)
Outpt time (%) = 0.000274878 (0.0215577)
Other time (%) = 0.0702467 (5.50918)

Nlocal:    2912 ave 2912 max 2912 min
Histogram: 1 0 0 0 0 0 0 0 0 0
Nghost:    7264 ave 7264 max 7264 min
Histogram: 1 0 0 0 0 0 0 0 0 0
Neighs:    112032 ave 112032 max 112032 min
Histogram: 1 0 0 0 0 0 0 0 0 0

Total # of neighbors = 112032
Ave neighs/atom = 38.4725
Neighbor list builds = 0
Dangerous builds = 0
        next i
jump SELF loop1
        displace_atoms upper move ${xstep1} 0.0 ${zstep1} units lattice
        displace_atoms upper move 0.00166666666666667 0.0 ${zstep1} units lattice
        displace_atoms upper move 0.00166666666666667 0.0 0 units lattice
        min_style ${style}
        min_style hftn
        minimize ${etol} ${ftol} ${maxiter} ${maxeval}
        minimize 1e-12 ${ftol} ${maxiter} ${maxeval}
        minimize 1e-12 1e-08 ${maxiter} ${maxeval}
        minimize 1e-12 1e-08 10000 ${maxeval}
        minimize 1e-12 1e-08 10000 20000
WARNING: Resetting reneighboring criteria during minimization (../min.cpp:168)
Memory usage per processor = 5.2861 Mbytes
Step Temp PotEng Lx Ly Lz 
     206            0   -17356.052    6.9282254     73.51756    4.0000128 
     207            0   -17356.052    6.9282254     73.51756    4.0000128 
     208            0   -17356.054    6.9282254     73.51756    4.0000128 
     209            0   -17356.054    6.9282254     73.51756    4.0000128 
     210            0   -17356.054    6.9282254     73.51756    4.0000128 
Loop time of 1.31986 on 1 procs for 3 steps with 2912 atoms

Minimization stats:
  Stopping criterion = force tolerance
  Energy initial, next-to-last, final = 
        -17356.0515249     -17356.0541802     -17356.0542219
  Force two-norm initial, final = 1.63321 3.14007e-11
  Force max component initial, final = 0.204151 2.5375e-12
  Final line search alpha, max atom move = 0 0
  Iterations, force evaluations = 3 470

Pair  time (%) = 1.22291 (92.6545)
Neigh time (%) = 0 (0)
Comm  time (%) = 0.0198397 (1.50317)
Outpt time (%) = 0.000495298 (0.0375266)
Other time (%) = 0.0766148 (5.80477)

Nlocal:    2912 ave 2912 max 2912 min
Histogram: 1 0 0 0 0 0 0 0 0 0
Nghost:    7264 ave 7264 max 7264 min
Histogram: 1 0 0 0 0 0 0 0 0 0
Neighs:    112032 ave 112032 max 112032 min
Histogram: 1 0 0 0 0 0 0 0 0 0

Total # of neighbors = 112032
Ave neighs/atom = 38.4725
Neighbor list builds = 0
Dangerous builds = 0
        next i
[...]
Outpt time (%) = 0.000577029 (0.30362)
Other time (%) = 0.00705368 (3.71148)

Nlocal:    2912 ave 2912 max 2912 min
Histogram: 1 0 0 0 0 0 0 0 0 0
Nghost:    7264 ave 7264 max 7264 min
Histogram: 1 0 0 0 0 0 0 0 0 0
Neighs:    112224 ave 112224 max 112224 min
Histogram: 1 0 0 0 0 0 0 0 0 0

Total # of neighbors = 112224
Ave neighs/atom = 38.5385
Neighbor list builds = 0
Dangerous builds = 0
        next j
jump SELF loop2
        displace_atoms upper move ${xstep2} 0.0 ${zstep2} units lattice
        displace_atoms upper move 0.000833333333333329 0.0 ${zstep2} units lattice
        displace_atoms upper move 0.000833333333333329 0.0 0.00249999999999999 units lattice
        min_style ${style}
        min_style hftn
        minimize ${etol} ${ftol} ${maxiter} ${maxeval}
        minimize 1e-12 ${ftol} ${maxiter} ${maxeval}
        minimize 1e-12 1e-08 ${maxiter} ${maxeval}
        minimize 1e-12 1e-08 10000 ${maxeval}
        minimize 1e-12 1e-08 10000 20000
WARNING: Resetting reneighboring criteria during minimization (../min.cpp:168)
Memory usage per processor = 5.2861 Mbytes
Step Temp PotEng Lx Ly Lz 
    2103            0   -17375.057    6.9282254    73.505581    4.0000128 
    2104            0   -17375.058    6.9282254    73.505581    4.0000128 
    2105            0   -17375.058    6.9282254    73.505581    4.0000128 
    2106            0    -17375.06    6.9282254    73.505581    4.0000128 
    2107            0   -17375.062    6.9282254    73.505581    4.0000128 
    2108            0   -17375.062    6.9282254    73.505581    4.0000128 
    2109            0   -17375.062    6.9282254    73.505581    4.0000128 
    2110            0   -17375.062    6.9282254    73.505581    4.0000128 
    2111            0   -17375.062    6.9282254    73.505581    4.0000128 
    2112            0   -17375.062    6.9282254    73.505581    4.0000128 
    2113            0   -17375.062    6.9282254    73.505581    4.0000128 
    2114            0   -17375.062    6.9282254    73.505581    4.0000128 
    2115            0   -17375.062    6.9282254    73.505581    4.0000128 
    2116            0   -17375.062    6.9282254    73.505581    4.0000128 
    2117            0   -17375.062    6.9282254    73.505581    4.0000128 
    2118            0   -17375.062    6.9282254    73.505581    4.0000128 
    2119            0   -17375.062    6.9282254    73.505581    4.0000128 
Loop time of 1.2707 on 1 procs for 15 steps with 2912 atoms

Minimization stats:
  Stopping criterion = energy tolerance
  Energy initial, next-to-last, final = 
        -17375.0570534     -17375.0618827     -17375.0619109
  Force two-norm initial, final = 1.79911 0.059376
  Force max component initial, final = 0.223132 0.00499688
  Final line search alpha, max atom move = 0 0
  Iterations, force evaluations = 15 454

Pair  time (%) = 1.1774 (92.6579)
Neigh time (%) = 0 (0)
Comm  time (%) = 0.0206651 (1.62628)
Outpt time (%) = 0.00182562 (0.143671)
Other time (%) = 0.070805 (5.57212)

Nlocal:    2912 ave 2912 max 2912 min
Histogram: 1 0 0 0 0 0 0 0 0 0
Nghost:    7264 ave 7264 max 7264 min
Histogram: 1 0 0 0 0 0 0 0 0 0
Neighs:    112224 ave 112224 max 112224 min
Histogram: 1 0 0 0 0 0 0 0 0 0

Total # of neighbors = 112224
Ave neighs/atom = 38.5385
Neighbor list builds = 0
Dangerous builds = 0
        next j
jump SELF loop2
        displace_atoms upper move ${xstep2} 0.0 ${zstep2} units lattice
        displace_atoms upper move 0.000833333333333329 0.0 ${zstep2} units lattice
        displace_atoms upper move 0.000833333333333329 0.0 0.00249999999999999 units lattice
        min_style ${style}
        min_style hftn
        minimize ${etol} ${ftol} ${maxiter} ${maxeval}
        minimize 1e-12 ${ftol} ${maxiter} ${maxeval}
        minimize 1e-12 1e-08 ${maxiter} ${maxeval}
        minimize 1e-12 1e-08 10000 ${maxeval}
        minimize 1e-12 1e-08 10000 20000
WARNING: Resetting reneighboring criteria during minimization (../min.cpp:168)
Memory usage per processor = 5.2861 Mbytes
Step Temp PotEng Lx Ly Lz 
    2119            0    -17375.33    6.9282254    73.503949    4.0000128 
    2120            0    -17375.33    6.9282254    73.503949    4.0000128 
    2121            0    -17375.33    6.9282254    73.503949    4.0000128 
    2122            0   -17375.331    6.9282254    73.503949    4.0000128 
    2123            0   -17375.331    6.9282254    73.503949    4.0000128 
    2124            0   -17375.331    6.9282254    73.503949    4.0000128 
    2125            0   -17375.331    6.9282254    73.503949    4.0000128 
    2126            0   -17375.331    6.9282254    73.503949    4.0000128 
    2127            0   -17375.331    6.9282254    73.503949    4.0000128 
    2128            0   -17375.331    6.9282254    73.503949    4.0000128 
    2129            0   -17375.331    6.9282254    73.503949    4.0000128 
    2130            0   -17375.331    6.9282254    73.503949    4.0000128 
    2131            0   -17375.331    6.9282254    73.503949    4.0000128 
    2132            0   -17375.331    6.9282254    73.503949    4.0000128 
    2133            0   -17375.331    6.9282254    73.503949    4.0000128 
Loop time of 0.93212 on 1 procs for 13 steps with 2912 atoms

Minimization stats:
  Stopping criterion = energy tolerance
  Energy initial, next-to-last, final = 
        -17375.3297172     -17375.3311382     -17375.3311387
  Force two-norm initial, final = 1.03064 0.0351476
  Force max component initial, final = 0.128634 0.00249552
  Final line search alpha, max atom move = 0 0
  Iterations, force evaluations = 13 334

Pair  time (%) = 0.847809 (90.9549)
Neigh time (%) = 0 (0)
Comm  time (%) = 0.024721 (2.65213)
Outpt time (%) = 0.0112629 (1.20831)
Other time (%) = 0.048327 (5.18464)

Nlocal:    2912 ave 2912 max 2912 min
Histogram: 1 0 0 0 0 0 0 0 0 0
Nghost:    7264 ave 7264 max 7264 min
Histogram: 1 0 0 0 0 0 0 0 0 0
Neighs:    112224 ave 112224 max 112224 min
Histogram: 1 0 0 0 0 0 0 0 0 0

Total # of neighbors = 112224
Ave neighs/atom = 38.5385
Neighbor list builds = 0
Dangerous builds = 0
        next j
jump SELF loop2
        displace_atoms upper move ${xstep2} 0.0 ${zstep2} units lattice
        displace_atoms upper move 0.000833333333333329 0.0 ${zstep2} units lattice
        displace_atoms upper move 0.000833333333333329 0.0 0.00249999999999999 units lattice
        min_style ${style}
        min_style hftn
        minimize ${etol} ${ftol} ${maxiter} ${maxeval}
        minimize 1e-12 ${ftol} ${maxiter} ${maxeval}
        minimize 1e-12 1e-08 ${maxiter} ${maxeval}
        minimize 1e-12 1e-08 10000 ${maxeval}
        minimize 1e-12 1e-08 10000 20000
WARNING: Resetting reneighboring criteria during minimization (../min.cpp:168)
Memory usage per processor = 5.2861 Mbytes
Step Temp PotEng Lx Ly Lz 
    2133            0   -17375.557    6.9282254    73.503033    4.0000128 
    2134            0   -17375.557    6.9282254    73.503033    4.0000128 
    2135            0   -17375.558    6.9282254    73.503033    4.0000128 
    2136            0   -17375.558    6.9282254    73.503033    4.0000128 
    2137            0   -17375.558    6.9282254    73.503033    4.0000128 
    2138            0   -17375.558    6.9282254    73.503033    4.0000128 
    2139            0   -17375.558    6.9282254    73.503033    4.0000128 
    2140            0   -17375.558    6.9282254    73.503033    4.0000128 
    2141            0   -17375.558    6.9282254    73.503033    4.0000128 
    2142            0   -17375.558    6.9282254    73.503033    4.0000128 
Loop time of 0.199814 on 1 procs for 8 steps with 2912 atoms

Minimization stats:
  Stopping criterion = energy tolerance
  Energy initial, next-to-last, final = 
        -17375.5572823     -17375.5572823     -17375.5575363
  Force two-norm initial, final = 0.862625 0.38758
  Force max component initial, final = 0.107743 0.0429816
  Final line search alpha, max atom move = 0 0
  Iterations, force evaluations = 8 69

Pair  time (%) = 0.185067 (92.6199)
Neigh time (%) = 0 (0)
Comm  time (%) = 0.0049486 (2.47661)
Outpt time (%) = 0.00155405 (0.777748)
Other time (%) = 0.00824389 (4.12578)

Nlocal:    2912 ave 2912 max 2912 min
Histogram: 1 0 0 0 0 0 0 0 0 0
Nghost:    7264 ave 7264 max 7264 min
Histogram: 1 0 0 0 0 0 0 0 0 0
Neighs:    112224 ave 112224 max 112224 min
Histogram: 1 0 0 0 0 0 0 0 0 0

Total # of neighbors = 112224
Ave neighs/atom = 38.5385
Neighbor list builds = 0
Dangerous builds = 0
        next j
jump SELF loop2
        displace_atoms upper move ${xstep2} 0.0 ${zstep2} units lattice
        displace_atoms upper move 0.000833333333333329 0.0 ${zstep2} units lattice
        displace_atoms upper move 0.000833333333333329 0.0 0.00249999999999999 units lattice
        min_style ${style}
        min_style hftn
        minimize ${etol} ${ftol} ${maxiter} ${maxeval}
        minimize 1e-12 ${ftol} ${maxiter} ${maxeval}
        minimize 1e-12 1e-08 ${maxiter} ${maxeval}
        minimize 1e-12 1e-08 10000 ${maxeval}
        minimize 1e-12 1e-08 10000 20000
WARNING: Resetting reneighboring criteria during minimization (../min.cpp:168)
Memory usage per processor = 5.2861 Mbytes
Step Temp PotEng Lx Ly Lz 
    2142            0   -17375.738    6.9282254    73.503032    4.0000128 
    2143            0   -17375.738    6.9282254    73.503032    4.0000128 
    2144            0   -17375.738    6.9282254    73.503032    4.0000128 
    2145            0    -17375.74    6.9282254    73.503032    4.0000128 
    2146            0    -17375.74    6.9282254    73.503032    4.0000128 
    2147            0   -17375.741    6.9282254    73.503032    4.0000128 
    2148            0   -17375.741    6.9282254    73.503032    4.0000128 
    2149            0   -17375.741    6.9282254    73.503032    4.0000128 
    2150            0   -17375.741    6.9282254    73.503032    4.0000128 
    2151            0   -17375.741    6.9282254    73.503032    4.0000128 
    2152            0   -17375.741    6.9282254    73.503032    4.0000128 
    2153            0   -17375.741    6.9282254    73.503032    4.0000128 
    2154            0   -17375.741    6.9282254    73.503032    4.0000128 
    2155            0   -17375.741    6.9282254    73.503032    4.0000128 
    2156            0   -17375.741    6.9282254    73.503032    4.0000128 
    2157            0   -17375.741    6.9282254    73.503032    4.0000128 
    2158            0   -17375.741    6.9282254    73.503032    4.0000128 
    2159            0   -17375.741    6.9282254    73.503032    4.0000128 
    2160            0   -17375.741    6.9282254    73.503032    4.0000128 
Loop time of 1.08978 on 1 procs for 17 steps with 2912 atoms

Minimization stats:
  Stopping criterion = energy tolerance
  Energy initial, next-to-last, final = 
        -17375.7377576     -17375.7410894     -17375.7410897
  Force two-norm initial, final = 1.04854 0.0169202
  Force max component initial, final = 0.12915 0.000981499
  Final line search alpha, max atom move = 0 0
  Iterations, force evaluations = 17 382

Pair  time (%) = 1.01429 (93.0724)
Neigh time (%) = 0 (0)
Comm  time (%) = 0.0147659 (1.35494)
Outpt time (%) = 0.00239938 (0.22017)
Other time (%) = 0.0583305 (5.35249)

Nlocal:    2912 ave 2912 max 2912 min
Histogram: 1 0 0 0 0 0 0 0 0 0
Nghost:    7129 ave 7129 max 7129 min
Histogram: 1 0 0 0 0 0 0 0 0 0
Neighs:    112224 ave 112224 max 112224 min
Histogram: 1 0 0 0 0 0 0 0 0 0

Total # of neighbors = 112224
Ave neighs/atom = 38.5385
Neighbor list builds = 0
Dangerous builds = 0
        next j
jump SELF loop2
        displace_atoms upper move ${xstep2} 0.0 ${zstep2} units lattice
        displace_atoms upper move 0.000833333333333329 0.0 ${zstep2} units lattice
        displace_atoms upper move 0.000833333333333329 0.0 0.00249999999999999 units lattice
        min_style ${style}
        min_style hftn
        minimize ${etol} ${ftol} ${maxiter} ${maxeval}
        minimize 1e-12 ${ftol} ${maxiter} ${maxeval}
        minimize 1e-12 1e-08 ${maxiter} ${maxeval}
        minimize 1e-12 1e-08 10000 ${maxeval}
        minimize 1e-12 1e-08 10000 20000
WARNING: Resetting reneighboring criteria during minimization (../min.cpp:168)
Memory usage per processor = 5.2861 Mbytes
Step Temp PotEng Lx Ly Lz 
    2160            0   -17375.874    6.9282254    73.502429    4.0000128 
    2161            0   -17375.874    6.9282254    73.502429    4.0000128 
    2162            0   -17375.874    6.9282254    73.502429    4.0000128 
    2163            0   -17375.874    6.9282254    73.502429    4.0000128 
    2164            0   -17375.874    6.9282254    73.502429    4.0000128 
    2165            0   -17375.874    6.9282254    73.502429    4.0000128 
    2166            0   -17375.874    6.9282254    73.502429    4.0000128 
    2167            0   -17375.874    6.9282254    73.502429    4.0000128 
    2168            0   -17375.874    6.9282254    73.502429    4.0000128 
Loop time of 0.186203 on 1 procs for 7 steps with 2912 atoms

Minimization stats:
  Stopping criterion = energy tolerance
  Energy initial, next-to-last, final = 
        -17375.8744167     -17375.8744167     -17375.8744167
  Force two-norm initial, final = 0.51099 0.510972
  Force max component initial, final = 0.0638445 0.0638422
  Final line search alpha, max atom move = 0 0
  Iterations, force evaluations = 7 66

Pair  time (%) = 0.174634 (93.7867)
Neigh time (%) = 0 (0)
Comm  time (%) = 0.00382862 (2.05615)
Outpt time (%) = 0.000625088 (0.335703)
Other time (%) = 0.00711562 (3.82143)

Nlocal:    2912 ave 2912 max 2912 min
Histogram: 1 0 0 0 0 0 0 0 0 0
Nghost:    7129 ave 7129 max 7129 min
Histogram: 1 0 0 0 0 0 0 0 0 0
Neighs:    112224 ave 112224 max 112224 min
Histogram: 1 0 0 0 0 0 0 0 0 0

Total # of neighbors = 112224
Ave neighs/atom = 38.5385
Neighbor list builds = 0
Dangerous builds = 0
        next j
jump SELF loop2
        displace_atoms upper move ${xstep2} 0.0 ${zstep2} units lattice
        displace_atoms upper move 0.000833333333333329 0.0 ${zstep2} units lattice
        displace_atoms upper move 0.000833333333333329 0.0 0.00249999999999999 units lattice
        min_style ${style}
        min_style hftn
        minimize ${etol} ${ftol} ${maxiter} ${maxeval}
        minimize 1e-12 ${ftol} ${maxiter} ${maxeval}
        minimize 1e-12 1e-08 ${maxiter} ${maxeval}
        minimize 1e-12 1e-08 10000 ${maxeval}
        minimize 1e-12 1e-08 10000 20000
WARNING: Resetting reneighboring criteria during minimization (../min.cpp:168)
Memory usage per processor = 5.2861 Mbytes
Step Temp PotEng Lx Ly Lz 
    2168            0   -17375.956    6.9282254    73.502429    4.0000128 
    2169            0   -17375.956    6.9282254    73.502429    4.0000128 
    2170            0   -17375.956    6.9282254    73.502429    4.0000128 
    2171            0   -17375.956    6.9282254    73.502429    4.0000128 
    2172            0   -17375.956    6.9282254    73.502429    4.0000128 
    2173            0   -17375.956    6.9282254    73.502429    4.0000128 
    2174            0   -17375.956    6.9282254    73.502429    4.0000128 
    2175            0   -17375.956    6.9282254    73.502429    4.0000128 
    2176            0   -17375.956    6.9282254    73.502429    4.0000128 
    2177            0   -17375.956    6.9282254    73.502429    4.0000128 
    2178            0   -17375.956    6.9282254    73.502429    4.0000128 
Loop time of 0.232939 on 1 procs for 9 steps with 2912 atoms

Minimization stats:
  Stopping criterion = energy tolerance
  Energy initial, next-to-last, final = 
        -17375.9560874     -17375.9560874     -17375.9562399
  Force two-norm initial, final = 0.824778 0.380668
  Force max component initial, final = 0.103081 0.0431673
  Final line search alpha, max atom move = 0 0
  Iterations, force evaluations = 9 76

Pair  time (%) = 0.216615 (92.9923)
Neigh time (%) = 0 (0)
Comm  time (%) = 0.00590304 (2.53416)
Outpt time (%) = 0.00107683 (0.462278)
Other time (%) = 0.0093437 (4.01122)

Nlocal:    2912 ave 2912 max 2912 min
Histogram: 1 0 0 0 0 0 0 0 0 0
Nghost:    7129 ave 7129 max 7129 min
Histogram: 1 0 0 0 0 0 0 0 0 0
Neighs:    112224 ave 112224 max 112224 min
Histogram: 1 0 0 0 0 0 0 0 0 0

Total # of neighbors = 112224
Ave neighs/atom = 38.5385
Neighbor list builds = 0
Dangerous builds = 0
        next j
jump SELF loop2
        displace_atoms upper move ${xstep2} 0.0 ${zstep2} units lattice
        displace_atoms upper move 0.000833333333333329 0.0 ${zstep2} units lattice
        displace_atoms upper move 0.000833333333333329 0.0 0.00249999999999999 units lattice
        min_style ${style}
        min_style hftn
        minimize ${etol} ${ftol} ${maxiter} ${maxeval}
        minimize 1e-12 ${ftol} ${maxiter} ${maxeval}
        minimize 1e-12 1e-08 ${maxiter} ${maxeval}
        minimize 1e-12 1e-08 10000 ${maxeval}
        minimize 1e-12 1e-08 10000 20000
WARNING: Resetting reneighboring criteria during minimization (../min.cpp:168)
Memory usage per processor = 5.2861 Mbytes
Step Temp PotEng Lx Ly Lz 
    2178            0   -17375.984    6.9282254    73.502428    4.0000128 
    2179            0   -17375.984    6.9282254    73.502428    4.0000128 
    2180            0   -17375.984    6.9282254    73.502428    4.0000128 
    2181            0   -17375.984    6.9282254    73.502428    4.0000128 
    2182            0   -17375.985    6.9282254    73.502428    4.0000128 
    2183            0   -17375.985    6.9282254    73.502428    4.0000128 
    2184            0   -17375.985    6.9282254    73.502428    4.0000128 
    2185            0   -17375.985    6.9282254    73.502428    4.0000128 
    2186            0   -17375.985    6.9282254    73.502428    4.0000128 
    2187            0   -17375.985    6.9282254    73.502428    4.0000128 
    2188            0   -17375.985    6.9282254    73.502428    4.0000128 
    2189            0   -17375.985    6.9282254    73.502428    4.0000128 
    2190            0   -17375.985    6.9282254    73.502428    4.0000128 
    2191            0   -17375.985    6.9282254    73.502428    4.0000128 
    2192            0   -17375.985    6.9282254    73.502428    4.0000128 
    2193            0   -17375.985    6.9282254    73.502428    4.0000128 
    2194            0   -17375.985    6.9282254    73.502428    4.0000128 
    2195            0   -17375.985    6.9282254    73.502428    4.0000128 
    2196            0   -17375.985    6.9282254    73.502428    4.0000128 
    2197            0   -17375.985    6.9282254    73.502428    4.0000128 
    2198            0   -17375.985    6.9282254    73.502428    4.0000128 
    2199            0   -17375.985    6.9282254    73.502428    4.0000128 
    2200            0   -17375.985    6.9282254    73.502428    4.0000128 
    2201            0   -17375.985    6.9282254    73.502428    4.0000128 
    2202            0   -17375.985    6.9282254    73.502428    4.0000128 
    2203            0   -17375.985    6.9282254    73.502428    4.0000128 
    2204            0   -17375.985    6.9282254    73.502428    4.0000128 
Loop time of 1.13892 on 1 procs for 25 steps with 2912 atoms

Minimization stats:
  Stopping criterion = energy tolerance
  Energy initial, next-to-last, final = 
        -17375.9837281     -17375.9853199       -17375.98532
  Force two-norm initial, final = 0.47838 0.0133115
  Force max component initial, final = 0.056348 0.000406123
  Final line search alpha, max atom move = 0 0
  Iterations, force evaluations = 25 402

Pair  time (%) = 1.05821 (92.9134)
Neigh time (%) = 0 (0)
Comm  time (%) = 0.0240777 (2.11408)
Outpt time (%) = 0.00508651 (0.446607)
Other time (%) = 0.0515468 (4.52592)

Nlocal:    2912 ave 2912 max 2912 min
Histogram: 1 0 0 0 0 0 0 0 0 0
Nghost:    7129 ave 7129 max 7129 min
Histogram: 1 0 0 0 0 0 0 0 0 0
Neighs:    112224 ave 112224 max 112224 min
Histogram: 1 0 0 0 0 0 0 0 0 0

Total # of neighbors = 112224
Ave neighs/atom = 38.5385
Neighbor list builds = 0
Dangerous builds = 0
        next j
jump SELF loop2


