LAMMPS (28 Jun 2014)
# attempt at getting generalized stacking fault (GSF) energy curve

#file prefix
variable prefix string gsf_V_inter3newnorm
variable dumpfile string ${prefix}.*.dump
variable dumpfile string gsf_V_inter3newnorm.*.dump
variable restartfile string ${prefix}.*.equil
variable restartfile string gsf_V_inter3newnorm.*.equil

#Mass (g/mol)
variable m equal 1

# lattice constant (in Angstroms) and orientation of axes (given by lattice vectors)
variable rho equal 1.1547
variable x1 equal 1
variable x2 equal 0
variable x3 equal 0
variable y1 equal 0
variable y2 equal 1
variable y3 equal 0
# length of lattice in different directions (using orientation of lattice vectors)
variable ax equal sqrt(${x1}*${x1}+${x2}*${x2}+${x3}*${x3})
variable ax equal sqrt(1*${x1}+${x2}*${x2}+${x3}*${x3})
variable ax equal sqrt(1*1+${x2}*${x2}+${x3}*${x3})
variable ax equal sqrt(1*1+0*${x2}+${x3}*${x3})
variable ax equal sqrt(1*1+0*0+${x3}*${x3})
variable ax equal sqrt(1*1+0*0+0*${x3})
variable ax equal sqrt(1*1+0*0+0*0)
variable ay equal sqrt(${y1}*${y1}+${y2}*${y2}+${y3}*${y3})
variable ay equal sqrt(0*${y1}+${y2}*${y2}+${y3}*${y3})
variable ay equal sqrt(0*0+${y2}*${y2}+${y3}*${y3})
variable ay equal sqrt(0*0+1*${y2}+${y3}*${y3})
variable ay equal sqrt(0*0+1*1+${y3}*${y3})
variable ay equal sqrt(0*0+1*1+0*${y3})
variable ay equal sqrt(0*0+1*1+0*0)
variable az equal 1

# size of box in lattice units
variable lxpos equal 1
variable lxneg equal -1*${lxpos}
variable lxneg equal -1*1
variable lypos equal 10
variable lyneg equal -1*${lypos}
variable lyneg equal -1*10
variable lzpos equal 0
variable lzneg equal -1

# Define minimization parameters and damping
variable etol equal 1.0e-12
variable ftol equal 1.0e-8
variable maxiter equal 10000
variable maxeval equal 20000
variable style string cg

# boundary conditions
dimension	2
boundary	p s p
atom_style	atomic

# create geometry
units		lj
lattice         hex ${rho}
lattice         hex 1.1547
Lattice spacing in x,y,z = 1 1.73205 1
region		myregion block ${lxneg} ${lxpos} ${lyneg} ${lypos} ${lzneg} ${lzpos} units lattice
region		myregion block -1 ${lxpos} ${lyneg} ${lypos} ${lzneg} ${lzpos} units lattice
region		myregion block -1 1 ${lyneg} ${lypos} ${lzneg} ${lzpos} units lattice
region		myregion block -1 1 -10 ${lypos} ${lzneg} ${lzpos} units lattice
region		myregion block -1 1 -10 10 ${lzneg} ${lzpos} units lattice
region		myregion block -1 1 -10 10 -1 ${lzpos} units lattice
region		myregion block -1 1 -10 10 -1 0 units lattice
create_box	3 myregion
Created orthogonal box = (-1 -17.3205 -1) to (1 17.3205 0)
  1 by 1 by 1 MPI processor grid
create_atoms	1 box
Created 82 atoms

# define masses
mass * $m
mass * 1

# my fake/morse potential
pair_style      table linear 3001
pair_coeff      * * vpotential_inter3newnorm dummy
neighbor	0.3 bin
neigh_modify	delay 5

# define groups
region	    upper block INF INF 0.01 ${lypos} INF INF units lattice
region	    upper block INF INF 0.01 10 INF INF units lattice
group		upper region upper
40 atoms in group upper

# Setup output
thermo 1
thermo_style custom step temp pe lx ly lz
thermo_modify norm no

# Compute initial state by relaxing box
min_style ${style}
min_style cg
minimize ${etol} ${ftol} ${maxiter} ${maxeval}
minimize 1e-12 ${ftol} ${maxiter} ${maxeval}
minimize 1e-12 1e-08 ${maxiter} ${maxeval}
minimize 1e-12 1e-08 10000 ${maxeval}
minimize 1e-12 1e-08 10000 20000
WARNING: Resetting reneighboring criteria during minimization (../min.cpp:168)
Memory usage per processor = 3.35161 Mbytes
Step Temp PotEng Lx Ly Lz 
       0            0   -241.99991    2.0000005    34.647952    1.0000002 
       1            0   -241.99991    2.0000005    34.647952    1.0000002 
Loop time of 6.99449e-05 on 1 procs for 1 steps with 82 atoms

Minimization stats:
  Stopping criterion = linesearch alpha is zero
  Energy initial, next-to-last, final = 
        -241.999911808     -241.999911808     -241.999911808
  Force two-norm initial, final = 6.11446e-06 6.11446e-06
  Force max component initial, final = 3.05723e-06 3.05723e-06
  Final line search alpha, max atom move = 0.5 1.52862e-06
  Iterations, force evaluations = 1 2

Pair  time (%) = 4.81103e-05 (68.7831)
Neigh time (%) = 0 (0)
Comm  time (%) = 3.87465e-06 (5.53958)
Outpt time (%) = 0 (0)
Other time (%) = 1.796e-05 (25.6773)

Nlocal:    82 ave 82 max 82 min
Histogram: 1 0 0 0 0 0 0 0 0 0
Nghost:    185 ave 185 max 185 min
Histogram: 1 0 0 0 0 0 0 0 0 0
Neighs:    718 ave 718 max 718 min
Histogram: 1 0 0 0 0 0 0 0 0 0

Total # of neighbors = 718
Ave neighs/atom = 8.7561
Neighbor list builds = 0
Dangerous builds = 0

# don't allow atoms to relax in x-direction
fix 2 all setforce 0.0 NULL 0.0

# GSF energy curve will have 100*2 steps
variable nsteps equal 300
variable sstep1 equal 1.
variable xstep1 equal ${sstep1}/(${ax}*${nsteps})
variable xstep1 equal 1/(${ax}*${nsteps})
variable xstep1 equal 1/(1*${nsteps})
variable xstep1 equal 1/(1*300)

variable i loop ${nsteps}
variable i loop 300
label loop1
        displace_atoms upper move ${xstep1} 0.0 0.0 units lattice
        displace_atoms upper move 0.00333333333333333 0.0 0.0 units lattice
        min_style ${style}
        min_style cg
        minimize ${etol} ${ftol} ${maxiter} ${maxeval}
        minimize 1e-12 ${ftol} ${maxiter} ${maxeval}
        minimize 1e-12 1e-08 ${maxiter} ${maxeval}
        minimize 1e-12 1e-08 10000 ${maxeval}
        minimize 1e-12 1e-08 10000 20000
WARNING: Resetting reneighboring criteria during minimization (../min.cpp:168)
Memory usage per processor = 3.35161 Mbytes
Step Temp PotEng Lx Ly Lz 
       1            0   -241.99973    2.0000005    34.647952    1.0000002 
       2            0   -241.99973    2.0000005    34.647952    1.0000002 
Loop time of 0.000191953 on 1 procs for 1 steps with 82 atoms

Minimization stats:
  Stopping criterion = linesearch alpha is zero
  Energy initial, next-to-last, final = 
        -241.999734982     -241.999734982     -241.999734982
  Force two-norm initial, final = 0.00166994 0.00166994
  Force max component initial, final = 0.000834963 0.000834963
  Final line search alpha, max atom move = 0.00390625 3.26157e-06
  Iterations, force evaluations = 1 9

Pair  time (%) = 0.000157154 (81.8713)
Neigh time (%) = 0 (0)
Comm  time (%) = 1.02044e-05 (5.31609)
Outpt time (%) = 0 (0)
Other time (%) = 2.45941e-05 (12.8126)

Nlocal:    82 ave 82 max 82 min
Histogram: 1 0 0 0 0 0 0 0 0 0
Nghost:    185 ave 185 max 185 min
Histogram: 1 0 0 0 0 0 0 0 0 0
Neighs:    718 ave 718 max 718 min
Histogram: 1 0 0 0 0 0 0 0 0 0

Total # of neighbors = 718
Ave neighs/atom = 8.7561
Neighbor list builds = 0
Dangerous builds = 0
        # write_dump all atom ${dumpfile}
        next i
jump SELF loop1
        displace_atoms upper move ${xstep1} 0.0 0.0 units lattice
        displace_atoms upper move 0.00333333333333333 0.0 0.0 units lattice
        min_style ${style}
        min_style cg
        minimize ${etol} ${ftol} ${maxiter} ${maxeval}
        minimize 1e-12 ${ftol} ${maxiter} ${maxeval}
        minimize 1e-12 1e-08 ${maxiter} ${maxeval}
        minimize 1e-12 1e-08 10000 ${maxeval}
        minimize 1e-12 1e-08 10000 20000
WARNING: Resetting reneighboring criteria during minimization (../min.cpp:168)
Memory usage per processor = 3.35161 Mbytes
Step Temp PotEng Lx Ly Lz 
       2            0   -241.99923    2.0000005    34.647952    1.0000002 
       3            0   -241.99923    2.0000005    34.647952    1.0000002 
       4            0   -241.99923    2.0000005    34.647952    1.0000002 
       5            0   -241.99923    2.0000005    34.647952    1.0000002 
Loop time of 0.000733941 on 1 procs for 3 steps with 82 atoms

Minimization stats:
  Stopping criterion = linesearch alpha is zero
  Energy initial, next-to-last, final = 
         -241.99922677     -241.999226919     -241.999226919
  Force two-norm initial, final = 0.00639572 0.00411107
  Force max component initial, final = 0.00319786 0.00202197
  Final line search alpha, max atom move = 0.000488281 9.87289e-07
  Iterations, force evaluations = 3 33

Pair  time (%) = 0.000602493 (82.0901)
Neigh time (%) = 0 (0)
Comm  time (%) = 3.85965e-05 (5.25879)
Outpt time (%) = 1.198e-05 (1.63228)
Other time (%) = 8.08719e-05 (11.0188)

Nlocal:    82 ave 82 max 82 min
Histogram: 1 0 0 0 0 0 0 0 0 0
Nghost:    185 ave 185 max 185 min
Histogram: 1 0 0 0 0 0 0 0 0 0
Neighs:    718 ave 718 max 718 min
Histogram: 1 0 0 0 0 0 0 0 0 0

Total # of neighbors = 718
Ave neighs/atom = 8.7561
Neighbor list builds = 0
Dangerous builds = 0
        # write_dump all atom ${dumpfile}
        next i
jump SELF loop1
        displace_atoms upper move ${xstep1} 0.0 0.0 units lattice
        displace_atoms upper move 0.00333333333333333 0.0 0.0 units lattice
        min_style ${style}
        min_style cg
        minimize ${etol} ${ftol} ${maxiter} ${maxeval}
        minimize 1e-12 ${ftol} ${maxiter} ${maxeval}
        minimize 1e-12 1e-08 ${maxiter} ${maxeval}
        minimize 1e-12 1e-08 10000 ${maxeval}
        minimize 1e-12 1e-08 10000 20000
WARNING: Resetting reneighboring criteria during minimization (../min.cpp:168)
Memory usage per processor = 3.35161 Mbytes
Step Temp PotEng Lx Ly Lz 
       5            0   -241.99836    2.0000005    34.647952    1.0000002 
       6            0   -241.99836    2.0000005    34.647952    1.0000002 
Loop time of 0.000407111 on 1 procs for 1 steps with 82 atoms

Minimization stats:
  Stopping criterion = linesearch alpha is zero
  Energy initial, next-to-last, final = 
        -241.998363102     -241.998363102     -241.998363102
  Force two-norm initial, final = 0.0121585 0.0121585
  Force max component initial, final = 0.00606797 0.00606797
  Final line search alpha, max atom move = 6.10352e-05 3.7036e-07
  Iterations, force evaluations = 1 15

Pair  time (%) = 0.000351855 (86.4272)
Neigh time (%) = 0 (0)
Comm  time (%) = 1.70622e-05 (4.19104)
Outpt time (%) = 0 (0)
Other time (%) = 3.8194e-05 (9.38172)

Nlocal:    82 ave 82 max 82 min
Histogram: 1 0 0 0 0 0 0 0 0 0
Nghost:    185 ave 185 max 185 min
Histogram: 1 0 0 0 0 0 0 0 0 0
Neighs:    718 ave 718 max 718 min
Histogram: 1 0 0 0 0 0 0 0 0 0

Total # of neighbors = 718
Ave neighs/atom = 8.7561
Neighbor list builds = 0
Dangerous builds = 0
        # write_dump all atom ${dumpfile}
        next i
jump SELF loop1
        displace_atoms upper move ${xstep1} 0.0 0.0 units lattice
        displace_atoms upper move 0.00333333333333333 0.0 0.0 units lattice
        min_style ${style}
        min_style cg
        minimize ${etol} ${ftol} ${maxiter} ${maxeval}
        minimize 1e-12 ${ftol} ${maxiter} ${maxeval}
        minimize 1e-12 1e-08 ${maxiter} ${maxeval}
        minimize 1e-12 1e-08 10000 ${maxeval}
        minimize 1e-12 1e-08 10000 20000
WARNING: Resetting reneighboring criteria during minimization (../min.cpp:168)
Memory usage per processor = 3.35161 Mbytes
Step Temp PotEng Lx Ly Lz 
       6            0   -241.99717    2.0000005    34.647952    1.0000002 
       7            0   -241.99717    2.0000005    34.647952    1.0000002 
Loop time of 0.0136251 on 1 procs for 1 steps with 82 atoms

Minimization stats:
  Stopping criterion = linesearch alpha is zero
  Energy initial, next-to-last, final = 
        -241.997168015     -241.997168015     -241.997168015
  Force two-norm initial, final = 0.0232953 0.0232953
  Force max component initial, final = 0.0116418 0.0116418
  Final line search alpha, max atom move = 1.52588e-05 1.7764e-07
  Iterations, force evaluations = 1 17

Pair  time (%) = 0.000287774 (2.11209)
Neigh time (%) = 0 (0)
Comm  time (%) = 2.07516e-05 (0.152304)
Outpt time (%) = 0 (0)
Other time (%) = 0.0133166 (97.7356)

Nlocal:    82 ave 82 max 82 min
Histogram: 1 0 0 0 0 0 0 0 0 0
Nghost:    185 ave 185 max 185 min
Histogram: 1 0 0 0 0 0 0 0 0 0
Neighs:    718 ave 718 max 718 min
Histogram: 1 0 0 0 0 0 0 0 0 0

Total # of neighbors = 718
Ave neighs/atom = 8.7561
Neighbor list builds = 0
Dangerous builds = 0
        # write_dump all atom ${dumpfile}
        next i
jump SELF loop1
        displace_atoms upper move ${xstep1} 0.0 0.0 units lattice
        displace_atoms upper move 0.00333333333333333 0.0 0.0 units lattice
        min_style ${style}
        min_style cg
        minimize ${etol} ${ftol} ${maxiter} ${maxeval}
        minimize 1e-12 ${ftol} ${maxiter} ${maxeval}
        minimize 1e-12 1e-08 ${maxiter} ${maxeval}
        minimize 1e-12 1e-08 10000 ${maxeval}
        minimize 1e-12 1e-08 10000 20000
WARNING: Resetting reneighboring criteria during minimization (../min.cpp:168)
Memory usage per processor = 3.35161 Mbytes
Step Temp PotEng Lx Ly Lz 
       7            0   -241.99562    2.0000005    34.647952    1.0000002 
       8            0   -241.99563    2.0000005    34.647952    1.0000002 
       9            0   -241.99563    2.0000005    34.647952    1.0000002 
      10            0   -241.99563    2.0000005    34.647952    1.0000002 
      11            0   -241.99563    2.0000005    34.647952    1.0000002 
Loop time of 0.000586894 on 1 procs for 4 steps with 82 atoms

Minimization stats:
  Stopping criterion = linesearch alpha is zero
  Energy initial, next-to-last, final = 
        -241.995622928     -241.995627731     -241.995627731
  Force two-norm initial, final = 0.0377342 0.00919951
  Force max component initial, final = 0.0188635 0.00345684
  Final line search alpha, max atom move = 0.00012207 4.21977e-07
  Iterations, force evaluations = 4 41

Pair  time (%) = 0.000478629 (81.553)
Neigh time (%) = 0 (0)
Comm  time (%) = 3.24093e-05 (5.52218)
Outpt time (%) = 1.31498e-05 (2.24058)
Other time (%) = 6.2705e-05 (10.6842)

Nlocal:    82 ave 82 max 82 min
Histogram: 1 0 0 0 0 0 0 0 0 0
Nghost:    185 ave 185 max 185 min
Histogram: 1 0 0 0 0 0 0 0 0 0
Neighs:    718 ave 718 max 718 min
Histogram: 1 0 0 0 0 0 0 0 0 0

Total # of neighbors = 718
Ave neighs/atom = 8.7561
Neighbor list builds = 0
Dangerous builds = 0
        # write_dump all atom ${dumpfile}
        next i
jump SELF loop1
        displace_atoms upper move ${xstep1} 0.0 0.0 units lattice
        displace_atoms upper move 0.00333333333333333 0.0 0.0 units lattice
        min_style ${style}
        min_style cg
        minimize ${etol} ${ftol} ${maxiter} ${maxeval}
        minimize 1e-12 ${ftol} ${maxiter} ${maxeval}
        minimize 1e-12 1e-08 ${maxiter} ${maxeval}
        minimize 1e-12 1e-08 10000 ${maxeval}
        minimize 1e-12 1e-08 10000 20000
WARNING: Resetting reneighboring criteria during minimization (../min.cpp:168)
Memory usage per processor = 3.35161 Mbytes
Step Temp PotEng Lx Ly Lz 
      11            0   -241.99374    2.0000005    34.647952    1.0000002 
      12            0   -241.99374    2.0000005    34.647952    1.0000002 
Loop time of 0.000346986 on 1 procs for 1 steps with 82 atoms

Minimization stats:
  Stopping criterion = linesearch alpha is zero
  Energy initial, next-to-last, final = 
         -241.99374242      -241.99374242      -241.99374242
  Force two-norm initial, final = 0.0243447 0.0243447
  Force max component initial, final = 0.0116117 0.0116117
  Final line search alpha, max atom move = 1.52588e-05 1.7718e-07
  Iterations, force evaluations = 1 17

Pair  time (%) = 0.000291013 (83.8687)
Neigh time (%) = 0 (0)
Comm  time (%) = 2.50365e-05 (7.21542)
Outpt time (%) = 0 (0)
Other time (%) = 3.09369e-05 (8.91589)

Nlocal:    82 ave 82 max 82 min
Histogram: 1 0 0 0 0 0 0 0 0 0
Nghost:    185 ave 185 max 185 min
Histogram: 1 0 0 0 0 0 0 0 0 0
Neighs:    718 ave 718 max 718 min
Histogram: 1 0 0 0 0 0 0 0 0 0

Total # of neighbors = 718
Ave neighs/atom = 8.7561
Neighbor list builds = 0
Dangerous builds = 0
        # write_dump all atom ${dumpfile}
        next i
jump SELF loop1
        displace_atoms upper move ${xstep1} 0.0 0.0 units lattice
        displace_atoms upper move 0.00333333333333333 0.0 0.0 units lattice
        min_style ${style}
        min_style cg
        minimize ${etol} ${ftol} ${maxiter} ${maxeval}
        minimize 1e-12 ${ftol} ${maxiter} ${maxeval}
        minimize 1e-12 1e-08 ${maxiter} ${maxeval}
        minimize 1e-12 1e-08 10000 ${maxeval}
        minimize 1e-12 1e-08 10000 20000
WARNING: Resetting reneighboring criteria during minimization (../min.cpp:168)
Memory usage per processor = 3.35161 Mbytes
Step Temp PotEng Lx Ly Lz 
      12            0   -241.99153    2.0000005    34.647952    1.0000002 
      13            0   -241.99153    2.0000005    34.647952    1.0000002 
Loop time of 0.000416109 on 1 procs for 1 steps with 82 atoms

Minimization stats:
  Stopping criterion = linesearch alpha is zero
  Energy initial, next-to-last, final = 
        -241.991525808     -241.991525808     -241.991525808
  Force two-norm initial, final = 0.0445182 0.0445182
  Force max component initial, final = 0.0219575 0.0219575
  Final line search alpha, max atom move = 3.8147e-06 8.37612e-08
  Iterations, force evaluations = 1 19

Pair  time (%) = 0.000351016 (84.3567)
Neigh time (%) = 0 (0)
Comm  time (%) = 2.33451e-05 (5.61033)
Outpt time (%) = 0 (0)
Other time (%) = 4.17483e-05 (10.033)

Nlocal:    82 ave 82 max 82 min
Histogram: 1 0 0 0 0 0 0 0 0 0
Nghost:    185 ave 185 max 185 min
Histogram: 1 0 0 0 0 0 0 0 0 0
Neighs:    718 ave 718 max 718 min
Histogram: 1 0 0 0 0 0 0 0 0 0

Total # of neighbors = 718
Ave neighs/atom = 8.7561
Neighbor list builds = 0
Dangerous builds = 0
        # write_dump all atom ${dumpfile}
        next i
jump SELF loop1
        displace_atoms upper move ${xstep1} 0.0 0.0 units lattice
        displace_atoms upper move 0.00333333333333333 0.0 0.0 units lattice
        min_style ${style}
        min_style cg
        minimize ${etol} ${ftol} ${maxiter} ${maxeval}
        minimize 1e-12 ${ftol} ${maxiter} ${maxeval}
        minimize 1e-12 1e-08 ${maxiter} ${maxeval}
        minimize 1e-12 1e-08 10000 ${maxeval}
        minimize 1e-12 1e-08 10000 20000
WARNING: Resetting reneighboring criteria during minimization (../min.cpp:168)
Memory usage per processor = 3.35161 Mbytes
Step Temp PotEng Lx Ly Lz 
      13            0   -241.98897    2.0000005    34.647952    1.0000002 
      14            0   -241.98898    2.0000005    34.647952    1.0000002 
      15            0   -241.98898    2.0000005    34.647952    1.0000002 
Loop time of 0.00110994 on 1 procs for 2 steps with 82 atoms

Minimization stats:
  Stopping criterion = linesearch alpha is zero
  Energy initial, next-to-last, final = 
        -241.988967902     -241.988976818     -241.988976818
  Force two-norm initial, final = 0.0681914 0.036455
  Force max component initial, final = 0.0338996 0.0160244
  Final line search alpha, max atom move = 7.62939e-06 1.22256e-07
  Iterations, force evaluations = 2 27

Pair  time (%) = 0.000895208 (80.6534)
Neigh time (%) = 0 (0)
Comm  time (%) = 0.000119607 (10.7759)
Outpt time (%) = 4.9253e-06 (0.443743)
Other time (%) = 9.02048e-05 (8.12696)

Nlocal:    82 ave 82 max 82 min
Histogram: 1 0 0 0 0 0 0 0 0 0
Nghost:    185 ave 185 max 185 min
Histogram: 1 0 0 0 0 0 0 0 0 0
Neighs:    718 ave 718 max 718 min
Histogram: 1 0 0 0 0 0 0 0 0 0

Total # of neighbors = 718
Ave neighs/atom = 8.7561
Neighbor list builds = 0
Dangerous builds = 0
        # write_dump all atom ${dumpfile}
        next i
jump SELF loop1
        displace_atoms upper move ${xstep1} 0.0 0.0 units lattice
        displace_atoms upper move 0.00333333333333333 0.0 0.0 units lattice
        min_style ${style}
        min_style cg
        minimize ${etol} ${ftol} ${maxiter} ${maxeval}
        minimize 1e-12 ${ftol} ${maxiter} ${maxeval}
        minimize 1e-12 1e-08 ${maxiter} ${maxeval}
        minimize 1e-12 1e-08 10000 ${maxeval}
        minimize 1e-12 1e-08 10000 20000
WARNING: Resetting reneighboring criteria during minimization (../min.cpp:168)
Memory usage per processor = 3.35161 Mbytes
Step Temp PotEng Lx Ly Lz 
      15            0   -241.98609    2.0000005    34.647952    1.0000002 
      16            0    -241.9861    2.0000005    34.647952    1.0000002 
      17            0    -241.9861    2.0000005    34.647952    1.0000002 
Loop time of 0.000600983 on 1 procs for 2 steps with 82 atoms

Minimization stats:
  Stopping criterion = linesearch alpha is zero
  Energy initial, next-to-last, final = 
        -241.986086499     -241.986096593     -241.986096593
  Force two-norm initial, final = 0.0615937 0.0375986
  Force max component initial, final = 0.0295463 0.0149777
  Final line search alpha, max atom move = 7.62939e-06 1.14271e-07
  Iterations, force evaluations = 2 27

Pair  time (%) = 0.000463066 (77.0515)
Neigh time (%) = 0 (0)
Comm  time (%) = 3.02113e-05 (5.02698)
Outpt time (%) = 5.02972e-06 (0.836917)
Other time (%) = 0.000102676 (17.0846)

Nlocal:    82 ave 82 max 82 min
Histogram: 1 0 0 0 0 0 0 0 0 0
Nghost:    185 ave 185 max 185 min
Histogram: 1 0 0 0 0 0 0 0 0 0
Neighs:    718 ave 718 max 718 min
Histogram: 1 0 0 0 0 0 0 0 0 0

Total # of neighbors = 718
Ave neighs/atom = 8.7561
Neighbor list builds = 0
Dangerous builds = 0
        # write_dump all atom ${dumpfile}
        next i
jump SELF loop1
        displace_atoms upper move ${xstep1} 0.0 0.0 units lattice
        displace_atoms upper move 0.00333333333333333 0.0 0.0 units lattice
        min_style ${style}
        min_style cg
        minimize ${etol} ${ftol} ${maxiter} ${maxeval}
        minimize 1e-12 ${ftol} ${maxiter} ${maxeval}
        minimize 1e-12 1e-08 ${maxiter} ${maxeval}
        minimize 1e-12 1e-08 10000 ${maxeval}
        minimize 1e-12 1e-08 10000 20000
WARNING: Resetting reneighboring criteria during minimization (../min.cpp:168)
Memory usage per processor = 3.35161 Mbytes
Step Temp PotEng Lx Ly Lz 
      17            0   -241.98291    2.0000005    34.647952    1.0000002 
      18            0   -241.98292    2.0000005    34.647952    1.0000002 
      19            0   -241.98292    2.0000005    34.647952    1.0000002 
Loop time of 0.000544951 on 1 procs for 2 steps with 82 atoms

Minimization stats:
  Stopping criterion = linesearch alpha is zero
  Energy initial, next-to-last, final = 
        -241.982912597     -241.982921499     -241.982921499
  Force two-norm initial, final = 0.0496926 0.0264126
  Force max component initial, final = 0.0220965 0.01196
  Final line search alpha, max atom move = 1.52588e-05 1.82495e-07
  Iterations, force evaluations = 2 25

Pair  time (%) = 0.000458803 (84.1915)
Neigh time (%) = 0 (0)
Comm  time (%) = 3.36842e-05 (6.18114)
Outpt time (%) = 6.11809e-06 (1.12269)
Other time (%) = 4.63461e-05 (8.50463)

Nlocal:    82 ave 82 max 82 min
Histogram: 1 0 0 0 0 0 0 0 0 0
Nghost:    185 ave 185 max 185 min
Histogram: 1 0 0 0 0 0 0 0 0 0
Neighs:    718 ave 718 max 718 min
Histogram: 1 0 0 0 0 0 0 0 0 0

Total # of neighbors = 718
Ave neighs/atom = 8.7561
Neighbor list builds = 0
Dangerous builds = 0
        # write_dump all atom ${dumpfile}
        next i
jump SELF loop1
        displace_atoms upper move ${xstep1} 0.0 0.0 units lattice
        displace_atoms upper move 0.00333333333333333 0.0 0.0 units lattice
        min_style ${style}
        min_style cg
        minimize ${etol} ${ftol} ${maxiter} ${maxeval}
        minimize 1e-12 ${ftol} ${maxiter} ${maxeval}
        minimize 1e-12 1e-08 ${maxiter} ${maxeval}
        minimize 1e-12 1e-08 10000 ${maxeval}
        minimize 1e-12 1e-08 10000 20000
WARNING: Resetting reneighboring criteria during minimization (../min.cpp:168)
Memory usage per processor = 3.35161 Mbytes
Step Temp PotEng Lx Ly Lz 
      19            0   -241.97951    2.0000005    34.647952    1.0000002 
      20            0   -241.97952    2.0000005    34.647952    1.0000002 
      21            0   -241.97952    2.0000005    34.647952    1.0000002 
      22            0   -241.97952    2.0000005    34.647952    1.0000002 
Loop time of 0.000842909 on 1 procs for 3 steps with 82 atoms

Minimization stats:
  Stopping criterion = linesearch alpha is zero
  Energy initial, next-to-last, final = 
        -241.979514481     -241.979518737     -241.979518737
  Force two-norm initial, final = 0.0324804 0.0266088
  Force max component initial, final = 0.01196 0.0100888
  Final line search alpha, max atom move = 1.52588e-05 1.53943e-07
  Iterations, force evaluations = 3 38

Pair  time (%) = 0.000701777 (83.2565)
Neigh time (%) = 0 (0)
Comm  time (%) = 5.06035e-05 (6.00344)
Outpt time (%) = 2.10274e-05 (2.49462)
Other time (%) = 6.95011e-05 (8.24539)

Nlocal:    82 ave 82 max 82 min
Histogram: 1 0 0 0 0 0 0 0 0 0
Nghost:    185 ave 185 max 185 min
Histogram: 1 0 0 0 0 0 0 0 0 0
Neighs:    718 ave 718 max 718 min
Histogram: 1 0 0 0 0 0 0 0 0 0

Total # of neighbors = 718
Ave neighs/atom = 8.7561
Neighbor list builds = 0
Dangerous builds = 0
        # write_dump all atom ${dumpfile}
        next i
jump SELF loop1
        displace_atoms upper move ${xstep1} 0.0 0.0 units lattice
        displace_atoms upper move 0.00333333333333333 0.0 0.0 units lattice
        min_style ${style}
        min_style cg
        minimize ${etol} ${ftol} ${maxiter} ${maxeval}
        minimize 1e-12 ${ftol} ${maxiter} ${maxeval}
        minimize 1e-12 1e-08 ${maxiter} ${maxeval}
        minimize 1e-12 1e-08 10000 ${maxeval}
        minimize 1e-12 1e-08 10000 20000
WARNING: Resetting reneighboring criteria during minimization (../min.cpp:168)
Memory usage per processor = 3.35161 Mbytes
Step Temp PotEng Lx Ly Lz 
      22            0   -241.97588    2.0000005    34.647952    1.0000002 
      23            0   -241.97589    2.0000005    34.647952    1.0000002 
      24            0   -241.97589    2.0000005    34.647952    1.0000002 
Loop time of 0.000608982 on 1 procs for 2 steps with 82 atoms

Minimization stats:
  Stopping criterion = linesearch alpha is zero
  Energy initial, next-to-last, final = 
        -241.975876654     -241.975887851     -241.975887851
  Force two-norm initial, final = 0.0384252 0.0247598
  Force max component initial, final = 0.0153101 0.010312
  Final line search alpha, max atom move = 1.52588e-05 1.57348e-07
  Iterations, force evaluations = 2 25

Pair  time (%) = 0.000519237 (85.2632)
Neigh time (%) = 0 (0)
Comm  time (%) = 2.41338e-05 (3.96298)
Outpt time (%) = 9.00752e-06 (1.47911)
Other time (%) = 5.66031e-05 (9.29471)

Nlocal:    82 ave 82 max 82 min
Histogram: 1 0 0 0 0 0 0 0 0 0
Nghost:    185 ave 185 max 185 min
Histogram: 1 0 0 0 0 0 0 0 0 0
Neighs:    718 ave 718 max 718 min
Histogram: 1 0 0 0 0 0 0 0 0 0

Total # of neighbors = 718
Ave neighs/atom = 8.7561
Neighbor list builds = 0
Dangerous builds = 0
        # write_dump all atom ${dumpfile}
        next i
jump SELF loop1
        displace_atoms upper move ${xstep1} 0.0 0.0 units lattice
        displace_atoms upper move 0.00333333333333333 0.0 0.0 units lattice
        min_style ${style}
        min_style cg
        minimize ${etol} ${ftol} ${maxiter} ${maxeval}
        minimize 1e-12 ${ftol} ${maxiter} ${maxeval}
        minimize 1e-12 1e-08 ${maxiter} ${maxeval}
        minimize 1e-12 1e-08 10000 ${maxeval}
        minimize 1e-12 1e-08 10000 20000
WARNING: Resetting reneighboring criteria during minimization (../min.cpp:168)
Memory usage per processor = 3.35161 Mbytes
Step Temp PotEng Lx Ly Lz 
      24            0   -241.97202    2.0000005    34.647952    1.0000002 
      25            0   -241.97203    2.0000005    34.647952    1.0000002 
      26            0   -241.97203    2.0000005    34.647952    1.0000002 
      27            0   -241.97203    2.0000005    34.647952    1.0000002 
Loop time of 0.0231691 on 1 procs for 3 steps with 82 atoms

Minimization stats:
  Stopping criterion = linesearch alpha is zero
  Energy initial, next-to-last, final = 
        -241.972023299      -241.97203386      -241.97203386
  Force two-norm initial, final = 0.0353168 0.0220503
  Force max component initial, final = 0.0128506 0.00774809
  Final line search alpha, max atom move = 1.52588e-05 1.18227e-07
  Iterations, force evaluations = 3 34

Pair  time (%) = 0.000585485 (2.52701)
Neigh time (%) = 0 (0)
Comm  time (%) = 4.60765e-05 (0.19887)
Outpt time (%) = 5.21056e-05 (0.224893)
Other time (%) = 0.0224854 (97.0492)

Nlocal:    82 ave 82 max 82 min
Histogram: 1 0 0 0 0 0 0 0 0 0
Nghost:    185 ave 185 max 185 min
Histogram: 1 0 0 0 0 0 0 0 0 0
Neighs:    718 ave 718 max 718 min
Histogram: 1 0 0 0 0 0 0 0 0 0

Total # of neighbors = 718
Ave neighs/atom = 8.7561
Neighbor list builds = 0
Dangerous builds = 0
        # write_dump all atom ${dumpfile}
        next i
jump SELF loop1
        displace_atoms upper move ${xstep1} 0.0 0.0 units lattice
        displace_atoms upper move 0.00333333333333333 0.0 0.0 units lattice
        min_style ${style}
        min_style cg
        minimize ${etol} ${ftol} ${maxiter} ${maxeval}
        minimize 1e-12 ${ftol} ${maxiter} ${maxeval}
        minimize 1e-12 1e-08 ${maxiter} ${maxeval}
        minimize 1e-12 1e-08 10000 ${maxeval}
        minimize 1e-12 1e-08 10000 20000
WARNING: Resetting reneighboring criteria during minimization (../min.cpp:168)
Memory usage per processor = 3.35161 Mbytes
Step Temp PotEng Lx Ly Lz 
      27            0   -241.96795    2.0000005    34.647952    1.0000002 
      28            0   -241.96796    2.0000005    34.647952    1.0000002 
      29            0   -241.96796    2.0000005    34.647952    1.0000002 
Loop time of 0.000616112 on 1 procs for 2 steps with 82 atoms

Minimization stats:
  Stopping criterion = linesearch alpha is zero
  Energy initial, next-to-last, final = 
        -241.967948823      -241.96795941      -241.96795941
  Force two-norm initial, final = 0.0363919 0.0243393
  Force max component initial, final = 0.0147907 0.00976892
  Final line search alpha, max atom move = 1.52588e-05 1.49062e-07
  Iterations, force evaluations = 2 25

Pair  time (%) = 0.000524504 (85.1312)
Neigh time (%) = 0 (0)
Comm  time (%) = 3.34287e-05 (5.42574)
Outpt time (%) = 9.05758e-06 (1.47012)
Other time (%) = 4.91223e-05 (7.97294)

Nlocal:    82 ave 82 max 82 min
Histogram: 1 0 0 0 0 0 0 0 0 0
Nghost:    185 ave 185 max 185 min
Histogram: 1 0 0 0 0 0 0 0 0 0
Neighs:    718 ave 718 max 718 min
Histogram: 1 0 0 0 0 0 0 0 0 0

Total # of neighbors = 718
Ave neighs/atom = 8.7561
Neighbor list builds = 0
Dangerous builds = 0
        # write_dump all atom ${dumpfile}
        next i
jump SELF loop1
        displace_atoms upper move ${xstep1} 0.0 0.0 units lattice
        displace_atoms upper move 0.00333333333333333 0.0 0.0 units lattice
        min_style ${style}
        min_style cg
        minimize ${etol} ${ftol} ${maxiter} ${maxeval}
        minimize 1e-12 ${ftol} ${maxiter} ${maxeval}
        minimize 1e-12 1e-08 ${maxiter} ${maxeval}
        minimize 1e-12 1e-08 10000 ${maxeval}
        minimize 1e-12 1e-08 10000 20000
WARNING: Resetting reneighboring criteria during minimization (../min.cpp:168)
Memory usage per processor = 3.35161 Mbytes
Step Temp PotEng Lx Ly Lz 
      29            0   -241.96366    2.0000005    34.647952    1.0000002 
      30            0   -241.96367    2.0000005    34.647952    1.0000002 
      31            0   -241.96367    2.0000005    34.647952    1.0000002 
Loop time of 0.000660093 on 1 procs for 2 steps with 82 atoms

Minimization stats:
  Stopping criterion = linesearch alpha is zero
  Energy initial, next-to-last, final = 
        -241.963657677     -241.963667893     -241.963667893
  Force two-norm initial, final = 0.0383422 0.0260477
  Force max component initial, final = 0.014912 0.0101676
  Final line search alpha, max atom move = 1.52588e-05 1.55145e-07
  Iterations, force evaluations = 2 25

Pair  time (%) = 0.000547223 (82.9009)
Neigh time (%) = 0 (0)
Comm  time (%) = 3.06874e-05 (4.64895)
Outpt time (%) = 1.81177e-05 (2.74472)
Other time (%) = 6.40651e-05 (9.70546)

Nlocal:    82 ave 82 max 82 min
Histogram: 1 0 0 0 0 0 0 0 0 0
Nghost:    185 ave 185 max 185 min
Histogram: 1 0 0 0 0 0 0 0 0 0
Neighs:    718 ave 718 max 718 min
Histogram: 1 0 0 0 0 0 0 0 0 0

Total # of neighbors = 718
Ave neighs/atom = 8.7561
Neighbor list builds = 0
Dangerous builds = 0
        # write_dump all atom ${dumpfile}
        next i
jump SELF loop1
        displace_atoms upper move ${xstep1} 0.0 0.0 units lattice
        displace_atoms upper move 0.00333333333333333 0.0 0.0 units lattice
        min_style ${style}
        min_style cg
        minimize ${etol} ${ftol} ${maxiter} ${maxeval}
        minimize 1e-12 ${ftol} ${maxiter} ${maxeval}
        minimize 1e-12 1e-08 ${maxiter} ${maxeval}
        minimize 1e-12 1e-08 10000 ${maxeval}
        minimize 1e-12 1e-08 10000 20000
WARNING: Resetting reneighboring criteria during minimization (../min.cpp:168)
Memory usage per processor = 3.35161 Mbytes
Step Temp PotEng Lx Ly Lz 
      31            0   -241.95915    2.0000005    34.647952    1.0000002 
      32            0   -241.95916    2.0000005    34.647952    1.0000002 
      33            0   -241.95916    2.0000005    34.647952    1.0000002 
Loop time of 0.000642027 on 1 procs for 2 steps with 82 atoms

Minimization stats:
  Stopping criterion = linesearch alpha is zero
  Energy initial, next-to-last, final = 
        -241.959153003      -241.95916287      -241.95916287
  Force two-norm initial, final = 0.0426277 0.0285042
  Force max component initial, final = 0.0170448 0.0113121
  Final line search alpha, max atom move = 1.52588e-05 1.72609e-07
  Iterations, force evaluations = 2 25

Pair  time (%) = 0.000440053 (68.5413)
Neigh time (%) = 0 (0)
Comm  time (%) = 0.000135458 (21.0985)
Outpt time (%) = 5.90226e-06 (0.919316)
Other time (%) = 6.06134e-05 (9.44094)

Nlocal:    82 ave 82 max 82 min
Histogram: 1 0 0 0 0 0 0 0 0 0
Nghost:    185 ave 185 max 185 min
Histogram: 1 0 0 0 0 0 0 0 0 0
Neighs:    718 ave 718 max 718 min
Histogram: 1 0 0 0 0 0 0 0 0 0

Total # of neighbors = 718
Ave neighs/atom = 8.7561
Neighbor list builds = 0
Dangerous builds = 0
        # write_dump all atom ${dumpfile}
        next i
jump SELF loop1
        displace_atoms upper move ${xstep1} 0.0 0.0 units lattice
        displace_atoms upper move 0.00333333333333333 0.0 0.0 units lattice
        min_style ${style}
        min_style cg
        minimize ${etol} ${ftol} ${maxiter} ${maxeval}
        minimize 1e-12 ${ftol} ${maxiter} ${maxeval}
        minimize 1e-12 1e-08 ${maxiter} ${maxeval}
        minimize 1e-12 1e-08 10000 ${maxeval}
        minimize 1e-12 1e-08 10000 20000
WARNING: Resetting reneighboring criteria during minimization (../min.cpp:168)
Memory usage per processor = 3.35161 Mbytes
Step Temp PotEng Lx Ly Lz 
      33            0   -241.95444    2.0000005    34.647952    1.0000002 
      34            0   -241.95445    2.0000005    34.647952    1.0000002 
      35            0   -241.95445    2.0000005    34.647952    1.0000002 
Loop time of 0.000643988 on 1 procs for 2 steps with 82 atoms

Minimization stats:
  Stopping criterion = linesearch alpha is zero
  Energy initial, next-to-last, final = 
        -241.954441203     -241.954454656     -241.954454656
  Force two-norm initial, final = 0.046307 0.0419847
  Force max component initial, final = 0.018404 0.013183
  Final line search alpha, max atom move = 3.8147e-06 5.02891e-08
  Iterations, force evaluations = 2 26

Pair  time (%) = 0.000551024 (85.5644)
Neigh time (%) = 0 (0)
Comm  time (%) = 3.06197e-05 (4.7547)
Outpt time (%) = 4.98269e-06 (0.773725)
Other time (%) = 5.73613e-05 (8.90721)

Nlocal:    82 ave 82 max 82 min
Histogram: 1 0 0 0 0 0 0 0 0 0
Nghost:    185 ave 185 max 185 min
Histogram: 1 0 0 0 0 0 0 0 0 0
Neighs:    718 ave 718 max 718 min
Histogram: 1 0 0 0 0 0 0 0 0 0

Total # of neighbors = 718
Ave neighs/atom = 8.7561
Neighbor list builds = 0
Dangerous builds = 0
        # write_dump all atom ${dumpfile}
        next i
jump SELF loop1
        displace_atoms upper move ${xstep1} 0.0 0.0 units lattice
        displace_atoms upper move 0.00333333333333333 0.0 0.0 units lattice
        min_style ${style}
        min_style cg
        minimize ${etol} ${ftol} ${maxiter} ${maxeval}
        minimize 1e-12 ${ftol} ${maxiter} ${maxeval}
        minimize 1e-12 1e-08 ${maxiter} ${maxeval}
        minimize 1e-12 1e-08 10000 ${maxeval}
        minimize 1e-12 1e-08 10000 20000
WARNING: Resetting reneighboring criteria during minimization (../min.cpp:168)
Memory usage per processor = 3.35161 Mbytes
Step Temp PotEng Lx Ly Lz 
      35            0   -241.94953    2.0000005    34.647952    1.0000002 
      36            0   -241.94953    2.0000005    34.647952    1.0000002 
Loop time of 0.000419028 on 1 procs for 1 steps with 82 atoms

Minimization stats:
  Stopping criterion = linesearch alpha is zero
  Energy initial, next-to-last, final = 
        -241.949531481     -241.949531481     -241.949531481
  Force two-norm initial, final = 0.0341116 0.0341116
  Force max component initial, final = 0.013183 0.013183
  Final line search alpha, max atom move = 7.62939e-06 1.00578e-07
  Iterations, force evaluations = 1 18

Pair  time (%) = 0.000323984 (77.3181)
Neigh time (%) = 0 (0)
Comm  time (%) = 5.59316e-05 (13.348)
Outpt time (%) = 0 (0)
Other time (%) = 3.91119e-05 (9.33397)

Nlocal:    82 ave 82 max 82 min
Histogram: 1 0 0 0 0 0 0 0 0 0
Nghost:    185 ave 185 max 185 min
Histogram: 1 0 0 0 0 0 0 0 0 0
Neighs:    718 ave 718 max 718 min
Histogram: 1 0 0 0 0 0 0 0 0 0

Total # of neighbors = 718
Ave neighs/atom = 8.7561
Neighbor list builds = 0
Dangerous builds = 0
        # write_dump all atom ${dumpfile}
        next i
jump SELF loop1
        displace_atoms upper move ${xstep1} 0.0 0.0 units lattice
        displace_atoms upper move 0.00333333333333333 0.0 0.0 units lattice
        min_style ${style}
        min_style cg
        minimize ${etol} ${ftol} ${maxiter} ${maxeval}
        minimize 1e-12 ${ftol} ${maxiter} ${maxeval}
        minimize 1e-12 1e-08 ${maxiter} ${maxeval}
        minimize 1e-12 1e-08 10000 ${maxeval}
        minimize 1e-12 1e-08 10000 20000
WARNING: Resetting reneighboring criteria during minimization (../min.cpp:168)
Memory usage per processor = 3.35161 Mbytes
Step Temp PotEng Lx Ly Lz 
      36            0    -241.9444    2.0000005    34.647952    1.0000002 
      37            0   -241.94442    2.0000005    34.647952    1.0000002 
      38            0   -241.94442    2.0000005    34.647952    1.0000002 
      39            0   -241.94443    2.0000005    34.647952    1.0000002 
      40            0   -241.94443    2.0000005    34.647952    1.0000002 
Loop time of 0.000945102 on 1 procs for 4 steps with 82 atoms

Minimization stats:
  Stopping criterion = linesearch alpha is zero
  Energy initial, next-to-last, final = 
        -241.944395968     -241.944429461     -241.944429461
  Force two-norm initial, final = 0.056839 0.0240969
  Force max component initial, final = 0.0231467 0.00694934
  Final line search alpha, max atom move = 1.52588e-05 1.06039e-07
  Iterations, force evaluations = 4 40

Pair  time (%) = 0.000798046 (84.4402)
Neigh time (%) = 0 (0)
Comm  time (%) = 4.88212e-05 (5.16571)
Outpt time (%) = 1.79791e-05 (1.90234)
Other time (%) = 8.02556e-05 (8.49174)

Nlocal:    82 ave 82 max 82 min
Histogram: 1 0 0 0 0 0 0 0 0 0
Nghost:    185 ave 185 max 185 min
Histogram: 1 0 0 0 0 0 0 0 0 0
Neighs:    718 ave 718 max 718 min
Histogram: 1 0 0 0 0 0 0 0 0 0

Total # of neighbors = 718
Ave neighs/atom = 8.7561
Neighbor list builds = 0
Dangerous builds = 0
        # write_dump all atom ${dumpfile}
        next i
jump SELF loop1
        displace_atoms upper move ${xstep1} 0.0 0.0 units lattice
        displace_atoms upper move 0.00333333333333333 0.0 0.0 units lattice
        min_style ${style}
        min_style cg
        minimize ${etol} ${ftol} ${maxiter} ${maxeval}
        minimize 1e-12 ${ftol} ${maxiter} ${maxeval}
        minimize 1e-12 1e-08 ${maxiter} ${maxeval}
        minimize 1e-12 1e-08 10000 ${maxeval}
        minimize 1e-12 1e-08 10000 20000
WARNING: Resetting reneighboring criteria during minimization (../min.cpp:168)
Memory usage per processor = 3.35161 Mbytes
Step Temp PotEng Lx Ly Lz 
      40            0    -241.9391    2.0000005    34.647952    1.0000002 
      41            0   -241.93911    2.0000005    34.647952    1.0000002 
      42            0   -241.93911    2.0000005    34.647952    1.0000002 
Loop time of 0.000651086 on 1 procs for 2 steps with 82 atoms

Minimization stats:
  Stopping criterion = linesearch alpha is zero
  Energy initial, next-to-last, final = 
        -241.939101503     -241.939114709     -241.939114709
  Force two-norm initial, final = 0.0473199 0.0300955
  Force max component initial, final = 0.0203644 0.0112317
  Final line search alpha, max atom move = 7.62939e-06 8.56908e-08
  Iterations, force evaluations = 2 26

Pair  time (%) = 0.00055707 (85.5602)
Neigh time (%) = 0 (0)
Comm  time (%) = 3.41815e-05 (5.24993)
Outpt time (%) = 4.90784e-06 (0.753793)
Other time (%) = 5.49263e-05 (8.4361)

Nlocal:    82 ave 82 max 82 min
Histogram: 1 0 0 0 0 0 0 0 0 0
Nghost:    185 ave 185 max 185 min
Histogram: 1 0 0 0 0 0 0 0 0 0
Neighs:    718 ave 718 max 718 min
Histogram: 1 0 0 0 0 0 0 0 0 0

Total # of neighbors = 718
Ave neighs/atom = 8.7561
Neighbor list builds = 0
Dangerous builds = 0
        # write_dump all atom ${dumpfile}
        next i
jump SELF loop1
        displace_atoms upper move ${xstep1} 0.0 0.0 units lattice
        displace_atoms upper move 0.00333333333333333 0.0 0.0 units lattice
        min_style ${style}
        min_style cg
        minimize ${etol} ${ftol} ${maxiter} ${maxeval}
        minimize 1e-12 ${ftol} ${maxiter} ${maxeval}
        minimize 1e-12 1e-08 ${maxiter} ${maxeval}
        minimize 1e-12 1e-08 10000 ${maxeval}
        minimize 1e-12 1e-08 10000 20000
WARNING: Resetting reneighboring criteria during minimization (../min.cpp:168)
Memory usage per processor = 3.35161 Mbytes
Step Temp PotEng Lx Ly Lz 
      42            0    -241.9336    2.0000005    34.647952    1.0000002 
      43            0    -241.9336    2.0000005    34.647952    1.0000002 
      44            0   -241.93362    2.0000005    34.647952    1.0000002 
      45            0   -241.93362    2.0000005    34.647952    1.0000002 
      46            0   -241.93362    2.0000005    34.647952    1.0000002 
Loop time of 0.0251949 on 1 procs for 4 steps with 82 atoms

Minimization stats:
  Stopping criterion = linesearch alpha is zero
  Energy initial, next-to-last, final = 
        -241.933595097     -241.933624486     -241.933624486
  Force two-norm initial, final = 0.0532668 0.0499363
  Force max component initial, final = 0.0219833 0.0202238
  Final line search alpha, max atom move = 3.8147e-06 7.71478e-08
  Iterations, force evaluations = 4 44

Pair  time (%) = 0.000883093 (3.50505)
Neigh time (%) = 0 (0)
Comm  time (%) = 6.34292e-05 (0.251754)
Outpt time (%) = 0.024119 (95.7297)
Other time (%) = 0.000129387 (0.513545)

Nlocal:    82 ave 82 max 82 min
Histogram: 1 0 0 0 0 0 0 0 0 0
Nghost:    185 ave 185 max 185 min
Histogram: 1 0 0 0 0 0 0 0 0 0
Neighs:    718 ave 718 max 718 min
Histogram: 1 0 0 0 0 0 0 0 0 0

Total # of neighbors = 718
Ave neighs/atom = 8.7561
Neighbor list builds = 0
Dangerous builds = 0
        # write_dump all atom ${dumpfile}
        next i
jump SELF loop1
        displace_atoms upper move ${xstep1} 0.0 0.0 units lattice
        displace_atoms upper move 0.00333333333333333 0.0 0.0 units lattice
        min_style ${style}
        min_style cg
        minimize ${etol} ${ftol} ${maxiter} ${maxeval}
        minimize 1e-12 ${ftol} ${maxiter} ${maxeval}
        minimize 1e-12 1e-08 ${maxiter} ${maxeval}
        minimize 1e-12 1e-08 10000 ${maxeval}
        minimize 1e-12 1e-08 10000 20000
WARNING: Resetting reneighboring criteria during minimization (../min.cpp:168)
Memory usage per processor = 3.35161 Mbytes
Step Temp PotEng Lx Ly Lz 
      46            0   -241.92794    2.0000005    34.647952    1.0000002 
      47            0   -241.92794    2.0000005    34.647952    1.0000002 
Loop time of 0.000477061 on 1 procs for 1 steps with 82 atoms

Minimization stats:
  Stopping criterion = linesearch alpha is zero
  Energy initial, next-to-last, final = 
        -241.927939666     -241.927939666     -241.927939666
  Force two-norm initial, final = 0.0296368 0.0296368
  Force max component initial, final = 0.0116462 0.0116462
  Final line search alpha, max atom move = 7.62939e-06 8.88532e-08
  Iterations, force evaluations = 1 18

Pair  time (%) = 0.000414283 (86.8408)
Neigh time (%) = 0 (0)
Comm  time (%) = 2.46461e-05 (5.16623)
Outpt time (%) = 0 (0)
Other time (%) = 3.81313e-05 (7.99296)

Nlocal:    82 ave 82 max 82 min
Histogram: 1 0 0 0 0 0 0 0 0 0
Nghost:    185 ave 185 max 185 min
Histogram: 1 0 0 0 0 0 0 0 0 0
Neighs:    718 ave 718 max 718 min
Histogram: 1 0 0 0 0 0 0 0 0 0

Total # of neighbors = 718
Ave neighs/atom = 8.7561
Neighbor list builds = 0
Dangerous builds = 0
        # write_dump all atom ${dumpfile}
        next i
jump SELF loop1
        displace_atoms upper move ${xstep1} 0.0 0.0 units lattice
        displace_atoms upper move 0.00333333333333333 0.0 0.0 units lattice
        min_style ${style}
        min_style cg
        minimize ${etol} ${ftol} ${maxiter} ${maxeval}
        minimize 1e-12 ${ftol} ${maxiter} ${maxeval}
        minimize 1e-12 1e-08 ${maxiter} ${maxeval}
        minimize 1e-12 1e-08 10000 ${maxeval}
        minimize 1e-12 1e-08 10000 20000
WARNING: Resetting reneighboring criteria during minimization (../min.cpp:168)
Memory usage per processor = 3.35161 Mbytes
Step Temp PotEng Lx Ly Lz 
      47            0   -241.92205    2.0000005    34.647952    1.0000002 
      48            0   -241.92206    2.0000005    34.647952    1.0000002 
      49            0   -241.92206    2.0000005    34.647952    1.0000002 
Loop time of 0.000711047 on 1 procs for 2 steps with 82 atoms

Minimization stats:
  Stopping criterion = linesearch alpha is zero
  Energy initial, next-to-last, final = 
        -241.922053346     -241.922057656     -241.922057656
  Force two-norm initial, final = 0.0599501 0.0480976
  Force max component initial, final = 0.0261553 0.0192073
  Final line search alpha, max atom move = 3.8147e-06 7.327e-08
  Iterations, force evaluations = 2 29

Pair  time (%) = 0.000528087 (74.269)
Neigh time (%) = 0 (0)
Comm  time (%) = 0.000122651 (17.2494)
Outpt time (%) = 5.99993e-06 (0.843817)
Other time (%) = 5.43079e-05 (7.63774)

Nlocal:    82 ave 82 max 82 min
Histogram: 1 0 0 0 0 0 0 0 0 0
Nghost:    185 ave 185 max 185 min
Histogram: 1 0 0 0 0 0 0 0 0 0
Neighs:    718 ave 718 max 718 min
Histogram: 1 0 0 0 0 0 0 0 0 0

Total # of neighbors = 718
Ave neighs/atom = 8.7561
Neighbor list builds = 0
Dangerous builds = 0
        # write_dump all atom ${dumpfile}
        next i
jump SELF loop1
        displace_atoms upper move ${xstep1} 0.0 0.0 units lattice
        displace_atoms upper move 0.00333333333333333 0.0 0.0 units lattice
        min_style ${style}
        min_style cg
        minimize ${etol} ${ftol} ${maxiter} ${maxeval}
        minimize 1e-12 ${ftol} ${maxiter} ${maxeval}
        minimize 1e-12 1e-08 ${maxiter} ${maxeval}
        minimize 1e-12 1e-08 10000 ${maxeval}
        minimize 1e-12 1e-08 10000 20000
WARNING: Resetting reneighboring criteria during minimization (../min.cpp:168)
Memory usage per processor = 3.35161 Mbytes
Step Temp PotEng Lx Ly Lz 
      49            0   -241.91598    2.0000005    34.647952    1.0000002 
      50            0   -241.91598    2.0000005    34.647952    1.0000002 
Loop time of 0.000525045 on 1 procs for 1 steps with 82 atoms

Minimization stats:
  Stopping criterion = linesearch alpha is zero
  Energy initial, next-to-last, final = 
         -241.91597592      -241.91597592      -241.91597592
  Force two-norm initial, final = 0.0934487 0.0934487
  Force max component initial, final = 0.0444268 0.0444268
  Final line search alpha, max atom move = 9.53674e-07 4.23687e-08
  Iterations, force evaluations = 1 21

Pair  time (%) = 0.00045344 (86.3622)
Neigh time (%) = 0 (0)
Comm  time (%) = 2.74822e-05 (5.23425)
Outpt time (%) = 0 (0)
Other time (%) = 4.41221e-05 (8.4035)

Nlocal:    82 ave 82 max 82 min
Histogram: 1 0 0 0 0 0 0 0 0 0
Nghost:    185 ave 185 max 185 min
Histogram: 1 0 0 0 0 0 0 0 0 0
Neighs:    718 ave 718 max 718 min
Histogram: 1 0 0 0 0 0 0 0 0 0

Total # of neighbors = 718
Ave neighs/atom = 8.7561
Neighbor list builds = 0
Dangerous builds = 0
        # write_dump all atom ${dumpfile}
        next i
jump SELF loop1
        displace_atoms upper move ${xstep1} 0.0 0.0 units lattice
        displace_atoms upper move 0.00333333333333333 0.0 0.0 units lattice
        min_style ${style}
        min_style cg
        minimize ${etol} ${ftol} ${maxiter} ${maxeval}
        minimize 1e-12 ${ftol} ${maxiter} ${maxeval}
        minimize 1e-12 1e-08 ${maxiter} ${maxeval}
        minimize 1e-12 1e-08 10000 ${maxeval}
        minimize 1e-12 1e-08 10000 20000
WARNING: Resetting reneighboring criteria during minimization (../min.cpp:168)
Memory usage per processor = 3.35161 Mbytes
Step Temp PotEng Lx Ly Lz 
      50            0    -241.9097    2.0000005    34.647952    1.0000002 
      51            0   -241.90974    2.0000005    34.647952    1.0000002 
      52            0   -241.90979    2.0000005    34.647952    1.0000002 
      53            0   -241.90982    2.0000005    34.647952    1.0000002 
      54            0   -241.90985    2.0000005    34.647952    1.0000002 
      55            0   -241.90986    2.0000005    34.647952    1.0000002 
      56            0   -241.90986    2.0000005    34.647952    1.0000002 
Loop time of 0.00133611 on 1 procs for 6 steps with 82 atoms

Minimization stats:
  Stopping criterion = linesearch alpha is zero
  Energy initial, next-to-last, final = 
        -241.909696592     -241.909861466     -241.909861466
  Force two-norm initial, final = 0.144912 0.0351897
  Force max component initial, final = 0.0709961 0.0104692
  Final line search alpha, max atom move = 7.62939e-06 7.98737e-08
  Iterations, force evaluations = 6 56

Pair  time (%) = 0.00112564 (84.2477)
Neigh time (%) = 0 (0)
Comm  time (%) = 7.18737e-05 (5.37933)
Outpt time (%) = 3.01418e-05 (2.25594)
Other time (%) = 0.000108453 (8.11705)

Nlocal:    82 ave 82 max 82 min
Histogram: 1 0 0 0 0 0 0 0 0 0
Nghost:    185 ave 185 max 185 min
Histogram: 1 0 0 0 0 0 0 0 0 0
Neighs:    718 ave 718 max 718 min
Histogram: 1 0 0 0 0 0 0 0 0 0

Total # of neighbors = 718
Ave neighs/atom = 8.7561
Neighbor list builds = 0
Dangerous builds = 0
        # write_dump all atom ${dumpfile}
        next i
jump SELF loop1
        displace_atoms upper move ${xstep1} 0.0 0.0 units lattice
        displace_atoms upper move 0.00333333333333333 0.0 0.0 units lattice
        min_style ${style}
        min_style cg
        minimize ${etol} ${ftol} ${maxiter} ${maxeval}
        minimize 1e-12 ${ftol} ${maxiter} ${maxeval}
        minimize 1e-12 1e-08 ${maxiter} ${maxeval}
        minimize 1e-12 1e-08 10000 ${maxeval}
        minimize 1e-12 1e-08 10000 20000
WARNING: Resetting reneighboring criteria during minimization (../min.cpp:168)
Memory usage per processor = 3.35161 Mbytes
Step Temp PotEng Lx Ly Lz 
      56            0   -241.90348    2.0000005    34.647952    1.0000002 
      57            0   -241.90351    2.0000005    34.647952    1.0000002 
      58            0   -241.90353    2.0000005    34.647952    1.0000002 
      59            0   -241.90354    2.0000005    34.647952    1.0000002 
      60            0   -241.90354    2.0000005    34.647952    1.0000002 
Loop time of 0.00135902 on 1 procs for 4 steps with 82 atoms

Minimization stats:
  Stopping criterion = linesearch alpha is zero
  Energy initial, next-to-last, final = 
        -241.903482568     -241.903540437     -241.903540437
  Force two-norm initial, final = 0.0897474 0.0273525
  Force max component initial, final = 0.0418172 0.0102403
  Final line search alpha, max atom move = 7.62939e-06 7.81275e-08
  Iterations, force evaluations = 4 40

Pair  time (%) = 0.001212 (89.1823)
Neigh time (%) = 0 (0)
Comm  time (%) = 4.7316e-05 (3.48163)
Outpt time (%) = 1.60561e-05 (1.18145)
Other time (%) = 8.3642e-05 (6.1546)

Nlocal:    82 ave 82 max 82 min
Histogram: 1 0 0 0 0 0 0 0 0 0
Nghost:    185 ave 185 max 185 min
Histogram: 1 0 0 0 0 0 0 0 0 0
Neighs:    718 ave 718 max 718 min
Histogram: 1 0 0 0 0 0 0 0 0 0

Total # of neighbors = 718
Ave neighs/atom = 8.7561
Neighbor list builds = 0
Dangerous builds = 0
        # write_dump all atom ${dumpfile}
        next i
jump SELF loop1
        displace_atoms upper move ${xstep1} 0.0 0.0 units lattice
        displace_atoms upper move 0.00333333333333333 0.0 0.0 units lattice
        min_style ${style}
        min_style cg
        minimize ${etol} ${ftol} ${maxiter} ${maxeval}
        minimize 1e-12 ${ftol} ${maxiter} ${maxeval}
        minimize 1e-12 1e-08 ${maxiter} ${maxeval}
        minimize 1e-12 1e-08 10000 ${maxeval}
        minimize 1e-12 1e-08 10000 20000
WARNING: Resetting reneighboring criteria during minimization (../min.cpp:168)
Memory usage per processor = 3.35161 Mbytes
Step Temp PotEng Lx Ly Lz 
      60            0   -241.89709    2.0000005    34.647952    1.0000002 
      61            0   -241.89709    2.0000005    34.647952    1.0000002 
      62            0   -241.89709    2.0000005    34.647952    1.0000002 
Loop time of 0.000478913 on 1 procs for 2 steps with 82 atoms

Minimization stats:
  Stopping criterion = linesearch alpha is zero
  Energy initial, next-to-last, final = 
        -241.897089577     -241.897091977     -241.897091977
  Force two-norm initial, final = 0.0721596 0.0640832
  Force max component initial, final = 0.0336832 0.0294098
  Final line search alpha, max atom move = 1.90735e-06 5.60947e-08
  Iterations, force evaluations = 2 31

Pair  time (%) = 0.000386013 (80.6018)
Neigh time (%) = 0 (0)
Comm  time (%) = 3.5405e-05 (7.39279)
Outpt time (%) = 7.9649e-06 (1.66312)
Other time (%) = 4.95304e-05 (10.3422)

Nlocal:    82 ave 82 max 82 min
Histogram: 1 0 0 0 0 0 0 0 0 0
Nghost:    185 ave 185 max 185 min
Histogram: 1 0 0 0 0 0 0 0 0 0
Neighs:    718 ave 718 max 718 min
Histogram: 1 0 0 0 0 0 0 0 0 0

Total # of neighbors = 718
Ave neighs/atom = 8.7561
Neighbor list builds = 0
Dangerous builds = 0
        # write_dump all atom ${dumpfile}
        next i
jump SELF loop1
        displace_atoms upper move ${xstep1} 0.0 0.0 units lattice
        displace_atoms upper move 0.00333333333333333 0.0 0.0 units lattice
        min_style ${style}
        min_style cg
        minimize ${etol} ${ftol} ${maxiter} ${maxeval}
        minimize 1e-12 ${ftol} ${maxiter} ${maxeval}
        minimize 1e-12 1e-08 ${maxiter} ${maxeval}
        minimize 1e-12 1e-08 10000 ${maxeval}
        minimize 1e-12 1e-08 10000 20000
WARNING: Resetting reneighboring criteria during minimization (../min.cpp:168)
Memory usage per processor = 3.35161 Mbytes
Step Temp PotEng Lx Ly Lz 
      62            0    -241.8905    2.0000005    34.647952    1.0000002 
      63            0   -241.89057    2.0000005    34.647952    1.0000002 
      64            0   -241.89059    2.0000005    34.647952    1.0000002 
      65            0   -241.89062    2.0000005    34.647952    1.0000002 
      66            0   -241.89065    2.0000005    34.647952    1.0000002 
      67            0   -241.89065    2.0000005    34.647952    1.0000002 
      68            0   -241.89068    2.0000005    34.647952    1.0000002 
      69            0   -241.89068    2.0000005    34.647952    1.0000002 
Loop time of 0.00143395 on 1 procs for 7 steps with 82 atoms

Minimization stats:
  Stopping criterion = linesearch alpha is zero
  Energy initial, next-to-last, final = 
        -241.890504984     -241.890676483     -241.890676483
  Force two-norm initial, final = 0.138917 0.0281658
  Force max component initial, final = 0.0682845 0.00936234
  Final line search alpha, max atom move = 1.52588e-05 1.42858e-07
  Iterations, force evaluations = 7 63

Pair  time (%) = 0.00116894 (81.5194)
Neigh time (%) = 0 (0)
Comm  time (%) = 7.20022e-05 (5.02126)
Outpt time (%) = 2.80687e-05 (1.95744)
Other time (%) = 0.000164931 (11.5019)

Nlocal:    82 ave 82 max 82 min
Histogram: 1 0 0 0 0 0 0 0 0 0
Nghost:    185 ave 185 max 185 min
Histogram: 1 0 0 0 0 0 0 0 0 0
Neighs:    718 ave 718 max 718 min
Histogram: 1 0 0 0 0 0 0 0 0 0

Total # of neighbors = 718
Ave neighs/atom = 8.7561
Neighbor list builds = 0
Dangerous builds = 0
        # write_dump all atom ${dumpfile}
        next i
jump SELF loop1
        displace_atoms upper move ${xstep1} 0.0 0.0 units lattice
        displace_atoms upper move 0.00333333333333333 0.0 0.0 units lattice
        min_style ${style}
        min_style cg
        minimize ${etol} ${ftol} ${maxiter} ${maxeval}
        minimize 1e-12 ${ftol} ${maxiter} ${maxeval}
        minimize 1e-12 1e-08 ${maxiter} ${maxeval}
        minimize 1e-12 1e-08 10000 ${maxeval}
        minimize 1e-12 1e-08 10000 20000
WARNING: Resetting reneighboring criteria during minimization (../min.cpp:168)
Memory usage per processor = 3.35161 Mbytes
Step Temp PotEng Lx Ly Lz 
      69            0   -241.88408    2.0000005    34.647954    1.0000002 
      70            0   -241.88409    2.0000005    34.647954    1.0000002 
      71            0    -241.8841    2.0000005    34.647954    1.0000002 
      72            0   -241.88411    2.0000005    34.647954    1.0000002 
      73            0   -241.88413    2.0000005    34.647954    1.0000002 
      74            0   -241.88414    2.0000005    34.647954    1.0000002 
      75            0   -241.88414    2.0000005    34.647954    1.0000002 
      76            0   -241.88414    2.0000005    34.647954    1.0000002 
      77            0   -241.88414    2.0000005    34.647954    1.0000002 
Loop time of 0.00138105 on 1 procs for 8 steps with 82 atoms

Minimization stats:
  Stopping criterion = linesearch alpha is zero
  Energy initial, next-to-last, final = 
        -241.884078129     -241.884143212     -241.884143212
  Force two-norm initial, final = 0.0807214 0.021565
  Force max component initial, final = 0.0378323 0.00649413
  Final line search alpha, max atom move = 1.52588e-05 9.90926e-08
  Iterations, force evaluations = 8 79

Pair  time (%) = 0.00116959 (84.6885)
Neigh time (%) = 0 (0)
Comm  time (%) = 7.17167e-05 (5.1929)
Outpt time (%) = 2.71542e-05 (1.9662)
Other time (%) = 0.000112589 (8.15243)

Nlocal:    82 ave 82 max 82 min
Histogram: 1 0 0 0 0 0 0 0 0 0
Nghost:    185 ave 185 max 185 min
Histogram: 1 0 0 0 0 0 0 0 0 0
Neighs:    718 ave 718 max 718 min
Histogram: 1 0 0 0 0 0 0 0 0 0

Total # of neighbors = 718
Ave neighs/atom = 8.7561
Neighbor list builds = 0
Dangerous builds = 0
        # write_dump all atom ${dumpfile}
        next i
jump SELF loop1
        displace_atoms upper move ${xstep1} 0.0 0.0 units lattice
        displace_atoms upper move 0.00333333333333333 0.0 0.0 units lattice
        min_style ${style}
        min_style cg
        minimize ${etol} ${ftol} ${maxiter} ${maxeval}
        minimize 1e-12 ${ftol} ${maxiter} ${maxeval}
        minimize 1e-12 1e-08 ${maxiter} ${maxeval}
        minimize 1e-12 1e-08 10000 ${maxeval}
        minimize 1e-12 1e-08 10000 20000
WARNING: Resetting reneighboring criteria during minimization (../min.cpp:168)
Memory usage per processor = 3.35161 Mbytes
Step Temp PotEng Lx Ly Lz 
      77            0   -241.87748    2.0000005    34.647963    1.0000002 
      78            0   -241.87749    2.0000005    34.647963    1.0000002 
      79            0    -241.8775    2.0000005    34.647963    1.0000002 
      80            0    -241.8775    2.0000005    34.647963    1.0000002 
Loop time of 0.00147797 on 1 procs for 3 steps with 82 atoms

Minimization stats:
  Stopping criterion = linesearch alpha is zero
  Energy initial, next-to-last, final = 
        -241.877481125     -241.877497474     -241.877497474
  Force two-norm initial, final = 0.074298 0.0319989
  Force max component initial, final = 0.0356858 0.00963705
  Final line search alpha, max atom move = 7.62939e-06 7.35249e-08
  Iterations, force evaluations = 3 36

Pair  time (%) = 0.00122596 (82.9494)
Neigh time (%) = 0 (0)
Comm  time (%) = 0.000103531 (7.005)
Outpt time (%) = 1.48799e-05 (1.00678)
Other time (%) = 0.00013359 (9.03881)

Nlocal:    82 ave 82 max 82 min
Histogram: 1 0 0 0 0 0 0 0 0 0
Nghost:    185 ave 185 max 185 min
Histogram: 1 0 0 0 0 0 0 0 0 0
Neighs:    718 ave 718 max 718 min
Histogram: 1 0 0 0 0 0 0 0 0 0

Total # of neighbors = 718
Ave neighs/atom = 8.7561
Neighbor list builds = 0
Dangerous builds = 0
        # write_dump all atom ${dumpfile}
        next i
jump SELF loop1
        displace_atoms upper move ${xstep1} 0.0 0.0 units lattice
        displace_atoms upper move 0.00333333333333333 0.0 0.0 units lattice
        min_style ${style}
        min_style cg
        minimize ${etol} ${ftol} ${maxiter} ${maxeval}
        minimize 1e-12 ${ftol} ${maxiter} ${maxeval}
        minimize 1e-12 1e-08 ${maxiter} ${maxeval}
        minimize 1e-12 1e-08 10000 ${maxeval}
        minimize 1e-12 1e-08 10000 20000
WARNING: Resetting reneighboring criteria during minimization (../min.cpp:168)
Memory usage per processor = 3.35161 Mbytes
Step Temp PotEng Lx Ly Lz 
      80            0   -241.87073    2.0000005    34.647964    1.0000002 
      81            0   -241.87077    2.0000005    34.647964    1.0000002 
      82            0   -241.87077    2.0000005    34.647964    1.0000002 
Loop time of 0.000574937 on 1 procs for 2 steps with 82 atoms

Minimization stats:
  Stopping criterion = linesearch alpha is zero
  Energy initial, next-to-last, final = 
        -241.870733068     -241.870770283     -241.870770283
  Force two-norm initial, final = 0.101119 0.0471551
  Force max component initial, final = 0.0489196 0.0210926
  Final line search alpha, max atom move = 3.8147e-06 8.0462e-08
  Iterations, force evaluations = 2 27

Pair  time (%) = 0.000486047 (84.5393)
Neigh time (%) = 0 (0)
Comm  time (%) = 3.80398e-05 (6.61634)
Outpt time (%) = 6.03136e-06 (1.04905)
Other time (%) = 4.48182e-05 (7.79532)

Nlocal:    82 ave 82 max 82 min
Histogram: 1 0 0 0 0 0 0 0 0 0
Nghost:    185 ave 185 max 185 min
Histogram: 1 0 0 0 0 0 0 0 0 0
Neighs:    718 ave 718 max 718 min
Histogram: 1 0 0 0 0 0 0 0 0 0

Total # of neighbors = 718
Ave neighs/atom = 8.7561
Neighbor list builds = 0
Dangerous builds = 0
        # write_dump all atom ${dumpfile}
        next i
jump SELF loop1
        displace_atoms upper move ${xstep1} 0.0 0.0 units lattice
        displace_atoms upper move 0.00333333333333333 0.0 0.0 units lattice
        min_style ${style}
        min_style cg
        minimize ${etol} ${ftol} ${maxiter} ${maxeval}
        minimize 1e-12 ${ftol} ${maxiter} ${maxeval}
        minimize 1e-12 1e-08 ${maxiter} ${maxeval}
        minimize 1e-12 1e-08 10000 ${maxeval}
        minimize 1e-12 1e-08 10000 20000
WARNING: Resetting reneighboring criteria during minimization (../min.cpp:168)
Memory usage per processor = 3.35161 Mbytes
Step Temp PotEng Lx Ly Lz 
      82            0   -241.86393    2.0000005    34.647966    1.0000002 
      83            0   -241.86398    2.0000005    34.647966    1.0000002 
      84            0     -241.864    2.0000005    34.647966    1.0000002 
      85            0   -241.86404    2.0000005    34.647966    1.0000002 
      86            0   -241.86404    2.0000005    34.647966    1.0000002 
Loop time of 0.000994931 on 1 procs for 4 steps with 82 atoms

Minimization stats:
  Stopping criterion = linesearch alpha is zero
  Energy initial, next-to-last, final = 
        -241.863932979     -241.864035028     -241.864035028
  Force two-norm initial, final = 0.0931597 0.0893495
  Force max component initial, final = 0.040177 0.0286795
  Final line search alpha, max atom move = 1.90735e-06 5.47018e-08
  Iterations, force evaluations = 4 41

Pair  time (%) = 0.000799573 (80.3647)
Neigh time (%) = 0 (0)
Comm  time (%) = 9.65466e-05 (9.70385)
Outpt time (%) = 1.77864e-05 (1.7877)
Other time (%) = 8.10248e-05 (8.14376)

Nlocal:    82 ave 82 max 82 min
Histogram: 1 0 0 0 0 0 0 0 0 0
Nghost:    185 ave 185 max 185 min
Histogram: 1 0 0 0 0 0 0 0 0 0
Neighs:    718 ave 718 max 718 min
Histogram: 1 0 0 0 0 0 0 0 0 0

Total # of neighbors = 718
Ave neighs/atom = 8.7561
Neighbor list builds = 0
Dangerous builds = 0
        # write_dump all atom ${dumpfile}
        next i
jump SELF loop1
        displace_atoms upper move ${xstep1} 0.0 0.0 units lattice
        displace_atoms upper move 0.00333333333333333 0.0 0.0 units lattice
        min_style ${style}
        min_style cg
        minimize ${etol} ${ftol} ${maxiter} ${maxeval}
        minimize 1e-12 ${ftol} ${maxiter} ${maxeval}
        minimize 1e-12 1e-08 ${maxiter} ${maxeval}
        minimize 1e-12 1e-08 10000 ${maxeval}
        minimize 1e-12 1e-08 10000 20000
WARNING: Resetting reneighboring criteria during minimization (../min.cpp:168)
Memory usage per processor = 3.35161 Mbytes
Step Temp PotEng Lx Ly Lz 
      86            0   -241.85718    2.0000005    34.647983    1.0000002 
      87            0   -241.85718    2.0000005    34.647983    1.0000002 
      88            0   -241.85718    2.0000005    34.647983    1.0000002 
Loop time of 0.000814026 on 1 procs for 2 steps with 82 atoms

Minimization stats:
  Stopping criterion = linesearch alpha is zero
  Energy initial, next-to-last, final = 
        -241.857184235     -241.857184517     -241.857184517
  Force two-norm initial, final = 0.071744 0.0709022
  Force max component initial, final = 0.0268037 0.0264881
  Final line search alpha, max atom move = 1.90735e-06 5.0522e-08
  Iterations, force evaluations = 2 34

Pair  time (%) = 0.000702664 (86.3197)
Neigh time (%) = 0 (0)
Comm  time (%) = 4.40414e-05 (5.41032)
Outpt time (%) = 8.1131e-06 (0.996664)
Other time (%) = 5.92067e-05 (7.27332)

Nlocal:    82 ave 82 max 82 min
Histogram: 1 0 0 0 0 0 0 0 0 0
Nghost:    185 ave 185 max 185 min
Histogram: 1 0 0 0 0 0 0 0 0 0
Neighs:    718 ave 718 max 718 min
Histogram: 1 0 0 0 0 0 0 0 0 0

Total # of neighbors = 718
Ave neighs/atom = 8.7561
Neighbor list builds = 0
Dangerous builds = 0
        # write_dump all atom ${dumpfile}
        next i
jump SELF loop1
        displace_atoms upper move ${xstep1} 0.0 0.0 units lattice
        displace_atoms upper move 0.00333333333333333 0.0 0.0 units lattice
        min_style ${style}
        min_style cg
        minimize ${etol} ${ftol} ${maxiter} ${maxeval}
        minimize 1e-12 ${ftol} ${maxiter} ${maxeval}
        minimize 1e-12 1e-08 ${maxiter} ${maxeval}
        minimize 1e-12 1e-08 10000 ${maxeval}
        minimize 1e-12 1e-08 10000 20000
WARNING: Resetting reneighboring criteria during minimization (../min.cpp:168)
Memory usage per processor = 3.35161 Mbytes
Step Temp PotEng Lx Ly Lz 
      88            0   -241.85021    2.0000005    34.647983    1.0000002 
      89            0   -241.85028    2.0000005    34.647983    1.0000002 
      90            0   -241.85029    2.0000005    34.647983    1.0000002 
      91            0   -241.85032    2.0000005    34.647983    1.0000002 
      92            0   -241.85035    2.0000005    34.647983    1.0000002 
      93            0   -241.85041    2.0000005    34.647983    1.0000002 
      94            0   -241.85045    2.0000005    34.647983    1.0000002 
      95            0   -241.85048    2.0000005    34.647983    1.0000002 
      96            0   -241.85052    2.0000005    34.647983    1.0000002 
      97            0   -241.85053    2.0000005    34.647983    1.0000002 
      98            0   -241.85053    2.0000005    34.647983    1.0000002 
Loop time of 0.00249402 on 1 procs for 10 steps with 82 atoms

Minimization stats:
  Stopping criterion = linesearch alpha is zero
  Energy initial, next-to-last, final = 
        -241.850205491     -241.850525939     -241.850525939
  Force two-norm initial, final = 0.121829 0.0238865
  Force max component initial, final = 0.0506636 0.0069948
  Final line search alpha, max atom move = 1.52588e-05 1.06732e-07
  Iterations, force evaluations = 10 83

Pair  time (%) = 0.00189701 (76.0624)
Neigh time (%) = 0 (0)
Comm  time (%) = 0.000194856 (7.81293)
Outpt time (%) = 6.34218e-05 (2.54296)
Other time (%) = 0.000338731 (13.5817)

Nlocal:    82 ave 82 max 82 min
Histogram: 1 0 0 0 0 0 0 0 0 0
Nghost:    185 ave 185 max 185 min
Histogram: 1 0 0 0 0 0 0 0 0 0
Neighs:    718 ave 718 max 718 min
Histogram: 1 0 0 0 0 0 0 0 0 0

Total # of neighbors = 718
Ave neighs/atom = 8.7561
Neighbor list builds = 0
Dangerous builds = 0
        # write_dump all atom ${dumpfile}
        next i
jump SELF loop1
        displace_atoms upper move ${xstep1} 0.0 0.0 units lattice
        displace_atoms upper move 0.00333333333333333 0.0 0.0 units lattice
        min_style ${style}
        min_style cg
        minimize ${etol} ${ftol} ${maxiter} ${maxeval}
        minimize 1e-12 ${ftol} ${maxiter} ${maxeval}
        minimize 1e-12 1e-08 ${maxiter} ${maxeval}
        minimize 1e-12 1e-08 10000 ${maxeval}
        minimize 1e-12 1e-08 10000 20000
WARNING: Resetting reneighboring criteria during minimization (../min.cpp:168)
Memory usage per processor = 3.35161 Mbytes
Step Temp PotEng Lx Ly Lz 
      98            0   -241.84356    2.0000005    34.648183    1.0000002 
      99            0   -241.84358    2.0000005    34.648183    1.0000002 
     100            0   -241.84358    2.0000005    34.648183    1.0000002 
     101            0   -241.84358    2.0000005    34.648183    1.0000002 
Loop time of 0.000923891 on 1 procs for 3 steps with 82 atoms

Minimization stats:
  Stopping criterion = linesearch alpha is zero
  Energy initial, next-to-last, final = 
        -241.843561951     -241.843577658     -241.843577658
  Force two-norm initial, final = 0.0811089 0.0409929
  Force max component initial, final = 0.0387653 0.0160862
  Final line search alpha, max atom move = 3.8147e-06 6.13641e-08
  Iterations, force evaluations = 3 39

Pair  time (%) = 0.000786478 (85.1267)
Neigh time (%) = 0 (0)
Comm  time (%) = 4.97517e-05 (5.38502)
Outpt time (%) = 1.1979e-05 (1.29658)
Other time (%) = 7.56822e-05 (8.19168)

Nlocal:    82 ave 82 max 82 min
Histogram: 1 0 0 0 0 0 0 0 0 0
Nghost:    185 ave 185 max 185 min
Histogram: 1 0 0 0 0 0 0 0 0 0
Neighs:    718 ave 718 max 718 min
Histogram: 1 0 0 0 0 0 0 0 0 0

Total # of neighbors = 718
Ave neighs/atom = 8.7561
Neighbor list builds = 0
Dangerous builds = 0
        # write_dump all atom ${dumpfile}
        next i
jump SELF loop1
        displace_atoms upper move ${xstep1} 0.0 0.0 units lattice
        displace_atoms upper move 0.00333333333333333 0.0 0.0 units lattice
        min_style ${style}
        min_style cg
        minimize ${etol} ${ftol} ${maxiter} ${maxeval}
        minimize 1e-12 ${ftol} ${maxiter} ${maxeval}
        minimize 1e-12 1e-08 ${maxiter} ${maxeval}
        minimize 1e-12 1e-08 10000 ${maxeval}
        minimize 1e-12 1e-08 10000 20000
WARNING: Resetting reneighboring criteria during minimization (../min.cpp:168)
Memory usage per processor = 3.35161 Mbytes
Step Temp PotEng Lx Ly Lz 
     101            0   -241.83652    2.0000005     34.64819    1.0000002 
     102            0   -241.83656    2.0000005     34.64819    1.0000002 
     103            0   -241.83656    2.0000005     34.64819    1.0000002 
Loop time of 0.000913087 on 1 procs for 2 steps with 82 atoms

Minimization stats:
  Stopping criterion = linesearch alpha is zero
  Energy initial, next-to-last, final = 
        -241.836515098     -241.836559717     -241.836559717
  Force two-norm initial, final = 0.115197 0.0499151
  Force max component initial, final = 0.0561807 0.0228876
  Final line search alpha, max atom move = 3.8147e-06 8.73093e-08
  Iterations, force evaluations = 2 27

Pair  time (%) = 0.000830604 (90.9666)
Neigh time (%) = 0 (0)
Comm  time (%) = 2.3823e-05 (2.60906)
Outpt time (%) = 5.90121e-06 (0.646292)
Other time (%) = 5.2759e-05 (5.77809)

Nlocal:    82 ave 82 max 82 min
Histogram: 1 0 0 0 0 0 0 0 0 0
Nghost:    185 ave 185 max 185 min
Histogram: 1 0 0 0 0 0 0 0 0 0
Neighs:    718 ave 718 max 718 min
Histogram: 1 0 0 0 0 0 0 0 0 0

Total # of neighbors = 718
Ave neighs/atom = 8.7561
Neighbor list builds = 0
Dangerous builds = 0
        # write_dump all atom ${dumpfile}
        next i
jump SELF loop1
        displace_atoms upper move ${xstep1} 0.0 0.0 units lattice
        displace_atoms upper move 0.00333333333333333 0.0 0.0 units lattice
        min_style ${style}
        min_style cg
        minimize ${etol} ${ftol} ${maxiter} ${maxeval}
        minimize 1e-12 ${ftol} ${maxiter} ${maxeval}
        minimize 1e-12 1e-08 ${maxiter} ${maxeval}
        minimize 1e-12 1e-08 10000 ${maxeval}
        minimize 1e-12 1e-08 10000 20000
WARNING: Resetting reneighboring criteria during minimization (../min.cpp:168)
Memory usage per processor = 3.35161 Mbytes
Step Temp PotEng Lx Ly Lz 
     103            0   -241.82945    2.0000005    34.648201    1.0000002 
     104            0    -241.8295    2.0000005    34.648201    1.0000002 
     105            0   -241.82951    2.0000005    34.648201    1.0000002 
     106            0   -241.82951    2.0000005    34.648201    1.0000002 
     107            0   -241.82951    2.0000005    34.648201    1.0000002 
     108            0   -241.82951    2.0000005    34.648201    1.0000002 
Loop time of 0.0015471 on 1 procs for 5 steps with 82 atoms

Minimization stats:
  Stopping criterion = linesearch alpha is zero
  Energy initial, next-to-last, final = 
        -241.829447209     -241.829506199     -241.829506199
  Force two-norm initial, final = 0.092759 0.0722985
  Force max component initial, final = 0.0391072 0.0256748
  Final line search alpha, max atom move = 1.90735e-06 4.89709e-08
  Iterations, force evaluations = 5 65

Pair  time (%) = 0.00132692 (85.7683)
Neigh time (%) = 0 (0)
Comm  time (%) = 7.00321e-05 (4.52666)
Outpt time (%) = 2.48846e-05 (1.60846)
Other time (%) = 0.000125262 (8.09655)

Nlocal:    82 ave 82 max 82 min
Histogram: 1 0 0 0 0 0 0 0 0 0
Nghost:    185 ave 185 max 185 min
Histogram: 1 0 0 0 0 0 0 0 0 0
Neighs:    718 ave 718 max 718 min
Histogram: 1 0 0 0 0 0 0 0 0 0

Total # of neighbors = 718
Ave neighs/atom = 8.7561
Neighbor list builds = 0
Dangerous builds = 0
        # write_dump all atom ${dumpfile}
        next i
jump SELF loop1
        displace_atoms upper move ${xstep1} 0.0 0.0 units lattice
        displace_atoms upper move 0.00333333333333333 0.0 0.0 units lattice
        min_style ${style}
        min_style cg
        minimize ${etol} ${ftol} ${maxiter} ${maxeval}
        minimize 1e-12 ${ftol} ${maxiter} ${maxeval}
        minimize 1e-12 1e-08 ${maxiter} ${maxeval}
        minimize 1e-12 1e-08 10000 ${maxeval}
        minimize 1e-12 1e-08 10000 20000
WARNING: Resetting reneighboring criteria during minimization (../min.cpp:168)
Memory usage per processor = 3.35161 Mbytes
Step Temp PotEng Lx Ly Lz 
     108            0   -241.82237    2.0000005    34.648227    1.0000002 
     109            0    -241.8224    2.0000005    34.648227    1.0000002 
     110            0    -241.8224    2.0000005    34.648227    1.0000002 
     111            0    -241.8224    2.0000005    34.648227    1.0000002 
Loop time of 0.00159595 on 1 procs for 3 steps with 82 atoms

Minimization stats:
  Stopping criterion = linesearch alpha is zero
  Energy initial, next-to-last, final = 
         -241.82237116      -241.82239729      -241.82239729
  Force two-norm initial, final = 0.058498 0.0425491
  Force max component initial, final = 0.0170755 0.0133919
  Final line search alpha, max atom move = 3.8147e-06 5.10862e-08
  Iterations, force evaluations = 3 37

Pair  time (%) = 0.00146259 (91.644)
Neigh time (%) = 0 (0)
Comm  time (%) = 4.41516e-05 (2.76647)
Outpt time (%) = 1.58212e-05 (0.991334)
Other time (%) = 7.33844e-05 (4.59816)

Nlocal:    82 ave 82 max 82 min
Histogram: 1 0 0 0 0 0 0 0 0 0
Nghost:    185 ave 185 max 185 min
Histogram: 1 0 0 0 0 0 0 0 0 0
Neighs:    718 ave 718 max 718 min
Histogram: 1 0 0 0 0 0 0 0 0 0

Total # of neighbors = 718
Ave neighs/atom = 8.7561
Neighbor list builds = 0
Dangerous builds = 0
        # write_dump all atom ${dumpfile}
        next i
jump SELF loop1
        displace_atoms upper move ${xstep1} 0.0 0.0 units lattice
        displace_atoms upper move 0.00333333333333333 0.0 0.0 units lattice
        min_style ${style}
        min_style cg
        minimize ${etol} ${ftol} ${maxiter} ${maxeval}
        minimize 1e-12 ${ftol} ${maxiter} ${maxeval}
        minimize 1e-12 1e-08 ${maxiter} ${maxeval}
        minimize 1e-12 1e-08 10000 ${maxeval}
        minimize 1e-12 1e-08 10000 20000
WARNING: Resetting reneighboring criteria during minimization (../min.cpp:168)
Memory usage per processor = 3.35161 Mbytes
Step Temp PotEng Lx Ly Lz 
     111            0   -241.81519    2.0000005    34.648252    1.0000002 
     112            0   -241.81522    2.0000005    34.648252    1.0000002 
     113            0   -241.81527    2.0000005    34.648252    1.0000002 
     114            0   -241.81528    2.0000005    34.648252    1.0000002 
     115            0   -241.81528    2.0000005    34.648252    1.0000002 
Loop time of 0.001005 on 1 procs for 4 steps with 82 atoms

Minimization stats:
  Stopping criterion = linesearch alpha is zero
  Energy initial, next-to-last, final = 
        -241.815186445     -241.815277977     -241.815277977
  Force two-norm initial, final = 0.0858774 0.0515564
  Force max component initial, final = 0.0374183 0.0138521
  Final line search alpha, max atom move = 3.8147e-06 5.28416e-08
  Iterations, force evaluations = 4 42

Pair  time (%) = 0.00085 (84.5774)
Neigh time (%) = 0 (0)
Comm  time (%) = 4.91844e-05 (4.89399)
Outpt time (%) = 1.71624e-05 (1.70771)
Other time (%) = 8.86502e-05 (8.82094)

Nlocal:    82 ave 82 max 82 min
Histogram: 1 0 0 0 0 0 0 0 0 0
Nghost:    185 ave 185 max 185 min
Histogram: 1 0 0 0 0 0 0 0 0 0
Neighs:    718 ave 718 max 718 min
Histogram: 1 0 0 0 0 0 0 0 0 0

Total # of neighbors = 718
Ave neighs/atom = 8.7561
Neighbor list builds = 0
Dangerous builds = 0
        # write_dump all atom ${dumpfile}
        next i
jump SELF loop1
        displace_atoms upper move ${xstep1} 0.0 0.0 units lattice
        displace_atoms upper move 0.00333333333333333 0.0 0.0 units lattice
        min_style ${style}
        min_style cg
        minimize ${etol} ${ftol} ${maxiter} ${maxeval}
        minimize 1e-12 ${ftol} ${maxiter} ${maxeval}
        minimize 1e-12 1e-08 ${maxiter} ${maxeval}
        minimize 1e-12 1e-08 10000 ${maxeval}
        minimize 1e-12 1e-08 10000 20000
WARNING: Resetting reneighboring criteria during minimization (../min.cpp:168)
Memory usage per processor = 3.35161 Mbytes
Step Temp PotEng Lx Ly Lz 
     115            0   -241.80803    2.0000005    34.648334    1.0000002 
     116            0   -241.80807    2.0000005    34.648334    1.0000002 
     117            0   -241.80812    2.0000005    34.648334    1.0000002 
     118            0   -241.80813    2.0000005    34.648334    1.0000002 
     119            0   -241.80813    2.0000005    34.648334    1.0000002 
Loop time of 0.00100811 on 1 procs for 4 steps with 82 atoms

Minimization stats:
  Stopping criterion = linesearch alpha is zero
  Energy initial, next-to-last, final = 
        -241.808029185     -241.808132542     -241.808132542
  Force two-norm initial, final = 0.107433 0.0529303
  Force max component initial, final = 0.0476799 0.0160359
  Final line search alpha, max atom move = 3.8147e-06 6.11722e-08
  Iterations, force evaluations = 4 42

Pair  time (%) = 0.000838166 (83.1423)
Neigh time (%) = 0 (0)
Comm  time (%) = 6.97899e-05 (6.92285)
Outpt time (%) = 1.89911e-05 (1.88383)
Other time (%) = 8.11629e-05 (8.05099)

Nlocal:    82 ave 82 max 82 min
Histogram: 1 0 0 0 0 0 0 0 0 0
Nghost:    185 ave 185 max 185 min
Histogram: 1 0 0 0 0 0 0 0 0 0
Neighs:    718 ave 718 max 718 min
Histogram: 1 0 0 0 0 0 0 0 0 0

Total # of neighbors = 718
Ave neighs/atom = 8.7561
Neighbor list builds = 0
[...]
  Final line search alpha, max atom move = 3.8147e-06 7.05018e-08
  Iterations, force evaluations = 1 19

Pair  time (%) = 0.000488092 (76.9773)
Neigh time (%) = 0 (0)
Comm  time (%) = 3.68966e-05 (5.81898)
Outpt time (%) = 0 (0)
Other time (%) = 0.000109084 (17.2037)

Nlocal:    82 ave 82 max 82 min
Histogram: 1 0 0 0 0 0 0 0 0 0
Nghost:    185 ave 185 max 185 min
Histogram: 1 0 0 0 0 0 0 0 0 0
Neighs:    718 ave 718 max 718 min
Histogram: 1 0 0 0 0 0 0 0 0 0

Total # of neighbors = 718
Ave neighs/atom = 8.7561
Neighbor list builds = 0
Dangerous builds = 0
        # write_dump all atom ${dumpfile}
        next i
jump SELF loop1
        displace_atoms upper move ${xstep1} 0.0 0.0 units lattice
        displace_atoms upper move 0.00333333333333333 0.0 0.0 units lattice
        min_style ${style}
        min_style cg
        minimize ${etol} ${ftol} ${maxiter} ${maxeval}
        minimize 1e-12 ${ftol} ${maxiter} ${maxeval}
        minimize 1e-12 1e-08 ${maxiter} ${maxeval}
        minimize 1e-12 1e-08 10000 ${maxeval}
        minimize 1e-12 1e-08 10000 20000
WARNING: Resetting reneighboring criteria during minimization (../min.cpp:168)
Memory usage per processor = 3.35161 Mbytes
Step Temp PotEng Lx Ly Lz 
    1088            0   -241.98268    2.0000005    34.659782    1.0000002 
    1089            0   -241.98268    2.0000005    34.659782    1.0000002 
Loop time of 0.000608978 on 1 procs for 1 steps with 82 atoms

Minimization stats:
  Stopping criterion = linesearch alpha is zero
  Energy initial, next-to-last, final = 
        -241.982684137     -241.982684137     -241.982684137
  Force two-norm initial, final = 0.0637762 0.0637762
  Force max component initial, final = 0.0255406 0.0255406
  Final line search alpha, max atom move = 1.90735e-06 4.87149e-08
  Iterations, force evaluations = 1 20

Pair  time (%) = 0.000507976 (83.4145)
Neigh time (%) = 0 (0)
Comm  time (%) = 3.90225e-05 (6.40787)
Outpt time (%) = 0 (0)
Other time (%) = 6.19793e-05 (10.1776)

Nlocal:    82 ave 82 max 82 min
Histogram: 1 0 0 0 0 0 0 0 0 0
Nghost:    185 ave 185 max 185 min
Histogram: 1 0 0 0 0 0 0 0 0 0
Neighs:    718 ave 718 max 718 min
Histogram: 1 0 0 0 0 0 0 0 0 0

Total # of neighbors = 718
Ave neighs/atom = 8.7561
Neighbor list builds = 0
Dangerous builds = 0
        # write_dump all atom ${dumpfile}
        next i
jump SELF loop1
        displace_atoms upper move ${xstep1} 0.0 0.0 units lattice
        displace_atoms upper move 0.00333333333333333 0.0 0.0 units lattice
        min_style ${style}
        min_style cg
        minimize ${etol} ${ftol} ${maxiter} ${maxeval}
        minimize 1e-12 ${ftol} ${maxiter} ${maxeval}
        minimize 1e-12 1e-08 ${maxiter} ${maxeval}
        minimize 1e-12 1e-08 10000 ${maxeval}
        minimize 1e-12 1e-08 10000 20000
WARNING: Resetting reneighboring criteria during minimization (../min.cpp:168)
Memory usage per processor = 3.35161 Mbytes
Step Temp PotEng Lx Ly Lz 
    1089            0   -241.98584    2.0000005    34.659782    1.0000002 
    1090            0   -241.98585    2.0000005    34.659782    1.0000002 
    1091            0   -241.98585    2.0000005    34.659782    1.0000002 
Loop time of 0.000891011 on 1 procs for 2 steps with 82 atoms

Minimization stats:
  Stopping criterion = linesearch alpha is zero
  Energy initial, next-to-last, final = 
        -241.985835958     -241.985850617     -241.985850617
  Force two-norm initial, final = 0.0799629 0.0459741
  Force max component initial, final = 0.0351384 0.0164935
  Final line search alpha, max atom move = 3.8147e-06 6.29179e-08
  Iterations, force evaluations = 2 28

Pair  time (%) = 0.000699227 (78.4757)
Neigh time (%) = 0 (0)
Comm  time (%) = 8.90831e-05 (9.99798)
Outpt time (%) = 1.39887e-05 (1.56998)
Other time (%) = 8.87116e-05 (9.95629)

Nlocal:    82 ave 82 max 82 min
Histogram: 1 0 0 0 0 0 0 0 0 0
Nghost:    185 ave 185 max 185 min
Histogram: 1 0 0 0 0 0 0 0 0 0
Neighs:    718 ave 718 max 718 min
Histogram: 1 0 0 0 0 0 0 0 0 0

Total # of neighbors = 718
Ave neighs/atom = 8.7561
Neighbor list builds = 0
Dangerous builds = 0
        # write_dump all atom ${dumpfile}
        next i
jump SELF loop1
        displace_atoms upper move ${xstep1} 0.0 0.0 units lattice
        displace_atoms upper move 0.00333333333333333 0.0 0.0 units lattice
        min_style ${style}
        min_style cg
        minimize ${etol} ${ftol} ${maxiter} ${maxeval}
        minimize 1e-12 ${ftol} ${maxiter} ${maxeval}
        minimize 1e-12 1e-08 ${maxiter} ${maxeval}
        minimize 1e-12 1e-08 10000 ${maxeval}
        minimize 1e-12 1e-08 10000 20000
WARNING: Resetting reneighboring criteria during minimization (../min.cpp:168)
Memory usage per processor = 3.35161 Mbytes
Step Temp PotEng Lx Ly Lz 
    1091            0    -241.9887    2.0000005    34.659759    1.0000002 
    1092            0   -241.98871    2.0000005    34.659759    1.0000002 
    1093            0   -241.98871    2.0000005    34.659759    1.0000002 
Loop time of 0.00592506 on 1 procs for 2 steps with 82 atoms

Minimization stats:
  Stopping criterion = linesearch alpha is zero
  Energy initial, next-to-last, final = 
        -241.988695295     -241.988711849     -241.988711849
  Force two-norm initial, final = 0.0675519 0.033785
  Force max component initial, final = 0.0297567 0.012554
  Final line search alpha, max atom move = 7.62939e-06 9.57793e-08
  Iterations, force evaluations = 2 26

Pair  time (%) = 0.000726072 (12.2543)
Neigh time (%) = 0 (0)
Comm  time (%) = 5.39818e-05 (0.911076)
Outpt time (%) = 0.000122074 (2.0603)
Other time (%) = 0.00502293 (84.7744)

Nlocal:    82 ave 82 max 82 min
Histogram: 1 0 0 0 0 0 0 0 0 0
Nghost:    185 ave 185 max 185 min
Histogram: 1 0 0 0 0 0 0 0 0 0
Neighs:    718 ave 718 max 718 min
Histogram: 1 0 0 0 0 0 0 0 0 0

Total # of neighbors = 718
Ave neighs/atom = 8.7561
Neighbor list builds = 0
Dangerous builds = 0
        # write_dump all atom ${dumpfile}
        next i
jump SELF loop1
        displace_atoms upper move ${xstep1} 0.0 0.0 units lattice
        displace_atoms upper move 0.00333333333333333 0.0 0.0 units lattice
        min_style ${style}
        min_style cg
        minimize ${etol} ${ftol} ${maxiter} ${maxeval}
        minimize 1e-12 ${ftol} ${maxiter} ${maxeval}
        minimize 1e-12 1e-08 ${maxiter} ${maxeval}
        minimize 1e-12 1e-08 10000 ${maxeval}
        minimize 1e-12 1e-08 10000 20000
WARNING: Resetting reneighboring criteria during minimization (../min.cpp:168)
Memory usage per processor = 3.35161 Mbytes
Step Temp PotEng Lx Ly Lz 
    1093            0   -241.99124    2.0000005    34.659712    1.0000002 
    1094            0   -241.99124    2.0000005    34.659712    1.0000002 
    1095            0   -241.99124    2.0000005    34.659712    1.0000002 
Loop time of 0.0017791 on 1 procs for 2 steps with 82 atoms

Minimization stats:
  Stopping criterion = linesearch alpha is zero
  Energy initial, next-to-last, final = 
        -241.991242753     -241.991244243     -241.991244243
  Force two-norm initial, final = 0.04131 0.037872
  Force max component initial, final = 0.012554 0.0117354
  Final line search alpha, max atom move = 7.62939e-06 8.95341e-08
  Iterations, force evaluations = 2 28

Pair  time (%) = 0.000752693 (42.3076)
Neigh time (%) = 0 (0)
Comm  time (%) = 0.000126538 (7.11246)
Outpt time (%) = 8.88889e-06 (0.499629)
Other time (%) = 0.000890978 (50.0803)

Nlocal:    82 ave 82 max 82 min
Histogram: 1 0 0 0 0 0 0 0 0 0
Nghost:    185 ave 185 max 185 min
Histogram: 1 0 0 0 0 0 0 0 0 0
Neighs:    718 ave 718 max 718 min
Histogram: 1 0 0 0 0 0 0 0 0 0

Total # of neighbors = 718
Ave neighs/atom = 8.7561
Neighbor list builds = 0
Dangerous builds = 0
        # write_dump all atom ${dumpfile}
        next i
jump SELF loop1
        displace_atoms upper move ${xstep1} 0.0 0.0 units lattice
        displace_atoms upper move 0.00333333333333333 0.0 0.0 units lattice
        min_style ${style}
        min_style cg
        minimize ${etol} ${ftol} ${maxiter} ${maxeval}
        minimize 1e-12 ${ftol} ${maxiter} ${maxeval}
        minimize 1e-12 1e-08 ${maxiter} ${maxeval}
        minimize 1e-12 1e-08 10000 ${maxeval}
        minimize 1e-12 1e-08 10000 20000
WARNING: Resetting reneighboring criteria during minimization (../min.cpp:168)
Memory usage per processor = 3.35161 Mbytes
Step Temp PotEng Lx Ly Lz 
    1095            0   -241.99343    2.0000005    34.659699    1.0000002 
    1096            0   -241.99345    2.0000005    34.659699    1.0000002 
    1097            0   -241.99345    2.0000005    34.659699    1.0000002 
Loop time of 0.000862913 on 1 procs for 2 steps with 82 atoms

Minimization stats:
  Stopping criterion = linesearch alpha is zero
  Energy initial, next-to-last, final = 
        -241.993430189     -241.993448393     -241.993448393
  Force two-norm initial, final = 0.0514726 0.0451791
  Force max component initial, final = 0.0200368 0.0147871
  Final line search alpha, max atom move = 3.8147e-06 5.64081e-08
  Iterations, force evaluations = 2 26

Pair  time (%) = 0.000653165 (75.693)
Neigh time (%) = 0 (0)
Comm  time (%) = 4.95873e-05 (5.74651)
Outpt time (%) = 1.40625e-05 (1.62966)
Other time (%) = 0.000146098 (16.9308)

Nlocal:    82 ave 82 max 82 min
Histogram: 1 0 0 0 0 0 0 0 0 0
Nghost:    185 ave 185 max 185 min
Histogram: 1 0 0 0 0 0 0 0 0 0
Neighs:    718 ave 718 max 718 min
Histogram: 1 0 0 0 0 0 0 0 0 0

Total # of neighbors = 718
Ave neighs/atom = 8.7561
Neighbor list builds = 0
Dangerous builds = 0
        # write_dump all atom ${dumpfile}
        next i
jump SELF loop1
        displace_atoms upper move ${xstep1} 0.0 0.0 units lattice
        displace_atoms upper move 0.00333333333333333 0.0 0.0 units lattice
        min_style ${style}
        min_style cg
        minimize ${etol} ${ftol} ${maxiter} ${maxeval}
        minimize 1e-12 ${ftol} ${maxiter} ${maxeval}
        minimize 1e-12 1e-08 ${maxiter} ${maxeval}
        minimize 1e-12 1e-08 10000 ${maxeval}
        minimize 1e-12 1e-08 10000 20000
WARNING: Resetting reneighboring criteria during minimization (../min.cpp:168)
Memory usage per processor = 3.35161 Mbytes
Step Temp PotEng Lx Ly Lz 
    1097            0   -241.99532    2.0000005      34.6596    1.0000002 
    1098            0   -241.99532    2.0000005      34.6596    1.0000002 
Loop time of 0.000590076 on 1 procs for 1 steps with 82 atoms

Minimization stats:
  Stopping criterion = linesearch alpha is zero
  Energy initial, next-to-last, final = 
        -241.995319707     -241.995319707     -241.995319707
  Force two-norm initial, final = 0.0362667 0.0362667
  Force max component initial, final = 0.0126235 0.0126235
  Final line search alpha, max atom move = 7.62939e-06 9.63098e-08
  Iterations, force evaluations = 1 18

Pair  time (%) = 0.000498967 (84.5598)
Neigh time (%) = 0 (0)
Comm  time (%) = 3.32418e-05 (5.63348)
Outpt time (%) = 0 (0)
Other time (%) = 5.78673e-05 (9.80675)

Nlocal:    82 ave 82 max 82 min
Histogram: 1 0 0 0 0 0 0 0 0 0
Nghost:    185 ave 185 max 185 min
Histogram: 1 0 0 0 0 0 0 0 0 0
Neighs:    718 ave 718 max 718 min
Histogram: 1 0 0 0 0 0 0 0 0 0

Total # of neighbors = 718
Ave neighs/atom = 8.7561
Neighbor list builds = 0
Dangerous builds = 0
        # write_dump all atom ${dumpfile}
        next i
jump SELF loop1
        displace_atoms upper move ${xstep1} 0.0 0.0 units lattice
        displace_atoms upper move 0.00333333333333333 0.0 0.0 units lattice
        min_style ${style}
        min_style cg
        minimize ${etol} ${ftol} ${maxiter} ${maxeval}
        minimize 1e-12 ${ftol} ${maxiter} ${maxeval}
        minimize 1e-12 1e-08 ${maxiter} ${maxeval}
        minimize 1e-12 1e-08 10000 ${maxeval}
        minimize 1e-12 1e-08 10000 20000
WARNING: Resetting reneighboring criteria during minimization (../min.cpp:168)
Memory usage per processor = 3.35161 Mbytes
Step Temp PotEng Lx Ly Lz 
    1098            0   -241.99684    2.0000005      34.6596    1.0000002 
    1099            0   -241.99684    2.0000005      34.6596    1.0000002 
Loop time of 0.000592084 on 1 procs for 1 steps with 82 atoms

Minimization stats:
  Stopping criterion = linesearch alpha is zero
  Energy initial, next-to-last, final = 
        -241.996842294     -241.996842294     -241.996842294
  Force two-norm initial, final = 0.0342924 0.0342924
  Force max component initial, final = 0.0126235 0.0126235
  Final line search alpha, max atom move = 7.62939e-06 9.63098e-08
  Iterations, force evaluations = 1 18

Pair  time (%) = 0.000494868 (83.5808)
Neigh time (%) = 0 (0)
Comm  time (%) = 3.5867e-05 (6.05775)
Outpt time (%) = 0 (0)
Other time (%) = 6.13487e-05 (10.3615)

Nlocal:    82 ave 82 max 82 min
Histogram: 1 0 0 0 0 0 0 0 0 0
Nghost:    185 ave 185 max 185 min
Histogram: 1 0 0 0 0 0 0 0 0 0
Neighs:    718 ave 718 max 718 min
Histogram: 1 0 0 0 0 0 0 0 0 0

Total # of neighbors = 718
Ave neighs/atom = 8.7561
Neighbor list builds = 0
Dangerous builds = 0
        # write_dump all atom ${dumpfile}
        next i
jump SELF loop1
        displace_atoms upper move ${xstep1} 0.0 0.0 units lattice
        displace_atoms upper move 0.00333333333333333 0.0 0.0 units lattice
        min_style ${style}
        min_style cg
        minimize ${etol} ${ftol} ${maxiter} ${maxeval}
        minimize 1e-12 ${ftol} ${maxiter} ${maxeval}
        minimize 1e-12 1e-08 ${maxiter} ${maxeval}
        minimize 1e-12 1e-08 10000 ${maxeval}
        minimize 1e-12 1e-08 10000 20000
WARNING: Resetting reneighboring criteria during minimization (../min.cpp:168)
Memory usage per processor = 3.35161 Mbytes
Step Temp PotEng Lx Ly Lz 
    1099            0   -241.99803    2.0000005      34.6596    1.0000002 
    1100            0   -241.99803    2.0000005      34.6596    1.0000002 
Loop time of 0.000612107 on 1 procs for 1 steps with 82 atoms

Minimization stats:
  Stopping criterion = linesearch alpha is zero
  Energy initial, next-to-last, final = 
        -241.998033012     -241.998033012     -241.998033012
  Force two-norm initial, final = 0.036723 0.036723
  Force max component initial, final = 0.0126235 0.0126235
  Final line search alpha, max atom move = 7.62939e-06 9.63098e-08
  Iterations, force evaluations = 1 18

Pair  time (%) = 0.00045077 (73.6423)
Neigh time (%) = 0 (0)
Comm  time (%) = 3.50148e-05 (5.72038)
Outpt time (%) = 0 (0)
Other time (%) = 0.000126322 (20.6373)

Nlocal:    82 ave 82 max 82 min
Histogram: 1 0 0 0 0 0 0 0 0 0
Nghost:    185 ave 185 max 185 min
Histogram: 1 0 0 0 0 0 0 0 0 0
Neighs:    718 ave 718 max 718 min
Histogram: 1 0 0 0 0 0 0 0 0 0

Total # of neighbors = 718
Ave neighs/atom = 8.7561
Neighbor list builds = 0
Dangerous builds = 0
        # write_dump all atom ${dumpfile}
        next i
jump SELF loop1
        displace_atoms upper move ${xstep1} 0.0 0.0 units lattice
        displace_atoms upper move 0.00333333333333333 0.0 0.0 units lattice
        min_style ${style}
        min_style cg
        minimize ${etol} ${ftol} ${maxiter} ${maxeval}
        minimize 1e-12 ${ftol} ${maxiter} ${maxeval}
        minimize 1e-12 1e-08 ${maxiter} ${maxeval}
        minimize 1e-12 1e-08 10000 ${maxeval}
        minimize 1e-12 1e-08 10000 20000
WARNING: Resetting reneighboring criteria during minimization (../min.cpp:168)
Memory usage per processor = 3.35161 Mbytes
Step Temp PotEng Lx Ly Lz 
    1100            0   -241.99888    2.0000005      34.6596    1.0000002 
    1101            0    -241.9989    2.0000005      34.6596    1.0000002 
    1102            0    -241.9989    2.0000005      34.6596    1.0000002 
Loop time of 0.000824016 on 1 procs for 2 steps with 82 atoms

Minimization stats:
  Stopping criterion = linesearch alpha is zero
  Energy initial, next-to-last, final = 
        -241.998881049     -241.998896577     -241.998896577
  Force two-norm initial, final = 0.0402748 0.0285145
  Force max component initial, final = 0.0126235 0.0082643
  Final line search alpha, max atom move = 7.62939e-06 6.30516e-08
  Iterations, force evaluations = 2 25

Pair  time (%) = 0.00068739 (83.4194)
Neigh time (%) = 0 (0)
Comm  time (%) = 4.80359e-05 (5.82948)
Outpt time (%) = 8.06875e-06 (0.979198)
Other time (%) = 8.05218e-05 (9.77187)

Nlocal:    82 ave 82 max 82 min
Histogram: 1 0 0 0 0 0 0 0 0 0
Nghost:    185 ave 185 max 185 min
Histogram: 1 0 0 0 0 0 0 0 0 0
Neighs:    718 ave 718 max 718 min
Histogram: 1 0 0 0 0 0 0 0 0 0

Total # of neighbors = 718
Ave neighs/atom = 8.7561
Neighbor list builds = 0
Dangerous builds = 0
        # write_dump all atom ${dumpfile}
        next i
jump SELF loop1
        displace_atoms upper move ${xstep1} 0.0 0.0 units lattice
        displace_atoms upper move 0.00333333333333333 0.0 0.0 units lattice
        min_style ${style}
        min_style cg
        minimize ${etol} ${ftol} ${maxiter} ${maxeval}
        minimize 1e-12 ${ftol} ${maxiter} ${maxeval}
        minimize 1e-12 1e-08 ${maxiter} ${maxeval}
        minimize 1e-12 1e-08 10000 ${maxeval}
        minimize 1e-12 1e-08 10000 20000
WARNING: Resetting reneighboring criteria during minimization (../min.cpp:168)
Memory usage per processor = 3.35161 Mbytes
Step Temp PotEng Lx Ly Lz 
    1102            0   -241.99941    2.0000005    34.659506    1.0000002 
    1103            0   -241.99941    2.0000005    34.659506    1.0000002 
Loop time of 0.00129612 on 1 procs for 1 steps with 82 atoms

Minimization stats:
  Stopping criterion = linesearch alpha is zero
  Energy initial, next-to-last, final = 
        -241.999405634     -241.999405634     -241.999405634
  Force two-norm initial, final = 0.0278336 0.0278336
  Force max component initial, final = 0.0082643 0.0082643
  Final line search alpha, max atom move = 1.52588e-05 1.26103e-07
  Iterations, force evaluations = 1 17

Pair  time (%) = 0.000434088 (33.4914)
Neigh time (%) = 0 (0)
Comm  time (%) = 0.000798943 (61.6412)
Outpt time (%) = 0 (0)
Other time (%) = 6.30881e-05 (4.86746)

Nlocal:    82 ave 82 max 82 min
Histogram: 1 0 0 0 0 0 0 0 0 0
Nghost:    185 ave 185 max 185 min
Histogram: 1 0 0 0 0 0 0 0 0 0
Neighs:    718 ave 718 max 718 min
Histogram: 1 0 0 0 0 0 0 0 0 0

Total # of neighbors = 718
Ave neighs/atom = 8.7561
Neighbor list builds = 0
Dangerous builds = 0
        # write_dump all atom ${dumpfile}
        next i
jump SELF loop1
        displace_atoms upper move ${xstep1} 0.0 0.0 units lattice
        displace_atoms upper move 0.00333333333333333 0.0 0.0 units lattice
        min_style ${style}
        min_style cg
        minimize ${etol} ${ftol} ${maxiter} ${maxeval}
        minimize 1e-12 ${ftol} ${maxiter} ${maxeval}
        minimize 1e-12 1e-08 ${maxiter} ${maxeval}
        minimize 1e-12 1e-08 10000 ${maxeval}
        minimize 1e-12 1e-08 10000 20000
WARNING: Resetting reneighboring criteria during minimization (../min.cpp:168)
Memory usage per processor = 3.35161 Mbytes
Step Temp PotEng Lx Ly Lz 
    1103            0   -241.99958    2.0000005    34.659506    1.0000002 
    1104            0   -241.99958    2.0000005    34.659506    1.0000002 
Loop time of 0.000518062 on 1 procs for 1 steps with 82 atoms

Minimization stats:
  Stopping criterion = linesearch alpha is zero
  Energy initial, next-to-last, final = 
        -241.999577633     -241.999577633     -241.999577633
  Force two-norm initial, final = 0.0277835 0.0277835
  Force max component initial, final = 0.0082643 0.0082643
  Final line search alpha, max atom move = 1.52588e-05 1.26103e-07
  Iterations, force evaluations = 1 17

Pair  time (%) = 0.00043287 (83.5556)
Neigh time (%) = 0 (0)
Comm  time (%) = 3.40907e-05 (6.58043)
Outpt time (%) = 0 (0)
Other time (%) = 5.11014e-05 (9.86396)

Nlocal:    82 ave 82 max 82 min
Histogram: 1 0 0 0 0 0 0 0 0 0
Nghost:    185 ave 185 max 185 min
Histogram: 1 0 0 0 0 0 0 0 0 0
Neighs:    718 ave 718 max 718 min
Histogram: 1 0 0 0 0 0 0 0 0 0

Total # of neighbors = 718
Ave neighs/atom = 8.7561
Neighbor list builds = 0
Dangerous builds = 0
        # write_dump all atom ${dumpfile}
        next i
jump SELF loop1


