LAMMPS (28 Jun 2014)
# attempt at getting GSF energy

#file prefix
variable prefix string gsf_V_inter3_3dnorm
variable dumpfile string ${prefix}.*.dump
variable dumpfile string gsf_V_inter3_3dnorm.*.dump
variable restartfile string ${prefix}.*.equil
variable restartfile string gsf_V_inter3_3dnorm.*.equil

#Mass (g/mol)
variable m equal 1.0

# lattice constant (in Angstroms) and orientation of axes (given by lattice vectors)
variable rho equal 1.4142
variable x1 equal 1
variable x2 equal -2
variable x3 equal 1
variable y1 equal 1
variable y2 equal 1
variable y3 equal 1
variable z1 equal -1
variable z2 equal 0
variable z3 equal 1
# length of lattice in different directions (using orientation of lattice vectors)
variable ax equal sqrt(${x1}*${x1}+${x2}*${x2}+${x3}*${x3})
variable ax equal sqrt(1*${x1}+${x2}*${x2}+${x3}*${x3})
variable ax equal sqrt(1*1+${x2}*${x2}+${x3}*${x3})
variable ax equal sqrt(1*1+-2*${x2}+${x3}*${x3})
variable ax equal sqrt(1*1+-2*-2+${x3}*${x3})
variable ax equal sqrt(1*1+-2*-2+1*${x3})
variable ax equal sqrt(1*1+-2*-2+1*1)
variable ay equal sqrt(${y1}*${y1}+${y2}*${y2}+${y3}*${y3})
variable ay equal sqrt(1*${y1}+${y2}*${y2}+${y3}*${y3})
variable ay equal sqrt(1*1+${y2}*${y2}+${y3}*${y3})
variable ay equal sqrt(1*1+1*${y2}+${y3}*${y3})
variable ay equal sqrt(1*1+1*1+${y3}*${y3})
variable ay equal sqrt(1*1+1*1+1*${y3})
variable ay equal sqrt(1*1+1*1+1*1)
variable az equal sqrt(${z1}*${z1}+${z2}*${z2}+${z3}*${z3})
variable az equal sqrt(-1*${z1}+${z2}*${z2}+${z3}*${z3})
variable az equal sqrt(-1*-1+${z2}*${z2}+${z3}*${z3})
variable az equal sqrt(-1*-1+0*${z2}+${z3}*${z3})
variable az equal sqrt(-1*-1+0*0+${z3}*${z3})
variable az equal sqrt(-1*-1+0*0+1*${z3})
variable az equal sqrt(-1*-1+0*0+1*1)

# size of box in lattice units
variable lxpos equal 2
variable lxneg equal 0
variable lypos equal 15
variable lyneg equal -1*${lypos}
variable lyneg equal -1*15
variable lzpos equal 2
variable lzneg equal 0

# Define minimization parameters and damping
variable etol equal 1.0e-12
variable ftol equal 1.0e-8
variable maxiter equal 10000
variable maxeval equal 20000
variable style string hftn

# boundary conditions
dimension	3
boundary	p s p
atom_style	atomic

# create geometry
units		lj
lattice         fcc ${rho} orient x ${x1} ${x2} ${x3} orient y ${y1} ${y2} ${y3} orient z ${z1} ${z2} ${z3} spacing ${ax} ${ay} ${az}
lattice         fcc 1.4142 orient x ${x1} ${x2} ${x3} orient y ${y1} ${y2} ${y3} orient z ${z1} ${z2} ${z3} spacing ${ax} ${ay} ${az}
lattice         fcc 1.4142 orient x 1 ${x2} ${x3} orient y ${y1} ${y2} ${y3} orient z ${z1} ${z2} ${z3} spacing ${ax} ${ay} ${az}
lattice         fcc 1.4142 orient x 1 -2 ${x3} orient y ${y1} ${y2} ${y3} orient z ${z1} ${z2} ${z3} spacing ${ax} ${ay} ${az}
lattice         fcc 1.4142 orient x 1 -2 1 orient y ${y1} ${y2} ${y3} orient z ${z1} ${z2} ${z3} spacing ${ax} ${ay} ${az}
lattice         fcc 1.4142 orient x 1 -2 1 orient y 1 ${y2} ${y3} orient z ${z1} ${z2} ${z3} spacing ${ax} ${ay} ${az}
lattice         fcc 1.4142 orient x 1 -2 1 orient y 1 1 ${y3} orient z ${z1} ${z2} ${z3} spacing ${ax} ${ay} ${az}
lattice         fcc 1.4142 orient x 1 -2 1 orient y 1 1 1 orient z ${z1} ${z2} ${z3} spacing ${ax} ${ay} ${az}
lattice         fcc 1.4142 orient x 1 -2 1 orient y 1 1 1 orient z -1 ${z2} ${z3} spacing ${ax} ${ay} ${az}
lattice         fcc 1.4142 orient x 1 -2 1 orient y 1 1 1 orient z -1 0 ${z3} spacing ${ax} ${ay} ${az}
lattice         fcc 1.4142 orient x 1 -2 1 orient y 1 1 1 orient z -1 0 1 spacing ${ax} ${ay} ${az}
lattice         fcc 1.4142 orient x 1 -2 1 orient y 1 1 1 orient z -1 0 1 spacing 2.44948974278318 ${ay} ${az}
lattice         fcc 1.4142 orient x 1 -2 1 orient y 1 1 1 orient z -1 0 1 spacing 2.44948974278318 1.73205080756888 ${az}
lattice         fcc 1.4142 orient x 1 -2 1 orient y 1 1 1 orient z -1 0 1 spacing 2.44948974278318 1.73205080756888 1.4142135623731
Lattice spacing in x,y,z = 3.46411 2.4495 2.00001
region		myregion block ${lxneg} ${lxpos} ${lyneg} ${lypos} ${lzneg} ${lzpos} units lattice
region		myregion block 0 ${lxpos} ${lyneg} ${lypos} ${lzneg} ${lzpos} units lattice
region		myregion block 0 2 ${lyneg} ${lypos} ${lzneg} ${lzpos} units lattice
region		myregion block 0 2 -15 ${lypos} ${lzneg} ${lzpos} units lattice
region		myregion block 0 2 -15 15 ${lzneg} ${lzpos} units lattice
region		myregion block 0 2 -15 15 0 ${lzpos} units lattice
region		myregion block 0 2 -15 15 0 2 units lattice
create_box	1 myregion
Created orthogonal box = (0 -36.7425 0) to (6.92823 36.7425 4.00001)
  1 by 1 by 1 MPI processor grid
create_atoms	1 box
Created 2912 atoms

# define masses
mass * $m
mass * 1

# my fake/morse potential
pair_style      table linear 3001
pair_coeff      * * vpotential_inter33dnorm dummy
neighbor	0.3 bin
neigh_modify	delay 5

# define groups. Nudge to separate planes cleanly
region	    upper block INF INF 0.01 ${lypos} INF INF units lattice
region	    upper block INF INF 0.01 15 INF INF units lattice
group		upper region upper
1440 atoms in group upper

# Setup output
thermo 1
thermo_style custom step temp pe lx ly lz
thermo_modify norm no

# Compute initial state by relaxing box
min_style ${style}
min_style hftn
minimize ${etol} ${ftol} ${maxiter} ${maxeval}
minimize 1e-12 ${ftol} ${maxiter} ${maxeval}
minimize 1e-12 1e-08 ${maxiter} ${maxeval}
minimize 1e-12 1e-08 10000 ${maxeval}
minimize 1e-12 1e-08 10000 20000
WARNING: Resetting reneighboring criteria during minimization (../min.cpp:168)
Memory usage per processor = 5.2861 Mbytes
Step Temp PotEng Lx Ly Lz 
       0            0    -17375.98    6.9282254    73.499624    4.0000128 
       1            0    -17375.98    6.9282254    73.499624    4.0000128 
       2            0    -17375.98    6.9282254    73.499624    4.0000128 
       3            0    -17375.98    6.9282254    73.499624    4.0000128 
       4            0    -17375.98    6.9282254    73.499624    4.0000128 
       5            0    -17375.98    6.9282254    73.499624    4.0000128 
       6            0    -17375.98    6.9282254    73.499624    4.0000128 
       7            0    -17375.98    6.9282254    73.499624    4.0000128 
       8            0    -17375.98    6.9282254    73.499624    4.0000128 
       9            0    -17375.98    6.9282254    73.499624    4.0000128 
Loop time of 0.593465 on 1 procs for 8 steps with 2912 atoms

Minimization stats:
  Stopping criterion = energy tolerance
  Energy initial, next-to-last, final = 
        -17375.9798394     -17375.9798394     -17375.9798394
  Force two-norm initial, final = 0.00609867 0.00609591
  Force max component initial, final = 0.000762334 0.000761988
  Final line search alpha, max atom move = 0 0
  Iterations, force evaluations = 8 189

Pair  time (%) = 0.554706 (93.4691)
Neigh time (%) = 0 (0)
Comm  time (%) = 0.00921095 (1.55206)
Outpt time (%) = 0.00107505 (0.181148)
Other time (%) = 0.0284725 (4.79767)

Nlocal:    2912 ave 2912 max 2912 min
Histogram: 1 0 0 0 0 0 0 0 0 0
Nghost:    7129 ave 7129 max 7129 min
Histogram: 1 0 0 0 0 0 0 0 0 0
Neighs:    112224 ave 112224 max 112224 min
Histogram: 1 0 0 0 0 0 0 0 0 0

Total # of neighbors = 112224
Ave neighs/atom = 38.5385
Neighbor list builds = 0
Dangerous builds = 0

# don't allow atoms to relax in x- and y-directions
fix 2 all setforce 0.0 NULL 0.0

# GSF energy curve will have 100*2 steps
variable nsteps equal 100
# first partial is parallel to x-axis
variable angle1 equal 0
# second partial is at 60 degrees to first partial
variable angle2 equal PI/180*60
# partial dislocations have length a*sqrt(6)/6
variable sstep1 equal sqrt(6)/6
variable sstep2 equal sqrt(6)/6
variable xstep1 equal cos(${angle1})*${sstep1}/(${ax}*${nsteps})
variable xstep1 equal cos(0)*${sstep1}/(${ax}*${nsteps})
variable xstep1 equal cos(0)*0.408248290463863/(${ax}*${nsteps})
variable xstep1 equal cos(0)*0.408248290463863/(2.44948974278318*${nsteps})
variable xstep1 equal cos(0)*0.408248290463863/(2.44948974278318*100)
variable zstep1 equal sin(${angle1})*${sstep1}/(${az}*${nsteps})
variable zstep1 equal sin(0)*${sstep1}/(${az}*${nsteps})
variable zstep1 equal sin(0)*0.408248290463863/(${az}*${nsteps})
variable zstep1 equal sin(0)*0.408248290463863/(1.4142135623731*${nsteps})
variable zstep1 equal sin(0)*0.408248290463863/(1.4142135623731*100)
variable xstep2 equal cos(${angle2})*${sstep2}/(${ax}*${nsteps})
variable xstep2 equal cos(1.0471975511966)*${sstep2}/(${ax}*${nsteps})
variable xstep2 equal cos(1.0471975511966)*0.408248290463863/(${ax}*${nsteps})
variable xstep2 equal cos(1.0471975511966)*0.408248290463863/(2.44948974278318*${nsteps})
variable xstep2 equal cos(1.0471975511966)*0.408248290463863/(2.44948974278318*100)
variable zstep2 equal sin(${angle2})*${sstep2}/(${az}*${nsteps})
variable zstep2 equal sin(1.0471975511966)*${sstep2}/(${az}*${nsteps})
variable zstep2 equal sin(1.0471975511966)*0.408248290463863/(${az}*${nsteps})
variable zstep2 equal sin(1.0471975511966)*0.408248290463863/(1.4142135623731*${nsteps})
variable zstep2 equal sin(1.0471975511966)*0.408248290463863/(1.4142135623731*100)

variable i loop ${nsteps}
variable i loop 100
label loop1
        displace_atoms upper move ${xstep1} 0.0 ${zstep1} units lattice
        displace_atoms upper move 0.00166666666666667 0.0 ${zstep1} units lattice
        displace_atoms upper move 0.00166666666666667 0.0 0 units lattice
        min_style ${style}
        min_style hftn
        minimize ${etol} ${ftol} ${maxiter} ${maxeval}
        minimize 1e-12 ${ftol} ${maxiter} ${maxeval}
        minimize 1e-12 1e-08 ${maxiter} ${maxeval}
        minimize 1e-12 1e-08 10000 ${maxeval}
        minimize 1e-12 1e-08 10000 20000
WARNING: Resetting reneighboring criteria during minimization (../min.cpp:168)
Memory usage per processor = 5.2861 Mbytes
Step Temp PotEng Lx Ly Lz 
       9            0   -17375.952    6.9282254    73.499624    4.0000128 
      10            0   -17375.952    6.9282254    73.499624    4.0000128 
      11            0   -17375.952    6.9282254    73.499624    4.0000128 
      12            0   -17375.952    6.9282254    73.499624    4.0000128 
      13            0   -17375.952    6.9282254    73.499624    4.0000128 
      14            0   -17375.952    6.9282254    73.499624    4.0000128 
      15            0   -17375.952    6.9282254    73.499624    4.0000128 
      16            0   -17375.952    6.9282254    73.499624    4.0000128 
      17            0   -17375.952    6.9282254    73.499624    4.0000128 
Loop time of 0.300609 on 1 procs for 7 steps with 2912 atoms

Minimization stats:
  Stopping criterion = energy tolerance
  Energy initial, next-to-last, final = 
        -17375.9515433     -17375.9515433     -17375.9515433
  Force two-norm initial, final = 0.109461 0.109449
  Force max component initial, final = 0.0136614 0.0136599
  Final line search alpha, max atom move = 0 0
  Iterations, force evaluations = 7 102

Pair  time (%) = 0.281903 (93.7774)
Neigh time (%) = 0 (0)
Comm  time (%) = 0.00386043 (1.2842)
Outpt time (%) = 0.00110285 (0.366872)
Other time (%) = 0.0137425 (4.57155)

Nlocal:    2912 ave 2912 max 2912 min
Histogram: 1 0 0 0 0 0 0 0 0 0
Nghost:    7129 ave 7129 max 7129 min
Histogram: 1 0 0 0 0 0 0 0 0 0
Neighs:    112224 ave 112224 max 112224 min
Histogram: 1 0 0 0 0 0 0 0 0 0

Total # of neighbors = 112224
Ave neighs/atom = 38.5385
Neighbor list builds = 0
Dangerous builds = 0
        next i
jump SELF loop1
        displace_atoms upper move ${xstep1} 0.0 ${zstep1} units lattice
        displace_atoms upper move 0.00166666666666667 0.0 ${zstep1} units lattice
        displace_atoms upper move 0.00166666666666667 0.0 0 units lattice
        min_style ${style}
        min_style hftn
        minimize ${etol} ${ftol} ${maxiter} ${maxeval}
        minimize 1e-12 ${ftol} ${maxiter} ${maxeval}
        minimize 1e-12 1e-08 ${maxiter} ${maxeval}
        minimize 1e-12 1e-08 10000 ${maxeval}
        minimize 1e-12 1e-08 10000 20000
WARNING: Resetting reneighboring criteria during minimization (../min.cpp:168)
Memory usage per processor = 5.2861 Mbytes
Step Temp PotEng Lx Ly Lz 
      17            0   -17375.869    6.9282254    73.499624    4.0000128 
      18            0   -17375.869    6.9282254    73.499624    4.0000128 
      19            0   -17375.869    6.9282254    73.499624    4.0000128 
      20            0   -17375.869    6.9282254    73.499624    4.0000128 
      21            0   -17375.869    6.9282254    73.499624    4.0000128 
      22            0   -17375.869    6.9282254    73.499624    4.0000128 
      23            0   -17375.869    6.9282254    73.499624    4.0000128 
      24            0   -17375.869    6.9282254    73.499624    4.0000128 
      25            0   -17375.869    6.9282254    73.499624    4.0000128 
Loop time of 0.245877 on 1 procs for 7 steps with 2912 atoms

Minimization stats:
  Stopping criterion = energy tolerance
  Energy initial, next-to-last, final = 
        -17375.8694319     -17375.8694319     -17375.8694319
  Force two-norm initial, final = 0.424444 0.424433
  Force max component initial, final = 0.05305 0.0530487
  Final line search alpha, max atom move = 0 0
  Iterations, force evaluations = 7 62

Pair  time (%) = 0.22506 (91.5334)
Neigh time (%) = 0 (0)
Comm  time (%) = 0.0107919 (4.38914)
Outpt time (%) = 0.00338552 (1.37692)
Other time (%) = 0.00663997 (2.70053)

Nlocal:    2912 ave 2912 max 2912 min
Histogram: 1 0 0 0 0 0 0 0 0 0
Nghost:    7264 ave 7264 max 7264 min
Histogram: 1 0 0 0 0 0 0 0 0 0
Neighs:    112224 ave 112224 max 112224 min
Histogram: 1 0 0 0 0 0 0 0 0 0

Total # of neighbors = 112224
Ave neighs/atom = 38.5385
Neighbor list builds = 0
Dangerous builds = 0
        next i
jump SELF loop1
        displace_atoms upper move ${xstep1} 0.0 ${zstep1} units lattice
        displace_atoms upper move 0.00166666666666667 0.0 ${zstep1} units lattice
        displace_atoms upper move 0.00166666666666667 0.0 0 units lattice
        min_style ${style}
        min_style hftn
        minimize ${etol} ${ftol} ${maxiter} ${maxeval}
        minimize 1e-12 ${ftol} ${maxiter} ${maxeval}
        minimize 1e-12 1e-08 ${maxiter} ${maxeval}
        minimize 1e-12 1e-08 10000 ${maxeval}
        minimize 1e-12 1e-08 10000 20000
WARNING: Resetting reneighboring criteria during minimization (../min.cpp:168)
Memory usage per processor = 5.2861 Mbytes
Step Temp PotEng Lx Ly Lz 
      25            0   -17375.735    6.9282254    73.499624    4.0000128 
      26            0   -17375.735    6.9282254    73.499624    4.0000128 
      27            0   -17375.735    6.9282254    73.499624    4.0000128 
      28            0   -17375.735    6.9282254    73.499624    4.0000128 
      29            0   -17375.735    6.9282254    73.499624    4.0000128 
      30            0   -17375.735    6.9282254    73.499624    4.0000128 
      31            0   -17375.735    6.9282254    73.499624    4.0000128 
      32            0   -17375.735    6.9282254    73.499624    4.0000128 
      33            0   -17375.735    6.9282254    73.499624    4.0000128 
      34            0   -17375.735    6.9282254    73.499624    4.0000128 
      35            0   -17375.735    6.9282254    73.499624    4.0000128 
      36            0   -17375.735    6.9282254    73.499624    4.0000128 
      37            0   -17375.735    6.9282254    73.499624    4.0000128 
      38            0   -17375.735    6.9282254    73.499624    4.0000128 
      39            0   -17375.735    6.9282254    73.499624    4.0000128 
      40            0   -17375.735    6.9282254    73.499624    4.0000128 
      41            0   -17375.735    6.9282254    73.499624    4.0000128 
      42            0   -17375.735    6.9282254    73.499624    4.0000128 
Loop time of 0.33963 on 1 procs for 16 steps with 2912 atoms

Minimization stats:
  Stopping criterion = energy tolerance
  Energy initial, next-to-last, final = 
        -17375.7345948     -17375.7349906     -17375.7349934
  Force two-norm initial, final = 0.941728 0.332754
  Force max component initial, final = 0.117713 0.0354725
  Final line search alpha, max atom move = 0 0
  Iterations, force evaluations = 16 113

Pair  time (%) = 0.310531 (91.4322)
Neigh time (%) = 0 (0)
Comm  time (%) = 0.00979202 (2.88314)
Outpt time (%) = 0.00197188 (0.580596)
Other time (%) = 0.0173351 (5.10411)

Nlocal:    2912 ave 2912 max 2912 min
Histogram: 1 0 0 0 0 0 0 0 0 0
Nghost:    7264 ave 7264 max 7264 min
Histogram: 1 0 0 0 0 0 0 0 0 0
Neighs:    112224 ave 112224 max 112224 min
Histogram: 1 0 0 0 0 0 0 0 0 0

Total # of neighbors = 112224
Ave neighs/atom = 38.5385
Neighbor list builds = 0
Dangerous builds = 0
        next i
jump SELF loop1
        displace_atoms upper move ${xstep1} 0.0 ${zstep1} units lattice
        displace_atoms upper move 0.00166666666666667 0.0 ${zstep1} units lattice
        displace_atoms upper move 0.00166666666666667 0.0 0 units lattice
        min_style ${style}
        min_style hftn
        minimize ${etol} ${ftol} ${maxiter} ${maxeval}
        minimize 1e-12 ${ftol} ${maxiter} ${maxeval}
        minimize 1e-12 1e-08 ${maxiter} ${maxeval}
        minimize 1e-12 1e-08 10000 ${maxeval}
        minimize 1e-12 1e-08 10000 20000
WARNING: Resetting reneighboring criteria during minimization (../min.cpp:168)
Memory usage per processor = 5.2861 Mbytes
Step Temp PotEng Lx Ly Lz 
      42            0   -17375.551    6.9282254    73.499622    4.0000128 
      43            0   -17375.551    6.9282254    73.499622    4.0000128 
      44            0   -17375.552    6.9282254    73.499622    4.0000128 
      45            0   -17375.552    6.9282254    73.499622    4.0000128 
      46            0   -17375.552    6.9282254    73.499622    4.0000128 
      47            0   -17375.552    6.9282254    73.499622    4.0000128 
      48            0   -17375.552    6.9282254    73.499622    4.0000128 
      49            0   -17375.552    6.9282254    73.499622    4.0000128 
      50            0   -17375.552    6.9282254    73.499622    4.0000128 
      51            0   -17375.552    6.9282254    73.499622    4.0000128 
      52            0   -17375.552    6.9282254    73.499622    4.0000128 
Loop time of 0.245669 on 1 procs for 9 steps with 2912 atoms

Minimization stats:
  Stopping criterion = energy tolerance
  Energy initial, next-to-last, final = 
        -17375.5511928     -17375.5511928     -17375.5518007
  Force two-norm initial, final = 1.00238 0.402495
  Force max component initial, final = 0.1234 0.0481629
  Final line search alpha, max atom move = 0 0
  Iterations, force evaluations = 9 82

Pair  time (%) = 0.229104 (93.2574)
Neigh time (%) = 0 (0)
Comm  time (%) = 0.00494482 (2.0128)
Outpt time (%) = 0.0008864 (0.360811)
Other time (%) = 0.0107333 (4.36903)

Nlocal:    2912 ave 2912 max 2912 min
Histogram: 1 0 0 0 0 0 0 0 0 0
Nghost:    7264 ave 7264 max 7264 min
Histogram: 1 0 0 0 0 0 0 0 0 0
Neighs:    112224 ave 112224 max 112224 min
Histogram: 1 0 0 0 0 0 0 0 0 0

Total # of neighbors = 112224
Ave neighs/atom = 38.5385
Neighbor list builds = 0
Dangerous builds = 0
        next i
jump SELF loop1
        displace_atoms upper move ${xstep1} 0.0 ${zstep1} units lattice
        displace_atoms upper move 0.00166666666666667 0.0 ${zstep1} units lattice
        displace_atoms upper move 0.00166666666666667 0.0 0 units lattice
        min_style ${style}
        min_style hftn
        minimize ${etol} ${ftol} ${maxiter} ${maxeval}
        minimize 1e-12 ${ftol} ${maxiter} ${maxeval}
        minimize 1e-12 1e-08 ${maxiter} ${maxeval}
        minimize 1e-12 1e-08 10000 ${maxeval}
        minimize 1e-12 1e-08 10000 20000
WARNING: Resetting reneighboring criteria during minimization (../min.cpp:168)
Memory usage per processor = 5.2861 Mbytes
Step Temp PotEng Lx Ly Lz 
      52            0   -17375.322    6.9282254     73.49962    4.0000128 
      53            0   -17375.323    6.9282254     73.49962    4.0000128 
      54            0   -17375.326    6.9282254     73.49962    4.0000128 
      55            0   -17375.326    6.9282254     73.49962    4.0000128 
      56            0   -17375.326    6.9282254     73.49962    4.0000128 
Loop time of 1.69508 on 1 procs for 3 steps with 2912 atoms

Minimization stats:
  Stopping criterion = force tolerance
  Energy initial, next-to-last, final = 
        -17375.3223872     -17375.3255593     -17375.3255794
  Force two-norm initial, final = 1.04744 3.38162e-11
  Force max component initial, final = 0.121475 2.57639e-12
  Final line search alpha, max atom move = 0 0
  Iterations, force evaluations = 3 499

Pair  time (%) = 1.57152 (92.7102)
Neigh time (%) = 0 (0)
Comm  time (%) = 0.0378655 (2.23384)
Outpt time (%) = 0.0010898 (0.064292)
Other time (%) = 0.0846132 (4.99168)

Nlocal:    2912 ave 2912 max 2912 min
Histogram: 1 0 0 0 0 0 0 0 0 0
Nghost:    7264 ave 7264 max 7264 min
Histogram: 1 0 0 0 0 0 0 0 0 0
Neighs:    112224 ave 112224 max 112224 min
Histogram: 1 0 0 0 0 0 0 0 0 0

Total # of neighbors = 112224
Ave neighs/atom = 38.5385
Neighbor list builds = 0
Dangerous builds = 0
        next i
jump SELF loop1
        displace_atoms upper move ${xstep1} 0.0 ${zstep1} units lattice
        displace_atoms upper move 0.00166666666666667 0.0 ${zstep1} units lattice
        displace_atoms upper move 0.00166666666666667 0.0 0 units lattice
        min_style ${style}
        min_style hftn
        minimize ${etol} ${ftol} ${maxiter} ${maxeval}
        minimize 1e-12 ${ftol} ${maxiter} ${maxeval}
        minimize 1e-12 1e-08 ${maxiter} ${maxeval}
        minimize 1e-12 1e-08 10000 ${maxeval}
        minimize 1e-12 1e-08 10000 20000
WARNING: Resetting reneighboring criteria during minimization (../min.cpp:168)
Memory usage per processor = 5.2861 Mbytes
Step Temp PotEng Lx Ly Lz 
      56            0   -17375.055    6.9282254    73.500775    4.0000128 
      57            0   -17375.055    6.9282254    73.500775    4.0000128 
      58            0   -17375.055    6.9282254    73.500775    4.0000128 
      59            0   -17375.055    6.9282254    73.500775    4.0000128 
      60            0   -17375.056    6.9282254    73.500775    4.0000128 
      61            0   -17375.056    6.9282254    73.500775    4.0000128 
      62            0   -17375.056    6.9282254    73.500775    4.0000128 
      63            0   -17375.056    6.9282254    73.500775    4.0000128 
      64            0   -17375.056    6.9282254    73.500775    4.0000128 
      65            0   -17375.056    6.9282254    73.500775    4.0000128 
      66            0   -17375.056    6.9282254    73.500775    4.0000128 
      67            0   -17375.056    6.9282254    73.500775    4.0000128 
      68            0   -17375.056    6.9282254    73.500775    4.0000128 
      69            0   -17375.056    6.9282254    73.500775    4.0000128 
      70            0   -17375.056    6.9282254    73.500775    4.0000128 
Loop time of 0.319121 on 1 procs for 13 steps with 2912 atoms

Minimization stats:
  Stopping criterion = energy tolerance
  Energy initial, next-to-last, final = 
        -17375.0549157     -17375.0556184     -17375.0556198
  Force two-norm initial, final = 1.03085 0.370167
  Force max component initial, final = 0.128856 0.0393018
  Final line search alpha, max atom move = 0 0
  Iterations, force evaluations = 13 98

Pair  time (%) = 0.300334 (94.1129)
Neigh time (%) = 0 (0)
Comm  time (%) = 0.00556698 (1.74447)
Outpt time (%) = 0.00155087 (0.485983)
Other time (%) = 0.011669 (3.65661)

Nlocal:    2912 ave 2912 max 2912 min
Histogram: 1 0 0 0 0 0 0 0 0 0
Nghost:    7264 ave 7264 max 7264 min
Histogram: 1 0 0 0 0 0 0 0 0 0
Neighs:    112224 ave 112224 max 112224 min
Histogram: 1 0 0 0 0 0 0 0 0 0

Total # of neighbors = 112224
Ave neighs/atom = 38.5385
Neighbor list builds = 0
Dangerous builds = 0
        next i
jump SELF loop1
        displace_atoms upper move ${xstep1} 0.0 ${zstep1} units lattice
        displace_atoms upper move 0.00166666666666667 0.0 ${zstep1} units lattice
        displace_atoms upper move 0.00166666666666667 0.0 0 units lattice
        min_style ${style}
        min_style hftn
        minimize ${etol} ${ftol} ${maxiter} ${maxeval}
        minimize 1e-12 ${ftol} ${maxiter} ${maxeval}
        minimize 1e-12 1e-08 ${maxiter} ${maxeval}
        minimize 1e-12 1e-08 10000 ${maxeval}
        minimize 1e-12 1e-08 10000 20000
WARNING: Resetting reneighboring criteria during minimization (../min.cpp:168)
Memory usage per processor = 5.2861 Mbytes
Step Temp PotEng Lx Ly Lz 
      70            0   -17374.744    6.9282254    73.500775    4.0000128 
      71            0   -17374.746    6.9282254    73.500775    4.0000128 
      72            0   -17374.749    6.9282254    73.500775    4.0000128 
      73            0   -17374.749    6.9282254    73.500775    4.0000128 
      74            0   -17374.749    6.9282254    73.500775    4.0000128 
Loop time of 1.62756 on 1 procs for 3 steps with 2912 atoms

Minimization stats:
  Stopping criterion = force tolerance
  Energy initial, next-to-last, final = 
        -17374.7444252       -17374.74872      -17374.748739
  Force two-norm initial, final = 1.50941 3.20465e-10
  Force max component initial, final = 0.187089 2.70779e-11
  Final line search alpha, max atom move = 0 0
  Iterations, force evaluations = 3 481

Pair  time (%) = 1.50782 (92.6432)
Neigh time (%) = 0 (0)
Comm  time (%) = 0.0299578 (1.84066)
Outpt time (%) = 0.000310898 (0.0191021)
Other time (%) = 0.0894684 (5.49709)

Nlocal:    2912 ave 2912 max 2912 min
Histogram: 1 0 0 0 0 0 0 0 0 0
Nghost:    7264 ave 7264 max 7264 min
Histogram: 1 0 0 0 0 0 0 0 0 0
Neighs:    112224 ave 112224 max 112224 min
Histogram: 1 0 0 0 0 0 0 0 0 0

Total # of neighbors = 112224
Ave neighs/atom = 38.5385
Neighbor list builds = 0
Dangerous builds = 0
        next i
jump SELF loop1
        displace_atoms upper move ${xstep1} 0.0 ${zstep1} units lattice
        displace_atoms upper move 0.00166666666666667 0.0 ${zstep1} units lattice
        displace_atoms upper move 0.00166666666666667 0.0 0 units lattice
        min_style ${style}
        min_style hftn
        minimize ${etol} ${ftol} ${maxiter} ${maxeval}
        minimize 1e-12 ${ftol} ${maxiter} ${maxeval}
        minimize 1e-12 1e-08 ${maxiter} ${maxeval}
        minimize 1e-12 1e-08 10000 ${maxeval}
        minimize 1e-12 1e-08 10000 20000
WARNING: Resetting reneighboring criteria during minimization (../min.cpp:168)
Memory usage per processor = 5.2861 Mbytes
Step Temp PotEng Lx Ly Lz 
      74            0   -17374.404    6.9282254    73.502068    4.0000128 
      75            0   -17374.404    6.9282254    73.502068    4.0000128 
      76            0   -17374.406    6.9282254    73.502068    4.0000128 
      77            0   -17374.406    6.9282254    73.502068    4.0000128 
      78            0   -17374.406    6.9282254    73.502068    4.0000128 
Loop time of 1.39133 on 1 procs for 3 steps with 2912 atoms

Minimization stats:
  Stopping criterion = force tolerance
  Energy initial, next-to-last, final = 
        -17374.4039355     -17374.4058038     -17374.4058329
  Force two-norm initial, final = 1.30614 7.28288e-11
  Force max component initial, final = 0.163267 5.05553e-12
  Final line search alpha, max atom move = 0 0
  Iterations, force evaluations = 3 482

Pair  time (%) = 1.28483 (92.3449)
Neigh time (%) = 0 (0)
Comm  time (%) = 0.0223217 (1.60434)
Outpt time (%) = 0.000591944 (0.0425451)
Other time (%) = 0.0835937 (6.00817)

Nlocal:    2912 ave 2912 max 2912 min
Histogram: 1 0 0 0 0 0 0 0 0 0
Nghost:    7264 ave 7264 max 7264 min
Histogram: 1 0 0 0 0 0 0 0 0 0
Neighs:    112224 ave 112224 max 112224 min
Histogram: 1 0 0 0 0 0 0 0 0 0

Total # of neighbors = 112224
Ave neighs/atom = 38.5385
Neighbor list builds = 0
Dangerous builds = 0
        next i
jump SELF loop1
        displace_atoms upper move ${xstep1} 0.0 ${zstep1} units lattice
        displace_atoms upper move 0.00166666666666667 0.0 ${zstep1} units lattice
        displace_atoms upper move 0.00166666666666667 0.0 0 units lattice
        min_style ${style}
        min_style hftn
        minimize ${etol} ${ftol} ${maxiter} ${maxeval}
        minimize 1e-12 ${ftol} ${maxiter} ${maxeval}
        minimize 1e-12 1e-08 ${maxiter} ${maxeval}
        minimize 1e-12 1e-08 10000 ${maxeval}
        minimize 1e-12 1e-08 10000 20000
WARNING: Resetting reneighboring criteria during minimization (../min.cpp:168)
Memory usage per processor = 5.2861 Mbytes
Step Temp PotEng Lx Ly Lz 
      78            0   -17374.029    6.9282254    73.502836    4.0000128 
      79            0   -17374.029    6.9282254    73.502836    4.0000128 
      80            0   -17374.031    6.9282254    73.502836    4.0000128 
      81            0   -17374.031    6.9282254    73.502836    4.0000128 
      82            0   -17374.031    6.9282254    73.502836    4.0000128 
Loop time of 1.34721 on 1 procs for 3 steps with 2912 atoms

Minimization stats:
  Stopping criterion = force tolerance
  Energy initial, next-to-last, final = 
        -17374.0287113     -17374.0310985     -17374.0311304
  Force two-norm initial, final = 1.42498 8.16172e-11
  Force max component initial, final = 0.178123 7.07776e-12
  Final line search alpha, max atom move = 0 0
  Iterations, force evaluations = 3 482

Pair  time (%) = 1.25565 (93.2042)
Neigh time (%) = 0 (0)
Comm  time (%) = 0.0205676 (1.52669)
Outpt time (%) = 0.00044492 (0.0330254)
Other time (%) = 0.0705408 (5.23608)

Nlocal:    2912 ave 2912 max 2912 min
Histogram: 1 0 0 0 0 0 0 0 0 0
Nghost:    7264 ave 7264 max 7264 min
Histogram: 1 0 0 0 0 0 0 0 0 0
Neighs:    112224 ave 112224 max 112224 min
Histogram: 1 0 0 0 0 0 0 0 0 0

Total # of neighbors = 112224
Ave neighs/atom = 38.5385
Neighbor list builds = 0
Dangerous builds = 0
        next i
jump SELF loop1
        displace_atoms upper move ${xstep1} 0.0 ${zstep1} units lattice
        displace_atoms upper move 0.00166666666666667 0.0 ${zstep1} units lattice
        displace_atoms upper move 0.00166666666666667 0.0 0 units lattice
        min_style ${style}
        min_style hftn
        minimize ${etol} ${ftol} ${maxiter} ${maxeval}
        minimize 1e-12 ${ftol} ${maxiter} ${maxeval}
        minimize 1e-12 1e-08 ${maxiter} ${maxeval}
        minimize 1e-12 1e-08 10000 ${maxeval}
        minimize 1e-12 1e-08 10000 20000
WARNING: Resetting reneighboring criteria during minimization (../min.cpp:168)
Memory usage per processor = 5.2861 Mbytes
Step Temp PotEng Lx Ly Lz 
      82            0   -17373.625    6.9282254    73.503674    4.0000128 
      83            0   -17373.626    6.9282254    73.503674    4.0000128 
      84            0   -17373.628    6.9282254    73.503674    4.0000128 
      85            0   -17373.628    6.9282254    73.503674    4.0000128 
      86            0   -17373.628    6.9282254    73.503674    4.0000128 
Loop time of 1.36809 on 1 procs for 3 steps with 2912 atoms

Minimization stats:
  Stopping criterion = force tolerance
  Energy initial, next-to-last, final = 
        -17373.6253387     -17373.6282263     -17373.6282605
  Force two-norm initial, final = 1.52862 9.05823e-11
  Force max component initial, final = 0.191078 5.59026e-12
  Final line search alpha, max atom move = 0 0
  Iterations, force evaluations = 3 485

Pair  time (%) = 1.27871 (93.4669)
Neigh time (%) = 0 (0)
Comm  time (%) = 0.0181068 (1.32351)
Outpt time (%) = 0.000432055 (0.031581)
Other time (%) = 0.0708393 (5.17799)

Nlocal:    2912 ave 2912 max 2912 min
Histogram: 1 0 0 0 0 0 0 0 0 0
Nghost:    7264 ave 7264 max 7264 min
Histogram: 1 0 0 0 0 0 0 0 0 0
Neighs:    112224 ave 112224 max 112224 min
Histogram: 1 0 0 0 0 0 0 0 0 0

Total # of neighbors = 112224
Ave neighs/atom = 38.5385
Neighbor list builds = 0
Dangerous builds = 0
        next i
jump SELF loop1
        displace_atoms upper move ${xstep1} 0.0 ${zstep1} units lattice
        displace_atoms upper move 0.00166666666666667 0.0 ${zstep1} units lattice
        displace_atoms upper move 0.00166666666666667 0.0 0 units lattice
        min_style ${style}
        min_style hftn
        minimize ${etol} ${ftol} ${maxiter} ${maxeval}
        minimize 1e-12 ${ftol} ${maxiter} ${maxeval}
        minimize 1e-12 1e-08 ${maxiter} ${maxeval}
        minimize 1e-12 1e-08 10000 ${maxeval}
        minimize 1e-12 1e-08 10000 20000
WARNING: Resetting reneighboring criteria during minimization (../min.cpp:168)
Memory usage per processor = 5.2861 Mbytes
Step Temp PotEng Lx Ly Lz 
      86            0   -17373.197    6.9282254    73.504574    4.0000128 
      87            0   -17373.198    6.9282254    73.504574    4.0000128 
      88            0     -17373.2    6.9282254    73.504574    4.0000128 
      89            0     -17373.2    6.9282254    73.504574    4.0000128 
      90            0     -17373.2    6.9282254    73.504574    4.0000128 
Loop time of 1.3441 on 1 procs for 3 steps with 2912 atoms

Minimization stats:
  Stopping criterion = force tolerance
  Energy initial, next-to-last, final = 
        -17373.1969425     -17373.1998928     -17373.1999272
  Force two-norm initial, final = 1.6198 1.1776e-10
  Force max component initial, final = 0.202475 6.56247e-12
  Final line search alpha, max atom move = 0 0
  Iterations, force evaluations = 3 484

Pair  time (%) = 1.24763 (92.8226)
Neigh time (%) = 0 (0)
Comm  time (%) = 0.0238193 (1.77214)
Outpt time (%) = 0.000420792 (0.0313067)
Other time (%) = 0.0722311 (5.37395)

Nlocal:    2912 ave 2912 max 2912 min
Histogram: 1 0 0 0 0 0 0 0 0 0
Nghost:    7264 ave 7264 max 7264 min
Histogram: 1 0 0 0 0 0 0 0 0 0
Neighs:    112224 ave 112224 max 112224 min
Histogram: 1 0 0 0 0 0 0 0 0 0

Total # of neighbors = 112224
Ave neighs/atom = 38.5385
Neighbor list builds = 0
Dangerous builds = 0
        next i
jump SELF loop1
        displace_atoms upper move ${xstep1} 0.0 ${zstep1} units lattice
        displace_atoms upper move 0.00166666666666667 0.0 ${zstep1} units lattice
        displace_atoms upper move 0.00166666666666667 0.0 0 units lattice
        min_style ${style}
        min_style hftn
        minimize ${etol} ${ftol} ${maxiter} ${maxeval}
        minimize 1e-12 ${ftol} ${maxiter} ${maxeval}
        minimize 1e-12 1e-08 ${maxiter} ${maxeval}
        minimize 1e-12 1e-08 10000 ${maxeval}
        minimize 1e-12 1e-08 10000 20000
WARNING: Resetting reneighboring criteria during minimization (../min.cpp:168)
Memory usage per processor = 5.2861 Mbytes
Step Temp PotEng Lx Ly Lz 
      90            0   -17372.746    6.9282254     73.50553    4.0000128 
      91            0   -17372.747    6.9282254     73.50553    4.0000128 
      92            0   -17372.749    6.9282254     73.50553    4.0000128 
      93            0   -17372.749    6.9282254     73.50553    4.0000128 
      94            0   -17372.749    6.9282254     73.50553    4.0000128 
Loop time of 1.32137 on 1 procs for 3 steps with 2912 atoms

Minimization stats:
  Stopping criterion = force tolerance
  Energy initial, next-to-last, final = 
        -17372.7461358     -17372.7493042     -17372.7493339
  Force two-norm initial, final = 1.69506 4.73183e-11
  Force max component initial, final = 0.211882 3.55833e-12
  Final line search alpha, max atom move = 0 0
  Iterations, force evaluations = 3 484

Pair  time (%) = 1.23111 (93.1693)
Neigh time (%) = 0 (0)
Comm  time (%) = 0.0174588 (1.32126)
Outpt time (%) = 0.00030899 (0.023384)
Other time (%) = 0.0724908 (5.48602)

Nlocal:    2912 ave 2912 max 2912 min
Histogram: 1 0 0 0 0 0 0 0 0 0
Nghost:    7264 ave 7264 max 7264 min
Histogram: 1 0 0 0 0 0 0 0 0 0
Neighs:    112224 ave 112224 max 112224 min
Histogram: 1 0 0 0 0 0 0 0 0 0

Total # of neighbors = 112224
Ave neighs/atom = 38.5385
Neighbor list builds = 0
Dangerous builds = 0
        next i
jump SELF loop1
        displace_atoms upper move ${xstep1} 0.0 ${zstep1} units lattice
        displace_atoms upper move 0.00166666666666667 0.0 ${zstep1} units lattice
        displace_atoms upper move 0.00166666666666667 0.0 0 units lattice
        min_style ${style}
        min_style hftn
        minimize ${etol} ${ftol} ${maxiter} ${maxeval}
        minimize 1e-12 ${ftol} ${maxiter} ${maxeval}
        minimize 1e-12 1e-08 ${maxiter} ${maxeval}
        minimize 1e-12 1e-08 10000 ${maxeval}
        minimize 1e-12 1e-08 10000 20000
WARNING: Resetting reneighboring criteria during minimization (../min.cpp:168)
Memory usage per processor = 5.2861 Mbytes
Step Temp PotEng Lx Ly Lz 
      94            0   -17372.276    6.9282254    73.506534    4.0000128 
      95            0   -17372.277    6.9282254    73.506534    4.0000128 
      96            0    -17372.28    6.9282254    73.506534    4.0000128 
      97            0    -17372.28    6.9282254    73.506534    4.0000128 
      98            0    -17372.28    6.9282254    73.506534    4.0000128 
Loop time of 1.3105 on 1 procs for 3 steps with 2912 atoms

Minimization stats:
  Stopping criterion = force tolerance
  Energy initial, next-to-last, final = 
        -17372.2764705     -17372.2796257     -17372.2796609
  Force two-norm initial, final = 1.66185 2.35622e-10
  Force max component initial, final = 0.207731 1.57499e-11
  Final line search alpha, max atom move = 0 0
  Iterations, force evaluations = 3 478

Pair  time (%) = 1.21745 (92.8995)
Neigh time (%) = 0 (0)
Comm  time (%) = 0.0189253 (1.44413)
Outpt time (%) = 0.00045085 (0.0344029)
Other time (%) = 0.0736761 (5.62199)

Nlocal:    2912 ave 2912 max 2912 min
Histogram: 1 0 0 0 0 0 0 0 0 0
Nghost:    7264 ave 7264 max 7264 min
Histogram: 1 0 0 0 0 0 0 0 0 0
Neighs:    112224 ave 112224 max 112224 min
Histogram: 1 0 0 0 0 0 0 0 0 0

Total # of neighbors = 112224
Ave neighs/atom = 38.5385
Neighbor list builds = 0
Dangerous builds = 0
        next i
jump SELF loop1
        displace_atoms upper move ${xstep1} 0.0 ${zstep1} units lattice
        displace_atoms upper move 0.00166666666666667 0.0 ${zstep1} units lattice
        displace_atoms upper move 0.00166666666666667 0.0 0 units lattice
        min_style ${style}
        min_style hftn
        minimize ${etol} ${ftol} ${maxiter} ${maxeval}
        minimize 1e-12 ${ftol} ${maxiter} ${maxeval}
        minimize 1e-12 1e-08 ${maxiter} ${maxeval}
        minimize 1e-12 1e-08 10000 ${maxeval}
        minimize 1e-12 1e-08 10000 20000
WARNING: Resetting reneighboring criteria during minimization (../min.cpp:168)
Memory usage per processor = 5.2861 Mbytes
Step Temp PotEng Lx Ly Lz 
      98            0   -17371.785    6.9282254    73.507476    4.0000128 
      99            0   -17371.785    6.9282254    73.507476    4.0000128 
     100            0   -17371.787    6.9282254    73.507476    4.0000128 
     101            0   -17371.787    6.9282254    73.507476    4.0000128 
     102            0   -17371.787    6.9282254    73.507476    4.0000128 
Loop time of 1.34129 on 1 procs for 3 steps with 2912 atoms

Minimization stats:
  Stopping criterion = force tolerance
  Energy initial, next-to-last, final = 
         -17371.784891     -17371.7870071     -17371.7870365
  Force two-norm initial, final = 1.39255 5.26341e-11
  Force max component initial, final = 0.174069 3.56805e-12
  Final line search alpha, max atom move = 0 0
  Iterations, force evaluations = 3 482

Pair  time (%) = 1.24493 (92.8159)
Neigh time (%) = 0 (0)
Comm  time (%) = 0.0230953 (1.72188)
Outpt time (%) = 0.000243925 (0.0181859)
Other time (%) = 0.0730196 (5.444)

Nlocal:    2912 ave 2912 max 2912 min
Histogram: 1 0 0 0 0 0 0 0 0 0
Nghost:    7264 ave 7264 max 7264 min
Histogram: 1 0 0 0 0 0 0 0 0 0
Neighs:    112224 ave 112224 max 112224 min
Histogram: 1 0 0 0 0 0 0 0 0 0

Total # of neighbors = 112224
Ave neighs/atom = 38.5385
Neighbor list builds = 0
Dangerous builds = 0
        next i
jump SELF loop1
        displace_atoms upper move ${xstep1} 0.0 ${zstep1} units lattice
        displace_atoms upper move 0.00166666666666667 0.0 ${zstep1} units lattice
        displace_atoms upper move 0.00166666666666667 0.0 0 units lattice
        min_style ${style}
        min_style hftn
        minimize ${etol} ${ftol} ${maxiter} ${maxeval}
        minimize 1e-12 ${ftol} ${maxiter} ${maxeval}
        minimize 1e-12 1e-08 ${maxiter} ${maxeval}
        minimize 1e-12 1e-08 10000 ${maxeval}
        minimize 1e-12 1e-08 10000 20000
WARNING: Resetting reneighboring criteria during minimization (../min.cpp:168)
Memory usage per processor = 5.2861 Mbytes
Step Temp PotEng Lx Ly Lz 
     102            0   -17371.269    6.9282254    73.508264    4.0000128 
     103            0    -17371.27    6.9282254    73.508264    4.0000128 
     104            0   -17371.272    6.9282254    73.508264    4.0000128 
     105            0   -17371.272    6.9282254    73.508264    4.0000128 
     106            0   -17371.272    6.9282254    73.508264    4.0000128 
Loop time of 1.33433 on 1 procs for 3 steps with 2912 atoms

Minimization stats:
  Stopping criterion = force tolerance
  Energy initial, next-to-last, final = 
        -17371.2693866     -17371.2715666     -17371.2715943
  Force two-norm initial, final = 1.38205 3.14485e-11
  Force max component initial, final = 0.172756 2.50832e-12
  Final line search alpha, max atom move = 0 0
  Iterations, force evaluations = 3 482

Pair  time (%) = 1.23923 (92.8732)
Neigh time (%) = 0 (0)
Comm  time (%) = 0.0193601 (1.45093)
Outpt time (%) = 0.000356071 (0.0266854)
Other time (%) = 0.0753781 (5.64915)

Nlocal:    2912 ave 2912 max 2912 min
Histogram: 1 0 0 0 0 0 0 0 0 0
Nghost:    7264 ave 7264 max 7264 min
Histogram: 1 0 0 0 0 0 0 0 0 0
Neighs:    112224 ave 112224 max 112224 min
Histogram: 1 0 0 0 0 0 0 0 0 0

Total # of neighbors = 112224
Ave neighs/atom = 38.5385
Neighbor list builds = 0
Dangerous builds = 0
        next i
jump SELF loop1
        displace_atoms upper move ${xstep1} 0.0 ${zstep1} units lattice
        displace_atoms upper move 0.00166666666666667 0.0 ${zstep1} units lattice
        displace_atoms upper move 0.00166666666666667 0.0 0 units lattice
        min_style ${style}
        min_style hftn
        minimize ${etol} ${ftol} ${maxiter} ${maxeval}
        minimize 1e-12 ${ftol} ${maxiter} ${maxeval}
        minimize 1e-12 1e-08 ${maxiter} ${maxeval}
        minimize 1e-12 1e-08 10000 ${maxeval}
        minimize 1e-12 1e-08 10000 20000
WARNING: Resetting reneighboring criteria during minimization (../min.cpp:168)
Memory usage per processor = 5.2861 Mbytes
Step Temp PotEng Lx Ly Lz 
     106            0   -17370.733    6.9282254    73.509042    4.0000128 
     107            0   -17370.734    6.9282254    73.509042    4.0000128 
     108            0   -17370.735    6.9282254    73.509042    4.0000128 
     109            0   -17370.735    6.9282254    73.509042    4.0000128 
     110            0   -17370.735    6.9282254    73.509042    4.0000128 
Loop time of 1.39855 on 1 procs for 3 steps with 2912 atoms

Minimization stats:
  Stopping criterion = force tolerance
  Energy initial, next-to-last, final = 
        -17370.7331011     -17370.7352133     -17370.7352422
  Force two-norm initial, final = 1.36964 7.30951e-11
  Force max component initial, final = 0.171205 5.59025e-12
  Final line search alpha, max atom move = 0 0
  Iterations, force evaluations = 3 487

Pair  time (%) = 1.29857 (92.8513)
Neigh time (%) = 0 (0)
Comm  time (%) = 0.0194486 (1.39062)
Outpt time (%) = 0.000334044 (0.023885)
Other time (%) = 0.0801949 (5.73415)

Nlocal:    2912 ave 2912 max 2912 min
Histogram: 1 0 0 0 0 0 0 0 0 0
Nghost:    7264 ave 7264 max 7264 min
Histogram: 1 0 0 0 0 0 0 0 0 0
Neighs:    112160 ave 112160 max 112160 min
Histogram: 1 0 0 0 0 0 0 0 0 0

Total # of neighbors = 112160
Ave neighs/atom = 38.5165
Neighbor list builds = 0
Dangerous builds = 0
        next i
jump SELF loop1
        displace_atoms upper move ${xstep1} 0.0 ${zstep1} units lattice
        displace_atoms upper move 0.00166666666666667 0.0 ${zstep1} units lattice
        displace_atoms upper move 0.00166666666666667 0.0 0 units lattice
        min_style ${style}
        min_style hftn
        minimize ${etol} ${ftol} ${maxiter} ${maxeval}
        minimize 1e-12 ${ftol} ${maxiter} ${maxeval}
        minimize 1e-12 1e-08 ${maxiter} ${maxeval}
        minimize 1e-12 1e-08 10000 ${maxeval}
        minimize 1e-12 1e-08 10000 20000
WARNING: Resetting reneighboring criteria during minimization (../min.cpp:168)
Memory usage per processor = 5.2861 Mbytes
Step Temp PotEng Lx Ly Lz 
     110            0   -17370.179    6.9282254    73.509811    4.0000128 
     111            0   -17370.179    6.9282254    73.509811    4.0000128 
     112            0   -17370.181    6.9282254    73.509811    4.0000128 
     113            0   -17370.181    6.9282254    73.509811    4.0000128 
     114            0   -17370.181    6.9282254    73.509811    4.0000128 
Loop time of 1.3821 on 1 procs for 3 steps with 2912 atoms

Minimization stats:
  Stopping criterion = force tolerance
  Energy initial, next-to-last, final = 
        -17370.1786936     -17370.1806894     -17370.1807177
  Force two-norm initial, final = 1.35122 1.60893e-10
  Force max component initial, final = 0.168902 1.06652e-11
  Final line search alpha, max atom move = 0 0
  Iterations, force evaluations = 3 483

Pair  time (%) = 1.28883 (93.2514)
Neigh time (%) = 0 (0)
Comm  time (%) = 0.0182837 (1.32289)
Outpt time (%) = 0.000287022 (0.0207671)
Other time (%) = 0.0747024 (5.40499)

Nlocal:    2912 ave 2912 max 2912 min
Histogram: 1 0 0 0 0 0 0 0 0 0
Nghost:    7264 ave 7264 max 7264 min
Histogram: 1 0 0 0 0 0 0 0 0 0
Neighs:    112160 ave 112160 max 112160 min
Histogram: 1 0 0 0 0 0 0 0 0 0

Total # of neighbors = 112160
Ave neighs/atom = 38.5165
Neighbor list builds = 0
Dangerous builds = 0
        next i
jump SELF loop1
        displace_atoms upper move ${xstep1} 0.0 ${zstep1} units lattice
        displace_atoms upper move 0.00166666666666667 0.0 ${zstep1} units lattice
        displace_atoms upper move 0.00166666666666667 0.0 0 units lattice
        min_style ${style}
        min_style hftn
        minimize ${etol} ${ftol} ${maxiter} ${maxeval}
        minimize 1e-12 ${ftol} ${maxiter} ${maxeval}
        minimize 1e-12 1e-08 ${maxiter} ${maxeval}
        minimize 1e-12 1e-08 10000 ${maxeval}
        minimize 1e-12 1e-08 10000 20000
WARNING: Resetting reneighboring criteria during minimization (../min.cpp:168)
Memory usage per processor = 5.2861 Mbytes
Step Temp PotEng Lx Ly Lz 
     114            0   -17369.608    6.9282254    73.510567    4.0000128 
     115            0   -17369.608    6.9282254    73.510567    4.0000128 
     116            0    -17369.61    6.9282254    73.510567    4.0000128 
     117            0    -17369.61    6.9282254    73.510567    4.0000128 
     118            0    -17369.61    6.9282254    73.510567    4.0000128 
Loop time of 1.40844 on 1 procs for 3 steps with 2912 atoms

Minimization stats:
  Stopping criterion = force tolerance
  Energy initial, next-to-last, final = 
        -17369.6084022     -17369.6101974     -17369.6102251
  Force two-norm initial, final = 1.3293 1.10408e-10
  Force max component initial, final = 0.166162 8.49717e-12
  Final line search alpha, max atom move = 0 0
  Iterations, force evaluations = 3 485

Pair  time (%) = 1.31698 (93.5058)
Neigh time (%) = 0 (0)
Comm  time (%) = 0.018372 (1.30442)
Outpt time (%) = 0.0003098 (0.0219959)
Other time (%) = 0.0727854 (5.1678)

Nlocal:    2912 ave 2912 max 2912 min
Histogram: 1 0 0 0 0 0 0 0 0 0
Nghost:    7264 ave 7264 max 7264 min
Histogram: 1 0 0 0 0 0 0 0 0 0
Neighs:    112160 ave 112160 max 112160 min
Histogram: 1 0 0 0 0 0 0 0 0 0

Total # of neighbors = 112160
Ave neighs/atom = 38.5165
Neighbor list builds = 0
Dangerous builds = 0
        next i
jump SELF loop1
        displace_atoms upper move ${xstep1} 0.0 ${zstep1} units lattice
        displace_atoms upper move 0.00166666666666667 0.0 ${zstep1} units lattice
        displace_atoms upper move 0.00166666666666667 0.0 0 units lattice
        min_style ${style}
        min_style hftn
        minimize ${etol} ${ftol} ${maxiter} ${maxeval}
        minimize 1e-12 ${ftol} ${maxiter} ${maxeval}
        minimize 1e-12 1e-08 ${maxiter} ${maxeval}
        minimize 1e-12 1e-08 10000 ${maxeval}
        minimize 1e-12 1e-08 10000 20000
WARNING: Resetting reneighboring criteria during minimization (../min.cpp:168)
Memory usage per processor = 5.2861 Mbytes
Step Temp PotEng Lx Ly Lz 
     118            0   -17369.023    6.9282254    73.511309    4.0000128 
     119            0   -17369.024    6.9282254    73.511309    4.0000128 
     120            0   -17369.025    6.9282254    73.511309    4.0000128 
     121            0   -17369.025    6.9282254    73.511309    4.0000128 
     122            0   -17369.025    6.9282254    73.511309    4.0000128 
Loop time of 1.4391 on 1 procs for 3 steps with 2912 atoms

Minimization stats:
  Stopping criterion = force tolerance
  Energy initial, next-to-last, final = 
        -17369.0232625     -17369.0252455      -17369.025273
  Force two-norm initial, final = 1.30974 3.21444e-11
  Force max component initial, final = 0.163718 1.75971e-12
  Final line search alpha, max atom move = 0 0
  Iterations, force evaluations = 3 507

Pair  time (%) = 1.3306 (92.4605)
Neigh time (%) = 0 (0)
Comm  time (%) = 0.0296034 (2.05707)
Outpt time (%) = 0.000273071 (0.0189751)
Other time (%) = 0.0786249 (5.46347)

Nlocal:    2912 ave 2912 max 2912 min
Histogram: 1 0 0 0 0 0 0 0 0 0
Nghost:    7264 ave 7264 max 7264 min
Histogram: 1 0 0 0 0 0 0 0 0 0
Neighs:    112032 ave 112032 max 112032 min
Histogram: 1 0 0 0 0 0 0 0 0 0

Total # of neighbors = 112032
Ave neighs/atom = 38.4725
Neighbor list builds = 0
Dangerous builds = 0
        next i
jump SELF loop1
        displace_atoms upper move ${xstep1} 0.0 ${zstep1} units lattice
        displace_atoms upper move 0.00166666666666667 0.0 ${zstep1} units lattice
        displace_atoms upper move 0.00166666666666667 0.0 0 units lattice
        min_style ${style}
        min_style hftn
        minimize ${etol} ${ftol} ${maxiter} ${maxeval}
        minimize 1e-12 ${ftol} ${maxiter} ${maxeval}
        minimize 1e-12 1e-08 ${maxiter} ${maxeval}
        minimize 1e-12 1e-08 10000 ${maxeval}
        minimize 1e-12 1e-08 10000 20000
WARNING: Resetting reneighboring criteria during minimization (../min.cpp:168)
Memory usage per processor = 5.2861 Mbytes
Step Temp PotEng Lx Ly Lz 
     122            0   -17368.426    6.9282254    73.512037    4.0000128 
     123            0   -17368.427    6.9282254    73.512037    4.0000128 
     124            0   -17368.428    6.9282254    73.512037    4.0000128 
     125            0   -17368.428    6.9282254    73.512037    4.0000128 
     126            0   -17368.428    6.9282254    73.512037    4.0000128 
Loop time of 1.3861 on 1 procs for 3 steps with 2912 atoms

Minimization stats:
  Stopping criterion = force tolerance
  Energy initial, next-to-last, final = 
        -17368.4263678     -17368.4281168     -17368.4281435
  Force two-norm initial, final = 1.28481 1.86206e-10
  Force max component initial, final = 0.160601 1.16958e-11
  Final line search alpha, max atom move = 0 0
  Iterations, force evaluations = 3 483

Pair  time (%) = 1.2874 (92.8795)
Neigh time (%) = 0 (0)
Comm  time (%) = 0.0179587 (1.29563)
Outpt time (%) = 0.000253132 (0.0182622)
Other time (%) = 0.0804859 (5.80665)

Nlocal:    2912 ave 2912 max 2912 min
Histogram: 1 0 0 0 0 0 0 0 0 0
Nghost:    7264 ave 7264 max 7264 min
Histogram: 1 0 0 0 0 0 0 0 0 0
Neighs:    112032 ave 112032 max 112032 min
Histogram: 1 0 0 0 0 0 0 0 0 0

Total # of neighbors = 112032
Ave neighs/atom = 38.4725
Neighbor list builds = 0
Dangerous builds = 0
        next i
jump SELF loop1
        displace_atoms upper move ${xstep1} 0.0 ${zstep1} units lattice
        displace_atoms upper move 0.00166666666666667 0.0 ${zstep1} units lattice
        displace_atoms upper move 0.00166666666666667 0.0 0 units lattice
        min_style ${style}
        min_style hftn
        minimize ${etol} ${ftol} ${maxiter} ${maxeval}
        minimize 1e-12 ${ftol} ${maxiter} ${maxeval}
        minimize 1e-12 1e-08 ${maxiter} ${maxeval}
        minimize 1e-12 1e-08 10000 ${maxeval}
        minimize 1e-12 1e-08 10000 20000
WARNING: Resetting reneighboring criteria during minimization (../min.cpp:168)
Memory usage per processor = 5.2861 Mbytes
Step Temp PotEng Lx Ly Lz 
     126            0    -17367.82    6.9282254     73.51275    4.0000128 
     127            0    -17367.82    6.9282254     73.51275    4.0000128 
     128            0   -17367.822    6.9282254     73.51275    4.0000128 
     129            0   -17367.822    6.9282254     73.51275    4.0000128 
     130            0   -17367.822    6.9282254     73.51275    4.0000128 
Loop time of 1.40077 on 1 procs for 3 steps with 2912 atoms

Minimization stats:
  Stopping criterion = force tolerance
  Energy initial, next-to-last, final = 
        -17367.8199956     -17367.8217218     -17367.8217488
  Force two-norm initial, final = 1.25456 6.04415e-11
  Force max component initial, final = 0.15682 3.83054e-12
  Final line search alpha, max atom move = 0 0
  Iterations, force evaluations = 3 487

Pair  time (%) = 1.29727 (92.6111)
Neigh time (%) = 0 (0)
Comm  time (%) = 0.0294552 (2.10278)
Outpt time (%) = 0.000202968 (0.0144898)
Other time (%) = 0.073843 (5.27159)

Nlocal:    2912 ave 2912 max 2912 min
Histogram: 1 0 0 0 0 0 0 0 0 0
Nghost:    7264 ave 7264 max 7264 min
Histogram: 1 0 0 0 0 0 0 0 0 0
Neighs:    112032 ave 112032 max 112032 min
Histogram: 1 0 0 0 0 0 0 0 0 0

Total # of neighbors = 112032
Ave neighs/atom = 38.4725
Neighbor list builds = 0
Dangerous builds = 0
        next i
jump SELF loop1
        displace_atoms upper move ${xstep1} 0.0 ${zstep1} units lattice
        displace_atoms upper move 0.00166666666666667 0.0 ${zstep1} units lattice
        displace_atoms upper move 0.00166666666666667 0.0 0 units lattice
        min_style ${style}
        min_style hftn
        minimize ${etol} ${ftol} ${maxiter} ${maxeval}
        minimize 1e-12 ${ftol} ${maxiter} ${maxeval}
        minimize 1e-12 1e-08 ${maxiter} ${maxeval}
        minimize 1e-12 1e-08 10000 ${maxeval}
        minimize 1e-12 1e-08 10000 20000
WARNING: Resetting reneighboring criteria during minimization (../min.cpp:168)
Memory usage per processor = 5.2861 Mbytes
Step Temp PotEng Lx Ly Lz 
     130            0   -17367.205    6.9282254    73.513445    4.0000128 
     131            0   -17367.205    6.9282254    73.513445    4.0000128 
     132            0   -17367.207    6.9282254    73.513445    4.0000128 
     133            0   -17367.207    6.9282254    73.513445    4.0000128 
     134            0   -17367.207    6.9282254    73.513445    4.0000128 
Loop time of 1.40252 on 1 procs for 3 steps with 2912 atoms

Minimization stats:
  Stopping criterion = force tolerance
  Energy initial, next-to-last, final = 
        -17367.2050513     -17367.2067397     -17367.2067653
  Force two-norm initial, final = 1.22885 6.40188e-11
  Force max component initial, final = 0.153607 4.71526e-12
  Final line search alpha, max atom move = 0 0
  Iterations, force evaluations = 3 487

Pair  time (%) = 1.3124 (93.5742)
Neigh time (%) = 0 (0)
Comm  time (%) = 0.0184014 (1.31202)
Outpt time (%) = 0.000417044 (0.0297352)
Other time (%) = 0.0713043 (5.084)

Nlocal:    2912 ave 2912 max 2912 min
Histogram: 1 0 0 0 0 0 0 0 0 0
Nghost:    7264 ave 7264 max 7264 min
Histogram: 1 0 0 0 0 0 0 0 0 0
Neighs:    112032 ave 112032 max 112032 min
Histogram: 1 0 0 0 0 0 0 0 0 0

Total # of neighbors = 112032
Ave neighs/atom = 38.4725
Neighbor list builds = 0
Dangerous builds = 0
        next i
jump SELF loop1
        displace_atoms upper move ${xstep1} 0.0 ${zstep1} units lattice
        displace_atoms upper move 0.00166666666666667 0.0 ${zstep1} units lattice
        displace_atoms upper move 0.00166666666666667 0.0 0 units lattice
        min_style ${style}
        min_style hftn
        minimize ${etol} ${ftol} ${maxiter} ${maxeval}
        minimize 1e-12 ${ftol} ${maxiter} ${maxeval}
        minimize 1e-12 1e-08 ${maxiter} ${maxeval}
        minimize 1e-12 1e-08 10000 ${maxeval}
        minimize 1e-12 1e-08 10000 20000
WARNING: Resetting reneighboring criteria during minimization (../min.cpp:168)
Memory usage per processor = 5.2861 Mbytes
Step Temp PotEng Lx Ly Lz 
     134            0   -17366.585    6.9282254    73.514124    4.0000128 
     135            0   -17366.585    6.9282254    73.514124    4.0000128 
     136            0   -17366.585    6.9282254    73.514124    4.0000128 
     137            0   -17366.585    6.9282254    73.514124    4.0000128 
     138            0   -17366.585    6.9282254    73.514124    4.0000128 
     139            0   -17366.585    6.9282254    73.514124    4.0000128 
     140            0   -17366.585    6.9282254    73.514124    4.0000128 
     141            0   -17366.585    6.9282254    73.514124    4.0000128 
     142            0   -17366.585    6.9282254    73.514124    4.0000128 
     143            0   -17366.585    6.9282254    73.514124    4.0000128 
     144            0   -17366.585    6.9282254    73.514124    4.0000128 
Loop time of 0.218754 on 1 procs for 9 steps with 2912 atoms

Minimization stats:
  Stopping criterion = energy tolerance
  Energy initial, next-to-last, final = 
        -17366.5853865     -17366.5853865     -17366.5854279
  Force two-norm initial, final = 1.19222 1.04607
  Force max component initial, final = 0.149027 0.130625
  Final line search alpha, max atom move = 0 0
  Iterations, force evaluations = 9 74

Pair  time (%) = 0.201953 (92.3195)
Neigh time (%) = 0 (0)
Comm  time (%) = 0.0043478 (1.98753)
Outpt time (%) = 0.00154924 (0.70821)
Other time (%) = 0.0109043 (4.98475)

Nlocal:    2912 ave 2912 max 2912 min
Histogram: 1 0 0 0 0 0 0 0 0 0
Nghost:    7264 ave 7264 max 7264 min
Histogram: 1 0 0 0 0 0 0 0 0 0
Neighs:    112032 ave 112032 max 112032 min
Histogram: 1 0 0 0 0 0 0 0 0 0

Total # of neighbors = 112032
Ave neighs/atom = 38.4725
Neighbor list builds = 0
Dangerous builds = 0
        next i
jump SELF loop1
        displace_atoms upper move ${xstep1} 0.0 ${zstep1} units lattice
        displace_atoms upper move 0.00166666666666667 0.0 ${zstep1} units lattice
        displace_atoms upper move 0.00166666666666667 0.0 0 units lattice
        min_style ${style}
        min_style hftn
        minimize ${etol} ${ftol} ${maxiter} ${maxeval}
        minimize 1e-12 ${ftol} ${maxiter} ${maxeval}
        minimize 1e-12 1e-08 ${maxiter} ${maxeval}
        minimize 1e-12 1e-08 10000 ${maxeval}
        minimize 1e-12 1e-08 10000 20000
WARNING: Resetting reneighboring criteria during minimization (../min.cpp:168)
Memory usage per processor = 5.2861 Mbytes
Step Temp PotEng Lx Ly Lz 
     144            0   -17365.957    6.9282254    73.514124    4.0000128 
     145            0    -17365.96    6.9282254    73.514124    4.0000128 
     146            0   -17365.963    6.9282254    73.514124    4.0000128 
     147            0   -17365.963    6.9282254    73.514124    4.0000128 
     148            0   -17365.963    6.9282254    73.514124    4.0000128 
Loop time of 1.33981 on 1 procs for 3 steps with 2912 atoms

Minimization stats:
  Stopping criterion = force tolerance
  Energy initial, next-to-last, final = 
        -17365.9569026     -17365.9626086     -17365.9626562
  Force two-norm initial, final = 2.22019 1.17751e-10
  Force max component initial, final = 0.277461 1.015e-11
  Final line search alpha, max atom move = 0 0
  Iterations, force evaluations = 3 476

Pair  time (%) = 1.24001 (92.5512)
Neigh time (%) = 0 (0)
Comm  time (%) = 0.0201622 (1.50486)
Outpt time (%) = 0.000545117 (0.0406862)
Other time (%) = 0.0790918 (5.90323)

Nlocal:    2912 ave 2912 max 2912 min
Histogram: 1 0 0 0 0 0 0 0 0 0
Nghost:    7264 ave 7264 max 7264 min
Histogram: 1 0 0 0 0 0 0 0 0 0
Neighs:    112032 ave 112032 max 112032 min
Histogram: 1 0 0 0 0 0 0 0 0 0

Total # of neighbors = 112032
Ave neighs/atom = 38.4725
Neighbor list builds = 0
Dangerous builds = 0
        next i
jump SELF loop1
        displace_atoms upper move ${xstep1} 0.0 ${zstep1} units lattice
        displace_atoms upper move 0.00166666666666667 0.0 ${zstep1} units lattice
        displace_atoms upper move 0.00166666666666667 0.0 0 units lattice
        min_style ${style}
        min_style hftn
        minimize ${etol} ${ftol} ${maxiter} ${maxeval}
        minimize 1e-12 ${ftol} ${maxiter} ${maxeval}
        minimize 1e-12 1e-08 ${maxiter} ${maxeval}
        minimize 1e-12 1e-08 10000 ${maxeval}
        minimize 1e-12 1e-08 10000 20000
WARNING: Resetting reneighboring criteria during minimization (../min.cpp:168)
Memory usage per processor = 5.2861 Mbytes
Step Temp PotEng Lx Ly Lz 
     148            0   -17365.336    6.9282254    73.515423    4.0000128 
     149            0   -17365.336    6.9282254    73.515423    4.0000128 
     150            0   -17365.336    6.9282254    73.515423    4.0000128 
     151            0   -17365.336    6.9282254    73.515423    4.0000128 
     152            0   -17365.336    6.9282254    73.515423    4.0000128 
     153            0   -17365.336    6.9282254    73.515423    4.0000128 
     154            0   -17365.336    6.9282254    73.515423    4.0000128 
     155            0   -17365.336    6.9282254    73.515423    4.0000128 
     156            0   -17365.336    6.9282254    73.515423    4.0000128 
     157            0   -17365.336    6.9282254    73.515423    4.0000128 
Loop time of 0.205341 on 1 procs for 8 steps with 2912 atoms

Minimization stats:
  Stopping criterion = energy tolerance
  Energy initial, next-to-last, final = 
        -17365.3363451     -17365.3363451     -17365.3363451
  Force two-norm initial, final = 1.12134 1.12131
  Force max component initial, final = 0.140168 0.140164
  Final line search alpha, max atom move = 0 0
  Iterations, force evaluations = 8 69

Pair  time (%) = 0.192075 (93.5396)
Neigh time (%) = 0 (0)
Comm  time (%) = 0.00351021 (1.70945)
Outpt time (%) = 0.000850872 (0.41437)
Other time (%) = 0.00890484 (4.33661)

Nlocal:    2912 ave 2912 max 2912 min
Histogram: 1 0 0 0 0 0 0 0 0 0
Nghost:    7264 ave 7264 max 7264 min
Histogram: 1 0 0 0 0 0 0 0 0 0
Neighs:    112032 ave 112032 max 112032 min
Histogram: 1 0 0 0 0 0 0 0 0 0

Total # of neighbors = 112032
Ave neighs/atom = 38.4725
Neighbor list builds = 0
Dangerous builds = 0
        next i
jump SELF loop1
        displace_atoms upper move ${xstep1} 0.0 ${zstep1} units lattice
        displace_atoms upper move 0.00166666666666667 0.0 ${zstep1} units lattice
        displace_atoms upper move 0.00166666666666667 0.0 0 units lattice
        min_style ${style}
        min_style hftn
        minimize ${etol} ${ftol} ${maxiter} ${maxeval}
        minimize 1e-12 ${ftol} ${maxiter} ${maxeval}
        minimize 1e-12 1e-08 ${maxiter} ${maxeval}
        minimize 1e-12 1e-08 10000 ${maxeval}
        minimize 1e-12 1e-08 10000 20000
WARNING: Resetting reneighboring criteria during minimization (../min.cpp:168)
Memory usage per processor = 5.2861 Mbytes
Step Temp PotEng Lx Ly Lz 
     157            0   -17364.707    6.9282254    73.515423    4.0000128 
     158            0    -17364.71    6.9282254    73.515423    4.0000128 
     159            0   -17364.712    6.9282254    73.515423    4.0000128 
     160            0   -17364.712    6.9282254    73.515423    4.0000128 
     161            0   -17364.712    6.9282254    73.515423    4.0000128 
Loop time of 1.32269 on 1 procs for 3 steps with 2912 atoms

Minimization stats:
  Stopping criterion = force tolerance
  Energy initial, next-to-last, final = 
        -17364.7071574     -17364.7124109      -17364.712456
  Force two-norm initial, final = 2.21999 3.44908e-10
  Force max component initial, final = 0.277499 1.98624e-11
  Final line search alpha, max atom move = 0 0
  Iterations, force evaluations = 3 474

Pair  time (%) = 1.22198 (92.386)
Neigh time (%) = 0 (0)
Comm  time (%) = 0.0222893 (1.68516)
Outpt time (%) = 0.000245152 (0.0185343)
Other time (%) = 0.0781754 (5.91035)

Nlocal:    2912 ave 2912 max 2912 min
Histogram: 1 0 0 0 0 0 0 0 0 0
Nghost:    7264 ave 7264 max 7264 min
Histogram: 1 0 0 0 0 0 0 0 0 0
Neighs:    112032 ave 112032 max 112032 min
Histogram: 1 0 0 0 0 0 0 0 0 0

Total # of neighbors = 112032
Ave neighs/atom = 38.4725
Neighbor list builds = 0
Dangerous builds = 0
        next i
jump SELF loop1
        displace_atoms upper move ${xstep1} 0.0 ${zstep1} units lattice
        displace_atoms upper move 0.00166666666666667 0.0 ${zstep1} units lattice
        displace_atoms upper move 0.00166666666666667 0.0 0 units lattice
        min_style ${style}
        min_style hftn
        minimize ${etol} ${ftol} ${maxiter} ${maxeval}
        minimize 1e-12 ${ftol} ${maxiter} ${maxeval}
        minimize 1e-12 1e-08 ${maxiter} ${maxeval}
        minimize 1e-12 1e-08 10000 ${maxeval}
        minimize 1e-12 1e-08 10000 20000
WARNING: Resetting reneighboring criteria during minimization (../min.cpp:168)
Memory usage per processor = 5.2861 Mbytes
Step Temp PotEng Lx Ly Lz 
     161            0   -17364.089    6.9282254     73.51664    4.0000128 
     162            0   -17364.089    6.9282254     73.51664    4.0000128 
     163            0   -17364.089    6.9282254     73.51664    4.0000128 
     164            0   -17364.089    6.9282254     73.51664    4.0000128 
     165            0   -17364.089    6.9282254     73.51664    4.0000128 
     166            0   -17364.089    6.9282254     73.51664    4.0000128 
     167            0   -17364.089    6.9282254     73.51664    4.0000128 
     168            0   -17364.089    6.9282254     73.51664    4.0000128 
     169            0   -17364.089    6.9282254     73.51664    4.0000128 
     170            0   -17364.089    6.9282254     73.51664    4.0000128 
Loop time of 0.204063 on 1 procs for 8 steps with 2912 atoms

Minimization stats:
  Stopping criterion = energy tolerance
  Energy initial, next-to-last, final = 
        -17364.0893528     -17364.0893528     -17364.0893528
  Force two-norm initial, final = 1.04299 1.04296
  Force max component initial, final = 0.130374 0.13037
  Final line search alpha, max atom move = 0 0
  Iterations, force evaluations = 8 69

Pair  time (%) = 0.191572 (93.8787)
Neigh time (%) = 0 (0)
Comm  time (%) = 0.00329461 (1.6145)
Outpt time (%) = 0.000743011 (0.364109)
Other time (%) = 0.00845371 (4.14269)

Nlocal:    2912 ave 2912 max 2912 min
Histogram: 1 0 0 0 0 0 0 0 0 0
Nghost:    7264 ave 7264 max 7264 min
Histogram: 1 0 0 0 0 0 0 0 0 0
Neighs:    112032 ave 112032 max 112032 min
Histogram: 1 0 0 0 0 0 0 0 0 0

Total # of neighbors = 112032
Ave neighs/atom = 38.4725
Neighbor list builds = 0
Dangerous builds = 0
        next i
jump SELF loop1
        displace_atoms upper move ${xstep1} 0.0 ${zstep1} units lattice
        displace_atoms upper move 0.00166666666666667 0.0 ${zstep1} units lattice
        displace_atoms upper move 0.00166666666666667 0.0 0 units lattice
        min_style ${style}
        min_style hftn
        minimize ${etol} ${ftol} ${maxiter} ${maxeval}
        minimize 1e-12 ${ftol} ${maxiter} ${maxeval}
        minimize 1e-12 1e-08 ${maxiter} ${maxeval}
        minimize 1e-12 1e-08 10000 ${maxeval}
        minimize 1e-12 1e-08 10000 20000
WARNING: Resetting reneighboring criteria during minimization (../min.cpp:168)
Memory usage per processor = 5.2861 Mbytes
Step Temp PotEng Lx Ly Lz 
     170            0   -17363.469    6.9282254     73.51664    4.0000128 
     171            0    -17363.47    6.9282254     73.51664    4.0000128 
     172            0   -17363.473    6.9282254     73.51664    4.0000128 
     173            0   -17363.473    6.9282254     73.51664    4.0000128 
     174            0   -17363.473    6.9282254     73.51664    4.0000128 
Loop time of 1.35477 on 1 procs for 3 steps with 2912 atoms

Minimization stats:
  Stopping criterion = force tolerance
  Energy initial, next-to-last, final = 
        -17363.4687689     -17363.4727751     -17363.4728175
  Force two-norm initial, final = 2.05285 1.05122e-10
  Force max component initial, final = 0.256606 6.62082e-12
  Final line search alpha, max atom move = 0 0
  Iterations, force evaluations = 3 476

Pair  time (%) = 1.26176 (93.1349)
Neigh time (%) = 0 (0)
Comm  time (%) = 0.0187715 (1.38559)
Outpt time (%) = 0.00176422 (0.130223)
Other time (%) = 0.0724705 (5.34929)

Nlocal:    2912 ave 2912 max 2912 min
Histogram: 1 0 0 0 0 0 0 0 0 0
Nghost:    7264 ave 7264 max 7264 min
Histogram: 1 0 0 0 0 0 0 0 0 0
Neighs:    112032 ave 112032 max 112032 min
Histogram: 1 0 0 0 0 0 0 0 0 0

Total # of neighbors = 112032
Ave neighs/atom = 38.4725
Neighbor list builds = 0
Dangerous builds = 0
        next i
jump SELF loop1
        displace_atoms upper move ${xstep1} 0.0 ${zstep1} units lattice
        displace_atoms upper move 0.00166666666666667 0.0 ${zstep1} units lattice
        displace_atoms upper move 0.00166666666666667 0.0 0 units lattice
        min_style ${style}
        min_style hftn
        minimize ${etol} ${ftol} ${maxiter} ${maxeval}
        minimize 1e-12 ${ftol} ${maxiter} ${maxeval}
        minimize 1e-12 1e-08 ${maxiter} ${maxeval}
        minimize 1e-12 1e-08 10000 ${maxeval}
        minimize 1e-12 1e-08 10000 20000
WARNING: Resetting reneighboring criteria during minimization (../min.cpp:168)
Memory usage per processor = 5.2861 Mbytes
Step Temp PotEng Lx Ly Lz 
     174            0   -17362.861    6.9282254    73.517767    4.0000128 
     175            0   -17362.861    6.9282254    73.517767    4.0000128 
     176            0   -17362.863    6.9282254    73.517767    4.0000128 
     177            0   -17362.863    6.9282254    73.517767    4.0000128 
     178            0   -17362.863    6.9282254    73.517767    4.0000128 
Loop time of 1.94246 on 1 procs for 3 steps with 2912 atoms

Minimization stats:
  Stopping criterion = force tolerance
  Energy initial, next-to-last, final = 
        -17362.8612024      -17362.862717      -17362.862733
  Force two-norm initial, final = 0.956617 3.13775e-11
  Force max component initial, final = 0.119577 1.75971e-12
  Final line search alpha, max atom move = 0 0
  Iterations, force evaluations = 3 653

Pair  time (%) = 1.78978 (92.1401)
Neigh time (%) = 0 (0)
Comm  time (%) = 0.032187 (1.65702)
Outpt time (%) = 0.000569804 (0.0293342)
Other time (%) = 0.119919 (6.17357)

Nlocal:    2912 ave 2912 max 2912 min
Histogram: 1 0 0 0 0 0 0 0 0 0
Nghost:    7264 ave 7264 max 7264 min
Histogram: 1 0 0 0 0 0 0 0 0 0
Neighs:    112032 ave 112032 max 112032 min
Histogram: 1 0 0 0 0 0 0 0 0 0

Total # of neighbors = 112032
Ave neighs/atom = 38.4725
Neighbor list builds = 0
Dangerous builds = 0
        next i
jump SELF loop1
        displace_atoms upper move ${xstep1} 0.0 ${zstep1} units lattice
        displace_atoms upper move 0.00166666666666667 0.0 ${zstep1} units lattice
        displace_atoms upper move 0.00166666666666667 0.0 0 units lattice
        min_style ${style}
        min_style hftn
        minimize ${etol} ${ftol} ${maxiter} ${maxeval}
        minimize 1e-12 ${ftol} ${maxiter} ${maxeval}
        minimize 1e-12 1e-08 ${maxiter} ${maxeval}
        minimize 1e-12 1e-08 10000 ${maxeval}
        minimize 1e-12 1e-08 10000 20000
WARNING: Resetting reneighboring criteria during minimization (../min.cpp:168)
Memory usage per processor = 5.2861 Mbytes
Step Temp PotEng Lx Ly Lz 
     178            0    -17362.26    6.9282254    73.518293    4.0000128 
     179            0    -17362.26    6.9282254    73.518293    4.0000128 
     180            0    -17362.26    6.9282254    73.518293    4.0000128 
     181            0    -17362.26    6.9282254    73.518293    4.0000128 
     182            0    -17362.26    6.9282254    73.518293    4.0000128 
     183            0    -17362.26    6.9282254    73.518293    4.0000128 
     184            0    -17362.26    6.9282254    73.518293    4.0000128 
     185            0    -17362.26    6.9282254    73.518293    4.0000128 
     186            0    -17362.26    6.9282254    73.518293    4.0000128 
     187            0    -17362.26    6.9282254    73.518293    4.0000128 
     188            0    -17362.26    6.9282254    73.518293    4.0000128 
     189            0    -17362.26    6.9282254    73.518293    4.0000128 
Loop time of 0.265341 on 1 procs for 10 steps with 2912 atoms

Minimization stats:
  Stopping criterion = energy tolerance
  Energy initial, next-to-last, final = 
        -17362.2599244     -17362.2599244     -17362.2599898
  Force two-norm initial, final = 0.910678 0.798712
  Force max component initial, final = 0.113835 0.099737
  Final line search alpha, max atom move = 0 0
  Iterations, force evaluations = 10 81

Pair  time (%) = 0.248068 (93.4902)
Neigh time (%) = 0 (0)
Comm  time (%) = 0.00411956 (1.55255)
Outpt time (%) = 0.00148485 (0.5596)
Other time (%) = 0.0116687 (4.39763)

Nlocal:    2912 ave 2912 max 2912 min
Histogram: 1 0 0 0 0 0 0 0 0 0
Nghost:    7264 ave 7264 max 7264 min
Histogram: 1 0 0 0 0 0 0 0 0 0
Neighs:    112032 ave 112032 max 112032 min
Histogram: 1 0 0 0 0 0 0 0 0 0

Total # of neighbors = 112032
Ave neighs/atom = 38.4725
Neighbor list builds = 0
Dangerous builds = 0
        next i
jump SELF loop1
        displace_atoms upper move ${xstep1} 0.0 ${zstep1} units lattice
        displace_atoms upper move 0.00166666666666667 0.0 ${zstep1} units lattice
        displace_atoms upper move 0.00166666666666667 0.0 0 units lattice
        min_style ${style}
        min_style hftn
        minimize ${etol} ${ftol} ${maxiter} ${maxeval}
        minimize 1e-12 ${ftol} ${maxiter} ${maxeval}
        minimize 1e-12 1e-08 ${maxiter} ${maxeval}
        minimize 1e-12 1e-08 10000 ${maxeval}
        minimize 1e-12 1e-08 10000 20000
WARNING: Resetting reneighboring criteria during minimization (../min.cpp:168)
Memory usage per processor = 5.2861 Mbytes
Step Temp PotEng Lx Ly Lz 
     189            0   -17361.667    6.9282254    73.518293    4.0000128 
     190            0   -17361.667    6.9282254    73.518293    4.0000128 
     191            0    -17361.67    6.9282254    73.518293    4.0000128 
     192            0    -17361.67    6.9282254    73.518293    4.0000128 
     193            0    -17361.67    6.9282254    73.518293    4.0000128 
Loop time of 1.42333 on 1 procs for 3 steps with 2912 atoms

Minimization stats:
  Stopping criterion = force tolerance
  Energy initial, next-to-last, final = 
        -17361.6665891     -17361.6695322     -17361.6695608
  Force two-norm initial, final = 1.66716 5.99323e-11
  Force max component initial, final = 0.208346 4.56946e-12
  Final line search alpha, max atom move = 0 0
  Iterations, force evaluations = 3 485

Pair  time (%) = 1.32924 (93.3893)
Neigh time (%) = 0 (0)
Comm  time (%) = 0.0208108 (1.46212)
Outpt time (%) = 0.000363889 (0.025566)
Other time (%) = 0.0729176 (5.12302)

Nlocal:    2912 ave 2912 max 2912 min
Histogram: 1 0 0 0 0 0 0 0 0 0
Nghost:    7264 ave 7264 max 7264 min
Histogram: 1 0 0 0 0 0 0 0 0 0
Neighs:    112032 ave 112032 max 112032 min
Histogram: 1 0 0 0 0 0 0 0 0 0

Total # of neighbors = 112032
Ave neighs/atom = 38.4725
Neighbor list builds = 0
Dangerous builds = 0
        next i
jump SELF loop1
        displace_atoms upper move ${xstep1} 0.0 ${zstep1} units lattice
        displace_atoms upper move 0.00166666666666667 0.0 ${zstep1} units lattice
        displace_atoms upper move 0.00166666666666667 0.0 0 units lattice
        min_style ${style}
        min_style hftn
        minimize ${etol} ${ftol} ${maxiter} ${maxeval}
        minimize 1e-12 ${ftol} ${maxiter} ${maxeval}
        minimize 1e-12 1e-08 ${maxiter} ${maxeval}
        minimize 1e-12 1e-08 10000 ${maxeval}
        minimize 1e-12 1e-08 10000 20000
WARNING: Resetting reneighboring criteria during minimization (../min.cpp:168)
Memory usage per processor = 5.2861 Mbytes
Step Temp PotEng Lx Ly Lz 
     193            0   -17361.091    6.9282254    73.519272    4.0000128 
     194            0   -17361.091    6.9282254    73.519272    4.0000128 
     195            0   -17361.091    6.9282254    73.519272    4.0000128 
     196            0   -17361.091    6.9282254    73.519272    4.0000128 
     197            0   -17361.091    6.9282254    73.519272    4.0000128 
     198            0   -17361.091    6.9282254    73.519272    4.0000128 
     199            0   -17361.091    6.9282254    73.519272    4.0000128 
     200            0   -17361.091    6.9282254    73.519272    4.0000128 
     201            0   -17361.091    6.9282254    73.519272    4.0000128 
Loop time of 0.254155 on 1 procs for 7 steps with 2912 atoms

Minimization stats:
  Stopping criterion = energy tolerance
  Energy initial, next-to-last, final = 
        -17361.0906886     -17361.0906886     -17361.0906886
  Force two-norm initial, final = 0.812904 0.812805
  Force max component initial, final = 0.101613 0.101601
  Final line search alpha, max atom move = 0 0
  Iterations, force evaluations = 7 62

Pair  time (%) = 0.234408 (92.2302)
Neigh time (%) = 0 (0)
Comm  time (%) = 0.00290682 (1.14372)
Outpt time (%) = 0.0101062 (3.97637)
Other time (%) = 0.00673431 (2.64969)

Nlocal:    2912 ave 2912 max 2912 min
Histogram: 1 0 0 0 0 0 0 0 0 0
Nghost:    7264 ave 7264 max 7264 min
Histogram: 1 0 0 0 0 0 0 0 0 0
Neighs:    112032 ave 112032 max 112032 min
Histogram: 1 0 0 0 0 0 0 0 0 0

Total # of neighbors = 112032
Ave neighs/atom = 38.4725
Neighbor list builds = 0
Dangerous builds = 0
        next i
jump SELF loop1
        displace_atoms upper move ${xstep1} 0.0 ${zstep1} units lattice
        displace_atoms upper move 0.00166666666666667 0.0 ${zstep1} units lattice
        displace_atoms upper move 0.00166666666666667 0.0 0 units lattice
        min_style ${style}
        min_style hftn
        minimize ${etol} ${ftol} ${maxiter} ${maxeval}
        minimize 1e-12 ${ftol} ${maxiter} ${maxeval}
        minimize 1e-12 1e-08 ${maxiter} ${maxeval}
        minimize 1e-12 1e-08 10000 ${maxeval}
        minimize 1e-12 1e-08 10000 20000
WARNING: Resetting reneighboring criteria during minimization (../min.cpp:168)
Memory usage per processor = 5.2861 Mbytes
Step Temp PotEng Lx Ly Lz 
     201            0   -17360.525    6.9282254    73.519272    4.0000128 
     202            0   -17360.526    6.9282254    73.519272    4.0000128 
     203            0   -17360.528    6.9282254    73.519272    4.0000128 
     204            0   -17360.528    6.9282254    73.519272    4.0000128 
     205            0   -17360.528    6.9282254    73.519272    4.0000128 
Loop time of 1.3547 on 1 procs for 3 steps with 2912 atoms

Minimization stats:
  Stopping criterion = force tolerance
  Energy initial, next-to-last, final = 
        -17360.5254254     -17360.5281175     -17360.5281504
  Force two-norm initial, final = 1.57922 6.43923e-11
  Force max component initial, final = 0.197402 4.57916e-12
  Final line search alpha, max atom move = 0 0
  Iterations, force evaluations = 3 480

Pair  time (%) = 1.25931 (92.9589)
Neigh time (%) = 0 (0)
Comm  time (%) = 0.0224985 (1.66078)
Outpt time (%) = 0.000491895 (0.0363103)
Other time (%) = 0.0723947 (5.34397)

Nlocal:    2912 ave 2912 max 2912 min
Histogram: 1 0 0 0 0 0 0 0 0 0
Nghost:    7264 ave 7264 max 7264 min
Histogram: 1 0 0 0 0 0 0 0 0 0
Neighs:    112032 ave 112032 max 112032 min
Histogram: 1 0 0 0 0 0 0 0 0 0

Total # of neighbors = 112032
Ave neighs/atom = 38.4725
Neighbor list builds = 0
Dangerous builds = 0
        next i
jump SELF loop1
        displace_atoms upper move ${xstep1} 0.0 ${zstep1} units lattice
        displace_atoms upper move 0.00166666666666667 0.0 ${zstep1} units lattice
        displace_atoms upper move 0.00166666666666667 0.0 0 units lattice
        min_style ${style}
        min_style hftn
        minimize ${etol} ${ftol} ${maxiter} ${maxeval}
[...]
Loop time of 0.292209 on 1 procs for 11 steps with 2912 atoms

Minimization stats:
  Stopping criterion = energy tolerance
  Energy initial, next-to-last, final = 
        -17374.7524346     -17374.7526398     -17374.7526471
  Force two-norm initial, final = 1.29146 0.352996
  Force max component initial, final = 0.161407 0.0323735
  Final line search alpha, max atom move = 0 0
  Iterations, force evaluations = 11 82

Pair  time (%) = 0.257381 (88.0811)
Neigh time (%) = 0 (0)
Comm  time (%) = 0.0127124 (4.35046)
Outpt time (%) = 0.0069529 (2.37943)
Other time (%) = 0.0151629 (5.18906)

Nlocal:    2912 ave 2912 max 2912 min
Histogram: 1 0 0 0 0 0 0 0 0 0
Nghost:    7264 ave 7264 max 7264 min
Histogram: 1 0 0 0 0 0 0 0 0 0
Neighs:    112224 ave 112224 max 112224 min
Histogram: 1 0 0 0 0 0 0 0 0 0

Total # of neighbors = 112224
Ave neighs/atom = 38.5385
Neighbor list builds = 0
Dangerous builds = 0
        next j
jump SELF loop2
        displace_atoms upper move ${xstep2} 0.0 ${zstep2} units lattice
        displace_atoms upper move 0.000833333333333329 0.0 ${zstep2} units lattice
        displace_atoms upper move 0.000833333333333329 0.0 0.00249999999999999 units lattice
        min_style ${style}
        min_style hftn
        minimize ${etol} ${ftol} ${maxiter} ${maxeval}
        minimize 1e-12 ${ftol} ${maxiter} ${maxeval}
        minimize 1e-12 1e-08 ${maxiter} ${maxeval}
        minimize 1e-12 1e-08 10000 ${maxeval}
        minimize 1e-12 1e-08 10000 20000
WARNING: Resetting reneighboring criteria during minimization (../min.cpp:168)
Memory usage per processor = 5.2861 Mbytes
Step Temp PotEng Lx Ly Lz 
    1858            0   -17375.057    6.9282254    73.505264    4.0000128 
    1859            0   -17375.058    6.9282254    73.505264    4.0000128 
    1860            0   -17375.058    6.9282254    73.505264    4.0000128 
    1861            0    -17375.06    6.9282254    73.505264    4.0000128 
    1862            0   -17375.062    6.9282254    73.505264    4.0000128 
    1863            0   -17375.062    6.9282254    73.505264    4.0000128 
    1864            0   -17375.062    6.9282254    73.505264    4.0000128 
    1865            0   -17375.062    6.9282254    73.505264    4.0000128 
    1866            0   -17375.062    6.9282254    73.505264    4.0000128 
    1867            0   -17375.062    6.9282254    73.505264    4.0000128 
    1868            0   -17375.062    6.9282254    73.505264    4.0000128 
    1869            0   -17375.062    6.9282254    73.505264    4.0000128 
    1870            0   -17375.062    6.9282254    73.505264    4.0000128 
    1871            0   -17375.062    6.9282254    73.505264    4.0000128 
    1872            0   -17375.062    6.9282254    73.505264    4.0000128 
    1873            0   -17375.062    6.9282254    73.505264    4.0000128 
    1874            0   -17375.062    6.9282254    73.505264    4.0000128 
    1875            0   -17375.062    6.9282254    73.505264    4.0000128 
Loop time of 1.30672 on 1 procs for 16 steps with 2912 atoms

Minimization stats:
  Stopping criterion = energy tolerance
  Energy initial, next-to-last, final = 
        -17375.0570438     -17375.0623703     -17375.0623716
  Force two-norm initial, final = 1.43593 0.0529277
  Force max component initial, final = 0.176971 0.00403946
  Final line search alpha, max atom move = 0 0
  Iterations, force evaluations = 16 451

Pair  time (%) = 1.21759 (93.1793)
Neigh time (%) = 0 (0)
Comm  time (%) = 0.0205684 (1.57405)
Outpt time (%) = 0.00148894 (0.113944)
Other time (%) = 0.0670706 (5.13274)

Nlocal:    2912 ave 2912 max 2912 min
Histogram: 1 0 0 0 0 0 0 0 0 0
Nghost:    7264 ave 7264 max 7264 min
Histogram: 1 0 0 0 0 0 0 0 0 0
Neighs:    112224 ave 112224 max 112224 min
Histogram: 1 0 0 0 0 0 0 0 0 0

Total # of neighbors = 112224
Ave neighs/atom = 38.5385
Neighbor list builds = 0
Dangerous builds = 0
        next j
jump SELF loop2
        displace_atoms upper move ${xstep2} 0.0 ${zstep2} units lattice
        displace_atoms upper move 0.000833333333333329 0.0 ${zstep2} units lattice
        displace_atoms upper move 0.000833333333333329 0.0 0.00249999999999999 units lattice
        min_style ${style}
        min_style hftn
        minimize ${etol} ${ftol} ${maxiter} ${maxeval}
        minimize 1e-12 ${ftol} ${maxiter} ${maxeval}
        minimize 1e-12 1e-08 ${maxiter} ${maxeval}
        minimize 1e-12 1e-08 10000 ${maxeval}
        minimize 1e-12 1e-08 10000 20000
WARNING: Resetting reneighboring criteria during minimization (../min.cpp:168)
Memory usage per processor = 5.2861 Mbytes
Step Temp PotEng Lx Ly Lz 
    1875            0    -17375.33    6.9282254    73.503953    4.0000128 
    1876            0    -17375.33    6.9282254    73.503953    4.0000128 
    1877            0    -17375.33    6.9282254    73.503953    4.0000128 
    1878            0    -17375.33    6.9282254    73.503953    4.0000128 
    1879            0    -17375.33    6.9282254    73.503953    4.0000128 
    1880            0    -17375.33    6.9282254    73.503953    4.0000128 
    1881            0    -17375.33    6.9282254    73.503953    4.0000128 
    1882            0    -17375.33    6.9282254    73.503953    4.0000128 
    1883            0    -17375.33    6.9282254    73.503953    4.0000128 
    1884            0    -17375.33    6.9282254    73.503953    4.0000128 
    1885            0    -17375.33    6.9282254    73.503953    4.0000128 
Loop time of 0.254243 on 1 procs for 9 steps with 2912 atoms

Minimization stats:
  Stopping criterion = energy tolerance
  Energy initial, next-to-last, final = 
         -17375.330258     -17375.3303142     -17375.3303267
  Force two-norm initial, final = 1.02098 0.209374
  Force max component initial, final = 0.127456 0.0232702
  Final line search alpha, max atom move = 0 0
  Iterations, force evaluations = 9 88

Pair  time (%) = 0.234787 (92.3473)
Neigh time (%) = 0 (0)
Comm  time (%) = 0.00820324 (3.22654)
Outpt time (%) = 0.000585768 (0.230397)
Other time (%) = 0.0106674 (4.19574)

Nlocal:    2912 ave 2912 max 2912 min
Histogram: 1 0 0 0 0 0 0 0 0 0
Nghost:    7264 ave 7264 max 7264 min
Histogram: 1 0 0 0 0 0 0 0 0 0
Neighs:    112224 ave 112224 max 112224 min
Histogram: 1 0 0 0 0 0 0 0 0 0

Total # of neighbors = 112224
Ave neighs/atom = 38.5385
Neighbor list builds = 0
Dangerous builds = 0
        next j
jump SELF loop2
        displace_atoms upper move ${xstep2} 0.0 ${zstep2} units lattice
        displace_atoms upper move 0.000833333333333329 0.0 ${zstep2} units lattice
        displace_atoms upper move 0.000833333333333329 0.0 0.00249999999999999 units lattice
        min_style ${style}
        min_style hftn
        minimize ${etol} ${ftol} ${maxiter} ${maxeval}
        minimize 1e-12 ${ftol} ${maxiter} ${maxeval}
        minimize 1e-12 1e-08 ${maxiter} ${maxeval}
        minimize 1e-12 1e-08 10000 ${maxeval}
        minimize 1e-12 1e-08 10000 20000
WARNING: Resetting reneighboring criteria during minimization (../min.cpp:168)
Memory usage per processor = 5.2861 Mbytes
Step Temp PotEng Lx Ly Lz 
    1885            0   -17375.556    6.9282254    73.503932    4.0000128 
    1886            0   -17375.557    6.9282254    73.503932    4.0000128 
    1887            0   -17375.557    6.9282254    73.503932    4.0000128 
    1888            0   -17375.559    6.9282254    73.503932    4.0000128 
    1889            0   -17375.559    6.9282254    73.503932    4.0000128 
    1890            0   -17375.559    6.9282254    73.503932    4.0000128 
    1891            0   -17375.559    6.9282254    73.503932    4.0000128 
    1892            0   -17375.559    6.9282254    73.503932    4.0000128 
    1893            0   -17375.559    6.9282254    73.503932    4.0000128 
    1894            0   -17375.559    6.9282254    73.503932    4.0000128 
    1895            0   -17375.559    6.9282254    73.503932    4.0000128 
    1896            0   -17375.559    6.9282254    73.503932    4.0000128 
    1897            0   -17375.559    6.9282254    73.503932    4.0000128 
    1898            0   -17375.559    6.9282254    73.503932    4.0000128 
    1899            0   -17375.559    6.9282254    73.503932    4.0000128 
    1900            0   -17375.559    6.9282254    73.503932    4.0000128 
    1901            0   -17375.559    6.9282254    73.503932    4.0000128 
    1902            0   -17375.559    6.9282254    73.503932    4.0000128 
    1903            0   -17375.559    6.9282254    73.503932    4.0000128 
    1904            0   -17375.559    6.9282254    73.503932    4.0000128 
    1905            0   -17375.559    6.9282254    73.503932    4.0000128 
    1906            0   -17375.559    6.9282254    73.503932    4.0000128 
    1907            0   -17375.559    6.9282254    73.503932    4.0000128 
Loop time of 1.12002 on 1 procs for 21 steps with 2912 atoms

Minimization stats:
  Stopping criterion = energy tolerance
  Energy initial, next-to-last, final = 
        -17375.5557771     -17375.5592694     -17375.5592694
  Force two-norm initial, final = 0.904362 0.0195873
  Force max component initial, final = 0.110031 0.00102907
  Final line search alpha, max atom move = 0 0
  Iterations, force evaluations = 21 388

Pair  time (%) = 1.03471 (92.3826)
Neigh time (%) = 0 (0)
Comm  time (%) = 0.0245338 (2.19048)
Outpt time (%) = 0.00220993 (0.197311)
Other time (%) = 0.0585724 (5.22957)

Nlocal:    2912 ave 2912 max 2912 min
Histogram: 1 0 0 0 0 0 0 0 0 0
Nghost:    7264 ave 7264 max 7264 min
Histogram: 1 0 0 0 0 0 0 0 0 0
Neighs:    112224 ave 112224 max 112224 min
Histogram: 1 0 0 0 0 0 0 0 0 0

Total # of neighbors = 112224
Ave neighs/atom = 38.5385
Neighbor list builds = 0
Dangerous builds = 0
        next j
jump SELF loop2
        displace_atoms upper move ${xstep2} 0.0 ${zstep2} units lattice
        displace_atoms upper move 0.000833333333333329 0.0 ${zstep2} units lattice
        displace_atoms upper move 0.000833333333333329 0.0 0.00249999999999999 units lattice
        min_style ${style}
        min_style hftn
        minimize ${etol} ${ftol} ${maxiter} ${maxeval}
        minimize 1e-12 ${ftol} ${maxiter} ${maxeval}
        minimize 1e-12 1e-08 ${maxiter} ${maxeval}
        minimize 1e-12 1e-08 10000 ${maxeval}
        minimize 1e-12 1e-08 10000 20000
WARNING: Resetting reneighboring criteria during minimization (../min.cpp:168)
Memory usage per processor = 5.2861 Mbytes
Step Temp PotEng Lx Ly Lz 
    1907            0   -17375.741    6.9282254    73.502981    4.0000128 
    1908            0   -17375.741    6.9282254    73.502981    4.0000128 
    1909            0   -17375.741    6.9282254    73.502981    4.0000128 
    1910            0   -17375.741    6.9282254    73.502981    4.0000128 
    1911            0   -17375.741    6.9282254    73.502981    4.0000128 
    1912            0   -17375.741    6.9282254    73.502981    4.0000128 
    1913            0   -17375.741    6.9282254    73.502981    4.0000128 
    1914            0   -17375.741    6.9282254    73.502981    4.0000128 
    1915            0   -17375.741    6.9282254    73.502981    4.0000128 
    1916            0   -17375.741    6.9282254    73.502981    4.0000128 
Loop time of 0.195043 on 1 procs for 8 steps with 2912 atoms

Minimization stats:
  Stopping criterion = energy tolerance
  Energy initial, next-to-last, final = 
        -17375.7409242     -17375.7409242     -17375.7409242
  Force two-norm initial, final = 0.693214 0.693013
  Force max component initial, final = 0.0866209 0.0865956
  Final line search alpha, max atom move = 0 0
  Iterations, force evaluations = 8 69

Pair  time (%) = 0.178038 (91.2817)
Neigh time (%) = 0 (0)
Comm  time (%) = 0.0049728 (2.54959)
Outpt time (%) = 0.00260408 (1.33513)
Other time (%) = 0.00942761 (4.83361)

Nlocal:    2912 ave 2912 max 2912 min
Histogram: 1 0 0 0 0 0 0 0 0 0
Nghost:    7129 ave 7129 max 7129 min
Histogram: 1 0 0 0 0 0 0 0 0 0
Neighs:    112224 ave 112224 max 112224 min
Histogram: 1 0 0 0 0 0 0 0 0 0

Total # of neighbors = 112224
Ave neighs/atom = 38.5385
Neighbor list builds = 0
Dangerous builds = 0
        next j
jump SELF loop2
        displace_atoms upper move ${xstep2} 0.0 ${zstep2} units lattice
        displace_atoms upper move 0.000833333333333329 0.0 ${zstep2} units lattice
        displace_atoms upper move 0.000833333333333329 0.0 0.00249999999999999 units lattice
        min_style ${style}
        min_style hftn
        minimize ${etol} ${ftol} ${maxiter} ${maxeval}
        minimize 1e-12 ${ftol} ${maxiter} ${maxeval}
        minimize 1e-12 1e-08 ${maxiter} ${maxeval}
        minimize 1e-12 1e-08 10000 ${maxeval}
        minimize 1e-12 1e-08 10000 20000
WARNING: Resetting reneighboring criteria during minimization (../min.cpp:168)
Memory usage per processor = 5.2861 Mbytes
Step Temp PotEng Lx Ly Lz 
    1916            0   -17375.873    6.9282254    73.502981    4.0000128 
    1917            0   -17375.873    6.9282254    73.502981    4.0000128 
    1918            0   -17375.874    6.9282254    73.502981    4.0000128 
    1919            0   -17375.874    6.9282254    73.502981    4.0000128 
    1920            0   -17375.874    6.9282254    73.502981    4.0000128 
    1921            0   -17375.874    6.9282254    73.502981    4.0000128 
    1922            0   -17375.874    6.9282254    73.502981    4.0000128 
    1923            0   -17375.874    6.9282254    73.502981    4.0000128 
    1924            0   -17375.874    6.9282254    73.502981    4.0000128 
    1925            0   -17375.874    6.9282254    73.502981    4.0000128 
    1926            0   -17375.874    6.9282254    73.502981    4.0000128 
Loop time of 0.238909 on 1 procs for 9 steps with 2912 atoms

Minimization stats:
  Stopping criterion = energy tolerance
  Energy initial, next-to-last, final = 
        -17375.8731981     -17375.8731981     -17375.8738862
  Force two-norm initial, final = 1.2001 0.615519
  Force max component initial, final = 0.149995 0.0723212
  Final line search alpha, max atom move = 0 0
  Iterations, force evaluations = 9 76

Pair  time (%) = 0.217637 (91.0961)
Neigh time (%) = 0 (0)
Comm  time (%) = 0.00527319 (2.2072)
Outpt time (%) = 0.00108007 (0.452082)
Other time (%) = 0.014919 (6.24463)

Nlocal:    2912 ave 2912 max 2912 min
Histogram: 1 0 0 0 0 0 0 0 0 0
Nghost:    7129 ave 7129 max 7129 min
Histogram: 1 0 0 0 0 0 0 0 0 0
Neighs:    112224 ave 112224 max 112224 min
Histogram: 1 0 0 0 0 0 0 0 0 0

Total # of neighbors = 112224
Ave neighs/atom = 38.5385
Neighbor list builds = 0
Dangerous builds = 0
        next j
jump SELF loop2
        displace_atoms upper move ${xstep2} 0.0 ${zstep2} units lattice
        displace_atoms upper move 0.000833333333333329 0.0 ${zstep2} units lattice
        displace_atoms upper move 0.000833333333333329 0.0 0.00249999999999999 units lattice
        min_style ${style}
        min_style hftn
        minimize ${etol} ${ftol} ${maxiter} ${maxeval}
        minimize 1e-12 ${ftol} ${maxiter} ${maxeval}
        minimize 1e-12 1e-08 ${maxiter} ${maxeval}
        minimize 1e-12 1e-08 10000 ${maxeval}
        minimize 1e-12 1e-08 10000 20000
WARNING: Resetting reneighboring criteria during minimization (../min.cpp:168)
Memory usage per processor = 5.2861 Mbytes
Step Temp PotEng Lx Ly Lz 
    1926            0   -17375.955    6.9282254     73.50298    4.0000128 
    1927            0   -17375.955    6.9282254     73.50298    4.0000128 
    1928            0   -17375.955    6.9282254     73.50298    4.0000128 
    1929            0   -17375.956    6.9282254     73.50298    4.0000128 
    1930            0   -17375.956    6.9282254     73.50298    4.0000128 
    1931            0   -17375.957    6.9282254     73.50298    4.0000128 
    1932            0   -17375.957    6.9282254     73.50298    4.0000128 
    1933            0   -17375.957    6.9282254     73.50298    4.0000128 
    1934            0   -17375.957    6.9282254     73.50298    4.0000128 
    1935            0   -17375.958    6.9282254     73.50298    4.0000128 
    1936            0   -17375.958    6.9282254     73.50298    4.0000128 
    1937            0   -17375.958    6.9282254     73.50298    4.0000128 
    1938            0   -17375.958    6.9282254     73.50298    4.0000128 
    1939            0   -17375.958    6.9282254     73.50298    4.0000128 
    1940            0   -17375.958    6.9282254     73.50298    4.0000128 
    1941            0   -17375.958    6.9282254     73.50298    4.0000128 
    1942            0   -17375.958    6.9282254     73.50298    4.0000128 
    1943            0   -17375.958    6.9282254     73.50298    4.0000128 
    1944            0   -17375.958    6.9282254     73.50298    4.0000128 
    1945            0   -17375.958    6.9282254     73.50298    4.0000128 
    1946            0   -17375.958    6.9282254     73.50298    4.0000128 
Loop time of 1.12185 on 1 procs for 19 steps with 2912 atoms

Minimization stats:
  Stopping criterion = energy tolerance
  Energy initial, next-to-last, final = 
        -17375.9549761     -17375.9575553     -17375.9575554
  Force two-norm initial, final = 0.91427 0.01597
  Force max component initial, final = 0.111228 0.000676586
  Final line search alpha, max atom move = 0 0
  Iterations, force evaluations = 19 400

Pair  time (%) = 1.03855 (92.5754)
Neigh time (%) = 0 (0)
Comm  time (%) = 0.0244894 (2.18295)
Outpt time (%) = 0.00288134 (0.256839)
Other time (%) = 0.0559218 (4.9848)

Nlocal:    2912 ave 2912 max 2912 min
Histogram: 1 0 0 0 0 0 0 0 0 0
Nghost:    7129 ave 7129 max 7129 min
Histogram: 1 0 0 0 0 0 0 0 0 0
Neighs:    112224 ave 112224 max 112224 min
Histogram: 1 0 0 0 0 0 0 0 0 0

Total # of neighbors = 112224
Ave neighs/atom = 38.5385
Neighbor list builds = 0
Dangerous builds = 0
        next j
jump SELF loop2
        displace_atoms upper move ${xstep2} 0.0 ${zstep2} units lattice
        displace_atoms upper move 0.000833333333333329 0.0 ${zstep2} units lattice
        displace_atoms upper move 0.000833333333333329 0.0 0.00249999999999999 units lattice
        min_style ${style}
        min_style hftn
        minimize ${etol} ${ftol} ${maxiter} ${maxeval}
        minimize 1e-12 ${ftol} ${maxiter} ${maxeval}
        minimize 1e-12 1e-08 ${maxiter} ${maxeval}
        minimize 1e-12 1e-08 10000 ${maxeval}
        minimize 1e-12 1e-08 10000 20000
WARNING: Resetting reneighboring criteria during minimization (../min.cpp:168)
Memory usage per processor = 5.2861 Mbytes
Step Temp PotEng Lx Ly Lz 
    1946            0   -17375.986    6.9282254    73.502218    4.0000128 
    1947            0   -17375.986    6.9282254    73.502218    4.0000128 
    1948            0   -17375.986    6.9282254    73.502218    4.0000128 
    1949            0   -17375.986    6.9282254    73.502218    4.0000128 
    1950            0   -17375.986    6.9282254    73.502218    4.0000128 
    1951            0   -17375.986    6.9282254    73.502218    4.0000128 
    1952            0   -17375.986    6.9282254    73.502218    4.0000128 
Loop time of 0.458321 on 1 procs for 5 steps with 2912 atoms

Minimization stats:
  Stopping criterion = energy tolerance
  Energy initial, next-to-last, final = 
        -17375.9857758     -17375.9857758     -17375.9857758
  Force two-norm initial, final = 0.110113 0.0965312
  Force max component initial, final = 0.0136212 0.0118849
  Final line search alpha, max atom move = 0 0
  Iterations, force evaluations = 5 146

Pair  time (%) = 0.431288 (94.1017)
Neigh time (%) = 0 (0)
Comm  time (%) = 0.00557531 (1.21646)
Outpt time (%) = 0.000397186 (0.0866612)
Other time (%) = 0.0210608 (4.59521)

Nlocal:    2912 ave 2912 max 2912 min
Histogram: 1 0 0 0 0 0 0 0 0 0
Nghost:    7129 ave 7129 max 7129 min
Histogram: 1 0 0 0 0 0 0 0 0 0
Neighs:    112224 ave 112224 max 112224 min
Histogram: 1 0 0 0 0 0 0 0 0 0

Total # of neighbors = 112224
Ave neighs/atom = 38.5385
Neighbor list builds = 0
Dangerous builds = 0
        next j
jump SELF loop2


