LAMMPS (28 Jun 2014)
# attempt at getting generalized stacking fault (GSF) energy curve

#file prefix
variable prefix string gsf_V_inter2
variable dumpfile string ${prefix}.*.dump
variable dumpfile string gsf_V_inter2.*.dump
variable restartfile string ${prefix}.*.equil
variable restartfile string gsf_V_inter2.*.equil

#Mass (g/mol)
variable m equal 1

# lattice constant (in Angstroms) and orientation of axes (given by lattice vectors)
variable rho equal 0.9165
variable x1 equal 1
variable x2 equal 0
variable x3 equal 0
variable y1 equal 0
variable y2 equal 1
variable y3 equal 0
# length of lattice in different directions (using orientation of lattice vectors)
variable ax equal sqrt(${x1}*${x1}+${x2}*${x2}+${x3}*${x3})
variable ax equal sqrt(1*${x1}+${x2}*${x2}+${x3}*${x3})
variable ax equal sqrt(1*1+${x2}*${x2}+${x3}*${x3})
variable ax equal sqrt(1*1+0*${x2}+${x3}*${x3})
variable ax equal sqrt(1*1+0*0+${x3}*${x3})
variable ax equal sqrt(1*1+0*0+0*${x3})
variable ax equal sqrt(1*1+0*0+0*0)
variable ay equal sqrt(${y1}*${y1}+${y2}*${y2}+${y3}*${y3})
variable ay equal sqrt(0*${y1}+${y2}*${y2}+${y3}*${y3})
variable ay equal sqrt(0*0+${y2}*${y2}+${y3}*${y3})
variable ay equal sqrt(0*0+1*${y2}+${y3}*${y3})
variable ay equal sqrt(0*0+1*1+${y3}*${y3})
variable ay equal sqrt(0*0+1*1+0*${y3})
variable ay equal sqrt(0*0+1*1+0*0)
variable az equal 1

# size of box in lattice units
variable lxpos equal 1
variable lxneg equal -1*${lxpos}
variable lxneg equal -1*1
variable lypos equal 10
variable lyneg equal -1*${lypos}
variable lyneg equal -1*10
variable lzpos equal 0
variable lzneg equal -1

# Define minimization parameters and damping
variable etol equal 1.0e-12
variable ftol equal 1.0e-8
variable maxiter equal 10000
variable maxeval equal 20000
variable style string hftn

# boundary conditions
dimension	2
boundary	p s p
atom_style	atomic

# create geometry
units		lj
lattice         hex ${rho}
lattice         hex 0.9165
Lattice spacing in x,y,z = 1.12245 1.94415 1.12245
region		myregion block ${lxneg} ${lxpos} ${lyneg} ${lypos} ${lzneg} ${lzpos} units lattice
region		myregion block -1 ${lxpos} ${lyneg} ${lypos} ${lzneg} ${lzpos} units lattice
region		myregion block -1 1 ${lyneg} ${lypos} ${lzneg} ${lzpos} units lattice
region		myregion block -1 1 -10 ${lypos} ${lzneg} ${lzpos} units lattice
region		myregion block -1 1 -10 10 ${lzneg} ${lzpos} units lattice
region		myregion block -1 1 -10 10 -1 ${lzpos} units lattice
region		myregion block -1 1 -10 10 -1 0 units lattice
create_box	3 myregion
Created orthogonal box = (-1.12245 -19.4415 -1.12245) to (1.12245 19.4415 0)
  1 by 1 by 1 MPI processor grid
create_atoms	1 box
Created 82 atoms

# define masses
mass * $m
mass * 1

# my fake/morse potential
pair_style      table linear 3001
pair_coeff      * * vpotential_inter2 dummy
neighbor	0.3 bin
neigh_modify	delay 5

# define groups
region	    upper block INF INF 0.01 ${lypos} INF INF units lattice
region	    upper block INF INF 0.01 10 INF INF units lattice
group		upper region upper
40 atoms in group upper

# Setup output
thermo 1
thermo_style custom step temp pe lx ly lz
thermo_modify norm no

# Compute initial state by relaxing box
min_style ${style}
min_style hftn
minimize ${etol} ${ftol} ${maxiter} ${maxeval}
minimize 1e-12 ${ftol} ${maxiter} ${maxeval}
minimize 1e-12 1e-08 ${maxiter} ${maxeval}
minimize 1e-12 1e-08 10000 ${maxeval}
minimize 1e-12 1e-08 10000 20000
WARNING: Resetting reneighboring criteria during minimization (../min.cpp:168)
Memory usage per processor = 4.85169 Mbytes
Step Temp PotEng Lx Ly Lz 
       0            0   -241.99993    2.2449075    38.890715    1.1224537 
       1            0   -241.99994    2.2449075    38.890715    1.1224537 
       2            0   -241.99994    2.2449075    38.890715    1.1224537 
       3            0   -241.99994    2.2449075    38.890715    1.1224537 
       4            0   -241.99994    2.2449075    38.890715    1.1224537 
       5            0   -241.99994    2.2449075    38.890715    1.1224537 
Loop time of 0.00416894 on 1 procs for 4 steps with 82 atoms

Minimization stats:
  Stopping criterion = force tolerance
  Energy initial, next-to-last, final = 
        -241.999927696     -241.999927696     -241.999937101
  Force two-norm initial, final = 0.000778805 9.95569e-09
  Force max component initial, final = 0.000389403 4.80055e-09
  Final line search alpha, max atom move = 0 0
  Iterations, force evaluations = 4 103

Pair  time (%) = 0.00163728 (39.2733)
Neigh time (%) = 0 (0)
Comm  time (%) = 0.00188092 (45.1174)
Outpt time (%) = 0.000186997 (4.48548)
Other time (%) = 0.000463748 (11.1239)

Nlocal:    82 ave 82 max 82 min
Histogram: 1 0 0 0 0 0 0 0 0 0
Nghost:    185 ave 185 max 185 min
Histogram: 1 0 0 0 0 0 0 0 0 0
Neighs:    718 ave 718 max 718 min
Histogram: 1 0 0 0 0 0 0 0 0 0

Total # of neighbors = 718
Ave neighs/atom = 8.7561
Neighbor list builds = 0
Dangerous builds = 0

# don't allow atoms to relax in x-direction
fix 2 all setforce 0.0 NULL 0.0

# GSF energy curve will have 100*2 steps
variable nsteps equal 500
variable sstep1 equal 1.
variable xstep1 equal ${sstep1}/(${ax}*${nsteps})
variable xstep1 equal 1/(${ax}*${nsteps})
variable xstep1 equal 1/(1*${nsteps})
variable xstep1 equal 1/(1*500)

variable i loop ${nsteps}
variable i loop 500
label loop1
        displace_atoms upper move ${xstep1} 0.0 0.0 units lattice
        displace_atoms upper move 0.002 0.0 0.0 units lattice
        min_style ${style}
        min_style hftn
        minimize ${etol} ${ftol} ${maxiter} ${maxeval}
        minimize 1e-12 ${ftol} ${maxiter} ${maxeval}
        minimize 1e-12 1e-08 ${maxiter} ${maxeval}
        minimize 1e-12 1e-08 10000 ${maxeval}
        minimize 1e-12 1e-08 10000 20000
WARNING: Resetting reneighboring criteria during minimization (../min.cpp:168)
Memory usage per processor = 4.85169 Mbytes
Step Temp PotEng Lx Ly Lz 
       5            0   -241.99987    2.2449075    38.891137    1.1224537 
       6            0   -241.99987    2.2449075    38.891137    1.1224537 
Loop time of 0.00204094 on 1 procs for 0 steps with 82 atoms

Minimization stats:
  Stopping criterion = force tolerance
  Energy initial, next-to-last, final = 
        -241.999874687     -241.999874687     -241.999874668
  Force two-norm initial, final = 0.000521569 5.59449e-09
  Force max component initial, final = 0.000260785 1.92375e-09
  Final line search alpha, max atom move = 0 0
  Iterations, force evaluations = 0 83

Pair  time (%) = 0.00145405 (71.2441)
Neigh time (%) = 0 (0)
Comm  time (%) = 0.000123552 (6.05365)
Outpt time (%) = 0 (0)
Other time (%) = 0.000463339 (22.7022)

Nlocal:    82 ave 82 max 82 min
Histogram: 1 0 0 0 0 0 0 0 0 0
Nghost:    185 ave 185 max 185 min
Histogram: 1 0 0 0 0 0 0 0 0 0
Neighs:    718 ave 718 max 718 min
Histogram: 1 0 0 0 0 0 0 0 0 0

Total # of neighbors = 718
Ave neighs/atom = 8.7561
Neighbor list builds = 0
Dangerous builds = 0
        # write_dump all atom ${dumpfile}
        next i
jump SELF loop1
        displace_atoms upper move ${xstep1} 0.0 0.0 units lattice
        displace_atoms upper move 0.002 0.0 0.0 units lattice
        min_style ${style}
        min_style hftn
        minimize ${etol} ${ftol} ${maxiter} ${maxeval}
        minimize 1e-12 ${ftol} ${maxiter} ${maxeval}
        minimize 1e-12 1e-08 ${maxiter} ${maxeval}
        minimize 1e-12 1e-08 10000 ${maxeval}
        minimize 1e-12 1e-08 10000 20000
WARNING: Resetting reneighboring criteria during minimization (../min.cpp:168)
Memory usage per processor = 4.85169 Mbytes
Step Temp PotEng Lx Ly Lz 
       6            0   -241.99969    2.2449075    38.891144    1.1224537 
       7            0   -241.99969    2.2449075    38.891144    1.1224537 
       8            0   -241.99969    2.2449075    38.891144    1.1224537 
       9            0   -241.99969    2.2449075    38.891144    1.1224537 
      10            0   -241.99969    2.2449075    38.891144    1.1224537 
      11            0   -241.99969    2.2449075    38.891144    1.1224537 
      12            0   -241.99969    2.2449075    38.891144    1.1224537 
      13            0   -241.99969    2.2449075    38.891144    1.1224537 
Loop time of 0.00334488 on 1 procs for 6 steps with 82 atoms

Minimization stats:
  Stopping criterion = energy tolerance
  Energy initial, next-to-last, final = 
        -241.999688201     -241.999688201     -241.999688201
  Force two-norm initial, final = 0.00155567 0.00155483
  Force max component initial, final = 0.000777836 0.000777413
  Final line search alpha, max atom move = 0 0
  Iterations, force evaluations = 6 131

Pair  time (%) = 0.00226549 (67.7299)
Neigh time (%) = 0 (0)
Comm  time (%) = 0.000193112 (5.77335)
Outpt time (%) = 0.000249259 (7.45196)
Other time (%) = 0.000637026 (19.0448)

Nlocal:    82 ave 82 max 82 min
Histogram: 1 0 0 0 0 0 0 0 0 0
Nghost:    185 ave 185 max 185 min
Histogram: 1 0 0 0 0 0 0 0 0 0
Neighs:    718 ave 718 max 718 min
Histogram: 1 0 0 0 0 0 0 0 0 0

Total # of neighbors = 718
Ave neighs/atom = 8.7561
Neighbor list builds = 0
Dangerous builds = 0
        # write_dump all atom ${dumpfile}
        next i
jump SELF loop1
        displace_atoms upper move ${xstep1} 0.0 0.0 units lattice
        displace_atoms upper move 0.002 0.0 0.0 units lattice
        min_style ${style}
        min_style hftn
        minimize ${etol} ${ftol} ${maxiter} ${maxeval}
        minimize 1e-12 ${ftol} ${maxiter} ${maxeval}
        minimize 1e-12 1e-08 ${maxiter} ${maxeval}
        minimize 1e-12 1e-08 10000 ${maxeval}
        minimize 1e-12 1e-08 10000 20000
WARNING: Resetting reneighboring criteria during minimization (../min.cpp:168)
Memory usage per processor = 4.85169 Mbytes
Step Temp PotEng Lx Ly Lz 
      13            0   -241.99938    2.2449075    38.891144    1.1224537 
      14            0   -241.99938    2.2449075    38.891144    1.1224537 
      15            0   -241.99938    2.2449075    38.891144    1.1224537 
Loop time of 0.00788889 on 1 procs for 1 steps with 82 atoms

Minimization stats:
  Stopping criterion = force tolerance
  Energy initial, next-to-last, final = 
        -241.999378717     -241.999378717     -241.999378885
  Force two-norm initial, final = 0.00413189 6.12544e-09
  Force max component initial, final = 0.00206594 2.28666e-09
  Final line search alpha, max atom move = 0 0
  Iterations, force evaluations = 1 183

Pair  time (%) = 0.00661003 (83.7891)
Neigh time (%) = 0 (0)
Comm  time (%) = 0.000287044 (3.63859)
Outpt time (%) = 1.19956e-05 (0.152056)
Other time (%) = 0.000979824 (12.4203)

Nlocal:    82 ave 82 max 82 min
Histogram: 1 0 0 0 0 0 0 0 0 0
Nghost:    185 ave 185 max 185 min
Histogram: 1 0 0 0 0 0 0 0 0 0
Neighs:    718 ave 718 max 718 min
Histogram: 1 0 0 0 0 0 0 0 0 0

Total # of neighbors = 718
Ave neighs/atom = 8.7561
Neighbor list builds = 0
Dangerous builds = 0
        # write_dump all atom ${dumpfile}
        next i
jump SELF loop1
        displace_atoms upper move ${xstep1} 0.0 0.0 units lattice
        displace_atoms upper move 0.002 0.0 0.0 units lattice
        min_style ${style}
        min_style hftn
        minimize ${etol} ${ftol} ${maxiter} ${maxeval}
        minimize 1e-12 ${ftol} ${maxiter} ${maxeval}
        minimize 1e-12 1e-08 ${maxiter} ${maxeval}
        minimize 1e-12 1e-08 10000 ${maxeval}
        minimize 1e-12 1e-08 10000 20000
WARNING: Resetting reneighboring criteria during minimization (../min.cpp:168)
Memory usage per processor = 4.85169 Mbytes
Step Temp PotEng Lx Ly Lz 
      15            0   -241.99895    2.2449075      38.8912    1.1224537 
      16            0   -241.99895    2.2449075      38.8912    1.1224537 
Loop time of 0.00204803 on 1 procs for 0 steps with 82 atoms

Minimization stats:
  Stopping criterion = force tolerance
  Energy initial, next-to-last, final = 
        -241.998949123     -241.998949123      -241.99894911
  Force two-norm initial, final = 0.000185468 6.58619e-10
  Force max component initial, final = 9.27363e-05 2.24419e-10
  Final line search alpha, max atom move = 0 0
  Iterations, force evaluations = 0 83

Pair  time (%) = 0.00145271 (70.932)
Neigh time (%) = 0 (0)
Comm  time (%) = 0.000123335 (6.02212)
Outpt time (%) = 0 (0)
Other time (%) = 0.000471988 (23.0459)

Nlocal:    82 ave 82 max 82 min
Histogram: 1 0 0 0 0 0 0 0 0 0
Nghost:    185 ave 185 max 185 min
Histogram: 1 0 0 0 0 0 0 0 0 0
Neighs:    718 ave 718 max 718 min
Histogram: 1 0 0 0 0 0 0 0 0 0

Total # of neighbors = 718
Ave neighs/atom = 8.7561
Neighbor list builds = 0
Dangerous builds = 0
        # write_dump all atom ${dumpfile}
        next i
jump SELF loop1
        displace_atoms upper move ${xstep1} 0.0 0.0 units lattice
        displace_atoms upper move 0.002 0.0 0.0 units lattice
        min_style ${style}
        min_style hftn
        minimize ${etol} ${ftol} ${maxiter} ${maxeval}
        minimize 1e-12 ${ftol} ${maxiter} ${maxeval}
        minimize 1e-12 1e-08 ${maxiter} ${maxeval}
        minimize 1e-12 1e-08 10000 ${maxeval}
        minimize 1e-12 1e-08 10000 20000
WARNING: Resetting reneighboring criteria during minimization (../min.cpp:168)
Memory usage per processor = 4.85169 Mbytes
Step Temp PotEng Lx Ly Lz 
      16            0   -241.99843    2.2449075    38.891198    1.1224537 
      17            0   -241.99843    2.2449075    38.891198    1.1224537 
      18            0   -241.99843    2.2449075    38.891198    1.1224537 
Loop time of 0.00315512 on 1 procs for 1 steps with 82 atoms

Minimization stats:
  Stopping criterion = force tolerance
  Energy initial, next-to-last, final = 
        -241.998431676     -241.998431676     -241.998431786
  Force two-norm initial, final = 0.00723142 1.3111e-11
  Force max component initial, final = 0.00361571 5.26891e-12
  Final line search alpha, max atom move = 0 0
  Iterations, force evaluations = 1 154

Pair  time (%) = 0.00222504 (70.5215)
Neigh time (%) = 0 (0)
Comm  time (%) = 0.000192543 (6.10255)
Outpt time (%) = 4.60349e-05 (1.45906)
Other time (%) = 0.000691502 (21.9169)

Nlocal:    82 ave 82 max 82 min
Histogram: 1 0 0 0 0 0 0 0 0 0
Nghost:    185 ave 185 max 185 min
Histogram: 1 0 0 0 0 0 0 0 0 0
Neighs:    718 ave 718 max 718 min
Histogram: 1 0 0 0 0 0 0 0 0 0

Total # of neighbors = 718
Ave neighs/atom = 8.7561
Neighbor list builds = 0
Dangerous builds = 0
        # write_dump all atom ${dumpfile}
        next i
jump SELF loop1
        displace_atoms upper move ${xstep1} 0.0 0.0 units lattice
        displace_atoms upper move 0.002 0.0 0.0 units lattice
        min_style ${style}
        min_style hftn
        minimize ${etol} ${ftol} ${maxiter} ${maxeval}
        minimize 1e-12 ${ftol} ${maxiter} ${maxeval}
        minimize 1e-12 1e-08 ${maxiter} ${maxeval}
        minimize 1e-12 1e-08 10000 ${maxeval}
        minimize 1e-12 1e-08 10000 20000
WARNING: Resetting reneighboring criteria during minimization (../min.cpp:168)
Memory usage per processor = 4.85169 Mbytes
Step Temp PotEng Lx Ly Lz 
      18            0   -241.99784    2.2449075    38.891095    1.1224537 
      19            0   -241.99784    2.2449075    38.891095    1.1224537 
      20            0   -241.99784    2.2449075    38.891095    1.1224537 
Loop time of 0.0043649 on 1 procs for 1 steps with 82 atoms

Minimization stats:
  Stopping criterion = force tolerance
  Energy initial, next-to-last, final = 
        -241.997837661     -241.997837661     -241.997838141
  Force two-norm initial, final = 0.0062164 9.29619e-12
  Force max component initial, final = 0.0031082 3.44733e-12
  Final line search alpha, max atom move = 0 0
  Iterations, force evaluations = 1 156

Pair  time (%) = 0.0025094 (57.4904)
Neigh time (%) = 0 (0)
Comm  time (%) = 0.00021693 (4.96988)
Outpt time (%) = 7.29631e-05 (1.67159)
Other time (%) = 0.00156561 (35.8681)

Nlocal:    82 ave 82 max 82 min
Histogram: 1 0 0 0 0 0 0 0 0 0
Nghost:    185 ave 185 max 185 min
Histogram: 1 0 0 0 0 0 0 0 0 0
Neighs:    718 ave 718 max 718 min
Histogram: 1 0 0 0 0 0 0 0 0 0

Total # of neighbors = 718
Ave neighs/atom = 8.7561
Neighbor list builds = 0
Dangerous builds = 0
        # write_dump all atom ${dumpfile}
        next i
jump SELF loop1
        displace_atoms upper move ${xstep1} 0.0 0.0 units lattice
        displace_atoms upper move 0.002 0.0 0.0 units lattice
        min_style ${style}
        min_style hftn
        minimize ${etol} ${ftol} ${maxiter} ${maxeval}
        minimize 1e-12 ${ftol} ${maxiter} ${maxeval}
        minimize 1e-12 1e-08 ${maxiter} ${maxeval}
        minimize 1e-12 1e-08 10000 ${maxeval}
        minimize 1e-12 1e-08 10000 20000
WARNING: Resetting reneighboring criteria during minimization (../min.cpp:168)
Memory usage per processor = 4.85169 Mbytes
Step Temp PotEng Lx Ly Lz 
      20            0   -241.99717    2.2449075    38.891007    1.1224537 
      21            0   -241.99717    2.2449075    38.891007    1.1224537 
      22            0   -241.99717    2.2449075    38.891007    1.1224537 
      23            0   -241.99717    2.2449075    38.891007    1.1224537 
Loop time of 0.00425696 on 1 procs for 2 steps with 82 atoms

Minimization stats:
  Stopping criterion = force tolerance
  Energy initial, next-to-last, final = 
        -241.997167094     -241.997164161     -241.997167545
  Force two-norm initial, final = 0.00517474 1.51715e-09
  Force max component initial, final = 0.00258737 7.59838e-10
  Final line search alpha, max atom move = 0 0
  Iterations, force evaluations = 2 201

Pair  time (%) = 0.00307822 (72.3103)
Neigh time (%) = 0 (0)
Comm  time (%) = 0.000248531 (5.83824)
Outpt time (%) = 2.09593e-05 (0.492354)
Other time (%) = 0.000909248 (21.3591)

Nlocal:    82 ave 82 max 82 min
Histogram: 1 0 0 0 0 0 0 0 0 0
Nghost:    185 ave 185 max 185 min
Histogram: 1 0 0 0 0 0 0 0 0 0
Neighs:    718 ave 718 max 718 min
Histogram: 1 0 0 0 0 0 0 0 0 0

Total # of neighbors = 718
Ave neighs/atom = 8.7561
Neighbor list builds = 0
Dangerous builds = 0
        # write_dump all atom ${dumpfile}
        next i
jump SELF loop1
        displace_atoms upper move ${xstep1} 0.0 0.0 units lattice
        displace_atoms upper move 0.002 0.0 0.0 units lattice
        min_style ${style}
        min_style hftn
        minimize ${etol} ${ftol} ${maxiter} ${maxeval}
        minimize 1e-12 ${ftol} ${maxiter} ${maxeval}
        minimize 1e-12 1e-08 ${maxiter} ${maxeval}
        minimize 1e-12 1e-08 10000 ${maxeval}
        minimize 1e-12 1e-08 10000 20000
WARNING: Resetting reneighboring criteria during minimization (../min.cpp:168)
Memory usage per processor = 4.85169 Mbytes
Step Temp PotEng Lx Ly Lz 
      23            0   -241.99642    2.2449075    38.890934    1.1224537 
      24            0   -241.99642    2.2449075    38.890934    1.1224537 
      25            0   -241.99642    2.2449075    38.890934    1.1224537 
      26            0   -241.99642    2.2449075    38.890934    1.1224537 
      27            0   -241.99642    2.2449075    38.890934    1.1224537 
Loop time of 0.00527708 on 1 procs for 3 steps with 82 atoms

Minimization stats:
  Stopping criterion = force tolerance
  Energy initial, next-to-last, final = 
        -241.996419446      -241.99641989     -241.996418678
  Force two-norm initial, final = 0.00413321 6.47478e-10
  Force max component initial, final = 0.0020666 2.18519e-10
  Final line search alpha, max atom move = 0 0
  Iterations, force evaluations = 3 202

Pair  time (%) = 0.00307252 (58.2239)
Neigh time (%) = 0 (0)
Comm  time (%) = 0.000310366 (5.8814)
Outpt time (%) = 2.49111e-05 (0.472063)
Other time (%) = 0.00186928 (35.4226)

Nlocal:    82 ave 82 max 82 min
Histogram: 1 0 0 0 0 0 0 0 0 0
Nghost:    185 ave 185 max 185 min
Histogram: 1 0 0 0 0 0 0 0 0 0
Neighs:    718 ave 718 max 718 min
Histogram: 1 0 0 0 0 0 0 0 0 0

Total # of neighbors = 718
Ave neighs/atom = 8.7561
Neighbor list builds = 0
Dangerous builds = 0
        # write_dump all atom ${dumpfile}
        next i
jump SELF loop1
        displace_atoms upper move ${xstep1} 0.0 0.0 units lattice
        displace_atoms upper move 0.002 0.0 0.0 units lattice
        min_style ${style}
        min_style hftn
        minimize ${etol} ${ftol} ${maxiter} ${maxeval}
        minimize 1e-12 ${ftol} ${maxiter} ${maxeval}
        minimize 1e-12 1e-08 ${maxiter} ${maxeval}
        minimize 1e-12 1e-08 10000 ${maxeval}
        minimize 1e-12 1e-08 10000 20000
WARNING: Resetting reneighboring criteria during minimization (../min.cpp:168)
Memory usage per processor = 4.85169 Mbytes
Step Temp PotEng Lx Ly Lz 
      27            0   -241.99559    2.2449075    38.890876    1.1224537 
      28            0   -241.99559    2.2449075    38.890876    1.1224537 
      29            0   -241.99559    2.2449075    38.890876    1.1224537 
      30            0   -241.99559    2.2449075    38.890876    1.1224537 
      31            0   -241.99559    2.2449075    38.890876    1.1224537 
Loop time of 0.00786898 on 1 procs for 3 steps with 82 atoms

Minimization stats:
  Stopping criterion = force tolerance
  Energy initial, next-to-last, final = 
        -241.995592299     -241.995592548     -241.995591645
  Force two-norm initial, final = 0.00308549 3.62464e-10
  Force max component initial, final = 0.00154275 1.20522e-10
  Final line search alpha, max atom move = 0 0
  Iterations, force evaluations = 3 204

Pair  time (%) = 0.00322678 (41.0063)
Neigh time (%) = 0 (0)
Comm  time (%) = 0.00339703 (43.1699)
Outpt time (%) = 2.60072e-05 (0.330503)
Other time (%) = 0.00121916 (15.4933)

Nlocal:    82 ave 82 max 82 min
Histogram: 1 0 0 0 0 0 0 0 0 0
Nghost:    185 ave 185 max 185 min
Histogram: 1 0 0 0 0 0 0 0 0 0
Neighs:    718 ave 718 max 718 min
Histogram: 1 0 0 0 0 0 0 0 0 0

Total # of neighbors = 718
Ave neighs/atom = 8.7561
Neighbor list builds = 0
Dangerous builds = 0
        # write_dump all atom ${dumpfile}
        next i
jump SELF loop1
        displace_atoms upper move ${xstep1} 0.0 0.0 units lattice
        displace_atoms upper move 0.002 0.0 0.0 units lattice
        min_style ${style}
        min_style hftn
        minimize ${etol} ${ftol} ${maxiter} ${maxeval}
        minimize 1e-12 ${ftol} ${maxiter} ${maxeval}
        minimize 1e-12 1e-08 ${maxiter} ${maxeval}
        minimize 1e-12 1e-08 10000 ${maxeval}
        minimize 1e-12 1e-08 10000 20000
WARNING: Resetting reneighboring criteria during minimization (../min.cpp:168)
Memory usage per processor = 4.85169 Mbytes
Step Temp PotEng Lx Ly Lz 
      31            0   -241.99469    2.2449075    38.890833    1.1224537 
      32            0   -241.99469    2.2449075    38.890833    1.1224537 
      33            0   -241.99469    2.2449075    38.890833    1.1224537 
      34            0   -241.99469    2.2449075    38.890833    1.1224537 
      35            0   -241.99469    2.2449075    38.890833    1.1224537 
Loop time of 0.00525806 on 1 procs for 3 steps with 82 atoms

Minimization stats:
  Stopping criterion = force tolerance
  Energy initial, next-to-last, final = 
        -241.994687665     -241.994687744     -241.994687135
  Force two-norm initial, final = 0.00204913 1.80168e-10
  Force max component initial, final = 0.00102457 5.36621e-11
  Final line search alpha, max atom move = 0 0
  Iterations, force evaluations = 3 204

Pair  time (%) = 0.00370359 (70.4363)
Neigh time (%) = 0 (0)
Comm  time (%) = 0.000392374 (7.46232)
Outpt time (%) = 0.00011615 (2.20899)
Other time (%) = 0.00104595 (19.8923)

Nlocal:    82 ave 82 max 82 min
Histogram: 1 0 0 0 0 0 0 0 0 0
Nghost:    185 ave 185 max 185 min
Histogram: 1 0 0 0 0 0 0 0 0 0
Neighs:    718 ave 718 max 718 min
Histogram: 1 0 0 0 0 0 0 0 0 0

Total # of neighbors = 718
Ave neighs/atom = 8.7561
Neighbor list builds = 0
Dangerous builds = 0
        # write_dump all atom ${dumpfile}
        next i
jump SELF loop1
        displace_atoms upper move ${xstep1} 0.0 0.0 units lattice
        displace_atoms upper move 0.002 0.0 0.0 units lattice
        min_style ${style}
        min_style hftn
        minimize ${etol} ${ftol} ${maxiter} ${maxeval}
        minimize 1e-12 ${ftol} ${maxiter} ${maxeval}
        minimize 1e-12 1e-08 ${maxiter} ${maxeval}
        minimize 1e-12 1e-08 10000 ${maxeval}
        minimize 1e-12 1e-08 10000 20000
WARNING: Resetting reneighboring criteria during minimization (../min.cpp:168)
Memory usage per processor = 4.85169 Mbytes
Step Temp PotEng Lx Ly Lz 
      35            0    -241.9937    2.2449075    38.890804    1.1224537 
      36            0    -241.9937    2.2449075    38.890804    1.1224537 
      37            0    -241.9937    2.2449075    38.890804    1.1224537 
Loop time of 0.00396697 on 1 procs for 1 steps with 82 atoms

Minimization stats:
  Stopping criterion = force tolerance
  Energy initial, next-to-last, final = 
        -241.993703503     -241.993703503     -241.993703608
  Force two-norm initial, final = 0.000988575 7.76823e-10
  Force max component initial, final = 0.000494287 3.80301e-10
  Final line search alpha, max atom move = 0 0
  Iterations, force evaluations = 1 111

Pair  time (%) = 0.00309433 (78.0023)
Neigh time (%) = 0 (0)
Comm  time (%) = 0.000199279 (5.02344)
Outpt time (%) = 6.3011e-05 (1.58839)
Other time (%) = 0.000610353 (15.3859)

Nlocal:    82 ave 82 max 82 min
Histogram: 1 0 0 0 0 0 0 0 0 0
Nghost:    185 ave 185 max 185 min
Histogram: 1 0 0 0 0 0 0 0 0 0
Neighs:    718 ave 718 max 718 min
Histogram: 1 0 0 0 0 0 0 0 0 0

Total # of neighbors = 718
Ave neighs/atom = 8.7561
Neighbor list builds = 0
Dangerous builds = 0
        # write_dump all atom ${dumpfile}
        next i
jump SELF loop1
        displace_atoms upper move ${xstep1} 0.0 0.0 units lattice
        displace_atoms upper move 0.002 0.0 0.0 units lattice
        min_style ${style}
        min_style hftn
        minimize ${etol} ${ftol} ${maxiter} ${maxeval}
        minimize 1e-12 ${ftol} ${maxiter} ${maxeval}
        minimize 1e-12 1e-08 ${maxiter} ${maxeval}
        minimize 1e-12 1e-08 10000 ${maxeval}
        minimize 1e-12 1e-08 10000 20000
WARNING: Resetting reneighboring criteria during minimization (../min.cpp:168)
Memory usage per processor = 4.85169 Mbytes
Step Temp PotEng Lx Ly Lz 
      37            0   -241.99264    2.2449075     38.89079    1.1224537 
      38            0   -241.99264    2.2449075     38.89079    1.1224537 
Loop time of 0.00177911 on 1 procs for 0 steps with 82 atoms

Minimization stats:
  Stopping criterion = force tolerance
  Energy initial, next-to-last, final = 
        -241.992640818     -241.992640818     -241.992640815
  Force two-norm initial, final = 5.69293e-05 1.85594e-10
  Force max component initial, final = 2.84646e-05 3.70298e-11
  Final line search alpha, max atom move = 0 0
  Iterations, force evaluations = 0 83

Pair  time (%) = 0.00126748 (71.2421)
Neigh time (%) = 0 (0)
Comm  time (%) = 0.000111533 (6.26903)
Outpt time (%) = 0 (0)
Other time (%) = 0.000400102 (22.4889)

Nlocal:    82 ave 82 max 82 min
Histogram: 1 0 0 0 0 0 0 0 0 0
Nghost:    185 ave 185 max 185 min
Histogram: 1 0 0 0 0 0 0 0 0 0
Neighs:    718 ave 718 max 718 min
Histogram: 1 0 0 0 0 0 0 0 0 0

Total # of neighbors = 718
Ave neighs/atom = 8.7561
Neighbor list builds = 0
Dangerous builds = 0
        # write_dump all atom ${dumpfile}
        next i
jump SELF loop1
        displace_atoms upper move ${xstep1} 0.0 0.0 units lattice
        displace_atoms upper move 0.002 0.0 0.0 units lattice
        min_style ${style}
        min_style hftn
        minimize ${etol} ${ftol} ${maxiter} ${maxeval}
        minimize 1e-12 ${ftol} ${maxiter} ${maxeval}
        minimize 1e-12 1e-08 ${maxiter} ${maxeval}
        minimize 1e-12 1e-08 10000 ${maxeval}
        minimize 1e-12 1e-08 10000 20000
WARNING: Resetting reneighboring criteria during minimization (../min.cpp:168)
Memory usage per processor = 4.85169 Mbytes
Step Temp PotEng Lx Ly Lz 
      38            0    -241.9915    2.2449075    38.890791    1.1224537 
      39            0    -241.9915    2.2449075    38.890791    1.1224537 
      40            0    -241.9915    2.2449075    38.890791    1.1224537 
Loop time of 0.0023469 on 1 procs for 1 steps with 82 atoms

Minimization stats:
  Stopping criterion = force tolerance
  Energy initial, next-to-last, final = 
        -241.991500617     -241.991500617      -241.99150069
  Force two-norm initial, final = 0.00108312 9.328e-10
  Force max component initial, final = 0.000541562 4.55963e-10
  Final line search alpha, max atom move = 0 0
  Iterations, force evaluations = 1 111

Pair  time (%) = 0.00170223 (72.531)
Neigh time (%) = 0 (0)
Comm  time (%) = 0.000139581 (5.94746)
Outpt time (%) = 8.96293e-06 (0.381906)
Other time (%) = 0.000496124 (21.1396)

Nlocal:    82 ave 82 max 82 min
Histogram: 1 0 0 0 0 0 0 0 0 0
Nghost:    185 ave 185 max 185 min
Histogram: 1 0 0 0 0 0 0 0 0 0
Neighs:    718 ave 718 max 718 min
Histogram: 1 0 0 0 0 0 0 0 0 0

Total # of neighbors = 718
Ave neighs/atom = 8.7561
Neighbor list builds = 0
Dangerous builds = 0
        # write_dump all atom ${dumpfile}
        next i
jump SELF loop1
        displace_atoms upper move ${xstep1} 0.0 0.0 units lattice
        displace_atoms upper move 0.002 0.0 0.0 units lattice
        min_style ${style}
        min_style hftn
        minimize ${etol} ${ftol} ${maxiter} ${maxeval}
        minimize 1e-12 ${ftol} ${maxiter} ${maxeval}
        minimize 1e-12 1e-08 ${maxiter} ${maxeval}
        minimize 1e-12 1e-08 10000 ${maxeval}
        minimize 1e-12 1e-08 10000 20000
WARNING: Resetting reneighboring criteria during minimization (../min.cpp:168)
Memory usage per processor = 4.85169 Mbytes
Step Temp PotEng Lx Ly Lz 
      40            0   -241.99028    2.2449075    38.890806    1.1224537 
      41            0   -241.99028    2.2449075    38.890806    1.1224537 
      42            0   -241.99028    2.2449075    38.890806    1.1224537 
Loop time of 0.0024799 on 1 procs for 1 steps with 82 atoms

Minimization stats:
  Stopping criterion = force tolerance
  Energy initial, next-to-last, final = 
        -241.990283269     -241.990283269     -241.990283631
  Force two-norm initial, final = 0.00210342 3.70035e-09
  Force max component initial, final = 0.00105171 1.84638e-09
  Final line search alpha, max atom move = 0 0
  Iterations, force evaluations = 1 111

Pair  time (%) = 0.00180224 (72.674)
Neigh time (%) = 0 (0)
Comm  time (%) = 0.000145261 (5.85754)
Outpt time (%) = 1.1087e-05 (0.447076)
Other time (%) = 0.00052131 (21.0214)

Nlocal:    82 ave 82 max 82 min
Histogram: 1 0 0 0 0 0 0 0 0 0
Nghost:    185 ave 185 max 185 min
Histogram: 1 0 0 0 0 0 0 0 0 0
Neighs:    718 ave 718 max 718 min
Histogram: 1 0 0 0 0 0 0 0 0 0

Total # of neighbors = 718
Ave neighs/atom = 8.7561
Neighbor list builds = 0
Dangerous builds = 0
        # write_dump all atom ${dumpfile}
        next i
jump SELF loop1
        displace_atoms upper move ${xstep1} 0.0 0.0 units lattice
        displace_atoms upper move 0.002 0.0 0.0 units lattice
        min_style ${style}
        min_style hftn
        minimize ${etol} ${ftol} ${maxiter} ${maxeval}
        minimize 1e-12 ${ftol} ${maxiter} ${maxeval}
        minimize 1e-12 1e-08 ${maxiter} ${maxeval}
        minimize 1e-12 1e-08 10000 ${maxeval}
        minimize 1e-12 1e-08 10000 20000
WARNING: Resetting reneighboring criteria during minimization (../min.cpp:168)
Memory usage per processor = 4.85169 Mbytes
Step Temp PotEng Lx Ly Lz 
      42            0   -241.98899    2.2449075    38.890835    1.1224537 
      43            0   -241.98899    2.2449075    38.890835    1.1224537 
      44            0   -241.98899    2.2449075    38.890835    1.1224537 
      45            0   -241.98899    2.2449075    38.890835    1.1224537 
      46            0   -241.98899    2.2449075    38.890835    1.1224537 
      47            0   -241.98899    2.2449075    38.890835    1.1224537 
      48            0   -241.98899    2.2449075    38.890835    1.1224537 
      49            0   -241.98899    2.2449075    38.890835    1.1224537 
      50            0   -241.98899    2.2449075    38.890835    1.1224537 
Loop time of 0.00393912 on 1 procs for 7 steps with 82 atoms

Minimization stats:
  Stopping criterion = energy tolerance
  Energy initial, next-to-last, final = 
        -241.988989165     -241.988989165     -241.988989165
  Force two-norm initial, final = 0.00311842 0.00311814
  Force max component initial, final = 0.00155921 0.00155907
  Final line search alpha, max atom move = 0 0
  Iterations, force evaluations = 7 136

Pair  time (%) = 0.00298634 (75.8123)
Neigh time (%) = 0 (0)
Comm  time (%) = 0.000230395 (5.84889)
Outpt time (%) = 8.3996e-05 (2.13235)
Other time (%) = 0.000638391 (16.2064)

Nlocal:    82 ave 82 max 82 min
Histogram: 1 0 0 0 0 0 0 0 0 0
Nghost:    185 ave 185 max 185 min
Histogram: 1 0 0 0 0 0 0 0 0 0
Neighs:    718 ave 718 max 718 min
Histogram: 1 0 0 0 0 0 0 0 0 0

Total # of neighbors = 718
Ave neighs/atom = 8.7561
Neighbor list builds = 0
Dangerous builds = 0
        # write_dump all atom ${dumpfile}
        next i
jump SELF loop1
        displace_atoms upper move ${xstep1} 0.0 0.0 units lattice
        displace_atoms upper move 0.002 0.0 0.0 units lattice
        min_style ${style}
        min_style hftn
        minimize ${etol} ${ftol} ${maxiter} ${maxeval}
        minimize 1e-12 ${ftol} ${maxiter} ${maxeval}
        minimize 1e-12 1e-08 ${maxiter} ${maxeval}
        minimize 1e-12 1e-08 10000 ${maxeval}
        minimize 1e-12 1e-08 10000 20000
WARNING: Resetting reneighboring criteria during minimization (../min.cpp:168)
Memory usage per processor = 4.85169 Mbytes
Step Temp PotEng Lx Ly Lz 
      50            0   -241.98761    2.2449075    38.890835    1.1224537 
      51            0   -241.98761    2.2449075    38.890835    1.1224537 
      52            0   -241.98761    2.2449075    38.890835    1.1224537 
Loop time of 0.00715297 on 1 procs for 1 steps with 82 atoms

Minimization stats:
  Stopping criterion = force tolerance
  Energy initial, next-to-last, final = 
           -241.987613        -241.987613     -241.987613266
  Force two-norm initial, final = 0.00730626 1.38934e-11
  Force max component initial, final = 0.00365313 5.92173e-12
  Final line search alpha, max atom move = 0 0
  Iterations, force evaluations = 1 154

Pair  time (%) = 0.00562391 (78.6234)
Neigh time (%) = 0 (0)
Comm  time (%) = 0.000732375 (10.2387)
Outpt time (%) = 9.88273e-06 (0.138163)
Other time (%) = 0.000786804 (10.9997)

Nlocal:    82 ave 82 max 82 min
Histogram: 1 0 0 0 0 0 0 0 0 0
Nghost:    185 ave 185 max 185 min
Histogram: 1 0 0 0 0 0 0 0 0 0
Neighs:    718 ave 718 max 718 min
Histogram: 1 0 0 0 0 0 0 0 0 0

Total # of neighbors = 718
Ave neighs/atom = 8.7561
Neighbor list builds = 0
Dangerous builds = 0
        # write_dump all atom ${dumpfile}
        next i
jump SELF loop1
        displace_atoms upper move ${xstep1} 0.0 0.0 units lattice
        displace_atoms upper move 0.002 0.0 0.0 units lattice
        min_style ${style}
        min_style hftn
        minimize ${etol} ${ftol} ${maxiter} ${maxeval}
        minimize 1e-12 ${ftol} ${maxiter} ${maxeval}
        minimize 1e-12 1e-08 ${maxiter} ${maxeval}
        minimize 1e-12 1e-08 10000 ${maxeval}
        minimize 1e-12 1e-08 10000 20000
WARNING: Resetting reneighboring criteria during minimization (../min.cpp:168)
Memory usage per processor = 4.85169 Mbytes
Step Temp PotEng Lx Ly Lz 
      52            0   -241.98616    2.2449075    38.890937    1.1224537 
      53            0   -241.98616    2.2449075    38.890937    1.1224537 
      54            0   -241.98616    2.2449075    38.890937    1.1224537 
      55            0   -241.98616    2.2449075    38.890937    1.1224537 
Loop time of 0.0047601 on 1 procs for 2 steps with 82 atoms

Minimization stats:
  Stopping criterion = force tolerance
  Energy initial, next-to-last, final = 
         -241.98616128     -241.986143065     -241.986162471
  Force two-norm initial, final = 0.00517923 1.18813e-09
  Force max component initial, final = 0.00258962 5.83685e-10
  Final line search alpha, max atom move = 0 0
  Iterations, force evaluations = 2 205

Pair  time (%) = 0.0033351 (70.0637)
Neigh time (%) = 0 (0)
Comm  time (%) = 0.000289553 (6.08293)
Outpt time (%) = 8.8932e-05 (1.86828)
Other time (%) = 0.00104651 (21.9851)

Nlocal:    82 ave 82 max 82 min
Histogram: 1 0 0 0 0 0 0 0 0 0
Nghost:    185 ave 185 max 185 min
Histogram: 1 0 0 0 0 0 0 0 0 0
Neighs:    718 ave 718 max 718 min
Histogram: 1 0 0 0 0 0 0 0 0 0

Total # of neighbors = 718
Ave neighs/atom = 8.7561
Neighbor list builds = 0
Dangerous builds = 0
        # write_dump all atom ${dumpfile}
        next i
jump SELF loop1
        displace_atoms upper move ${xstep1} 0.0 0.0 units lattice
        displace_atoms upper move 0.002 0.0 0.0 units lattice
        min_style ${style}
        min_style hftn
        minimize ${etol} ${ftol} ${maxiter} ${maxeval}
        minimize 1e-12 ${ftol} ${maxiter} ${maxeval}
        minimize 1e-12 1e-08 ${maxiter} ${maxeval}
        minimize 1e-12 1e-08 10000 ${maxeval}
        minimize 1e-12 1e-08 10000 20000
WARNING: Resetting reneighboring criteria during minimization (../min.cpp:168)
Memory usage per processor = 4.85169 Mbytes
Step Temp PotEng Lx Ly Lz 
      55            0   -241.98463    2.2449075    38.891009    1.1224537 
      56            0   -241.98463    2.2449075    38.891009    1.1224537 
      57            0   -241.98463    2.2449075    38.891009    1.1224537 
      58            0   -241.98463    2.2449075    38.891009    1.1224537 
      59            0   -241.98463    2.2449075    38.891009    1.1224537 
      60            0   -241.98463    2.2449075    38.891009    1.1224537 
      61            0   -241.98463    2.2449075    38.891009    1.1224537 
      62            0   -241.98463    2.2449075    38.891009    1.1224537 
      63            0   -241.98463    2.2449075    38.891009    1.1224537 
      64            0   -241.98463    2.2449075    38.891009    1.1224537 
Loop time of 0.0040681 on 1 procs for 8 steps with 82 atoms

Minimization stats:
  Stopping criterion = energy tolerance
  Energy initial, next-to-last, final = 
        -241.984634849     -241.984634849     -241.984634851
  Force two-norm initial, final = 0.00617098 0.00583527
  Force max component initial, final = 0.00308549 0.00291708
  Final line search alpha, max atom move = 0 0
  Iterations, force evaluations = 8 131

Pair  time (%) = 0.00308204 (75.7611)
Neigh time (%) = 0 (0)
Comm  time (%) = 0.000268909 (6.61019)
Outpt time (%) = 7.7827e-05 (1.91311)
Other time (%) = 0.000639326 (15.7156)

Nlocal:    82 ave 82 max 82 min
Histogram: 1 0 0 0 0 0 0 0 0 0
Nghost:    185 ave 185 max 185 min
Histogram: 1 0 0 0 0 0 0 0 0 0
Neighs:    718 ave 718 max 718 min
Histogram: 1 0 0 0 0 0 0 0 0 0

Total # of neighbors = 718
Ave neighs/atom = 8.7561
Neighbor list builds = 0
Dangerous builds = 0
        # write_dump all atom ${dumpfile}
        next i
jump SELF loop1
        displace_atoms upper move ${xstep1} 0.0 0.0 units lattice
        displace_atoms upper move 0.002 0.0 0.0 units lattice
        min_style ${style}
        min_style hftn
        minimize ${etol} ${ftol} ${maxiter} ${maxeval}
        minimize 1e-12 ${ftol} ${maxiter} ${maxeval}
        minimize 1e-12 1e-08 ${maxiter} ${maxeval}
        minimize 1e-12 1e-08 10000 ${maxeval}
        minimize 1e-12 1e-08 10000 20000
WARNING: Resetting reneighboring criteria during minimization (../min.cpp:168)
Memory usage per processor = 4.85169 Mbytes
Step Temp PotEng Lx Ly Lz 
      64            0   -241.98303    2.2449075    38.891009    1.1224537 
      65            0   -241.98303    2.2449075    38.891009    1.1224537 
      66            0   -241.98303    2.2449075    38.891009    1.1224537 
      67            0   -241.98303    2.2449075    38.891009    1.1224537 
      68            0   -241.98303    2.2449075    38.891009    1.1224537 
      69            0   -241.98303    2.2449075    38.891009    1.1224537 
      70            0   -241.98303    2.2449075    38.891009    1.1224537 
      71            0   -241.98303    2.2449075    38.891009    1.1224537 
      72            0   -241.98303    2.2449075    38.891009    1.1224537 
      73            0   -241.98303    2.2449075    38.891009    1.1224537 
Loop time of 0.00279911 on 1 procs for 8 steps with 82 atoms

Minimization stats:
  Stopping criterion = energy tolerance
  Energy initial, next-to-last, final = 
        -241.983025734     -241.983025734     -241.983025734
  Force two-norm initial, final = 0.0130686 0.0130683
  Force max component initial, final = 0.00653405 0.00653391
  Final line search alpha, max atom move = 0 0
  Iterations, force evaluations = 8 125

Pair  time (%) = 0.00203959 (72.8656)
Neigh time (%) = 0 (0)
Comm  time (%) = 0.000180695 (6.45546)
Outpt time (%) = 5.80508e-05 (2.0739)
Other time (%) = 0.000520775 (18.605)

Nlocal:    82 ave 82 max 82 min
Histogram: 1 0 0 0 0 0 0 0 0 0
Nghost:    185 ave 185 max 185 min
Histogram: 1 0 0 0 0 0 0 0 0 0
Neighs:    718 ave 718 max 718 min
Histogram: 1 0 0 0 0 0 0 0 0 0

Total # of neighbors = 718
Ave neighs/atom = 8.7561
Neighbor list builds = 0
Dangerous builds = 0
        # write_dump all atom ${dumpfile}
        next i
jump SELF loop1
        displace_atoms upper move ${xstep1} 0.0 0.0 units lattice
        displace_atoms upper move 0.002 0.0 0.0 units lattice
        min_style ${style}
        min_style hftn
        minimize ${etol} ${ftol} ${maxiter} ${maxeval}
        minimize 1e-12 ${ftol} ${maxiter} ${maxeval}
        minimize 1e-12 1e-08 ${maxiter} ${maxeval}
        minimize 1e-12 1e-08 10000 ${maxeval}
        minimize 1e-12 1e-08 10000 20000
WARNING: Resetting reneighboring criteria during minimization (../min.cpp:168)
Memory usage per processor = 4.85169 Mbytes
Step Temp PotEng Lx Ly Lz 
      73            0   -241.98134    2.2449075    38.891009    1.1224537 
      74            0   -241.98134    2.2449075    38.891009    1.1224537 
      75            0   -241.98134    2.2449075    38.891009    1.1224537 
Loop time of 0.00323803 on 1 procs for 1 steps with 82 atoms

Minimization stats:
  Stopping criterion = force tolerance
  Energy initial, next-to-last, final = 
        -241.981339445     -241.981339445     -241.981343329
  Force two-norm initial, final = 0.0213156 7.91877e-10
  Force max component initial, final = 0.0106576 4.03285e-10
  Final line search alpha, max atom move = 0 0
  Iterations, force evaluations = 1 142

Pair  time (%) = 0.00228297 (70.505)
Neigh time (%) = 0 (0)
Comm  time (%) = 0.000300522 (9.28102)
Outpt time (%) = 9.03208e-06 (0.278938)
Other time (%) = 0.000645503 (19.935)

Nlocal:    82 ave 82 max 82 min
Histogram: 1 0 0 0 0 0 0 0 0 0
Nghost:    185 ave 185 max 185 min
Histogram: 1 0 0 0 0 0 0 0 0 0
Neighs:    718 ave 718 max 718 min
Histogram: 1 0 0 0 0 0 0 0 0 0

Total # of neighbors = 718
Ave neighs/atom = 8.7561
Neighbor list builds = 0
Dangerous builds = 0
        # write_dump all atom ${dumpfile}
        next i
jump SELF loop1
        displace_atoms upper move ${xstep1} 0.0 0.0 units lattice
        displace_atoms upper move 0.002 0.0 0.0 units lattice
        min_style ${style}
        min_style hftn
        minimize ${etol} ${ftol} ${maxiter} ${maxeval}
        minimize 1e-12 ${ftol} ${maxiter} ${maxeval}
        minimize 1e-12 1e-08 ${maxiter} ${maxeval}
        minimize 1e-12 1e-08 10000 ${maxeval}
        minimize 1e-12 1e-08 10000 20000
WARNING: Resetting reneighboring criteria during minimization (../min.cpp:168)
Memory usage per processor = 4.85169 Mbytes
Step Temp PotEng Lx Ly Lz 
      75            0   -241.97958    2.2449075    38.891308    1.1224537 
      76            0   -241.97958    2.2449075    38.891308    1.1224537 
      77            0   -241.97958    2.2449075    38.891308    1.1224537 
      78            0   -241.97958    2.2449075    38.891308    1.1224537 
      79            0   -241.97958    2.2449075    38.891308    1.1224537 
      80            0   -241.97958    2.2449075    38.891308    1.1224537 
      81            0   -241.97958    2.2449075    38.891308    1.1224537 
      82            0   -241.97958    2.2449075    38.891308    1.1224537 
      83            0   -241.97958    2.2449075    38.891308    1.1224537 
Loop time of 0.002407 on 1 procs for 7 steps with 82 atoms

Minimization stats:
  Stopping criterion = energy tolerance
  Energy initial, next-to-last, final = 
        -241.979582665     -241.979582665     -241.979582664
  Force two-norm initial, final = 0.00920251 0.00920151
  Force max component initial, final = 0.00460126 0.00460076
  Final line search alpha, max atom move = 0 0
  Iterations, force evaluations = 7 122

Pair  time (%) = 0.00178522 (74.1678)
Neigh time (%) = 0 (0)
Comm  time (%) = 0.000140826 (5.8507)
Outpt time (%) = 3.98941e-05 (1.65742)
Other time (%) = 0.00044106 (18.3241)

Nlocal:    82 ave 82 max 82 min
Histogram: 1 0 0 0 0 0 0 0 0 0
Nghost:    185 ave 185 max 185 min
Histogram: 1 0 0 0 0 0 0 0 0 0
Neighs:    718 ave 718 max 718 min
Histogram: 1 0 0 0 0 0 0 0 0 0

Total # of neighbors = 718
Ave neighs/atom = 8.7561
Neighbor list builds = 0
Dangerous builds = 0
        # write_dump all atom ${dumpfile}
        next i
jump SELF loop1
        displace_atoms upper move ${xstep1} 0.0 0.0 units lattice
        displace_atoms upper move 0.002 0.0 0.0 units lattice
        min_style ${style}
        min_style hftn
        minimize ${etol} ${ftol} ${maxiter} ${maxeval}
        minimize 1e-12 ${ftol} ${maxiter} ${maxeval}
        minimize 1e-12 1e-08 ${maxiter} ${maxeval}
        minimize 1e-12 1e-08 10000 ${maxeval}
        minimize 1e-12 1e-08 10000 20000
WARNING: Resetting reneighboring criteria during minimization (../min.cpp:168)
Memory usage per processor = 4.85169 Mbytes
Step Temp PotEng Lx Ly Lz 
      83            0   -241.97774    2.2449075    38.891308    1.1224537 
      84            0   -241.97775    2.2449075    38.891308    1.1224537 
      85            0   -241.97775    2.2449075    38.891308    1.1224537 
Loop time of 0.00373508 on 1 procs for 1 steps with 82 atoms

Minimization stats:
  Stopping criterion = force tolerance
  Energy initial, next-to-last, final = 
        -241.977744073     -241.977744073     -241.977749397
  Force two-norm initial, final = 0.0194229 6.27568e-10
  Force max component initial, final = 0.00971145 3.18504e-10
  Final line search alpha, max atom move = 0 0
  Iterations, force evaluations = 1 142

Pair  time (%) = 0.00271696 (72.7417)
Neigh time (%) = 0 (0)
Comm  time (%) = 0.00024686 (6.60925)
Outpt time (%) = 6.9984e-05 (1.8737)
Other time (%) = 0.000701275 (18.7754)

Nlocal:    82 ave 82 max 82 min
Histogram: 1 0 0 0 0 0 0 0 0 0
Nghost:    185 ave 185 max 185 min
Histogram: 1 0 0 0 0 0 0 0 0 0
Neighs:    718 ave 718 max 718 min
Histogram: 1 0 0 0 0 0 0 0 0 0

Total # of neighbors = 718
Ave neighs/atom = 8.7561
Neighbor list builds = 0
Dangerous builds = 0
        # write_dump all atom ${dumpfile}
        next i
jump SELF loop1
        displace_atoms upper move ${xstep1} 0.0 0.0 units lattice
        displace_atoms upper move 0.002 0.0 0.0 units lattice
        min_style ${style}
        min_style hftn
        minimize ${etol} ${ftol} ${maxiter} ${maxeval}
        minimize 1e-12 ${ftol} ${maxiter} ${maxeval}
        minimize 1e-12 1e-08 ${maxiter} ${maxeval}
        minimize 1e-12 1e-08 10000 ${maxeval}
        minimize 1e-12 1e-08 10000 20000
WARNING: Resetting reneighboring criteria during minimization (../min.cpp:168)
Memory usage per processor = 4.85169 Mbytes
Step Temp PotEng Lx Ly Lz 
      85            0   -241.97584    2.2449075    38.891575    1.1224537 
      86            0   -241.97584    2.2449075    38.891575    1.1224537 
      87            0   -241.97584    2.2449075    38.891575    1.1224537 
      88            0   -241.97584    2.2449075    38.891575    1.1224537 
      89            0   -241.97584    2.2449075    38.891575    1.1224537 
      90            0   -241.97584    2.2449075    38.891575    1.1224537 
      91            0   -241.97584    2.2449075    38.891575    1.1224537 
      92            0   -241.97584    2.2449075    38.891575    1.1224537 
      93            0   -241.97584    2.2449075    38.891575    1.1224537 
      94            0   -241.97584    2.2449075    38.891575    1.1224537 
Loop time of 0.00696412 on 1 procs for 8 steps with 82 atoms

Minimization stats:
  Stopping criterion = energy tolerance
  Energy initial, next-to-last, final = 
        -241.975837979     -241.975837979     -241.975837979
  Force two-norm initial, final = 0.0111598 0.0111596
  Force max component initial, final = 0.00557989 0.00557979
  Final line search alpha, max atom move = 0 0
  Iterations, force evaluations = 8 125

Pair  time (%) = 0.00603623 (86.6761)
Neigh time (%) = 0 (0)
Comm  time (%) = 0.000282663 (4.05885)
Outpt time (%) = 6.57379e-05 (0.943951)
Other time (%) = 0.00057949 (8.32108)

Nlocal:    82 ave 82 max 82 min
Histogram: 1 0 0 0 0 0 0 0 0 0
Nghost:    185 ave 185 max 185 min
Histogram: 1 0 0 0 0 0 0 0 0 0
Neighs:    718 ave 718 max 718 min
Histogram: 1 0 0 0 0 0 0 0 0 0

Total # of neighbors = 718
Ave neighs/atom = 8.7561
Neighbor list builds = 0
Dangerous builds = 0
        # write_dump all atom ${dumpfile}
        next i
jump SELF loop1
        displace_atoms upper move ${xstep1} 0.0 0.0 units lattice
        displace_atoms upper move 0.002 0.0 0.0 units lattice
        min_style ${style}
        min_style hftn
        minimize ${etol} ${ftol} ${maxiter} ${maxeval}
        minimize 1e-12 ${ftol} ${maxiter} ${maxeval}
        minimize 1e-12 1e-08 ${maxiter} ${maxeval}
        minimize 1e-12 1e-08 10000 ${maxeval}
        minimize 1e-12 1e-08 10000 20000
WARNING: Resetting reneighboring criteria during minimization (../min.cpp:168)
Memory usage per processor = 4.85169 Mbytes
Step Temp PotEng Lx Ly Lz 
      94            0   -241.97385    2.2449075    38.891575    1.1224537 
      95            0   -241.97385    2.2449075    38.891575    1.1224537 
      96            0   -241.97385    2.2449075    38.891575    1.1224537 
Loop time of 0.00315602 on 1 procs for 1 steps with 82 atoms

Minimization stats:
  Stopping criterion = force tolerance
  Energy initial, next-to-last, final = 
        -241.973847896     -241.973847896     -241.973852124
  Force two-norm initial, final = 0.0233493 1.41392e-09
  Force max component initial, final = 0.0116747 7.23328e-10
  Final line search alpha, max atom move = 0 0
  Iterations, force evaluations = 1 140

Pair  time (%) = 0.00225372 (71.4103)
Neigh time (%) = 0 (0)
Comm  time (%) = 0.000199544 (6.32266)
Outpt time (%) = 1.00612e-05 (0.318794)
Other time (%) = 0.000692692 (21.9483)

Nlocal:    82 ave 82 max 82 min
Histogram: 1 0 0 0 0 0 0 0 0 0
Nghost:    185 ave 185 max 185 min
Histogram: 1 0 0 0 0 0 0 0 0 0
Neighs:    718 ave 718 max 718 min
Histogram: 1 0 0 0 0 0 0 0 0 0

Total # of neighbors = 718
Ave neighs/atom = 8.7561
Neighbor list builds = 0
Dangerous builds = 0
        # write_dump all atom ${dumpfile}
        next i
jump SELF loop1
        displace_atoms upper move ${xstep1} 0.0 0.0 units lattice
        displace_atoms upper move 0.002 0.0 0.0 units lattice
        min_style ${style}
        min_style hftn
        minimize ${etol} ${ftol} ${maxiter} ${maxeval}
        minimize 1e-12 ${ftol} ${maxiter} ${maxeval}
        minimize 1e-12 1e-08 ${maxiter} ${maxeval}
        minimize 1e-12 1e-08 10000 ${maxeval}
        minimize 1e-12 1e-08 10000 20000
WARNING: Resetting reneighboring criteria during minimization (../min.cpp:168)
Memory usage per processor = 4.85169 Mbytes
Step Temp PotEng Lx Ly Lz 
      96            0   -241.97179    2.2449075    38.891896    1.1224537 
      97            0   -241.97179    2.2449075    38.891896    1.1224537 
      98            0   -241.97179    2.2449075    38.891896    1.1224537 
Loop time of 0.00552701 on 1 procs for 1 steps with 82 atoms

Minimization stats:
  Stopping criterion = force tolerance
  Energy initial, next-to-last, final = 
        -241.971791565     -241.971791565     -241.971792245
  Force two-norm initial, final = 0.0130986 1.30548e-10
  Force max component initial, final = 0.00654932 6.27447e-11
  Final line search alpha, max atom move = 0 0
  Iterations, force evaluations = 1 146

Pair  time (%) = 0.00316526 (57.2689)
Neigh time (%) = 0 (0)
Comm  time (%) = 0.00168703 (30.5234)
Outpt time (%) = 1.29289e-05 (0.233921)
Other time (%) = 0.000661791 (11.9738)

Nlocal:    82 ave 82 max 82 min
Histogram: 1 0 0 0 0 0 0 0 0 0
Nghost:    175 ave 175 max 175 min
Histogram: 1 0 0 0 0 0 0 0 0 0
Neighs:    718 ave 718 max 718 min
Histogram: 1 0 0 0 0 0 0 0 0 0

Total # of neighbors = 718
Ave neighs/atom = 8.7561
Neighbor list builds = 0
Dangerous builds = 0
        # write_dump all atom ${dumpfile}
        next i
jump SELF loop1
        displace_atoms upper move ${xstep1} 0.0 0.0 units lattice
        displace_atoms upper move 0.002 0.0 0.0 units lattice
        min_style ${style}
        min_style hftn
        minimize ${etol} ${ftol} ${maxiter} ${maxeval}
        minimize 1e-12 ${ftol} ${maxiter} ${maxeval}
        minimize 1e-12 1e-08 ${maxiter} ${maxeval}
        minimize 1e-12 1e-08 10000 ${maxeval}
        minimize 1e-12 1e-08 10000 20000
WARNING: Resetting reneighboring criteria during minimization (../min.cpp:168)
Memory usage per processor = 4.85169 Mbytes
Step Temp PotEng Lx Ly Lz 
      98            0   -241.96966    2.2449075    38.892075    1.1224537 
      99            0   -241.96966    2.2449075    38.892075    1.1224537 
     100            0   -241.96966    2.2449075    38.892075    1.1224537 
Loop time of 0.00337689 on 1 procs for 1 steps with 82 atoms

Minimization stats:
  Stopping criterion = force tolerance
  Energy initial, next-to-last, final = 
        -241.969659091     -241.969659091     -241.969661601
  Force two-norm initial, final = 0.0140401 1.55038e-10
  Force max component initial, final = 0.00702007 7.17579e-11
  Final line search alpha, max atom move = 0 0
  Iterations, force evaluations = 1 146

Pair  time (%) = 0.00235694 (69.7961)
Neigh time (%) = 0 (0)
Comm  time (%) = 0.00021385 (6.33277)
Outpt time (%) = 1.21099e-05 (0.35861)
Other time (%) = 0.000793991 (23.5125)

Nlocal:    82 ave 82 max 82 min
Histogram: 1 0 0 0 0 0 0 0 0 0
Nghost:    175 ave 175 max 175 min
Histogram: 1 0 0 0 0 0 0 0 0 0
Neighs:    718 ave 718 max 718 min
Histogram: 1 0 0 0 0 0 0 0 0 0

Total # of neighbors = 718
Ave neighs/atom = 8.7561
Neighbor list builds = 0
Dangerous builds = 0
        # write_dump all atom ${dumpfile}
        next i
jump SELF loop1
        displace_atoms upper move ${xstep1} 0.0 0.0 units lattice
        displace_atoms upper move 0.002 0.0 0.0 units lattice
        min_style ${style}
        min_style hftn
        minimize ${etol} ${ftol} ${maxiter} ${maxeval}
        minimize 1e-12 ${ftol} ${maxiter} ${maxeval}
        minimize 1e-12 1e-08 ${maxiter} ${maxeval}
        minimize 1e-12 1e-08 10000 ${maxeval}
        minimize 1e-12 1e-08 10000 20000
WARNING: Resetting reneighboring criteria during minimization (../min.cpp:168)
Memory usage per processor = 4.85169 Mbytes
Step Temp PotEng Lx Ly Lz 
     100            0   -241.96745    2.2449075    38.892268    1.1224537 
     101            0   -241.96745    2.2449075    38.892268    1.1224537 
     102            0   -241.96745    2.2449075    38.892268    1.1224537 
Loop time of 0.00307691 on 1 procs for 1 steps with 82 atoms

Minimization stats:
  Stopping criterion = force tolerance
  Energy initial, next-to-last, final = 
        -241.967451822     -241.967451822     -241.967453306
  Force two-norm initial, final = 0.0150268 2.42328e-10
  Force max component initial, final = 0.00751338 1.12698e-10
  Final line search alpha, max atom move = 0 0
  Iterations, force evaluations = 1 144

Pair  time (%) = 0.0022191 (72.121)
Neigh time (%) = 0 (0)
Comm  time (%) = 0.000169155 (5.49755)
Outpt time (%) = 1.29411e-05 (0.420586)
Other time (%) = 0.000675718 (21.9609)

Nlocal:    82 ave 82 max 82 min
Histogram: 1 0 0 0 0 0 0 0 0 0
Nghost:    175 ave 175 max 175 min
Histogram: 1 0 0 0 0 0 0 0 0 0
Neighs:    718 ave 718 max 718 min
Histogram: 1 0 0 0 0 0 0 0 0 0

Total # of neighbors = 718
Ave neighs/atom = 8.7561
Neighbor list builds = 0
Dangerous builds = 0
        # write_dump all atom ${dumpfile}
        next i
jump SELF loop1
        displace_atoms upper move ${xstep1} 0.0 0.0 units lattice
        displace_atoms upper move 0.002 0.0 0.0 units lattice
        min_style ${style}
        min_style hftn
        minimize ${etol} ${ftol} ${maxiter} ${maxeval}
        minimize 1e-12 ${ftol} ${maxiter} ${maxeval}
        minimize 1e-12 1e-08 ${maxiter} ${maxeval}
        minimize 1e-12 1e-08 10000 ${maxeval}
        minimize 1e-12 1e-08 10000 20000
WARNING: Resetting reneighboring criteria during minimization (../min.cpp:168)
Memory usage per processor = 4.85169 Mbytes
Step Temp PotEng Lx Ly Lz 
     102            0   -241.96518    2.2449075    38.892473    1.1224537 
     103            0   -241.96518    2.2449075    38.892473    1.1224537 
     104            0   -241.96518    2.2449075    38.892473    1.1224537 
Loop time of 0.00322699 on 1 procs for 1 steps with 82 atoms

Minimization stats:
  Stopping criterion = force tolerance
  Energy initial, next-to-last, final = 
        -241.965176559     -241.965176559     -241.965177246
  Force two-norm initial, final = 0.0159047 3.56284e-10
  Force max component initial, final = 0.00795234 1.70686e-10
  Final line search alpha, max atom move = 0 0
  Iterations, force evaluations = 1 144

Pair  time (%) = 0.00235609 (73.012)
Neigh time (%) = 0 (0)
Comm  time (%) = 0.000189865 (5.88365)
Outpt time (%) = 1.10948e-05 (0.343814)
Other time (%) = 0.000669943 (20.7606)

Nlocal:    82 ave 82 max 82 min
Histogram: 1 0 0 0 0 0 0 0 0 0
Nghost:    175 ave 175 max 175 min
Histogram: 1 0 0 0 0 0 0 0 0 0
Neighs:    718 ave 718 max 718 min
Histogram: 1 0 0 0 0 0 0 0 0 0

Total # of neighbors = 718
Ave neighs/atom = 8.7561
Neighbor list builds = 0
Dangerous builds = 0
        # write_dump all atom ${dumpfile}
        next i
jump SELF loop1
        displace_atoms upper move ${xstep1} 0.0 0.0 units lattice
        displace_atoms upper move 0.002 0.0 0.0 units lattice
        min_style ${style}
        min_style hftn
        minimize ${etol} ${ftol} ${maxiter} ${maxeval}
        minimize 1e-12 ${ftol} ${maxiter} ${maxeval}
        minimize 1e-12 1e-08 ${maxiter} ${maxeval}
        minimize 1e-12 1e-08 10000 ${maxeval}
        minimize 1e-12 1e-08 10000 20000
WARNING: Resetting reneighboring criteria during minimization (../min.cpp:168)
Memory usage per processor = 4.85169 Mbytes
Step Temp PotEng Lx Ly Lz 
     104            0   -241.96283    2.2449075    38.892691    1.1224537 
     105            0   -241.96283    2.2449075    38.892691    1.1224537 
     106            0   -241.96283    2.2449075    38.892691    1.1224537 
Loop time of 0.00346501 on 1 procs for 1 steps with 82 atoms

Minimization stats:
  Stopping criterion = force tolerance
  Energy initial, next-to-last, final = 
        -241.962825815     -241.962825815     -241.962829354
  Force two-norm initial, final = 0.0168701 3.05322e-10
  Force max component initial, final = 0.00843506 1.42368e-10
  Final line search alpha, max atom move = 0 0
  Iterations, force evaluations = 1 144

Pair  time (%) = 0.00252701 (72.9295)
Neigh time (%) = 0 (0)
Comm  time (%) = 0.000193634 (5.58827)
Outpt time (%) = 1.1956e-05 (0.345049)
Other time (%) = 0.000732405 (21.1372)

Nlocal:    82 ave 82 max 82 min
Histogram: 1 0 0 0 0 0 0 0 0 0
Nghost:    175 ave 175 max 175 min
Histogram: 1 0 0 0 0 0 0 0 0 0
Neighs:    718 ave 718 max 718 min
Histogram: 1 0 0 0 0 0 0 0 0 0

Total # of neighbors = 718
Ave neighs/atom = 8.7561
Neighbor list builds = 0
Dangerous builds = 0
        # write_dump all atom ${dumpfile}
        next i
jump SELF loop1
        displace_atoms upper move ${xstep1} 0.0 0.0 units lattice
        displace_atoms upper move 0.002 0.0 0.0 units lattice
        min_style ${style}
        min_style hftn
        minimize ${etol} ${ftol} ${maxiter} ${maxeval}
        minimize 1e-12 ${ftol} ${maxiter} ${maxeval}
        minimize 1e-12 1e-08 ${maxiter} ${maxeval}
        minimize 1e-12 1e-08 10000 ${maxeval}
        minimize 1e-12 1e-08 10000 20000
WARNING: Resetting reneighboring criteria during minimization (../min.cpp:168)
Memory usage per processor = 4.85169 Mbytes
Step Temp PotEng Lx Ly Lz 
     106            0   -241.96041    2.2449075     38.89292    1.1224537 
     107            0   -241.96041    2.2449075     38.89292    1.1224537 
     108            0   -241.96041    2.2449075     38.89292    1.1224537 
Loop time of 0.00305688 on 1 procs for 1 steps with 82 atoms

Minimization stats:
  Stopping criterion = force tolerance
  Energy initial, next-to-last, final = 
        -241.960407336     -241.960407336     -241.960409905
  Force two-norm initial, final = 0.0177879 3.40947e-10
  Force max component initial, final = 0.00889395 1.56143e-10
  Final line search alpha, max atom move = 0 0
  Iterations, force evaluations = 1 144

Pair  time (%) = 0.00222593 (72.8171)
Neigh time (%) = 0 (0)
Comm  time (%) = 0.000185334 (6.06284)
Outpt time (%) = 1.10687e-05 (0.36209)
Other time (%) = 0.000634547 (20.758)

Nlocal:    82 ave 82 max 82 min
Histogram: 1 0 0 0 0 0 0 0 0 0
Nghost:    175 ave 175 max 175 min
Histogram: 1 0 0 0 0 0 0 0 0 0
Neighs:    718 ave 718 max 718 min
Histogram: 1 0 0 0 0 0 0 0 0 0

Total # of neighbors = 718
Ave neighs/atom = 8.7561
Neighbor list builds = 0
Dangerous builds = 0
        # write_dump all atom ${dumpfile}
        next i
jump SELF loop1
        displace_atoms upper move ${xstep1} 0.0 0.0 units lattice
        displace_atoms upper move 0.002 0.0 0.0 units lattice
        min_style ${style}
        min_style hftn
        minimize ${etol} ${ftol} ${maxiter} ${maxeval}
        minimize 1e-12 ${ftol} ${maxiter} ${maxeval}
        minimize 1e-12 1e-08 ${maxiter} ${maxeval}
        minimize 1e-12 1e-08 10000 ${maxeval}
        minimize 1e-12 1e-08 10000 20000
WARNING: Resetting reneighboring criteria during minimization (../min.cpp:168)
Memory usage per processor = 4.85169 Mbytes
Step Temp PotEng Lx Ly Lz 
     108            0   -241.95792    2.2449075    38.893163    1.1224537 
     109            0   -241.95792    2.2449075    38.893163    1.1224537 
     110            0   -241.95792    2.2449075    38.893163    1.1224537 
     111            0   -241.95792    2.2449075    38.893163    1.1224537 
     112            0   -241.95792    2.2449075    38.893163    1.1224537 
     113            0   -241.95792    2.2449075    38.893163    1.1224537 
     114            0   -241.95792    2.2449075    38.893163    1.1224537 
     115            0   -241.95792    2.2449075    38.893163    1.1224537 
     116            0   -241.95792    2.2449075    38.893163    1.1224537 
     117            0   -241.95792    2.2449075    38.893163    1.1224537 
     118            0   -241.95792    2.2449075    38.893163    1.1224537 
     119            0   -241.95792    2.2449075    38.893163    1.1224537 
     120            0   -241.95792    2.2449075    38.893163    1.1224537 
     121            0   -241.95792    2.2449075    38.893163    1.1224537 
     122            0   -241.95792    2.2449075    38.893163    1.1224537 
     123            0   -241.95792    2.2449075    38.893163    1.1224537 
Loop time of 0.00360396 on 1 procs for 14 steps with 82 atoms

Minimization stats:
  Stopping criterion = energy tolerance
  Energy initial, next-to-last, final = 
        -241.957921594     -241.957921855      -241.95792186
  Force two-norm initial, final = 0.0186582 0.0146471
  Force max component initial, final = 0.00932909 0.00729502
  Final line search alpha, max atom move = 0 0
  Iterations, force evaluations = 14 151

Pair  time (%) = 0.00264228 (73.3161)
Neigh time (%) = 0 (0)
Comm  time (%) = 0.000187716 (5.20861)
Outpt time (%) = 0.000109301 (3.03281)
Other time (%) = 0.000664661 (18.4425)

Nlocal:    82 ave 82 max 82 min
Histogram: 1 0 0 0 0 0 0 0 0 0
Nghost:    175 ave 175 max 175 min
Histogram: 1 0 0 0 0 0 0 0 0 0
Neighs:    718 ave 718 max 718 min
Histogram: 1 0 0 0 0 0 0 0 0 0

Total # of neighbors = 718
Ave neighs/atom = 8.7561
Neighbor list builds = 0
Dangerous builds = 0
        # write_dump all atom ${dumpfile}
        next i
jump SELF loop1
        displace_atoms upper move ${xstep1} 0.0 0.0 units lattice
        displace_atoms upper move 0.002 0.0 0.0 units lattice
        min_style ${style}
        min_style hftn
        minimize ${etol} ${ftol} ${maxiter} ${maxeval}
        minimize 1e-12 ${ftol} ${maxiter} ${maxeval}
        minimize 1e-12 1e-08 ${maxiter} ${maxeval}
        minimize 1e-12 1e-08 10000 ${maxeval}
        minimize 1e-12 1e-08 10000 20000
WARNING: Resetting reneighboring criteria during minimization (../min.cpp:168)
Memory usage per processor = 4.85169 Mbytes
Step Temp PotEng Lx Ly Lz 
     123            0   -241.95536    2.2449075    38.893163    1.1224537 
     124            0   -241.95537    2.2449075    38.893163    1.1224537 
     125            0   -241.95537    2.2449075    38.893163    1.1224537 
Loop time of 0.00404803 on 1 procs for 1 steps with 82 atoms

Minimization stats:
  Stopping criterion = force tolerance
  Energy initial, next-to-last, final = 
        -241.955355437     -241.955355437     -241.955368023
  Force two-norm initial, final = 0.0342837 6.43297e-09
  Force max component initial, final = 0.0171297 3.31181e-09
  Final line search alpha, max atom move = 0 0
  Iterations, force evaluations = 1 138

Pair  time (%) = 0.00215073 (53.1304)
Neigh time (%) = 0 (0)
Comm  time (%) = 0.000168637 (4.16589)
Outpt time (%) = 1.00308e-05 (0.247795)
Other time (%) = 0.00171863 (42.4559)

Nlocal:    82 ave 82 max 82 min
Histogram: 1 0 0 0 0 0 0 0 0 0
Nghost:    175 ave 175 max 175 min
Histogram: 1 0 0 0 0 0 0 0 0 0
Neighs:    718 ave 718 max 718 min
Histogram: 1 0 0 0 0 0 0 0 0 0

Total # of neighbors = 718
Ave neighs/atom = 8.7561
Neighbor list builds = 0
Dangerous builds = 0
        # write_dump all atom ${dumpfile}
        next i
jump SELF loop1
        displace_atoms upper move ${xstep1} 0.0 0.0 units lattice
        displace_atoms upper move 0.002 0.0 0.0 units lattice
        min_style ${style}
        min_style hftn
        minimize ${etol} ${ftol} ${maxiter} ${maxeval}
        minimize 1e-12 ${ftol} ${maxiter} ${maxeval}
        minimize 1e-12 1e-08 ${maxiter} ${maxeval}
        minimize 1e-12 1e-08 10000 ${maxeval}
        minimize 1e-12 1e-08 10000 20000
WARNING: Resetting reneighboring criteria during minimization (../min.cpp:168)
Memory usage per processor = 4.85169 Mbytes
Step Temp PotEng Lx Ly Lz 
     125            0   -241.95274    2.2449075    38.893682    1.1224537 
     126            0   -241.95274    2.2449075    38.893682    1.1224537 
     127            0   -241.95274    2.2449075    38.893682    1.1224537 
Loop time of 0.00308202 on 1 procs for 1 steps with 82 atoms

Minimization stats:
  Stopping criterion = force tolerance
  Energy initial, next-to-last, final = 
        -241.952738566     -241.952738566     -241.952741811
  Force two-norm initial, final = 0.0204897 6.79054e-10
  Force max component initial, final = 0.0102449 3.46028e-10
  Final line search alpha, max atom move = 0 0
  Iterations, force evaluations = 1 142

Pair  time (%) = 0.00222339 (72.1407)
Neigh time (%) = 0 (0)
Comm  time (%) = 0.000173435 (5.62732)
Outpt time (%) = 1.00859e-05 (0.327249)
Other time (%) = 0.000675109 (21.9048)

Nlocal:    82 ave 82 max 82 min
Histogram: 1 0 0 0 0 0 0 0 0 0
Nghost:    175 ave 175 max 175 min
Histogram: 1 0 0 0 0 0 0 0 0 0
Neighs:    718 ave 718 max 718 min
Histogram: 1 0 0 0 0 0 0 0 0 0

Total # of neighbors = 718
Ave neighs/atom = 8.7561
Neighbor list builds = 0
Dangerous builds = 0
        # write_dump all atom ${dumpfile}
        next i
jump SELF loop1
        displace_atoms upper move ${xstep1} 0.0 0.0 units lattice
        displace_atoms upper move 0.002 0.0 0.0 units lattice
        min_style ${style}
        min_style hftn
        minimize ${etol} ${ftol} ${maxiter} ${maxeval}
        minimize 1e-12 ${ftol} ${maxiter} ${maxeval}
        minimize 1e-12 1e-08 ${maxiter} ${maxeval}
        minimize 1e-12 1e-08 10000 ${maxeval}
        minimize 1e-12 1e-08 10000 20000
WARNING: Resetting reneighboring criteria during minimization (../min.cpp:168)
Memory usage per processor = 4.85169 Mbytes
Step Temp PotEng Lx Ly Lz 
     127            0   -241.95005    2.2449075     38.89396    1.1224537 
     128            0   -241.95005    2.2449075     38.89396    1.1224537 
     129            0   -241.95005    2.2449075     38.89396    1.1224537 
Loop time of 0.00355595 on 1 procs for 1 steps with 82 atoms

Minimization stats:
  Stopping criterion = force tolerance
  Energy initial, next-to-last, final = 
        -241.950049019     -241.950049019     -241.950051255
  Force two-norm initial, final = 0.0213234 7.28804e-10
  Force max component initial, final = 0.0106617 3.66598e-10
  Final line search alpha, max atom move = 0 0
  Iterations, force evaluations = 1 142

Pair  time (%) = 0.00275939 (77.5993)
Neigh time (%) = 0 (0)
Comm  time (%) = 0.00016635 (4.67808)
Outpt time (%) = 1.00862e-05 (0.283644)
Other time (%) = 0.000620122 (17.439)

Nlocal:    82 ave 82 max 82 min
Histogram: 1 0 0 0 0 0 0 0 0 0
Nghost:    175 ave 175 max 175 min
Histogram: 1 0 0 0 0 0 0 0 0 0
Neighs:    718 ave 718 max 718 min
Histogram: 1 0 0 0 0 0 0 0 0 0

Total # of neighbors = 718
Ave neighs/atom = 8.7561
Neighbor list builds = 0
Dangerous builds = 0
        # write_dump all atom ${dumpfile}
        next i
jump SELF loop1
        displace_atoms upper move ${xstep1} 0.0 0.0 units lattice
        displace_atoms upper move 0.002 0.0 0.0 units lattice
        min_style ${style}
        min_style hftn
        minimize ${etol} ${ftol} ${maxiter} ${maxeval}
        minimize 1e-12 ${ftol} ${maxiter} ${maxeval}
        minimize 1e-12 1e-08 ${maxiter} ${maxeval}
        minimize 1e-12 1e-08 10000 ${maxeval}
        minimize 1e-12 1e-08 10000 20000
WARNING: Resetting reneighboring criteria during minimization (../min.cpp:168)
Memory usage per processor = 4.85169 Mbytes
Step Temp PotEng Lx Ly Lz 
     129            0   -241.94729    2.2449075    38.894248    1.1224537 
     130            0    -241.9473    2.2449075    38.894248    1.1224537 
     131            0    -241.9473    2.2449075    38.894248    1.1224537 
Loop time of 0.0030389 on 1 procs for 1 steps with 82 atoms

Minimization stats:
  Stopping criterion = force tolerance
  Energy initial, next-to-last, final = 
        -241.947294997     -241.947294997     -241.947295191
  Force two-norm initial, final = 0.0221601 8.65991e-10
  Force max component initial, final = 0.01108 3.74579e-10
  Final line search alpha, max atom move = 0 0
  Iterations, force evaluations = 1 142

Pair  time (%) = 0.0021967 (72.2861)
Neigh time (%) = 0 (0)
Comm  time (%) = 0.000194421 (6.39775)
Outpt time (%) = 9.96166e-06 (0.327805)
Other time (%) = 0.000637814 (20.9883)

Nlocal:    82 ave 82 max 82 min
Histogram: 1 0 0 0 0 0 0 0 0 0
Nghost:    175 ave 175 max 175 min
Histogram: 1 0 0 0 0 0 0 0 0 0
Neighs:    718 ave 718 max 718 min
Histogram: 1 0 0 0 0 0 0 0 0 0

Total # of neighbors = 718
Ave neighs/atom = 8.7561
Neighbor list builds = 0
Dangerous builds = 0
        # write_dump all atom ${dumpfile}
        next i
jump SELF loop1
        displace_atoms upper move ${xstep1} 0.0 0.0 units lattice
        displace_atoms upper move 0.002 0.0 0.0 units lattice
        min_style ${style}
        min_style hftn
        minimize ${etol} ${ftol} ${maxiter} ${maxeval}
        minimize 1e-12 ${ftol} ${maxiter} ${maxeval}
        minimize 1e-12 1e-08 ${maxiter} ${maxeval}
        minimize 1e-12 1e-08 10000 ${maxeval}
        minimize 1e-12 1e-08 10000 20000
WARNING: Resetting reneighboring criteria during minimization (../min.cpp:168)
Memory usage per processor = 4.85169 Mbytes
Step Temp PotEng Lx Ly Lz 
     131            0   -241.94447    2.2449075    38.894548    1.1224537 
     132            0   -241.94448    2.2449075    38.894548    1.1224537 
     133            0   -241.94448    2.2449075    38.894548    1.1224537 
Loop time of 0.003217 on 1 procs for 1 steps with 82 atoms

Minimization stats:
  Stopping criterion = force tolerance
  Energy initial, next-to-last, final = 
        -241.944473439     -241.944473439     -241.944476185
  Force two-norm initial, final = 0.0230169 1.57584e-09
  Force max component initial, final = 0.0115085 6.44848e-10
  Final line search alpha, max atom move = 0 0
  Iterations, force evaluations = 1 140

Pair  time (%) = 0.00234411 (72.8664)
Neigh time (%) = 0 (0)
Comm  time (%) = 0.00017656 (5.48835)
Outpt time (%) = 8.89471e-06 (0.276491)
Other time (%) = 0.000687433 (21.3688)

Nlocal:    82 ave 82 max 82 min
Histogram: 1 0 0 0 0 0 0 0 0 0
Nghost:    175 ave 175 max 175 min
Histogram: 1 0 0 0 0 0 0 0 0 0
Neighs:    718 ave 718 max 718 min
Histogram: 1 0 0 0 0 0 0 0 0 0

Total # of neighbors = 718
Ave neighs/atom = 8.7561
Neighbor list builds = 0
Dangerous builds = 0
        # write_dump all atom ${dumpfile}
        next i
jump SELF loop1
        displace_atoms upper move ${xstep1} 0.0 0.0 units lattice
        displace_atoms upper move 0.002 0.0 0.0 units lattice
        min_style ${style}
        min_style hftn
        minimize ${etol} ${ftol} ${maxiter} ${maxeval}
        minimize 1e-12 ${ftol} ${maxiter} ${maxeval}
        minimize 1e-12 1e-08 ${maxiter} ${maxeval}
        minimize 1e-12 1e-08 10000 ${maxeval}
        minimize 1e-12 1e-08 10000 20000
WARNING: Resetting reneighboring criteria during minimization (../min.cpp:168)
Memory usage per processor = 4.85169 Mbytes
Step Temp PotEng Lx Ly Lz 
     133            0   -241.94159    2.2449075    38.894859    1.1224537 
     134            0    -241.9416    2.2449075    38.894859    1.1224537 
     135            0    -241.9416    2.2449075    38.894859    1.1224537 
Loop time of 0.00751003 on 1 procs for 1 steps with 82 atoms

Minimization stats:
  Stopping criterion = force tolerance
  Energy initial, next-to-last, final = 
        -241.941588763     -241.941588763     -241.941595322
  Force two-norm initial, final = 0.0238776 1.44185e-09
  Force max component initial, final = 0.0119388 7.50911e-10
  Final line search alpha, max atom move = 0 0
  Iterations, force evaluations = 1 140

Pair  time (%) = 0.00218647 (29.114)
Neigh time (%) = 0 (0)
Comm  time (%) = 0.000194941 (2.59574)
Outpt time (%) = 4.69574e-05 (0.625262)
Other time (%) = 0.00508167 (67.665)

Nlocal:    82 ave 82 max 82 min
Histogram: 1 0 0 0 0 0 0 0 0 0
Nghost:    175 ave 175 max 175 min
Histogram: 1 0 0 0 0 0 0 0 0 0
Neighs:    718 ave 718 max 718 min
Histogram: 1 0 0 0 0 0 0 0 0 0

Total # of neighbors = 718
Ave neighs/atom = 8.7561
Neighbor list builds = 0
Dangerous builds = 0
        # write_dump all atom ${dumpfile}
        next i
jump SELF loop1
        displace_atoms upper move ${xstep1} 0.0 0.0 units lattice
        displace_atoms upper move 0.002 0.0 0.0 units lattice
        min_style ${style}
        min_style hftn
        minimize ${etol} ${ftol} ${maxiter} ${maxeval}
        minimize 1e-12 ${ftol} ${maxiter} ${maxeval}
        minimize 1e-12 1e-08 ${maxiter} ${maxeval}
        minimize 1e-12 1e-08 10000 ${maxeval}
        minimize 1e-12 1e-08 10000 20000
WARNING: Resetting reneighboring criteria during minimization (../min.cpp:168)
Memory usage per processor = 4.85169 Mbytes
Step Temp PotEng Lx Ly Lz 
     135            0   -241.93864    2.2449075     38.89518    1.1224537 
     136            0   -241.93865    2.2449075     38.89518    1.1224537 
     137            0   -241.93865    2.2449075     38.89518    1.1224537 
Loop time of 0.00429203 on 1 procs for 1 steps with 82 atoms

Minimization stats:
  Stopping criterion = force tolerance
  Energy initial, next-to-last, final = 
        -241.938643857     -241.938643857     -241.938650501
  Force two-norm initial, final = 0.0247189 1.50852e-09
  Force max component initial, final = 0.0123595 7.64987e-10
  Final line search alpha, max atom move = 0 0
  Iterations, force evaluations = 1 140

Pair  time (%) = 0.00313921 (73.1405)
Neigh time (%) = 0 (0)
Comm  time (%) = 0.000239128 (5.57145)
Outpt time (%) = 7.10121e-05 (1.65451)
Other time (%) = 0.000842679 (19.6336)

Nlocal:    82 ave 82 max 82 min
Histogram: 1 0 0 0 0 0 0 0 0 0
Nghost:    175 ave 175 max 175 min
Histogram: 1 0 0 0 0 0 0 0 0 0
Neighs:    718 ave 718 max 718 min
Histogram: 1 0 0 0 0 0 0 0 0 0

Total # of neighbors = 718
Ave neighs/atom = 8.7561
Neighbor list builds = 0
Dangerous builds = 0
        # write_dump all atom ${dumpfile}
        next i
jump SELF loop1
        displace_atoms upper move ${xstep1} 0.0 0.0 units lattice
        displace_atoms upper move 0.002 0.0 0.0 units lattice
        min_style ${style}
        min_style hftn
        minimize ${etol} ${ftol} ${maxiter} ${maxeval}
        minimize 1e-12 ${ftol} ${maxiter} ${maxeval}
        minimize 1e-12 1e-08 ${maxiter} ${maxeval}
        minimize 1e-12 1e-08 10000 ${maxeval}
        minimize 1e-12 1e-08 10000 20000
WARNING: Resetting reneighboring criteria during minimization (../min.cpp:168)
Memory usage per processor = 4.85169 Mbytes
Step Temp PotEng Lx Ly Lz 
     137            0   -241.93564    2.2449075    38.895513    1.1224537 
     138            0   -241.93564    2.2449075    38.895513    1.1224537 
     139            0   -241.93564    2.2449075    38.895513    1.1224537 
Loop time of 0.00381895 on 1 procs for 1 steps with 82 atoms

Minimization stats:
  Stopping criterion = force tolerance
  Energy initial, next-to-last, final = 
        -241.935637586     -241.935637586     -241.935643654
  Force two-norm initial, final = 0.0255296 1.64651e-09
  Force max component initial, final = 0.0127648 8.59621e-10
  Final line search alpha, max atom move = 0 0
  Iterations, force evaluations = 1 140

Pair  time (%) = 0.00224849 (58.8771)
Neigh time (%) = 0 (0)
Comm  time (%) = 0.00090541 (23.7083)
Outpt time (%) = 1.29412e-05 (0.338867)
Other time (%) = 0.000652114 (17.0757)

Nlocal:    82 ave 82 max 82 min
Histogram: 1 0 0 0 0 0 0 0 0 0
Nghost:    175 ave 175 max 175 min
Histogram: 1 0 0 0 0 0 0 0 0 0
Neighs:    718 ave 718 max 718 min
Histogram: 1 0 0 0 0 0 0 0 0 0

Total # of neighbors = 718
Ave neighs/atom = 8.7561
Neighbor list builds = 0
Dangerous builds = 0
        # write_dump all atom ${dumpfile}
        next i
jump SELF loop1
        displace_atoms upper move ${xstep1} 0.0 0.0 units lattice
        displace_atoms upper move 0.002 0.0 0.0 units lattice
        min_style ${style}
        min_style hftn
        minimize ${etol} ${ftol} ${maxiter} ${maxeval}
        minimize 1e-12 ${ftol} ${maxiter} ${maxeval}
        minimize 1e-12 1e-08 ${maxiter} ${maxeval}
        minimize 1e-12 1e-08 10000 ${maxeval}
        minimize 1e-12 1e-08 10000 20000
WARNING: Resetting reneighboring criteria during minimization (../min.cpp:168)
Memory usage per processor = 4.85169 Mbytes
Step Temp PotEng Lx Ly Lz 
     139            0   -241.93257    2.2449075    38.895855    1.1224537 
     140            0   -241.93258    2.2449075    38.895855    1.1224537 
     141            0   -241.93258    2.2449075    38.895855    1.1224537 
Loop time of 0.00306603 on 1 procs for 1 steps with 82 atoms

Minimization stats:
  Stopping criterion = force tolerance
  Energy initial, next-to-last, final = 
        -241.932571713     -241.932571713     -241.932578246
  Force two-norm initial, final = 0.0263158 1.70179e-09
  Force max component initial, final = 0.0131579 8.589e-10
  Final line search alpha, max atom move = 0 0
  Iterations, force evaluations = 1 140

Pair  time (%) = 0.0022398 (73.0521)
Neigh time (%) = 0 (0)
Comm  time (%) = 0.000169178 (5.51782)
Outpt time (%) = 1.21122e-05 (0.395045)
[...]
    2861            0   -241.99644    2.2449075    38.891914    1.1224537 
    2862            0   -241.99644    2.2449075    38.891914    1.1224537 
    2863            0   -241.99644    2.2449075    38.891914    1.1224537 
Loop time of 0.00219 on 1 procs for 6 steps with 82 atoms

Minimization stats:
  Stopping criterion = energy tolerance
  Energy initial, next-to-last, final = 
        -241.996441519     -241.996441519      -241.99644152
  Force two-norm initial, final = 0.00110958 0.00100676
  Force max component initial, final = 0.000264738 0.000240443
  Final line search alpha, max atom move = 0 0
  Iterations, force evaluations = 6 59

Pair  time (%) = 0.0018111 (82.6988)
Neigh time (%) = 0 (0)
Comm  time (%) = 0.000116867 (5.33639)
Outpt time (%) = 2.80535e-05 (1.28098)
Other time (%) = 0.000233976 (10.6839)

Nlocal:    82 ave 82 max 82 min
Histogram: 1 0 0 0 0 0 0 0 0 0
Nghost:    185 ave 185 max 185 min
Histogram: 1 0 0 0 0 0 0 0 0 0
Neighs:    718 ave 718 max 718 min
Histogram: 1 0 0 0 0 0 0 0 0 0

Total # of neighbors = 718
Ave neighs/atom = 8.7561
Neighbor list builds = 0
Dangerous builds = 0
        # write_dump all atom ${dumpfile}
        next i
jump SELF loop1
        displace_atoms upper move ${xstep1} 0.0 0.0 units lattice
        displace_atoms upper move 0.002 0.0 0.0 units lattice
        min_style ${style}
        min_style hftn
        minimize ${etol} ${ftol} ${maxiter} ${maxeval}
        minimize 1e-12 ${ftol} ${maxiter} ${maxeval}
        minimize 1e-12 1e-08 ${maxiter} ${maxeval}
        minimize 1e-12 1e-08 10000 ${maxeval}
        minimize 1e-12 1e-08 10000 20000
WARNING: Resetting reneighboring criteria during minimization (../min.cpp:168)
Memory usage per processor = 4.85169 Mbytes
Step Temp PotEng Lx Ly Lz 
    2863            0   -241.99719    2.2449075    38.891914    1.1224537 
    2864            0   -241.99719    2.2449075    38.891914    1.1224537 
    2865            0   -241.99719    2.2449075    38.891914    1.1224537 
    2866            0   -241.99719    2.2449075    38.891914    1.1224537 
    2867            0   -241.99719    2.2449075    38.891914    1.1224537 
    2868            0   -241.99719    2.2449075    38.891914    1.1224537 
    2869            0   -241.99719    2.2449075    38.891914    1.1224537 
    2870            0   -241.99719    2.2449075    38.891914    1.1224537 
    2871            0   -241.99719    2.2449075    38.891914    1.1224537 
    2872            0   -241.99719    2.2449075    38.891914    1.1224537 
    2873            0   -241.99719    2.2449075    38.891914    1.1224537 
Loop time of 0.00409612 on 1 procs for 9 steps with 82 atoms

Minimization stats:
  Stopping criterion = energy tolerance
  Energy initial, next-to-last, final = 
        -241.997189967     -241.997189967     -241.997189967
  Force two-norm initial, final = 0.00441318 0.00441301
  Force max component initial, final = 0.0021533 0.00215321
  Final line search alpha, max atom move = 0 0
  Iterations, force evaluations = 9 164

Pair  time (%) = 0.00306206 (74.7553)
Neigh time (%) = 0 (0)
Comm  time (%) = 0.00028051 (6.84819)
Outpt time (%) = 6.26866e-05 (1.53039)
Other time (%) = 0.000690857 (16.8661)

Nlocal:    82 ave 82 max 82 min
Histogram: 1 0 0 0 0 0 0 0 0 0
Nghost:    185 ave 185 max 185 min
Histogram: 1 0 0 0 0 0 0 0 0 0
Neighs:    718 ave 718 max 718 min
Histogram: 1 0 0 0 0 0 0 0 0 0

Total # of neighbors = 718
Ave neighs/atom = 8.7561
Neighbor list builds = 0
Dangerous builds = 0
        # write_dump all atom ${dumpfile}
        next i
jump SELF loop1
        displace_atoms upper move ${xstep1} 0.0 0.0 units lattice
        displace_atoms upper move 0.002 0.0 0.0 units lattice
        min_style ${style}
        min_style hftn
        minimize ${etol} ${ftol} ${maxiter} ${maxeval}
        minimize 1e-12 ${ftol} ${maxiter} ${maxeval}
        minimize 1e-12 1e-08 ${maxiter} ${maxeval}
        minimize 1e-12 1e-08 10000 ${maxeval}
        minimize 1e-12 1e-08 10000 20000
WARNING: Resetting reneighboring criteria during minimization (../min.cpp:168)
Memory usage per processor = 4.85169 Mbytes
Step Temp PotEng Lx Ly Lz 
    2873            0   -241.99786    2.2449075    38.891914    1.1224537 
    2874            0   -241.99786    2.2449075    38.891914    1.1224537 
    2875            0   -241.99786    2.2449075    38.891914    1.1224537 
    2876            0   -241.99786    2.2449075    38.891914    1.1224537 
    2877            0   -241.99786    2.2449075    38.891914    1.1224537 
    2878            0   -241.99786    2.2449075    38.891914    1.1224537 
    2879            0   -241.99786    2.2449075    38.891914    1.1224537 
    2880            0   -241.99786    2.2449075    38.891914    1.1224537 
    2881            0   -241.99786    2.2449075    38.891914    1.1224537 
    2882            0   -241.99786    2.2449075    38.891914    1.1224537 
Loop time of 0.002986 on 1 procs for 8 steps with 82 atoms

Minimization stats:
  Stopping criterion = energy tolerance
  Energy initial, next-to-last, final = 
        -241.997860908     -241.997860908     -241.997860907
  Force two-norm initial, final = 0.00951698 0.0095162
  Force max component initial, final = 0.00473573 0.00473534
  Final line search alpha, max atom move = 0 0
  Iterations, force evaluations = 8 141

Pair  time (%) = 0.00219615 (73.5483)
Neigh time (%) = 0 (0)
Comm  time (%) = 0.000182138 (6.09972)
Outpt time (%) = 5.59598e-05 (1.87407)
Other time (%) = 0.000551749 (18.4779)

Nlocal:    82 ave 82 max 82 min
Histogram: 1 0 0 0 0 0 0 0 0 0
Nghost:    185 ave 185 max 185 min
Histogram: 1 0 0 0 0 0 0 0 0 0
Neighs:    718 ave 718 max 718 min
Histogram: 1 0 0 0 0 0 0 0 0 0

Total # of neighbors = 718
Ave neighs/atom = 8.7561
Neighbor list builds = 0
Dangerous builds = 0
        # write_dump all atom ${dumpfile}
        next i
jump SELF loop1
        displace_atoms upper move ${xstep1} 0.0 0.0 units lattice
        displace_atoms upper move 0.002 0.0 0.0 units lattice
        min_style ${style}
        min_style hftn
        minimize ${etol} ${ftol} ${maxiter} ${maxeval}
        minimize 1e-12 ${ftol} ${maxiter} ${maxeval}
        minimize 1e-12 1e-08 ${maxiter} ${maxeval}
        minimize 1e-12 1e-08 10000 ${maxeval}
        minimize 1e-12 1e-08 10000 20000
WARNING: Resetting reneighboring criteria during minimization (../min.cpp:168)
Memory usage per processor = 4.85169 Mbytes
Step Temp PotEng Lx Ly Lz 
    2882            0   -241.99845    2.2449075    38.891914    1.1224537 
    2883            0   -241.99845    2.2449075    38.891914    1.1224537 
    2884            0   -241.99845    2.2449075    38.891914    1.1224537 
    2885            0   -241.99845    2.2449075    38.891914    1.1224537 
    2886            0   -241.99845    2.2449075    38.891914    1.1224537 
    2887            0   -241.99845    2.2449075    38.891914    1.1224537 
    2888            0   -241.99845    2.2449075    38.891914    1.1224537 
    2889            0   -241.99845    2.2449075    38.891914    1.1224537 
    2890            0   -241.99845    2.2449075    38.891914    1.1224537 
    2891            0   -241.99845    2.2449075    38.891914    1.1224537 
Loop time of 0.003492 on 1 procs for 8 steps with 82 atoms

Minimization stats:
  Stopping criterion = energy tolerance
  Energy initial, next-to-last, final = 
        -241.998454242     -241.998454242     -241.998454242
  Force two-norm initial, final = 0.0156961 0.0156954
  Force max component initial, final = 0.00783551 0.00783517
  Final line search alpha, max atom move = 0 0
  Iterations, force evaluations = 8 135

Pair  time (%) = 0.00268737 (76.9579)
Neigh time (%) = 0 (0)
Comm  time (%) = 0.000196861 (5.63748)
Outpt time (%) = 6.12687e-05 (1.75454)
Other time (%) = 0.000546499 (15.65)

Nlocal:    82 ave 82 max 82 min
Histogram: 1 0 0 0 0 0 0 0 0 0
Nghost:    185 ave 185 max 185 min
Histogram: 1 0 0 0 0 0 0 0 0 0
Neighs:    718 ave 718 max 718 min
Histogram: 1 0 0 0 0 0 0 0 0 0

Total # of neighbors = 718
Ave neighs/atom = 8.7561
Neighbor list builds = 0
Dangerous builds = 0
        # write_dump all atom ${dumpfile}
        next i
jump SELF loop1
        displace_atoms upper move ${xstep1} 0.0 0.0 units lattice
        displace_atoms upper move 0.002 0.0 0.0 units lattice
        min_style ${style}
        min_style hftn
        minimize ${etol} ${ftol} ${maxiter} ${maxeval}
        minimize 1e-12 ${ftol} ${maxiter} ${maxeval}
        minimize 1e-12 1e-08 ${maxiter} ${maxeval}
        minimize 1e-12 1e-08 10000 ${maxeval}
        minimize 1e-12 1e-08 10000 20000
WARNING: Resetting reneighboring criteria during minimization (../min.cpp:168)
Memory usage per processor = 4.85169 Mbytes
Step Temp PotEng Lx Ly Lz 
    2891            0   -241.99897    2.2449075    38.891914    1.1224537 
    2892            0   -241.99897    2.2449075    38.891914    1.1224537 
    2893            0   -241.99897    2.2449075    38.891914    1.1224537 
    2894            0   -241.99897    2.2449075    38.891914    1.1224537 
    2895            0   -241.99897    2.2449075    38.891914    1.1224537 
    2896            0   -241.99897    2.2449075    38.891914    1.1224537 
    2897            0   -241.99897    2.2449075    38.891914    1.1224537 
    2898            0   -241.99897    2.2449075    38.891914    1.1224537 
    2899            0   -241.99897    2.2449075    38.891914    1.1224537 
    2900            0   -241.99897    2.2449075    38.891914    1.1224537 
    2901            0   -241.99897    2.2449075    38.891914    1.1224537 
Loop time of 0.00269591 on 1 procs for 9 steps with 82 atoms

Minimization stats:
  Stopping criterion = energy tolerance
  Energy initial, next-to-last, final = 
        -241.998970205     -241.998970205     -241.998970205
  Force two-norm initial, final = 0.0229453 0.0229448
  Force max component initial, final = 0.0114651 0.0114648
  Final line search alpha, max atom move = 0 0
  Iterations, force evaluations = 9 130

Pair  time (%) = 0.00196033 (72.7151)
Neigh time (%) = 0 (0)
Comm  time (%) = 0.000170998 (6.34288)
Outpt time (%) = 5.49578e-05 (2.03856)
Other time (%) = 0.00050962 (18.9035)

Nlocal:    82 ave 82 max 82 min
Histogram: 1 0 0 0 0 0 0 0 0 0
Nghost:    185 ave 185 max 185 min
Histogram: 1 0 0 0 0 0 0 0 0 0
Neighs:    718 ave 718 max 718 min
Histogram: 1 0 0 0 0 0 0 0 0 0

Total # of neighbors = 718
Ave neighs/atom = 8.7561
Neighbor list builds = 0
Dangerous builds = 0
        # write_dump all atom ${dumpfile}
        next i
jump SELF loop1
        displace_atoms upper move ${xstep1} 0.0 0.0 units lattice
        displace_atoms upper move 0.002 0.0 0.0 units lattice
        min_style ${style}
        min_style hftn
        minimize ${etol} ${ftol} ${maxiter} ${maxeval}
        minimize 1e-12 ${ftol} ${maxiter} ${maxeval}
        minimize 1e-12 1e-08 ${maxiter} ${maxeval}
        minimize 1e-12 1e-08 10000 ${maxeval}
        minimize 1e-12 1e-08 10000 20000
WARNING: Resetting reneighboring criteria during minimization (../min.cpp:168)
Memory usage per processor = 4.85169 Mbytes
Step Temp PotEng Lx Ly Lz 
    2901            0    -241.9994    2.2449075    38.891914    1.1224537 
    2902            0    -241.9994    2.2449075    38.891914    1.1224537 
    2903            0    -241.9994    2.2449075    38.891914    1.1224537 
    2904            0    -241.9994    2.2449075    38.891914    1.1224537 
    2905            0    -241.9994    2.2449075    38.891914    1.1224537 
    2906            0    -241.9994    2.2449075    38.891914    1.1224537 
    2907            0    -241.9994    2.2449075    38.891914    1.1224537 
    2908            0    -241.9994    2.2449075    38.891914    1.1224537 
    2909            0    -241.9994    2.2449075    38.891914    1.1224537 
    2910            0    -241.9994    2.2449075    38.891914    1.1224537 
    2911            0    -241.9994    2.2449075    38.891914    1.1224537 
    2912            0    -241.9994    2.2449075    38.891914    1.1224537 
    2913            0    -241.9994    2.2449075    38.891914    1.1224537 
    2914            0    -241.9994    2.2449075    38.891914    1.1224537 
    2915            0    -241.9994    2.2449075    38.891914    1.1224537 
Loop time of 0.00438102 on 1 procs for 13 steps with 82 atoms

Minimization stats:
  Stopping criterion = energy tolerance
  Energy initial, next-to-last, final = 
         -241.99939997     -241.999400054     -241.999400055
  Force two-norm initial, final = 0.0239455 0.0226073
  Force max component initial, final = 0.0119657 0.011295
  Final line search alpha, max atom move = 0 0
  Iterations, force evaluations = 13 148

Pair  time (%) = 0.00345558 (78.876)
Neigh time (%) = 0 (0)
Comm  time (%) = 0.000214116 (4.88735)
Outpt time (%) = 9.88429e-05 (2.25616)
Other time (%) = 0.000612487 (13.9805)

Nlocal:    82 ave 82 max 82 min
Histogram: 1 0 0 0 0 0 0 0 0 0
Nghost:    185 ave 185 max 185 min
Histogram: 1 0 0 0 0 0 0 0 0 0
Neighs:    718 ave 718 max 718 min
Histogram: 1 0 0 0 0 0 0 0 0 0

Total # of neighbors = 718
Ave neighs/atom = 8.7561
Neighbor list builds = 0
Dangerous builds = 0
        # write_dump all atom ${dumpfile}
        next i
jump SELF loop1
        displace_atoms upper move ${xstep1} 0.0 0.0 units lattice
        displace_atoms upper move 0.002 0.0 0.0 units lattice
        min_style ${style}
        min_style hftn
        minimize ${etol} ${ftol} ${maxiter} ${maxeval}
        minimize 1e-12 ${ftol} ${maxiter} ${maxeval}
        minimize 1e-12 1e-08 ${maxiter} ${maxeval}
        minimize 1e-12 1e-08 10000 ${maxeval}
        minimize 1e-12 1e-08 10000 20000
WARNING: Resetting reneighboring criteria during minimization (../min.cpp:168)
Memory usage per processor = 4.85169 Mbytes
Step Temp PotEng Lx Ly Lz 
    2915            0   -241.99971    2.2449075    38.891914    1.1224537 
    2916            0   -241.99971    2.2449075    38.891914    1.1224537 
    2917            0   -241.99971    2.2449075    38.891914    1.1224537 
    2918            0   -241.99971    2.2449075    38.891914    1.1224537 
    2919            0   -241.99971    2.2449075    38.891914    1.1224537 
    2920            0   -241.99971    2.2449075    38.891914    1.1224537 
    2921            0   -241.99971    2.2449075    38.891914    1.1224537 
    2922            0   -241.99971    2.2449075    38.891914    1.1224537 
    2923            0   -241.99971    2.2449075    38.891914    1.1224537 
    2924            0   -241.99971    2.2449075    38.891914    1.1224537 
    2925            0   -241.99971    2.2449075    38.891914    1.1224537 
Loop time of 0.00340999 on 1 procs for 9 steps with 82 atoms

Minimization stats:
  Stopping criterion = energy tolerance
  Energy initial, next-to-last, final = 
        -241.999708009     -241.999708009     -241.999708244
  Force two-norm initial, final = 0.0200522 0.0107789
  Force max component initial, final = 0.0100159 0.00508165
  Final line search alpha, max atom move = 0 0
  Iterations, force evaluations = 9 134

Pair  time (%) = 0.00201978 (59.231)
Neigh time (%) = 0 (0)
Comm  time (%) = 0.000182321 (5.34667)
Outpt time (%) = 0.000714012 (20.9388)
Other time (%) = 0.000493886 (14.4835)

Nlocal:    82 ave 82 max 82 min
Histogram: 1 0 0 0 0 0 0 0 0 0
Nghost:    185 ave 185 max 185 min
Histogram: 1 0 0 0 0 0 0 0 0 0
Neighs:    718 ave 718 max 718 min
Histogram: 1 0 0 0 0 0 0 0 0 0

Total # of neighbors = 718
Ave neighs/atom = 8.7561
Neighbor list builds = 0
Dangerous builds = 0
        # write_dump all atom ${dumpfile}
        next i
jump SELF loop1
        displace_atoms upper move ${xstep1} 0.0 0.0 units lattice
        displace_atoms upper move 0.002 0.0 0.0 units lattice
        min_style ${style}
        min_style hftn
        minimize ${etol} ${ftol} ${maxiter} ${maxeval}
        minimize 1e-12 ${ftol} ${maxiter} ${maxeval}
        minimize 1e-12 1e-08 ${maxiter} ${maxeval}
        minimize 1e-12 1e-08 10000 ${maxeval}
        minimize 1e-12 1e-08 10000 20000
WARNING: Resetting reneighboring criteria during minimization (../min.cpp:168)
Memory usage per processor = 4.85169 Mbytes
Step Temp PotEng Lx Ly Lz 
    2925            0   -241.99989    2.2449075    38.891913    1.1224537 
    2926            0   -241.99989    2.2449075    38.891913    1.1224537 
    2927            0   -241.99989    2.2449075    38.891913    1.1224537 
    2928            0   -241.99989    2.2449075    38.891913    1.1224537 
    2929            0   -241.99989    2.2449075    38.891913    1.1224537 
    2930            0   -241.99989    2.2449075    38.891913    1.1224537 
    2931            0   -241.99989    2.2449075    38.891913    1.1224537 
    2932            0   -241.99989    2.2449075    38.891913    1.1224537 
Loop time of 0.00268208 on 1 procs for 6 steps with 82 atoms

Minimization stats:
  Stopping criterion = energy tolerance
  Energy initial, next-to-last, final = 
        -241.999892864     -241.999892871     -241.999892875
  Force two-norm initial, final = 0.00934709 0.00574466
  Force max component initial, final = 0.00431457 0.00220042
  Final line search alpha, max atom move = 0 0
  Iterations, force evaluations = 6 123

Pair  time (%) = 0.00194762 (72.6161)
Neigh time (%) = 0 (0)
Comm  time (%) = 0.000170393 (6.35301)
Outpt time (%) = 4.42186e-05 (1.64867)
Other time (%) = 0.000519846 (19.3822)

Nlocal:    82 ave 82 max 82 min
Histogram: 1 0 0 0 0 0 0 0 0 0
Nghost:    185 ave 185 max 185 min
Histogram: 1 0 0 0 0 0 0 0 0 0
Neighs:    718 ave 718 max 718 min
Histogram: 1 0 0 0 0 0 0 0 0 0

Total # of neighbors = 718
Ave neighs/atom = 8.7561
Neighbor list builds = 0
Dangerous builds = 0
        # write_dump all atom ${dumpfile}
        next i
jump SELF loop1
        displace_atoms upper move ${xstep1} 0.0 0.0 units lattice
        displace_atoms upper move 0.002 0.0 0.0 units lattice
        min_style ${style}
        min_style hftn
        minimize ${etol} ${ftol} ${maxiter} ${maxeval}
        minimize 1e-12 ${ftol} ${maxiter} ${maxeval}
        minimize 1e-12 1e-08 ${maxiter} ${maxeval}
        minimize 1e-12 1e-08 10000 ${maxeval}
        minimize 1e-12 1e-08 10000 20000
WARNING: Resetting reneighboring criteria during minimization (../min.cpp:168)
Memory usage per processor = 4.85169 Mbytes
Step Temp PotEng Lx Ly Lz 
    2932            0   -241.99995    2.2449075    38.891912    1.1224537 
    2933            0   -241.99995    2.2449075    38.891912    1.1224537 
    2934            0   -241.99995    2.2449075    38.891912    1.1224537 
    2935            0   -241.99995    2.2449075    38.891912    1.1224537 
    2936            0   -241.99995    2.2449075    38.891912    1.1224537 
    2937            0   -241.99995    2.2449075    38.891912    1.1224537 
    2938            0   -241.99995    2.2449075    38.891912    1.1224537 
    2939            0   -241.99995    2.2449075    38.891912    1.1224537 
    2940            0   -241.99995    2.2449075    38.891912    1.1224537 
Loop time of 0.00276505 on 1 procs for 7 steps with 82 atoms

Minimization stats:
  Stopping criterion = energy tolerance
  Energy initial, next-to-last, final = 
        -241.999954363     -241.999954363     -241.999954362
  Force two-norm initial, final = 0.00536372 0.00535921
  Force max component initial, final = 0.00194495 0.00194241
  Final line search alpha, max atom move = 0 0
  Iterations, force evaluations = 7 142

Pair  time (%) = 0.00203591 (73.6301)
Neigh time (%) = 0 (0)
Comm  time (%) = 0.000162933 (5.89258)
Outpt time (%) = 3.77867e-05 (1.36658)
Other time (%) = 0.000528421 (19.1108)

Nlocal:    82 ave 82 max 82 min
Histogram: 1 0 0 0 0 0 0 0 0 0
Nghost:    185 ave 185 max 185 min
Histogram: 1 0 0 0 0 0 0 0 0 0
Neighs:    718 ave 718 max 718 min
Histogram: 1 0 0 0 0 0 0 0 0 0

Total # of neighbors = 718
Ave neighs/atom = 8.7561
Neighbor list builds = 0
Dangerous builds = 0
        # write_dump all atom ${dumpfile}
        next i
jump SELF loop1


