LAMMPS (28 Jun 2014)
# attempt at getting generalized stacking fault (GSF) energy curve

#file prefix
variable prefix string gsf_V_brittlenewoffset
variable dumpfile string ${prefix}.*.dump
variable dumpfile string gsf_V_brittlenewoffset.*.dump
variable restartfile string ${prefix}.*.equil
variable restartfile string gsf_V_brittlenewoffset.*.equil

#Mass (g/mol)
variable m equal 1

# lattice constant (in Angstroms) and orientation of axes (given by lattice vectors)
variable rho equal 0.9165
variable x1 equal 1
variable x2 equal 0
variable x3 equal 0
variable y1 equal 0
variable y2 equal 1
variable y3 equal 0
# length of lattice in different directions (using orientation of lattice vectors)
variable ax equal sqrt(${x1}*${x1}+${x2}*${x2}+${x3}*${x3})
variable ax equal sqrt(1*${x1}+${x2}*${x2}+${x3}*${x3})
variable ax equal sqrt(1*1+${x2}*${x2}+${x3}*${x3})
variable ax equal sqrt(1*1+0*${x2}+${x3}*${x3})
variable ax equal sqrt(1*1+0*0+${x3}*${x3})
variable ax equal sqrt(1*1+0*0+0*${x3})
variable ax equal sqrt(1*1+0*0+0*0)
variable ay equal sqrt(${y1}*${y1}+${y2}*${y2}+${y3}*${y3})
variable ay equal sqrt(0*${y1}+${y2}*${y2}+${y3}*${y3})
variable ay equal sqrt(0*0+${y2}*${y2}+${y3}*${y3})
variable ay equal sqrt(0*0+1*${y2}+${y3}*${y3})
variable ay equal sqrt(0*0+1*1+${y3}*${y3})
variable ay equal sqrt(0*0+1*1+0*${y3})
variable ay equal sqrt(0*0+1*1+0*0)
variable az equal 1

# size of box in lattice units
variable lxpos equal 1
variable lxneg equal -1*${lxpos}
variable lxneg equal -1*1
variable lypos equal 10
variable lyneg equal -1*${lypos}
variable lyneg equal -1*10
variable lzpos equal 0
variable lzneg equal -1

# Define minimization parameters and damping
variable etol equal 1.0e-12
variable ftol equal 1.0e-8
variable maxiter equal 10000
variable maxeval equal 20000
variable style string cg

# boundary conditions
dimension	2
boundary	p s p
atom_style	atomic

# create geometry
units		lj
lattice         hex ${rho}
lattice         hex 0.9165
Lattice spacing in x,y,z = 1.12245 1.94415 1.12245
region		myregion block ${lxneg} ${lxpos} ${lyneg} ${lypos} ${lzneg} ${lzpos} units lattice
region		myregion block -1 ${lxpos} ${lyneg} ${lypos} ${lzneg} ${lzpos} units lattice
region		myregion block -1 1 ${lyneg} ${lypos} ${lzneg} ${lzpos} units lattice
region		myregion block -1 1 -10 ${lypos} ${lzneg} ${lzpos} units lattice
region		myregion block -1 1 -10 10 ${lzneg} ${lzpos} units lattice
region		myregion block -1 1 -10 10 -1 ${lzpos} units lattice
region		myregion block -1 1 -10 10 -1 0 units lattice
create_box	3 myregion
Created orthogonal box = (-1.12245 -19.4415 -1.12245) to (1.12245 19.4415 0)
  1 by 1 by 1 MPI processor grid
create_atoms	1 box
Created 82 atoms

# define masses
mass * $m
mass * 1

# my fake/morse potential
pair_style      table linear 3001
pair_coeff      * * vpotential_brittlenewoffset dummy
neighbor	0.3 bin
neigh_modify	delay 5

# define groups
region	    upper block INF INF 0.01 ${lypos} INF INF units lattice
region	    upper block INF INF 0.01 10 INF INF units lattice
group		upper region upper
40 atoms in group upper

# Setup output
thermo 1
thermo_style custom step temp pe lx ly lz
thermo_modify norm no

# Compute initial state by relaxing box
min_style ${style}
min_style cg
minimize ${etol} ${ftol} ${maxiter} ${maxeval}
minimize 1e-12 ${ftol} ${maxiter} ${maxeval}
minimize 1e-12 1e-08 ${maxiter} ${maxeval}
minimize 1e-12 1e-08 10000 ${maxeval}
minimize 1e-12 1e-08 10000 20000
WARNING: Resetting reneighboring criteria during minimization (../min.cpp:168)
Memory usage per processor = 3.35169 Mbytes
Step Temp PotEng Lx Ly Lz 
       0            0   -362.99993    2.2449075    38.890715    1.1224537 
       1            0   -362.99993    2.2449075    38.890715    1.1224537 
       2            0   -362.99993    2.2449075    38.890715    1.1224537 
Loop time of 0.000429948 on 1 procs for 2 steps with 82 atoms

Minimization stats:
  Stopping criterion = linesearch alpha is zero
  Energy initial, next-to-last, final = 
        -362.999927696     -362.999929863     -362.999929863
  Force two-norm initial, final = 0.000778805 0.00455994
  Force max component initial, final = 0.000389403 0.00179508
  Final line search alpha, max atom move = 0.000488281 8.76506e-07
  Iterations, force evaluations = 2 16

Pair  time (%) = 0.00029197 (67.9083)
Neigh time (%) = 0 (0)
Comm  time (%) = 2.2951e-05 (5.3381)
Outpt time (%) = 4.10177e-05 (9.54015)
Other time (%) = 7.40088e-05 (17.2134)

Nlocal:    82 ave 82 max 82 min
Histogram: 1 0 0 0 0 0 0 0 0 0
Nghost:    185 ave 185 max 185 min
Histogram: 1 0 0 0 0 0 0 0 0 0
Neighs:    718 ave 718 max 718 min
Histogram: 1 0 0 0 0 0 0 0 0 0

Total # of neighbors = 718
Ave neighs/atom = 8.7561
Neighbor list builds = 0
Dangerous builds = 0

# don't allow atoms to relax in x-direction
fix 2 all setforce 0.0 NULL 0.0

# GSF energy curve will have 100*2 steps
variable nsteps equal 300
variable sstep1 equal 1.
variable xstep1 equal ${sstep1}/(${ax}*${nsteps})
variable xstep1 equal 1/(${ax}*${nsteps})
variable xstep1 equal 1/(1*${nsteps})
variable xstep1 equal 1/(1*300)

variable i loop ${nsteps}
variable i loop 300
label loop1
        displace_atoms upper move ${xstep1} 0.0 0.0 units lattice
        displace_atoms upper move 0.00333333333333333 0.0 0.0 units lattice
        min_style ${style}
        min_style cg
        minimize ${etol} ${ftol} ${maxiter} ${maxeval}
        minimize 1e-12 ${ftol} ${maxiter} ${maxeval}
        minimize 1e-12 1e-08 ${maxiter} ${maxeval}
        minimize 1e-12 1e-08 10000 ${maxeval}
        minimize 1e-12 1e-08 10000 20000
WARNING: Resetting reneighboring criteria during minimization (../min.cpp:168)
Memory usage per processor = 3.35169 Mbytes
Step Temp PotEng Lx Ly Lz 
       2            0   -362.99976    2.2449075    38.890812    1.1224537 
       3            0   -362.99976    2.2449075    38.890812    1.1224537 
Loop time of 0.000308976 on 1 procs for 1 steps with 82 atoms

Minimization stats:
  Stopping criterion = linesearch alpha is zero
  Energy initial, next-to-last, final = 
        -362.999757399     -362.999757399     -362.999757399
  Force two-norm initial, final = 0.00478129 0.00478129
  Force max component initial, final = 0.00179508 0.00179508
  Final line search alpha, max atom move = 0.000488281 8.76506e-07
  Iterations, force evaluations = 1 12

Pair  time (%) = 0.000228053 (73.8094)
Neigh time (%) = 0 (0)
Comm  time (%) = 8.72149e-06 (2.82271)
Outpt time (%) = 0 (0)
Other time (%) = 7.22012e-05 (23.3679)

Nlocal:    82 ave 82 max 82 min
Histogram: 1 0 0 0 0 0 0 0 0 0
Nghost:    185 ave 185 max 185 min
Histogram: 1 0 0 0 0 0 0 0 0 0
Neighs:    718 ave 718 max 718 min
Histogram: 1 0 0 0 0 0 0 0 0 0

Total # of neighbors = 718
Ave neighs/atom = 8.7561
Neighbor list builds = 0
Dangerous builds = 0
        # write_dump all atom ${dumpfile}
        next i
jump SELF loop1
        displace_atoms upper move ${xstep1} 0.0 0.0 units lattice
        displace_atoms upper move 0.00333333333333333 0.0 0.0 units lattice
        min_style ${style}
        min_style cg
        minimize ${etol} ${ftol} ${maxiter} ${maxeval}
        minimize 1e-12 ${ftol} ${maxiter} ${maxeval}
        minimize 1e-12 1e-08 ${maxiter} ${maxeval}
        minimize 1e-12 1e-08 10000 ${maxeval}
        minimize 1e-12 1e-08 10000 20000
WARNING: Resetting reneighboring criteria during minimization (../min.cpp:168)
Memory usage per processor = 3.35169 Mbytes
Step Temp PotEng Lx Ly Lz 
       3            0   -362.99924    2.2449075    38.890812    1.1224537 
       4            0   -362.99924    2.2449075    38.890812    1.1224537 
Loop time of 0.000349061 on 1 procs for 1 steps with 82 atoms

Minimization stats:
  Stopping criterion = linesearch alpha is zero
  Energy initial, next-to-last, final = 
        -362.999241512     -362.999241512     -362.999241512
  Force two-norm initial, final = 0.00732734 0.00732734
  Force max component initial, final = 0.00286779 0.00286779
  Final line search alpha, max atom move = 0.00012207 3.50072e-07
  Iterations, force evaluations = 1 14

Pair  time (%) = 0.000262138 (75.098)
Neigh time (%) = 0 (0)
Comm  time (%) = 2.42736e-05 (6.95399)
Outpt time (%) = 0 (0)
Other time (%) = 6.26493e-05 (17.948)

Nlocal:    82 ave 82 max 82 min
Histogram: 1 0 0 0 0 0 0 0 0 0
Nghost:    185 ave 185 max 185 min
Histogram: 1 0 0 0 0 0 0 0 0 0
Neighs:    718 ave 718 max 718 min
Histogram: 1 0 0 0 0 0 0 0 0 0

Total # of neighbors = 718
Ave neighs/atom = 8.7561
Neighbor list builds = 0
Dangerous builds = 0
        # write_dump all atom ${dumpfile}
        next i
jump SELF loop1
        displace_atoms upper move ${xstep1} 0.0 0.0 units lattice
        displace_atoms upper move 0.00333333333333333 0.0 0.0 units lattice
        min_style ${style}
        min_style cg
        minimize ${etol} ${ftol} ${maxiter} ${maxeval}
        minimize 1e-12 ${ftol} ${maxiter} ${maxeval}
        minimize 1e-12 1e-08 ${maxiter} ${maxeval}
        minimize 1e-12 1e-08 10000 ${maxeval}
        minimize 1e-12 1e-08 10000 20000
WARNING: Resetting reneighboring criteria during minimization (../min.cpp:168)
Memory usage per processor = 3.35169 Mbytes
Step Temp PotEng Lx Ly Lz 
       4            0   -362.99838    2.2449075    38.890812    1.1224537 
       5            0   -362.99838    2.2449075    38.890812    1.1224537 
Loop time of 0.000345949 on 1 procs for 1 steps with 82 atoms

Minimization stats:
  Stopping criterion = linesearch alpha is zero
  Energy initial, next-to-last, final = 
        -362.998383655     -362.998383655     -362.998383655
  Force two-norm initial, final = 0.01366 0.01366
  Force max component initial, final = 0.00643821 0.00643821
  Final line search alpha, max atom move = 6.10352e-05 3.92957e-07
  Iterations, force evaluations = 1 15

Pair  time (%) = 0.000279703 (80.8511)
Neigh time (%) = 0 (0)
Comm  time (%) = 2.41462e-05 (6.9797)
Outpt time (%) = 0 (0)
Other time (%) = 4.20992e-05 (12.1692)

Nlocal:    82 ave 82 max 82 min
Histogram: 1 0 0 0 0 0 0 0 0 0
Nghost:    185 ave 185 max 185 min
Histogram: 1 0 0 0 0 0 0 0 0 0
Neighs:    718 ave 718 max 718 min
Histogram: 1 0 0 0 0 0 0 0 0 0

Total # of neighbors = 718
Ave neighs/atom = 8.7561
Neighbor list builds = 0
Dangerous builds = 0
        # write_dump all atom ${dumpfile}
        next i
jump SELF loop1
        displace_atoms upper move ${xstep1} 0.0 0.0 units lattice
        displace_atoms upper move 0.00333333333333333 0.0 0.0 units lattice
        min_style ${style}
        min_style cg
        minimize ${etol} ${ftol} ${maxiter} ${maxeval}
        minimize 1e-12 ${ftol} ${maxiter} ${maxeval}
        minimize 1e-12 1e-08 ${maxiter} ${maxeval}
        minimize 1e-12 1e-08 10000 ${maxeval}
        minimize 1e-12 1e-08 10000 20000
WARNING: Resetting reneighboring criteria during minimization (../min.cpp:168)
Memory usage per processor = 3.35169 Mbytes
Step Temp PotEng Lx Ly Lz 
       5            0   -362.99718    2.2449075    38.890812    1.1224537 
       6            0   -362.99718    2.2449075    38.890812    1.1224537 
Loop time of 0.00247808 on 1 procs for 1 steps with 82 atoms

Minimization stats:
  Stopping criterion = linesearch alpha is zero
  Energy initial, next-to-last, final = 
        -362.997184208     -362.997184208     -362.997184208
  Force two-norm initial, final = 0.0233072 0.0233072
  Force max component initial, final = 0.0114284 0.0114284
  Final line search alpha, max atom move = 1.52588e-05 1.74383e-07
  Iterations, force evaluations = 1 17

Pair  time (%) = 0.0023687 (95.5858)
Neigh time (%) = 0 (0)
Comm  time (%) = 2.92072e-05 (1.17862)
Outpt time (%) = 0 (0)
Other time (%) = 8.01798e-05 (3.23556)

Nlocal:    82 ave 82 max 82 min
Histogram: 1 0 0 0 0 0 0 0 0 0
Nghost:    185 ave 185 max 185 min
Histogram: 1 0 0 0 0 0 0 0 0 0
Neighs:    718 ave 718 max 718 min
Histogram: 1 0 0 0 0 0 0 0 0 0

Total # of neighbors = 718
Ave neighs/atom = 8.7561
Neighbor list builds = 0
Dangerous builds = 0
        # write_dump all atom ${dumpfile}
        next i
jump SELF loop1
        displace_atoms upper move ${xstep1} 0.0 0.0 units lattice
        displace_atoms upper move 0.00333333333333333 0.0 0.0 units lattice
        min_style ${style}
        min_style cg
        minimize ${etol} ${ftol} ${maxiter} ${maxeval}
        minimize 1e-12 ${ftol} ${maxiter} ${maxeval}
        minimize 1e-12 1e-08 ${maxiter} ${maxeval}
        minimize 1e-12 1e-08 10000 ${maxeval}
        minimize 1e-12 1e-08 10000 20000
WARNING: Resetting reneighboring criteria during minimization (../min.cpp:168)
Memory usage per processor = 3.35169 Mbytes
Step Temp PotEng Lx Ly Lz 
       6            0   -362.99564    2.2449075    38.890812    1.1224537 
       7            0   -362.99564    2.2449075    38.890812    1.1224537 
       8            0   -362.99564    2.2449075    38.890812    1.1224537 
       9            0   -362.99564    2.2449075    38.890812    1.1224537 
Loop time of 0.000976116 on 1 procs for 3 steps with 82 atoms

Minimization stats:
  Stopping criterion = linesearch alpha is zero
  Energy initial, next-to-last, final = 
        -362.995643567     -362.995644433     -362.995644433
  Force two-norm initial, final = 0.0359625 0.0312651
  Force max component initial, final = 0.0178361 0.015482
  Final line search alpha, max atom move = 7.62939e-06 1.18118e-07
  Iterations, force evaluations = 3 42

Pair  time (%) = 0.000713433 (73.089)
Neigh time (%) = 0 (0)
Comm  time (%) = 5.17246e-05 (5.29902)
Outpt time (%) = 7.50541e-05 (7.68906)
Other time (%) = 0.000135904 (13.923)

Nlocal:    82 ave 82 max 82 min
Histogram: 1 0 0 0 0 0 0 0 0 0
Nghost:    185 ave 185 max 185 min
Histogram: 1 0 0 0 0 0 0 0 0 0
Neighs:    718 ave 718 max 718 min
Histogram: 1 0 0 0 0 0 0 0 0 0

Total # of neighbors = 718
Ave neighs/atom = 8.7561
Neighbor list builds = 0
Dangerous builds = 0
        # write_dump all atom ${dumpfile}
        next i
jump SELF loop1
        displace_atoms upper move ${xstep1} 0.0 0.0 units lattice
        displace_atoms upper move 0.00333333333333333 0.0 0.0 units lattice
        min_style ${style}
        min_style cg
        minimize ${etol} ${ftol} ${maxiter} ${maxeval}
        minimize 1e-12 ${ftol} ${maxiter} ${maxeval}
        minimize 1e-12 1e-08 ${maxiter} ${maxeval}
        minimize 1e-12 1e-08 10000 ${maxeval}
        minimize 1e-12 1e-08 10000 20000
WARNING: Resetting reneighboring criteria during minimization (../min.cpp:168)
Memory usage per processor = 3.35169 Mbytes
Step Temp PotEng Lx Ly Lz 
       9            0   -362.99376    2.2449075    38.890809    1.1224537 
      10            0   -362.99377    2.2449075    38.890809    1.1224537 
      11            0   -362.99377    2.2449075    38.890809    1.1224537 
Loop time of 0.00059002 on 1 procs for 2 steps with 82 atoms

Minimization stats:
  Stopping criterion = linesearch alpha is zero
  Energy initial, next-to-last, final = 
        -362.993760152     -362.993767243     -362.993767243
  Force two-norm initial, final = 0.046848 0.0156938
  Force max component initial, final = 0.0233238 0.00704691
  Final line search alpha, max atom move = 3.05176e-05 2.15055e-07
  Iterations, force evaluations = 2 24

Pair  time (%) = 0.000421991 (71.5215)
Neigh time (%) = 0 (0)
Comm  time (%) = 3.38756e-05 (5.74143)
Outpt time (%) = 3.79346e-05 (6.42938)
Other time (%) = 9.62185e-05 (16.3077)

Nlocal:    82 ave 82 max 82 min
Histogram: 1 0 0 0 0 0 0 0 0 0
Nghost:    185 ave 185 max 185 min
Histogram: 1 0 0 0 0 0 0 0 0 0
Neighs:    718 ave 718 max 718 min
Histogram: 1 0 0 0 0 0 0 0 0 0

Total # of neighbors = 718
Ave neighs/atom = 8.7561
Neighbor list builds = 0
Dangerous builds = 0
        # write_dump all atom ${dumpfile}
        next i
jump SELF loop1
        displace_atoms upper move ${xstep1} 0.0 0.0 units lattice
        displace_atoms upper move 0.00333333333333333 0.0 0.0 units lattice
        min_style ${style}
        min_style cg
        minimize ${etol} ${ftol} ${maxiter} ${maxeval}
        minimize 1e-12 ${ftol} ${maxiter} ${maxeval}
        minimize 1e-12 1e-08 ${maxiter} ${maxeval}
        minimize 1e-12 1e-08 10000 ${maxeval}
        minimize 1e-12 1e-08 10000 20000
WARNING: Resetting reneighboring criteria during minimization (../min.cpp:168)
Memory usage per processor = 3.35169 Mbytes
Step Temp PotEng Lx Ly Lz 
      11            0   -362.99155    2.2449075    38.890789    1.1224537 
      12            0   -362.99155    2.2449075    38.890789    1.1224537 
      13            0   -362.99155    2.2449075    38.890789    1.1224537 
Loop time of 0.000605927 on 1 procs for 2 steps with 82 atoms

Minimization stats:
  Stopping criterion = linesearch alpha is zero
  Energy initial, next-to-last, final = 
        -362.991550751     -362.991550944     -362.991550944
  Force two-norm initial, final = 0.0288861 0.0279066
  Force max component initial, final = 0.0125837 0.0120304
  Final line search alpha, max atom move = 1.52588e-05 1.83569e-07
  Iterations, force evaluations = 2 29

Pair  time (%) = 0.000490289 (80.9156)
Neigh time (%) = 0 (0)
Comm  time (%) = 3.07754e-05 (5.07907)
Outpt time (%) = 9.95782e-06 (1.6434)
Other time (%) = 7.49039e-05 (12.3619)

Nlocal:    82 ave 82 max 82 min
Histogram: 1 0 0 0 0 0 0 0 0 0
Nghost:    185 ave 185 max 185 min
Histogram: 1 0 0 0 0 0 0 0 0 0
Neighs:    718 ave 718 max 718 min
Histogram: 1 0 0 0 0 0 0 0 0 0

Total # of neighbors = 718
Ave neighs/atom = 8.7561
Neighbor list builds = 0
Dangerous builds = 0
        # write_dump all atom ${dumpfile}
        next i
jump SELF loop1
        displace_atoms upper move ${xstep1} 0.0 0.0 units lattice
        displace_atoms upper move 0.00333333333333333 0.0 0.0 units lattice
        min_style ${style}
        min_style cg
        minimize ${etol} ${ftol} ${maxiter} ${maxeval}
        minimize 1e-12 ${ftol} ${maxiter} ${maxeval}
        minimize 1e-12 1e-08 ${maxiter} ${maxeval}
        minimize 1e-12 1e-08 10000 ${maxeval}
        minimize 1e-12 1e-08 10000 20000
WARNING: Resetting reneighboring criteria during minimization (../min.cpp:168)
Memory usage per processor = 3.35169 Mbytes
Step Temp PotEng Lx Ly Lz 
      13            0   -362.98899    2.2449075    38.890788    1.1224537 
      14            0     -362.989    2.2449075    38.890788    1.1224537 
      15            0     -362.989    2.2449075    38.890788    1.1224537 
      16            0     -362.989    2.2449075    38.890788    1.1224537 
      17            0     -362.989    2.2449075    38.890788    1.1224537 
      18            0     -362.989    2.2449075    38.890788    1.1224537 
Loop time of 0.00105509 on 1 procs for 5 steps with 82 atoms

Minimization stats:
  Stopping criterion = linesearch alpha is zero
  Energy initial, next-to-last, final = 
        -362.988993908     -362.989002581     -362.989002581
  Force two-norm initial, final = 0.0474891 0.0179964
  Force max component initial, final = 0.022668 0.00742926
  Final line search alpha, max atom move = 3.05176e-05 2.26723e-07
  Iterations, force evaluations = 5 56

Pair  time (%) = 0.000846322 (80.2135)
Neigh time (%) = 0 (0)
Comm  time (%) = 7.13326e-05 (6.76083)
Outpt time (%) = 2.70701e-05 (2.56567)
Other time (%) = 0.000110362 (10.46)

Nlocal:    82 ave 82 max 82 min
Histogram: 1 0 0 0 0 0 0 0 0 0
Nghost:    185 ave 185 max 185 min
Histogram: 1 0 0 0 0 0 0 0 0 0
Neighs:    718 ave 718 max 718 min
Histogram: 1 0 0 0 0 0 0 0 0 0

Total # of neighbors = 718
Ave neighs/atom = 8.7561
Neighbor list builds = 0
Dangerous builds = 0
        # write_dump all atom ${dumpfile}
        next i
jump SELF loop1
        displace_atoms upper move ${xstep1} 0.0 0.0 units lattice
        displace_atoms upper move 0.00333333333333333 0.0 0.0 units lattice
        min_style ${style}
        min_style cg
        minimize ${etol} ${ftol} ${maxiter} ${maxeval}
        minimize 1e-12 ${ftol} ${maxiter} ${maxeval}
        minimize 1e-12 1e-08 ${maxiter} ${maxeval}
        minimize 1e-12 1e-08 10000 ${maxeval}
        minimize 1e-12 1e-08 10000 20000
WARNING: Resetting reneighboring criteria during minimization (../min.cpp:168)
Memory usage per processor = 3.35169 Mbytes
Step Temp PotEng Lx Ly Lz 
      18            0   -362.98612    2.2449075    38.890779    1.1224537 
      19            0   -362.98612    2.2449075    38.890779    1.1224537 
      20            0   -362.98612    2.2449075    38.890779    1.1224537 
Loop time of 0.0004759 on 1 procs for 2 steps with 82 atoms

Minimization stats:
  Stopping criterion = linesearch alpha is zero
  Energy initial, next-to-last, final = 
        -362.986116575     -362.986124626     -362.986124626
  Force two-norm initial, final = 0.0358409 0.026208
  Force max component initial, final = 0.0160058 0.00985142
  Final line search alpha, max atom move = 1.52588e-05 1.50321e-07
  Iterations, force evaluations = 2 24

Pair  time (%) = 0.000383148 (80.5101)
Neigh time (%) = 0 (0)
Comm  time (%) = 3.24756e-05 (6.82403)
Outpt time (%) = 6.05476e-06 (1.27228)
Other time (%) = 5.42222e-05 (11.3936)

Nlocal:    82 ave 82 max 82 min
Histogram: 1 0 0 0 0 0 0 0 0 0
Nghost:    185 ave 185 max 185 min
Histogram: 1 0 0 0 0 0 0 0 0 0
Neighs:    718 ave 718 max 718 min
Histogram: 1 0 0 0 0 0 0 0 0 0

Total # of neighbors = 718
Ave neighs/atom = 8.7561
Neighbor list builds = 0
Dangerous builds = 0
        # write_dump all atom ${dumpfile}
        next i
jump SELF loop1
        displace_atoms upper move ${xstep1} 0.0 0.0 units lattice
        displace_atoms upper move 0.00333333333333333 0.0 0.0 units lattice
        min_style ${style}
        min_style cg
        minimize ${etol} ${ftol} ${maxiter} ${maxeval}
        minimize 1e-12 ${ftol} ${maxiter} ${maxeval}
        minimize 1e-12 1e-08 ${maxiter} ${maxeval}
        minimize 1e-12 1e-08 10000 ${maxeval}
        minimize 1e-12 1e-08 10000 20000
WARNING: Resetting reneighboring criteria during minimization (../min.cpp:168)
Memory usage per processor = 3.35169 Mbytes
Step Temp PotEng Lx Ly Lz 
      20            0   -362.98292    2.2449075    38.890775    1.1224537 
      21            0   -362.98292    2.2449075    38.890775    1.1224537 
Loop time of 0.000875999 on 1 procs for 1 steps with 82 atoms

Minimization stats:
  Stopping criterion = linesearch alpha is zero
  Energy initial, next-to-last, final = 
        -362.982915772     -362.982915772     -362.982915772
  Force two-norm initial, final = 0.0246763 0.0246763
  Force max component initial, final = 0.00985142 0.00985142
  Final line search alpha, max atom move = 1.52588e-05 1.50321e-07
  Iterations, force evaluations = 1 17

Pair  time (%) = 0.000275484 (31.448)
Neigh time (%) = 0 (0)
Comm  time (%) = 3.29528e-05 (3.76173)
Outpt time (%) = 0 (0)
Other time (%) = 0.000567562 (64.7903)

Nlocal:    82 ave 82 max 82 min
Histogram: 1 0 0 0 0 0 0 0 0 0
Nghost:    185 ave 185 max 185 min
Histogram: 1 0 0 0 0 0 0 0 0 0
Neighs:    718 ave 718 max 718 min
Histogram: 1 0 0 0 0 0 0 0 0 0

Total # of neighbors = 718
Ave neighs/atom = 8.7561
Neighbor list builds = 0
Dangerous builds = 0
        # write_dump all atom ${dumpfile}
        next i
jump SELF loop1
        displace_atoms upper move ${xstep1} 0.0 0.0 units lattice
        displace_atoms upper move 0.00333333333333333 0.0 0.0 units lattice
        min_style ${style}
        min_style cg
        minimize ${etol} ${ftol} ${maxiter} ${maxeval}
        minimize 1e-12 ${ftol} ${maxiter} ${maxeval}
        minimize 1e-12 1e-08 ${maxiter} ${maxeval}
        minimize 1e-12 1e-08 10000 ${maxeval}
        minimize 1e-12 1e-08 10000 20000
WARNING: Resetting reneighboring criteria during minimization (../min.cpp:168)
Memory usage per processor = 3.35169 Mbytes
Step Temp PotEng Lx Ly Lz 
      21            0   -362.97937    2.2449075    38.890775    1.1224537 
      22            0   -362.97939    2.2449075    38.890775    1.1224537 
      23            0   -362.97939    2.2449075    38.890775    1.1224537 
Loop time of 0.000516958 on 1 procs for 2 steps with 82 atoms

Minimization stats:
  Stopping criterion = linesearch alpha is zero
  Energy initial, next-to-last, final = 
        -362.979374756      -362.97939259      -362.97939259
  Force two-norm initial, final = 0.0466418 0.034314
  Force max component initial, final = 0.0206625 0.0127603
  Final line search alpha, max atom move = 7.62939e-06 9.73532e-08
  Iterations, force evaluations = 2 25

Pair  time (%) = 0.000398916 (77.166)
Neigh time (%) = 0 (0)
Comm  time (%) = 4.12298e-05 (7.97546)
Outpt time (%) = 4.96639e-06 (0.960696)
Other time (%) = 7.18458e-05 (13.8978)

Nlocal:    82 ave 82 max 82 min
Histogram: 1 0 0 0 0 0 0 0 0 0
Nghost:    185 ave 185 max 185 min
Histogram: 1 0 0 0 0 0 0 0 0 0
Neighs:    718 ave 718 max 718 min
Histogram: 1 0 0 0 0 0 0 0 0 0

Total # of neighbors = 718
Ave neighs/atom = 8.7561
Neighbor list builds = 0
Dangerous builds = 0
        # write_dump all atom ${dumpfile}
        next i
jump SELF loop1
        displace_atoms upper move ${xstep1} 0.0 0.0 units lattice
        displace_atoms upper move 0.00333333333333333 0.0 0.0 units lattice
        min_style ${style}
        min_style cg
        minimize ${etol} ${ftol} ${maxiter} ${maxeval}
        minimize 1e-12 ${ftol} ${maxiter} ${maxeval}
        minimize 1e-12 1e-08 ${maxiter} ${maxeval}
        minimize 1e-12 1e-08 10000 ${maxeval}
        minimize 1e-12 1e-08 10000 20000
WARNING: Resetting reneighboring criteria during minimization (../min.cpp:168)
Memory usage per processor = 3.35169 Mbytes
Step Temp PotEng Lx Ly Lz 
      23            0   -362.97554    2.2449075    38.890775    1.1224537 
      24            0   -362.97554    2.2449075    38.890775    1.1224537 
Loop time of 0.000358027 on 1 procs for 1 steps with 82 atoms

Minimization stats:
  Stopping criterion = linesearch alpha is zero
  Energy initial, next-to-last, final = 
        -362.975539704     -362.975539704     -362.975539704
  Force two-norm initial, final = 0.031534 0.031534
  Force max component initial, final = 0.0127603 0.0127603
  Final line search alpha, max atom move = 7.62939e-06 9.73532e-08
  Iterations, force evaluations = 1 18

Pair  time (%) = 0.000291873 (81.5227)
Neigh time (%) = 0 (0)
Comm  time (%) = 2.94719e-05 (8.23177)
Outpt time (%) = 0 (0)
Other time (%) = 3.66819e-05 (10.2456)

Nlocal:    82 ave 82 max 82 min
Histogram: 1 0 0 0 0 0 0 0 0 0
Nghost:    185 ave 185 max 185 min
Histogram: 1 0 0 0 0 0 0 0 0 0
Neighs:    718 ave 718 max 718 min
Histogram: 1 0 0 0 0 0 0 0 0 0

Total # of neighbors = 718
Ave neighs/atom = 8.7561
Neighbor list builds = 0
Dangerous builds = 0
        # write_dump all atom ${dumpfile}
        next i
jump SELF loop1
        displace_atoms upper move ${xstep1} 0.0 0.0 units lattice
        displace_atoms upper move 0.00333333333333333 0.0 0.0 units lattice
        min_style ${style}
        min_style cg
        minimize ${etol} ${ftol} ${maxiter} ${maxeval}
        minimize 1e-12 ${ftol} ${maxiter} ${maxeval}
        minimize 1e-12 1e-08 ${maxiter} ${maxeval}
        minimize 1e-12 1e-08 10000 ${maxeval}
        minimize 1e-12 1e-08 10000 20000
WARNING: Resetting reneighboring criteria during minimization (../min.cpp:168)
Memory usage per processor = 3.35169 Mbytes
Step Temp PotEng Lx Ly Lz 
      24            0   -362.97136    2.2449075    38.890775    1.1224537 
      25            0   -362.97137    2.2449075    38.890775    1.1224537 
      26            0   -362.97139    2.2449075    38.890775    1.1224537 
      27            0   -362.97139    2.2449075    38.890775    1.1224537 
Loop time of 0.000588116 on 1 procs for 3 steps with 82 atoms

Minimization stats:
  Stopping criterion = linesearch alpha is zero
  Energy initial, next-to-last, final = 
        -362.971355746     -362.971389728     -362.971389728
  Force two-norm initial, final = 0.0558468 0.0248973
  Force max component initial, final = 0.0239662 0.0106393
  Final line search alpha, max atom move = 1.52588e-05 1.62343e-07
  Iterations, force evaluations = 3 31

Pair  time (%) = 0.000468233 (79.6158)
Neigh time (%) = 0 (0)
Comm  time (%) = 4.7107e-05 (8.00982)
Outpt time (%) = 1.49978e-05 (2.55014)
Other time (%) = 5.7778e-05 (9.82425)

Nlocal:    82 ave 82 max 82 min
Histogram: 1 0 0 0 0 0 0 0 0 0
Nghost:    185 ave 185 max 185 min
Histogram: 1 0 0 0 0 0 0 0 0 0
Neighs:    718 ave 718 max 718 min
Histogram: 1 0 0 0 0 0 0 0 0 0

Total # of neighbors = 718
Ave neighs/atom = 8.7561
Neighbor list builds = 0
Dangerous builds = 0
        # write_dump all atom ${dumpfile}
        next i
jump SELF loop1
        displace_atoms upper move ${xstep1} 0.0 0.0 units lattice
        displace_atoms upper move 0.00333333333333333 0.0 0.0 units lattice
        min_style ${style}
        min_style cg
        minimize ${etol} ${ftol} ${maxiter} ${maxeval}
        minimize 1e-12 ${ftol} ${maxiter} ${maxeval}
        minimize 1e-12 1e-08 ${maxiter} ${maxeval}
        minimize 1e-12 1e-08 10000 ${maxeval}
        minimize 1e-12 1e-08 10000 20000
WARNING: Resetting reneighboring criteria during minimization (../min.cpp:168)
Memory usage per processor = 3.35169 Mbytes
Step Temp PotEng Lx Ly Lz 
      27            0   -362.96691    2.2449075    38.890777    1.1224537 
      28            0   -362.96692    2.2449075    38.890777    1.1224537 
      29            0   -362.96692    2.2449075    38.890777    1.1224537 
Loop time of 0.000494088 on 1 procs for 2 steps with 82 atoms

Minimization stats:
  Stopping criterion = linesearch alpha is zero
  Energy initial, next-to-last, final = 
        -362.966909665     -362.966917741     -362.966917741
  Force two-norm initial, final = 0.0437816 0.0226178
  Force max component initial, final = 0.0180164 0.00716171
  Final line search alpha, max atom move = 1.52588e-05 1.09279e-07
  Iterations, force evaluations = 2 25

Pair  time (%) = 0.000403346 (81.6345)
Neigh time (%) = 0 (0)
Comm  time (%) = 3.80374e-05 (7.69851)
Outpt time (%) = 5.93066e-06 (1.20032)
Other time (%) = 4.67738e-05 (9.4667)

Nlocal:    82 ave 82 max 82 min
Histogram: 1 0 0 0 0 0 0 0 0 0
Nghost:    185 ave 185 max 185 min
Histogram: 1 0 0 0 0 0 0 0 0 0
Neighs:    718 ave 718 max 718 min
Histogram: 1 0 0 0 0 0 0 0 0 0

Total # of neighbors = 718
Ave neighs/atom = 8.7561
Neighbor list builds = 0
Dangerous builds = 0
        # write_dump all atom ${dumpfile}
        next i
jump SELF loop1
        displace_atoms upper move ${xstep1} 0.0 0.0 units lattice
        displace_atoms upper move 0.00333333333333333 0.0 0.0 units lattice
        min_style ${style}
        min_style cg
        minimize ${etol} ${ftol} ${maxiter} ${maxeval}
        minimize 1e-12 ${ftol} ${maxiter} ${maxeval}
        minimize 1e-12 1e-08 ${maxiter} ${maxeval}
        minimize 1e-12 1e-08 10000 ${maxeval}
        minimize 1e-12 1e-08 10000 20000
WARNING: Resetting reneighboring criteria during minimization (../min.cpp:168)
Memory usage per processor = 3.35169 Mbytes
Step Temp PotEng Lx Ly Lz 
      29            0   -362.96212    2.2449075    38.890778    1.1224537 
      30            0   -362.96213    2.2449075    38.890778    1.1224537 
      31            0   -362.96215    2.2449075    38.890778    1.1224537 
      32            0   -362.96215    2.2449075    38.890778    1.1224537 
Loop time of 0.000638894 on 1 procs for 3 steps with 82 atoms

Minimization stats:
  Stopping criterion = linesearch alpha is zero
  Energy initial, next-to-last, final = 
        -362.962123359      -362.96215136      -362.96215136
  Force two-norm initial, final = 0.0486507 0.0238469
  Force max component initial, final = 0.0216031 0.0101916
  Final line search alpha, max atom move = 1.52588e-05 1.55512e-07
  Iterations, force evaluations = 3 31

Pair  time (%) = 0.00049785 (77.9238)
Neigh time (%) = 0 (0)
Comm  time (%) = 5.31827e-05 (8.32418)
Outpt time (%) = 1.61112e-05 (2.52173)
Other time (%) = 7.17496e-05 (11.2303)

Nlocal:    82 ave 82 max 82 min
Histogram: 1 0 0 0 0 0 0 0 0 0
Nghost:    175 ave 175 max 175 min
Histogram: 1 0 0 0 0 0 0 0 0 0
Neighs:    718 ave 718 max 718 min
Histogram: 1 0 0 0 0 0 0 0 0 0

Total # of neighbors = 718
Ave neighs/atom = 8.7561
Neighbor list builds = 0
Dangerous builds = 0
        # write_dump all atom ${dumpfile}
        next i
jump SELF loop1
        displace_atoms upper move ${xstep1} 0.0 0.0 units lattice
        displace_atoms upper move 0.00333333333333333 0.0 0.0 units lattice
        min_style ${style}
        min_style cg
        minimize ${etol} ${ftol} ${maxiter} ${maxeval}
        minimize 1e-12 ${ftol} ${maxiter} ${maxeval}
        minimize 1e-12 1e-08 ${maxiter} ${maxeval}
        minimize 1e-12 1e-08 10000 ${maxeval}
        minimize 1e-12 1e-08 10000 20000
WARNING: Resetting reneighboring criteria during minimization (../min.cpp:168)
Memory usage per processor = 3.35169 Mbytes
Step Temp PotEng Lx Ly Lz 
      32            0   -362.95706    2.2449075    38.890782    1.1224537 
      33            0   -362.95707    2.2449075    38.890782    1.1224537 
      34            0   -362.95708    2.2449075    38.890782    1.1224537 
      35            0   -362.95708    2.2449075    38.890782    1.1224537 
Loop time of 0.000628913 on 1 procs for 3 steps with 82 atoms

Minimization stats:
  Stopping criterion = linesearch alpha is zero
  Energy initial, next-to-last, final = 
        -362.957059624     -362.957082829     -362.957082829
  Force two-norm initial, final = 0.0492978 0.0219874
  Force max component initial, final = 0.0215775 0.00888963
  Final line search alpha, max atom move = 1.52588e-05 1.35645e-07
  Iterations, force evaluations = 3 31

Pair  time (%) = 0.000516728 (82.162)
Neigh time (%) = 0 (0)
Comm  time (%) = 3.37511e-05 (5.36658)
Outpt time (%) = 1.10178e-05 (1.75188)
Other time (%) = 6.74163e-05 (10.7195)

Nlocal:    82 ave 82 max 82 min
Histogram: 1 0 0 0 0 0 0 0 0 0
Nghost:    175 ave 175 max 175 min
Histogram: 1 0 0 0 0 0 0 0 0 0
Neighs:    718 ave 718 max 718 min
Histogram: 1 0 0 0 0 0 0 0 0 0

Total # of neighbors = 718
Ave neighs/atom = 8.7561
Neighbor list builds = 0
Dangerous builds = 0
        # write_dump all atom ${dumpfile}
        next i
jump SELF loop1
        displace_atoms upper move ${xstep1} 0.0 0.0 units lattice
        displace_atoms upper move 0.00333333333333333 0.0 0.0 units lattice
        min_style ${style}
        min_style cg
        minimize ${etol} ${ftol} ${maxiter} ${maxeval}
        minimize 1e-12 ${ftol} ${maxiter} ${maxeval}
        minimize 1e-12 1e-08 ${maxiter} ${maxeval}
        minimize 1e-12 1e-08 10000 ${maxeval}
        minimize 1e-12 1e-08 10000 20000
WARNING: Resetting reneighboring criteria during minimization (../min.cpp:168)
Memory usage per processor = 3.35169 Mbytes
Step Temp PotEng Lx Ly Lz 
      35            0    -362.9517    2.2449075    38.890787    1.1224537 
      36            0   -362.95171    2.2449075    38.890787    1.1224537 
      37            0   -362.95172    2.2449075    38.890787    1.1224537 
      38            0   -362.95172    2.2449075    38.890787    1.1224537 
      39            0   -362.95172    2.2449075    38.890787    1.1224537 
Loop time of 0.000766006 on 1 procs for 4 steps with 82 atoms

Minimization stats:
  Stopping criterion = linesearch alpha is zero
  Energy initial, next-to-last, final = 
        -362.951696313     -362.951723973     -362.951723973
  Force two-norm initial, final = 0.0520035 0.0175776
  Force max component initial, final = 0.0235958 0.0050841
  Final line search alpha, max atom move = 3.05176e-05 1.55155e-07
  Iterations, force evaluations = 4 38

Pair  time (%) = 0.000608803 (79.4776)
Neigh time (%) = 0 (0)
Comm  time (%) = 4.73551e-05 (6.18208)
Outpt time (%) = 1.63012e-05 (2.12807)
Other time (%) = 9.35469e-05 (12.2123)

Nlocal:    82 ave 82 max 82 min
Histogram: 1 0 0 0 0 0 0 0 0 0
Nghost:    175 ave 175 max 175 min
Histogram: 1 0 0 0 0 0 0 0 0 0
Neighs:    718 ave 718 max 718 min
Histogram: 1 0 0 0 0 0 0 0 0 0

Total # of neighbors = 718
Ave neighs/atom = 8.7561
Neighbor list builds = 0
Dangerous builds = 0
        # write_dump all atom ${dumpfile}
        next i
jump SELF loop1
        displace_atoms upper move ${xstep1} 0.0 0.0 units lattice
        displace_atoms upper move 0.00333333333333333 0.0 0.0 units lattice
        min_style ${style}
        min_style cg
        minimize ${etol} ${ftol} ${maxiter} ${maxeval}
        minimize 1e-12 ${ftol} ${maxiter} ${maxeval}
        minimize 1e-12 1e-08 ${maxiter} ${maxeval}
        minimize 1e-12 1e-08 10000 ${maxeval}
        minimize 1e-12 1e-08 10000 20000
WARNING: Resetting reneighboring criteria during minimization (../min.cpp:168)
Memory usage per processor = 3.35169 Mbytes
Step Temp PotEng Lx Ly Lz 
      39            0   -362.94605    2.2449075    38.890793    1.1224537 
      40            0   -362.94606    2.2449075    38.890793    1.1224537 
      41            0   -362.94606    2.2449075    38.890793    1.1224537 
Loop time of 0.00137697 on 1 procs for 2 steps with 82 atoms

Minimization stats:
  Stopping criterion = linesearch alpha is zero
  Energy initial, next-to-last, final = 
        -362.946052715     -362.946060828     -362.946060828
  Force two-norm initial, final = 0.0486619 0.0319735
  Force max component initial, final = 0.0227032 0.0129171
  Final line search alpha, max atom move = 7.62939e-06 9.85497e-08
  Iterations, force evaluations = 2 27

Pair  time (%) = 0.00116123 (84.3324)
Neigh time (%) = 0 (0)
Comm  time (%) = 9.80396e-05 (7.11996)
Outpt time (%) = 5.88363e-06 (0.427289)
Other time (%) = 0.000111815 (8.12039)

Nlocal:    82 ave 82 max 82 min
Histogram: 1 0 0 0 0 0 0 0 0 0
Nghost:    175 ave 175 max 175 min
Histogram: 1 0 0 0 0 0 0 0 0 0
Neighs:    718 ave 718 max 718 min
Histogram: 1 0 0 0 0 0 0 0 0 0

Total # of neighbors = 718
Ave neighs/atom = 8.7561
Neighbor list builds = 0
Dangerous builds = 0
        # write_dump all atom ${dumpfile}
        next i
jump SELF loop1
        displace_atoms upper move ${xstep1} 0.0 0.0 units lattice
        displace_atoms upper move 0.00333333333333333 0.0 0.0 units lattice
        min_style ${style}
        min_style cg
        minimize ${etol} ${ftol} ${maxiter} ${maxeval}
        minimize 1e-12 ${ftol} ${maxiter} ${maxeval}
        minimize 1e-12 1e-08 ${maxiter} ${maxeval}
        minimize 1e-12 1e-08 10000 ${maxeval}
        minimize 1e-12 1e-08 10000 20000
WARNING: Resetting reneighboring criteria during minimization (../min.cpp:168)
Memory usage per processor = 3.35169 Mbytes
Step Temp PotEng Lx Ly Lz 
      41            0   -362.94008    2.2449075    38.890794    1.1224537 
      42            0   -362.94011    2.2449075    38.890794    1.1224537 
      43            0   -362.94012    2.2449075    38.890794    1.1224537 
      44            0   -362.94015    2.2449075    38.890794    1.1224537 
      45            0   -362.94016    2.2449075    38.890794    1.1224537 
      46            0   -362.94016    2.2449075    38.890794    1.1224537 
Loop time of 0.000996904 on 1 procs for 5 steps with 82 atoms

Minimization stats:
  Stopping criterion = linesearch alpha is zero
  Energy initial, next-to-last, final = 
        -362.940082943     -362.940157367     -362.940157367
  Force two-norm initial, final = 0.0777496 0.0192696
  Force max component initial, final = 0.0377164 0.00654925
  Final line search alpha, max atom move = 3.05176e-05 1.99867e-07
  Iterations, force evaluations = 5 45

Pair  time (%) = 0.000813556 (81.6083)
Neigh time (%) = 0 (0)
Comm  time (%) = 5.16427e-05 (5.1803)
Outpt time (%) = 2.40573e-05 (2.41321)
Other time (%) = 0.000107648 (10.7982)

Nlocal:    82 ave 82 max 82 min
Histogram: 1 0 0 0 0 0 0 0 0 0
Nghost:    175 ave 175 max 175 min
Histogram: 1 0 0 0 0 0 0 0 0 0
Neighs:    718 ave 718 max 718 min
Histogram: 1 0 0 0 0 0 0 0 0 0

Total # of neighbors = 718
Ave neighs/atom = 8.7561
Neighbor list builds = 0
Dangerous builds = 0
        # write_dump all atom ${dumpfile}
        next i
jump SELF loop1
        displace_atoms upper move ${xstep1} 0.0 0.0 units lattice
        displace_atoms upper move 0.00333333333333333 0.0 0.0 units lattice
        min_style ${style}
        min_style cg
        minimize ${etol} ${ftol} ${maxiter} ${maxeval}
        minimize 1e-12 ${ftol} ${maxiter} ${maxeval}
        minimize 1e-12 1e-08 ${maxiter} ${maxeval}
        minimize 1e-12 1e-08 10000 ${maxeval}
        minimize 1e-12 1e-08 10000 20000
WARNING: Resetting reneighboring criteria during minimization (../min.cpp:168)
Memory usage per processor = 3.35169 Mbytes
Step Temp PotEng Lx Ly Lz 
      46            0   -362.93393    2.2449075    38.890802    1.1224537 
      47            0   -362.93393    2.2449075    38.890802    1.1224537 
      48            0   -362.93393    2.2449075    38.890802    1.1224537 
Loop time of 0.000604011 on 1 procs for 2 steps with 82 atoms

Minimization stats:
  Stopping criterion = linesearch alpha is zero
  Energy initial, next-to-last, final = 
        -362.933928927     -362.933929753     -362.933929753
  Force two-norm initial, final = 0.0514619 0.049012
  Force max component initial, final = 0.0239336 0.0226354
  Final line search alpha, max atom move = 3.8147e-06 8.63471e-08
  Iterations, force evaluations = 2 31

Pair  time (%) = 0.000501933 (83.0999)
Neigh time (%) = 0 (0)
Comm  time (%) = 2.95117e-05 (4.88596)
Outpt time (%) = 6.89737e-06 (1.14193)
Other time (%) = 6.56691e-05 (10.8722)

Nlocal:    82 ave 82 max 82 min
Histogram: 1 0 0 0 0 0 0 0 0 0
Nghost:    175 ave 175 max 175 min
Histogram: 1 0 0 0 0 0 0 0 0 0
Neighs:    718 ave 718 max 718 min
Histogram: 1 0 0 0 0 0 0 0 0 0

Total # of neighbors = 718
Ave neighs/atom = 8.7561
Neighbor list builds = 0
Dangerous builds = 0
        # write_dump all atom ${dumpfile}
        next i
jump SELF loop1
        displace_atoms upper move ${xstep1} 0.0 0.0 units lattice
        displace_atoms upper move 0.00333333333333333 0.0 0.0 units lattice
        min_style ${style}
        min_style cg
        minimize ${etol} ${ftol} ${maxiter} ${maxeval}
        minimize 1e-12 ${ftol} ${maxiter} ${maxeval}
        minimize 1e-12 1e-08 ${maxiter} ${maxeval}
        minimize 1e-12 1e-08 10000 ${maxeval}
        minimize 1e-12 1e-08 10000 20000
WARNING: Resetting reneighboring criteria during minimization (../min.cpp:168)
Memory usage per processor = 3.35169 Mbytes
Step Temp PotEng Lx Ly Lz 
      48            0   -362.92739    2.2449075    38.890802    1.1224537 
      49            0   -362.92743    2.2449075    38.890802    1.1224537 
      50            0   -362.92744    2.2449075    38.890802    1.1224537 
      51            0   -362.92746    2.2449075    38.890802    1.1224537 
      52            0   -362.92748    2.2449075    38.890802    1.1224537 
      53            0   -362.92749    2.2449075    38.890802    1.1224537 
      54            0    -362.9275    2.2449075    38.890802    1.1224537 
      55            0    -362.9275    2.2449075    38.890802    1.1224537 
Loop time of 0.00114605 on 1 procs for 7 steps with 82 atoms

Minimization stats:
  Stopping criterion = linesearch alpha is zero
  Energy initial, next-to-last, final = 
        -362.927394836     -362.927502596     -362.927502596
  Force two-norm initial, final = 0.101211 0.0249314
  Force max component initial, final = 0.0497264 0.00605413
  Final line search alpha, max atom move = 1.52588e-05 9.23787e-08
  Iterations, force evaluations = 7 59

Pair  time (%) = 0.000879775 (76.7657)
Neigh time (%) = 0 (0)
Comm  time (%) = 7.64765e-05 (6.67304)
Outpt time (%) = 4.44094e-05 (3.87499)
Other time (%) = 0.000145391 (12.6862)

Nlocal:    82 ave 82 max 82 min
Histogram: 1 0 0 0 0 0 0 0 0 0
Nghost:    175 ave 175 max 175 min
Histogram: 1 0 0 0 0 0 0 0 0 0
Neighs:    718 ave 718 max 718 min
Histogram: 1 0 0 0 0 0 0 0 0 0

Total # of neighbors = 718
Ave neighs/atom = 8.7561
Neighbor list builds = 0
Dangerous builds = 0
        # write_dump all atom ${dumpfile}
        next i
jump SELF loop1
        displace_atoms upper move ${xstep1} 0.0 0.0 units lattice
        displace_atoms upper move 0.00333333333333333 0.0 0.0 units lattice
        min_style ${style}
        min_style cg
        minimize ${etol} ${ftol} ${maxiter} ${maxeval}
        minimize 1e-12 ${ftol} ${maxiter} ${maxeval}
        minimize 1e-12 1e-08 ${maxiter} ${maxeval}
        minimize 1e-12 1e-08 10000 ${maxeval}
        minimize 1e-12 1e-08 10000 20000
WARNING: Resetting reneighboring criteria during minimization (../min.cpp:168)
Memory usage per processor = 3.35169 Mbytes
Step Temp PotEng Lx Ly Lz 
      55            0   -362.92076    2.2449075    38.890829    1.1224537 
      56            0   -362.92078    2.2449075    38.890829    1.1224537 
      57            0   -362.92078    2.2449075    38.890829    1.1224537 
Loop time of 0.000306068 on 1 procs for 2 steps with 82 atoms

Minimization stats:
  Stopping criterion = linesearch alpha is zero
  Energy initial, next-to-last, final = 
        -362.920764858      -362.92077897      -362.92077897
  Force two-norm initial, final = 0.053412 0.019074
  Force max component initial, final = 0.0239481 0.00435941
  Final line search alpha, max atom move = 3.05176e-05 1.33039e-07
  Iterations, force evaluations = 2 24

Pair  time (%) = 0.00024371 (79.6262)
Neigh time (%) = 0 (0)
Comm  time (%) = 1.95388e-05 (6.38381)
Outpt time (%) = 4.91051e-06 (1.60439)
Other time (%) = 3.79082e-05 (12.3856)

Nlocal:    82 ave 82 max 82 min
Histogram: 1 0 0 0 0 0 0 0 0 0
Nghost:    175 ave 175 max 175 min
Histogram: 1 0 0 0 0 0 0 0 0 0
Neighs:    718 ave 718 max 718 min
Histogram: 1 0 0 0 0 0 0 0 0 0

Total # of neighbors = 718
Ave neighs/atom = 8.7561
Neighbor list builds = 0
Dangerous builds = 0
        # write_dump all atom ${dumpfile}
        next i
jump SELF loop1
        displace_atoms upper move ${xstep1} 0.0 0.0 units lattice
        displace_atoms upper move 0.00333333333333333 0.0 0.0 units lattice
        min_style ${style}
        min_style cg
        minimize ${etol} ${ftol} ${maxiter} ${maxeval}
        minimize 1e-12 ${ftol} ${maxiter} ${maxeval}
        minimize 1e-12 1e-08 ${maxiter} ${maxeval}
        minimize 1e-12 1e-08 10000 ${maxeval}
        minimize 1e-12 1e-08 10000 20000
WARNING: Resetting reneighboring criteria during minimization (../min.cpp:168)
Memory usage per processor = 3.35169 Mbytes
Step Temp PotEng Lx Ly Lz 
      57            0   -362.91377    2.2449075     38.89083    1.1224537 
      58            0   -362.91379    2.2449075     38.89083    1.1224537 
      59            0   -362.91379    2.2449075     38.89083    1.1224537 
      60            0    -362.9138    2.2449075     38.89083    1.1224537 
      61            0    -362.9138    2.2449075     38.89083    1.1224537 
      62            0    -362.9138    2.2449075     38.89083    1.1224537 
      63            0    -362.9138    2.2449075     38.89083    1.1224537 
Loop time of 0.00178109 on 1 procs for 6 steps with 82 atoms

Minimization stats:
  Stopping criterion = linesearch alpha is zero
  Energy initial, next-to-last, final = 
        -362.913766486     -362.913802577     -362.913802577
  Force two-norm initial, final = 0.0640554 0.0137692
  Force max component initial, final = 0.0306159 0.00272241
  Final line search alpha, max atom move = 6.10352e-05 1.66163e-07
  Iterations, force evaluations = 6 53

Pair  time (%) = 0.00144877 (81.3414)
Neigh time (%) = 0 (0)
Comm  time (%) = 6.92586e-05 (3.88855)
Outpt time (%) = 0.000139823 (7.85042)
Other time (%) = 0.000123246 (6.91966)

Nlocal:    82 ave 82 max 82 min
Histogram: 1 0 0 0 0 0 0 0 0 0
Nghost:    175 ave 175 max 175 min
Histogram: 1 0 0 0 0 0 0 0 0 0
Neighs:    718 ave 718 max 718 min
Histogram: 1 0 0 0 0 0 0 0 0 0

Total # of neighbors = 718
Ave neighs/atom = 8.7561
Neighbor list builds = 0
Dangerous builds = 0
        # write_dump all atom ${dumpfile}
        next i
jump SELF loop1
        displace_atoms upper move ${xstep1} 0.0 0.0 units lattice
        displace_atoms upper move 0.00333333333333333 0.0 0.0 units lattice
        min_style ${style}
        min_style cg
        minimize ${etol} ${ftol} ${maxiter} ${maxeval}
        minimize 1e-12 ${ftol} ${maxiter} ${maxeval}
        minimize 1e-12 1e-08 ${maxiter} ${maxeval}
        minimize 1e-12 1e-08 10000 ${maxeval}
        minimize 1e-12 1e-08 10000 20000
WARNING: Resetting reneighboring criteria during minimization (../min.cpp:168)
Memory usage per processor = 3.35169 Mbytes
Step Temp PotEng Lx Ly Lz 
      63            0   -362.90654    2.2449075    38.890839    1.1224537 
      64            0   -362.90655    2.2449075    38.890839    1.1224537 
      65            0   -362.90655    2.2449075    38.890839    1.1224537 
      66            0   -362.90655    2.2449075    38.890839    1.1224537 
Loop time of 0.000720955 on 1 procs for 3 steps with 82 atoms

Minimization stats:
  Stopping criterion = linesearch alpha is zero
  Energy initial, next-to-last, final = 
        -362.906537602     -362.906549137     -362.906549137
  Force two-norm initial, final = 0.0638344 0.0332557
  Force max component initial, final = 0.0311866 0.0141014
  Final line search alpha, max atom move = 7.62939e-06 1.07585e-07
  Iterations, force evaluations = 3 37

Pair  time (%) = 0.000586794 (81.3911)
Neigh time (%) = 0 (0)
Comm  time (%) = 3.98402e-05 (5.52604)
Outpt time (%) = 1.18591e-05 (1.64492)
Other time (%) = 8.24621e-05 (11.4379)

Nlocal:    82 ave 82 max 82 min
Histogram: 1 0 0 0 0 0 0 0 0 0
Nghost:    175 ave 175 max 175 min
Histogram: 1 0 0 0 0 0 0 0 0 0
Neighs:    718 ave 718 max 718 min
Histogram: 1 0 0 0 0 0 0 0 0 0

Total # of neighbors = 718
Ave neighs/atom = 8.7561
Neighbor list builds = 0
Dangerous builds = 0
        # write_dump all atom ${dumpfile}
        next i
jump SELF loop1
        displace_atoms upper move ${xstep1} 0.0 0.0 units lattice
        displace_atoms upper move 0.00333333333333333 0.0 0.0 units lattice
        min_style ${style}
        min_style cg
        minimize ${etol} ${ftol} ${maxiter} ${maxeval}
        minimize 1e-12 ${ftol} ${maxiter} ${maxeval}
        minimize 1e-12 1e-08 ${maxiter} ${maxeval}
        minimize 1e-12 1e-08 10000 ${maxeval}
        minimize 1e-12 1e-08 10000 20000
WARNING: Resetting reneighboring criteria during minimization (../min.cpp:168)
Memory usage per processor = 3.35169 Mbytes
Step Temp PotEng Lx Ly Lz 
      66            0   -362.89899    2.2449075     38.89084    1.1224537 
      67            0     -362.899    2.2449075     38.89084    1.1224537 
      68            0     -362.899    2.2449075     38.89084    1.1224537 
Loop time of 0.000495071 on 1 procs for 2 steps with 82 atoms

Minimization stats:
  Stopping criterion = linesearch alpha is zero
  Energy initial, next-to-last, final = 
        -362.898989549     -362.899002688     -362.899002688
  Force two-norm initial, final = 0.0617642 0.0271032
  Force max component initial, final = 0.0295986 0.0115507
  Final line search alpha, max atom move = 1.52588e-05 1.7625e-07
  Iterations, force evaluations = 2 25

Pair  time (%) = 0.000402979 (81.3981)
Neigh time (%) = 0 (0)
Comm  time (%) = 4.12555e-05 (8.33324)
Outpt time (%) = 5.91401e-06 (1.19458)
Other time (%) = 4.49234e-05 (9.07412)

Nlocal:    82 ave 82 max 82 min
Histogram: 1 0 0 0 0 0 0 0 0 0
Nghost:    175 ave 175 max 175 min
Histogram: 1 0 0 0 0 0 0 0 0 0
Neighs:    714 ave 714 max 714 min
Histogram: 1 0 0 0 0 0 0 0 0 0

Total # of neighbors = 714
Ave neighs/atom = 8.70732
Neighbor list builds = 0
Dangerous builds = 0
        # write_dump all atom ${dumpfile}
        next i
jump SELF loop1
        displace_atoms upper move ${xstep1} 0.0 0.0 units lattice
        displace_atoms upper move 0.00333333333333333 0.0 0.0 units lattice
        min_style ${style}
        min_style cg
        minimize ${etol} ${ftol} ${maxiter} ${maxeval}
        minimize 1e-12 ${ftol} ${maxiter} ${maxeval}
        minimize 1e-12 1e-08 ${maxiter} ${maxeval}
        minimize 1e-12 1e-08 10000 ${maxeval}
        minimize 1e-12 1e-08 10000 20000
WARNING: Resetting reneighboring criteria during minimization (../min.cpp:168)
Memory usage per processor = 3.35169 Mbytes
Step Temp PotEng Lx Ly Lz 
      68            0   -362.89104    2.2449075    38.890841    1.1224537 
      69            0   -362.89105    2.2449075    38.890841    1.1224537 
      70            0   -362.89106    2.2449075    38.890841    1.1224537 
      71            0   -362.89107    2.2449075    38.890841    1.1224537 
      72            0   -362.89109    2.2449075    38.890841    1.1224537 
      73            0   -362.89109    2.2449075    38.890841    1.1224537 
      74            0   -362.89109    2.2449075    38.890841    1.1224537 
      75            0   -362.89109    2.2449075    38.890841    1.1224537 
Loop time of 0.00112304 on 1 procs for 7 steps with 82 atoms

Minimization stats:
  Stopping criterion = linesearch alpha is zero
  Energy initial, next-to-last, final = 
        -362.891036941     -362.891093435     -362.891093435
  Force two-norm initial, final = 0.0289742 0.0130554
  Force max component initial, final = 0.0115507 0.00333189
  Final line search alpha, max atom move = 6.10352e-05 2.03362e-07
  Iterations, force evaluations = 7 57

Pair  time (%) = 0.000887318 (79.01)
Neigh time (%) = 0 (0)
Comm  time (%) = 4.85942e-05 (4.32701)
Outpt time (%) = 3.91422e-05 (3.48537)
Other time (%) = 0.00014799 (13.1776)

Nlocal:    82 ave 82 max 82 min
Histogram: 1 0 0 0 0 0 0 0 0 0
Nghost:    175 ave 175 max 175 min
Histogram: 1 0 0 0 0 0 0 0 0 0
Neighs:    714 ave 714 max 714 min
Histogram: 1 0 0 0 0 0 0 0 0 0

Total # of neighbors = 714
Ave neighs/atom = 8.70732
Neighbor list builds = 0
Dangerous builds = 0
        # write_dump all atom ${dumpfile}
        next i
jump SELF loop1
        displace_atoms upper move ${xstep1} 0.0 0.0 units lattice
        displace_atoms upper move 0.00333333333333333 0.0 0.0 units lattice
        min_style ${style}
        min_style cg
        minimize ${etol} ${ftol} ${maxiter} ${maxeval}
        minimize 1e-12 ${ftol} ${maxiter} ${maxeval}
        minimize 1e-12 1e-08 ${maxiter} ${maxeval}
        minimize 1e-12 1e-08 10000 ${maxeval}
        minimize 1e-12 1e-08 10000 20000
WARNING: Resetting reneighboring criteria during minimization (../min.cpp:168)
Memory usage per processor = 3.35169 Mbytes
Step Temp PotEng Lx Ly Lz 
      75            0   -362.88271    2.2449075    38.890887    1.1224537 
      76            0   -362.88271    2.2449075    38.890887    1.1224537 
      77            0   -362.88271    2.2449075    38.890887    1.1224537 
Loop time of 0.000562995 on 1 procs for 2 steps with 82 atoms

Minimization stats:
  Stopping criterion = linesearch alpha is zero
  Energy initial, next-to-last, final = 
        -362.882707168     -362.882707313     -362.882707313
  Force two-norm initial, final = 0.0181026 0.0175685
  Force max component initial, final = 0.00629247 0.00589908
  Final line search alpha, max atom move = 3.05176e-05 1.80026e-07
  Iterations, force evaluations = 2 28

Pair  time (%) = 0.00047146 (83.7414)
Neigh time (%) = 0 (0)
Comm  time (%) = 3.44613e-05 (6.12106)
Outpt time (%) = 5.07361e-06 (0.901183)
Other time (%) = 5.20002e-05 (9.23635)

Nlocal:    82 ave 82 max 82 min
Histogram: 1 0 0 0 0 0 0 0 0 0
Nghost:    175 ave 175 max 175 min
Histogram: 1 0 0 0 0 0 0 0 0 0
Neighs:    714 ave 714 max 714 min
Histogram: 1 0 0 0 0 0 0 0 0 0

Total # of neighbors = 714
Ave neighs/atom = 8.70732
Neighbor list builds = 0
Dangerous builds = 0
        # write_dump all atom ${dumpfile}
        next i
jump SELF loop1
        displace_atoms upper move ${xstep1} 0.0 0.0 units lattice
        displace_atoms upper move 0.00333333333333333 0.0 0.0 units lattice
        min_style ${style}
        min_style cg
        minimize ${etol} ${ftol} ${maxiter} ${maxeval}
        minimize 1e-12 ${ftol} ${maxiter} ${maxeval}
        minimize 1e-12 1e-08 ${maxiter} ${maxeval}
        minimize 1e-12 1e-08 10000 ${maxeval}
        minimize 1e-12 1e-08 10000 20000
WARNING: Resetting reneighboring criteria during minimization (../min.cpp:168)
Memory usage per processor = 3.35169 Mbytes
Step Temp PotEng Lx Ly Lz 
      77            0   -362.87391    2.2449075    38.890887    1.1224537 
      78            0   -362.87391    2.2449075    38.890887    1.1224537 
      79            0   -362.87391    2.2449075    38.890887    1.1224537 
      80            0   -362.87391    2.2449075    38.890887    1.1224537 
Loop time of 0.000761103 on 1 procs for 3 steps with 82 atoms

Minimization stats:
  Stopping criterion = linesearch alpha is zero
  Energy initial, next-to-last, final = 
        -362.873906212     -362.873907594     -362.873907594
  Force two-norm initial, final = 0.0285154 0.0182402
  Force max component initial, final = 0.0126857 0.00596828
  Final line search alpha, max atom move = 3.05176e-05 1.82137e-07
  Iterations, force evaluations = 3 38

Pair  time (%) = 0.000621272 (81.6279)
Neigh time (%) = 0 (0)
Comm  time (%) = 5.37969e-05 (7.06829)
Outpt time (%) = 1.39938e-05 (1.83862)
Other time (%) = 7.20394e-05 (9.46514)

Nlocal:    82 ave 82 max 82 min
Histogram: 1 0 0 0 0 0 0 0 0 0
Nghost:    175 ave 175 max 175 min
Histogram: 1 0 0 0 0 0 0 0 0 0
Neighs:    714 ave 714 max 714 min
Histogram: 1 0 0 0 0 0 0 0 0 0

Total # of neighbors = 714
Ave neighs/atom = 8.70732
Neighbor list builds = 0
Dangerous builds = 0
        # write_dump all atom ${dumpfile}
        next i
jump SELF loop1
        displace_atoms upper move ${xstep1} 0.0 0.0 units lattice
        displace_atoms upper move 0.00333333333333333 0.0 0.0 units lattice
        min_style ${style}
        min_style cg
        minimize ${etol} ${ftol} ${maxiter} ${maxeval}
        minimize 1e-12 ${ftol} ${maxiter} ${maxeval}
        minimize 1e-12 1e-08 ${maxiter} ${maxeval}
        minimize 1e-12 1e-08 10000 ${maxeval}
        minimize 1e-12 1e-08 10000 20000
WARNING: Resetting reneighboring criteria during minimization (../min.cpp:168)
Memory usage per processor = 3.35169 Mbytes
Step Temp PotEng Lx Ly Lz 
      80            0   -362.86468    2.2449075    38.890889    1.1224537 
      81            0   -362.86468    2.2449075    38.890889    1.1224537 
Loop time of 0.000363973 on 1 procs for 1 steps with 82 atoms

Minimization stats:
  Stopping criterion = linesearch alpha is zero
  Energy initial, next-to-last, final = 
         -362.86468279      -362.86468279      -362.86468279
  Force two-norm initial, final = 0.0308501 0.0308501
  Force max component initial, final = 0.0137981 0.0137981
  Final line search alpha, max atom move = 7.62939e-06 1.05271e-07
  Iterations, force evaluations = 1 18

Pair  time (%) = 0.000303311 (83.3335)
Neigh time (%) = 0 (0)
Comm  time (%) = 1.9328e-05 (5.31028)
Outpt time (%) = 0 (0)
Other time (%) = 4.13335e-05 (11.3562)

Nlocal:    82 ave 82 max 82 min
Histogram: 1 0 0 0 0 0 0 0 0 0
Nghost:    175 ave 175 max 175 min
Histogram: 1 0 0 0 0 0 0 0 0 0
Neighs:    714 ave 714 max 714 min
Histogram: 1 0 0 0 0 0 0 0 0 0

Total # of neighbors = 714
Ave neighs/atom = 8.70732
Neighbor list builds = 0
Dangerous builds = 0
        # write_dump all atom ${dumpfile}
        next i
jump SELF loop1
        displace_atoms upper move ${xstep1} 0.0 0.0 units lattice
        displace_atoms upper move 0.00333333333333333 0.0 0.0 units lattice
        min_style ${style}
        min_style cg
        minimize ${etol} ${ftol} ${maxiter} ${maxeval}
        minimize 1e-12 ${ftol} ${maxiter} ${maxeval}
        minimize 1e-12 1e-08 ${maxiter} ${maxeval}
        minimize 1e-12 1e-08 10000 ${maxeval}
        minimize 1e-12 1e-08 10000 20000
WARNING: Resetting reneighboring criteria during minimization (../min.cpp:168)
Memory usage per processor = 3.35169 Mbytes
Step Temp PotEng Lx Ly Lz 
      81            0   -362.85504    2.2449075    38.890889    1.1224537 
      82            0   -362.85505    2.2449075    38.890889    1.1224537 
      83            0   -362.85505    2.2449075    38.890889    1.1224537 
Loop time of 0.000583942 on 1 procs for 2 steps with 82 atoms

Minimization stats:
  Stopping criterion = linesearch alpha is zero
  Energy initial, next-to-last, final = 
        -362.855043667     -362.855046738     -362.855046738
  Force two-norm initial, final = 0.0473355 0.036806
  Force max component initial, final = 0.0226413 0.0168062
  Final line search alpha, max atom move = 7.62939e-06 1.28221e-07
  Iterations, force evaluations = 2 28

Pair  time (%) = 0.000480568 (82.2972)
Neigh time (%) = 0 (0)
Comm  time (%) = 3.82854e-05 (6.55637)
Outpt time (%) = 8.98761e-06 (1.53913)
Other time (%) = 5.61011e-05 (9.60732)

Nlocal:    82 ave 82 max 82 min
Histogram: 1 0 0 0 0 0 0 0 0 0
Nghost:    175 ave 175 max 175 min
Histogram: 1 0 0 0 0 0 0 0 0 0
Neighs:    714 ave 714 max 714 min
Histogram: 1 0 0 0 0 0 0 0 0 0

Total # of neighbors = 714
Ave neighs/atom = 8.70732
Neighbor list builds = 0
Dangerous builds = 0
        # write_dump all atom ${dumpfile}
        next i
jump SELF loop1
        displace_atoms upper move ${xstep1} 0.0 0.0 units lattice
        displace_atoms upper move 0.00333333333333333 0.0 0.0 units lattice
        min_style ${style}
        min_style cg
        minimize ${etol} ${ftol} ${maxiter} ${maxeval}
        minimize 1e-12 ${ftol} ${maxiter} ${maxeval}
        minimize 1e-12 1e-08 ${maxiter} ${maxeval}
        minimize 1e-12 1e-08 10000 ${maxeval}
        minimize 1e-12 1e-08 10000 20000
WARNING: Resetting reneighboring criteria during minimization (../min.cpp:168)
Memory usage per processor = 3.35169 Mbytes
Step Temp PotEng Lx Ly Lz 
      83            0   -362.84498    2.2449075     38.89089    1.1224537 
      84            0   -362.84499    2.2449075     38.89089    1.1224537 
      85            0   -362.84499    2.2449075     38.89089    1.1224537 
Loop time of 0.000501948 on 1 procs for 2 steps with 82 atoms

Minimization stats:
  Stopping criterion = linesearch alpha is zero
  Energy initial, next-to-last, final = 
        -362.844983975     -362.844993788     -362.844993788
  Force two-norm initial, final = 0.0554615 0.0233221
  Force max component initial, final = 0.0266981 0.00970756
  Final line search alpha, max atom move = 1.52588e-05 1.48126e-07
  Iterations, force evaluations = 2 25

Pair  time (%) = 0.000400674 (79.8237)
Neigh time (%) = 0 (0)
Comm  time (%) = 4.30302e-05 (8.57265)
Outpt time (%) = 8.9762e-06 (1.78827)
Other time (%) = 4.92681e-05 (9.81538)

Nlocal:    82 ave 82 max 82 min
Histogram: 1 0 0 0 0 0 0 0 0 0
Nghost:    175 ave 175 max 175 min
Histogram: 1 0 0 0 0 0 0 0 0 0
Neighs:    714 ave 714 max 714 min
Histogram: 1 0 0 0 0 0 0 0 0 0

Total # of neighbors = 714
Ave neighs/atom = 8.70732
Neighbor list builds = 0
Dangerous builds = 0
        # write_dump all atom ${dumpfile}
        next i
jump SELF loop1
        displace_atoms upper move ${xstep1} 0.0 0.0 units lattice
        displace_atoms upper move 0.00333333333333333 0.0 0.0 units lattice
        min_style ${style}
        min_style cg
        minimize ${etol} ${ftol} ${maxiter} ${maxeval}
        minimize 1e-12 ${ftol} ${maxiter} ${maxeval}
        minimize 1e-12 1e-08 ${maxiter} ${maxeval}
        minimize 1e-12 1e-08 10000 ${maxeval}
        minimize 1e-12 1e-08 10000 20000
WARNING: Resetting reneighboring criteria during minimization (../min.cpp:168)
Memory usage per processor = 3.35169 Mbytes
Step Temp PotEng Lx Ly Lz 
      85            0   -362.83453    2.2449075    38.890894    1.1224537 
      86            0   -362.83453    2.2449075    38.890894    1.1224537 
      87            0   -362.83454    2.2449075    38.890894    1.1224537 
      88            0   -362.83455    2.2449075    38.890894    1.1224537 
      89            0   -362.83456    2.2449075    38.890894    1.1224537 
      90            0   -362.83457    2.2449075    38.890894    1.1224537 
      91            0   -362.83457    2.2449075    38.890894    1.1224537 
      92            0   -362.83458    2.2449075    38.890894    1.1224537 
      93            0   -362.83458    2.2449075    38.890894    1.1224537 
Loop time of 0.00122506 on 1 procs for 8 steps with 82 atoms

Minimization stats:
  Stopping criterion = linesearch alpha is zero
  Energy initial, next-to-last, final = 
        -362.834525585     -362.834575676     -362.834575676
  Force two-norm initial, final = 0.0308274 0.014348
  Force max component initial, final = 0.0101034 0.00322613
  Final line search alpha, max atom move = 3.05176e-05 9.84536e-08
  Iterations, force evaluations = 8 66

Pair  time (%) = 0.000988988 (80.7299)
Neigh time (%) = 0 (0)
Comm  time (%) = 6.54298e-05 (5.34096)
Outpt time (%) = 3.17784e-05 (2.59403)
Other time (%) = 0.000138862 (11.3351)

Nlocal:    82 ave 82 max 82 min
Histogram: 1 0 0 0 0 0 0 0 0 0
Nghost:    175 ave 175 max 175 min
Histogram: 1 0 0 0 0 0 0 0 0 0
Neighs:    714 ave 714 max 714 min
Histogram: 1 0 0 0 0 0 0 0 0 0

Total # of neighbors = 714
Ave neighs/atom = 8.70732
Neighbor list builds = 0
Dangerous builds = 0
        # write_dump all atom ${dumpfile}
        next i
jump SELF loop1
        displace_atoms upper move ${xstep1} 0.0 0.0 units lattice
        displace_atoms upper move 0.00333333333333333 0.0 0.0 units lattice
        min_style ${style}
        min_style cg
        minimize ${etol} ${ftol} ${maxiter} ${maxeval}
        minimize 1e-12 ${ftol} ${maxiter} ${maxeval}
        minimize 1e-12 1e-08 ${maxiter} ${maxeval}
        minimize 1e-12 1e-08 10000 ${maxeval}
        minimize 1e-12 1e-08 10000 20000
WARNING: Resetting reneighboring criteria during minimization (../min.cpp:168)
Memory usage per processor = 3.35169 Mbytes
Step Temp PotEng Lx Ly Lz 
      93            0    -362.8237    2.2449075    38.891031    1.1224537 
      94            0   -362.82371    2.2449075    38.891031    1.1224537 
      95            0   -362.82371    2.2449075    38.891031    1.1224537 
      96            0   -362.82371    2.2449075    38.891031    1.1224537 
Loop time of 0.000669966 on 1 procs for 3 steps with 82 atoms

Minimization stats:
  Stopping criterion = linesearch alpha is zero
  Energy initial, next-to-last, final = 
        -362.823704961     -362.823707832     -362.823707832
  Force two-norm initial, final = 0.0216691 0.0142258
  Force max component initial, final = 0.00865464 0.0034316
  Final line search alpha, max atom move = 6.10352e-05 2.09448e-07
  Iterations, force evaluations = 3 35

Pair  time (%) = 0.000534097 (79.7201)
Neigh time (%) = 0 (0)
Comm  time (%) = 4.68531e-05 (6.99336)
Outpt time (%) = 1.2145e-05 (1.81278)
Other time (%) = 7.68706e-05 (11.4738)

Nlocal:    82 ave 82 max 82 min
Histogram: 1 0 0 0 0 0 0 0 0 0
Nghost:    175 ave 175 max 175 min
Histogram: 1 0 0 0 0 0 0 0 0 0
Neighs:    714 ave 714 max 714 min
Histogram: 1 0 0 0 0 0 0 0 0 0

Total # of neighbors = 714
Ave neighs/atom = 8.70732
Neighbor list builds = 0
Dangerous builds = 0
        # write_dump all atom ${dumpfile}
        next i
jump SELF loop1
        displace_atoms upper move ${xstep1} 0.0 0.0 units lattice
        displace_atoms upper move 0.00333333333333333 0.0 0.0 units lattice
        min_style ${style}
        min_style cg
        minimize ${etol} ${ftol} ${maxiter} ${maxeval}
        minimize 1e-12 ${ftol} ${maxiter} ${maxeval}
        minimize 1e-12 1e-08 ${maxiter} ${maxeval}
        minimize 1e-12 1e-08 10000 ${maxeval}
        minimize 1e-12 1e-08 10000 20000
WARNING: Resetting reneighboring criteria during minimization (../min.cpp:168)
Memory usage per processor = 3.35169 Mbytes
Step Temp PotEng Lx Ly Lz 
      96            0   -362.81242    2.2449075    38.891036    1.1224537 
      97            0   -362.81242    2.2449075    38.891036    1.1224537 
      98            0   -362.81243    2.2449075    38.891036    1.1224537 
      99            0   -362.81243    2.2449075    38.891036    1.1224537 
     100            0   -362.81244    2.2449075    38.891036    1.1224537 
     101            0   -362.81244    2.2449075    38.891036    1.1224537 
     102            0   -362.81244    2.2449075    38.891036    1.1224537 
     103            0   -362.81244    2.2449075    38.891036    1.1224537 
Loop time of 0.00115501 on 1 procs for 7 steps with 82 atoms

Minimization stats:
  Stopping criterion = linesearch alpha is zero
  Energy initial, next-to-last, final = 
        -362.812420236     -362.812443216     -362.812443216
  Force two-norm initial, final = 0.0345505 0.013522
  Force max component initial, final = 0.0161132 0.00347381
  Final line search alpha, max atom move = 6.10352e-05 2.12024e-07
  Iterations, force evaluations = 7 60

Pair  time (%) = 0.000915141 (79.2323)
Neigh time (%) = 0 (0)
Comm  time (%) = 8.64526e-05 (7.485)
Outpt time (%) = 3.89731e-05 (3.37426)
Other time (%) = 0.000114444 (9.90849)

Nlocal:    82 ave 82 max 82 min
Histogram: 1 0 0 0 0 0 0 0 0 0
Nghost:    175 ave 175 max 175 min
Histogram: 1 0 0 0 0 0 0 0 0 0
Neighs:    714 ave 714 max 714 min
Histogram: 1 0 0 0 0 0 0 0 0 0

Total # of neighbors = 714
Ave neighs/atom = 8.70732
Neighbor list builds = 0
Dangerous builds = 0
        # write_dump all atom ${dumpfile}
        next i
jump SELF loop1
        displace_atoms upper move ${xstep1} 0.0 0.0 units lattice
        displace_atoms upper move 0.00333333333333333 0.0 0.0 units lattice
        min_style ${style}
        min_style cg
        minimize ${etol} ${ftol} ${maxiter} ${maxeval}
        minimize 1e-12 ${ftol} ${maxiter} ${maxeval}
        minimize 1e-12 1e-08 ${maxiter} ${maxeval}
        minimize 1e-12 1e-08 10000 ${maxeval}
        minimize 1e-12 1e-08 10000 20000
WARNING: Resetting reneighboring criteria during minimization (../min.cpp:168)
Memory usage per processor = 3.35169 Mbytes
Step Temp PotEng Lx Ly Lz 
     103            0   -362.80075    2.2449075    38.891195    1.1224537 
     104            0   -362.80076    2.2449075    38.891195    1.1224537 
     105            0   -362.80077    2.2449075    38.891195    1.1224537 
     106            0   -362.80077    2.2449075    38.891195    1.1224537 
     107            0   -362.80077    2.2449075    38.891195    1.1224537 
     108            0   -362.80077    2.2449075    38.891195    1.1224537 
Loop time of 0.000929012 on 1 procs for 5 steps with 82 atoms

Minimization stats:
  Stopping criterion = linesearch alpha is zero
  Energy initial, next-to-last, final = 
        -362.800754035     -362.800769394     -362.800769394
  Force two-norm initial, final = 0.0360519 0.0112028
  Force max component initial, final = 0.0170679 0.00172318
  Final line search alpha, max atom move = 6.10352e-05 1.05174e-07
  Iterations, force evaluations = 5 45

Pair  time (%) = 0.000745811 (80.2801)
Neigh time (%) = 0 (0)
Comm  time (%) = 4.54803e-05 (4.89556)
Outpt time (%) = 2.31465e-05 (2.49152)
Other time (%) = 0.000114574 (12.3329)

Nlocal:    82 ave 82 max 82 min
Histogram: 1 0 0 0 0 0 0 0 0 0
Nghost:    175 ave 175 max 175 min
Histogram: 1 0 0 0 0 0 0 0 0 0
Neighs:    714 ave 714 max 714 min
Histogram: 1 0 0 0 0 0 0 0 0 0

Total # of neighbors = 714
Ave neighs/atom = 8.70732
Neighbor list builds = 0
Dangerous builds = 0
        # write_dump all atom ${dumpfile}
        next i
jump SELF loop1
        displace_atoms upper move ${xstep1} 0.0 0.0 units lattice
        displace_atoms upper move 0.00333333333333333 0.0 0.0 units lattice
        min_style ${style}
        min_style cg
        minimize ${etol} ${ftol} ${maxiter} ${maxeval}
        minimize 1e-12 ${ftol} ${maxiter} ${maxeval}
        minimize 1e-12 1e-08 ${maxiter} ${maxeval}
        minimize 1e-12 1e-08 10000 ${maxeval}
        minimize 1e-12 1e-08 10000 20000
WARNING: Resetting reneighboring criteria during minimization (../min.cpp:168)
Memory usage per processor = 3.35169 Mbytes
Step Temp PotEng Lx Ly Lz 
     108            0   -362.78868    2.2449075    38.891264    1.1224537 
     109            0   -362.78868    2.2449075    38.891264    1.1224537 
     110            0   -362.78868    2.2449075    38.891264    1.1224537 
     111            0   -362.78869    2.2449075    38.891264    1.1224537 
     112            0   -362.78869    2.2449075    38.891264    1.1224537 
     113            0    -362.7887    2.2449075    38.891264    1.1224537 
     114            0    -362.7887    2.2449075    38.891264    1.1224537 
     115            0    -362.7887    2.2449075    38.891264    1.1224537 
Loop time of 0.00131204 on 1 procs for 7 steps with 82 atoms

Minimization stats:
  Stopping criterion = linesearch alpha is zero
  Energy initial, next-to-last, final = 
        -362.788678718     -362.788697183     -362.788697183
  Force two-norm initial, final = 0.0314435 0.011887
  Force max component initial, final = 0.014692 0.00227831
  Final line search alpha, max atom move = 6.10352e-05 1.39057e-07
  Iterations, force evaluations = 7 61

Pair  time (%) = 0.00105733 (80.5863)
Neigh time (%) = 0 (0)
Comm  time (%) = 9.81617e-05 (7.48161)
Outpt time (%) = 4.04336e-05 (3.08173)
Other time (%) = 0.00011612 (8.85031)

Nlocal:    82 ave 82 max 82 min
Histogram: 1 0 0 0 0 0 0 0 0 0
Nghost:    175 ave 175 max 175 min
Histogram: 1 0 0 0 0 0 0 0 0 0
Neighs:    714 ave 714 max 714 min
Histogram: 1 0 0 0 0 0 0 0 0 0

Total # of neighbors = 714
Ave neighs/atom = 8.70732
Neighbor list builds = 0
Dangerous builds = 0
        # write_dump all atom ${dumpfile}
        next i
jump SELF loop1
        displace_atoms upper move ${xstep1} 0.0 0.0 units lattice
        displace_atoms upper move 0.00333333333333333 0.0 0.0 units lattice
        min_style ${style}
        min_style cg
        minimize ${etol} ${ftol} ${maxiter} ${maxeval}
        minimize 1e-12 ${ftol} ${maxiter} ${maxeval}
        minimize 1e-12 1e-08 ${maxiter} ${maxeval}
        minimize 1e-12 1e-08 10000 ${maxeval}
        minimize 1e-12 1e-08 10000 20000
WARNING: Resetting reneighboring criteria during minimization (../min.cpp:168)
Memory usage per processor = 3.35169 Mbytes
Step Temp PotEng Lx Ly Lz 
     115            0   -362.77621    2.2449075     38.89141    1.1224537 
     116            0   -362.77621    2.2449075     38.89141    1.1224537 
     117            0   -362.77622    2.2449075     38.89141    1.1224537 
     118            0   -362.77622    2.2449075     38.89141    1.1224537 
     119            0   -362.77623    2.2449075     38.89141    1.1224537 
     120            0   -362.77623    2.2449075     38.89141    1.1224537 
Loop time of 0.00170311 on 1 procs for 5 steps with 82 atoms

Minimization stats:
  Stopping criterion = linesearch alpha is zero
  Energy initial, next-to-last, final = 
        -362.776207801     -362.776226342     -362.776226342
  Force two-norm initial, final = 0.0337861 0.0128346
  Force max component initial, final = 0.0158189 0.0030129
  Final line search alpha, max atom move = 3.05176e-05 9.19464e-08
  Iterations, force evaluations = 5 44

Pair  time (%) = 0.000684451 (40.1883)
Neigh time (%) = 0 (0)
Comm  time (%) = 0.000876749 (51.4792)
Outpt time (%) = 2.19939e-05 (1.29139)
Other time (%) = 0.000119917 (7.04107)

Nlocal:    82 ave 82 max 82 min
Histogram: 1 0 0 0 0 0 0 0 0 0
Nghost:    175 ave 175 max 175 min
Histogram: 1 0 0 0 0 0 0 0 0 0
Neighs:    714 ave 714 max 714 min
Histogram: 1 0 0 0 0 0 0 0 0 0

Total # of neighbors = 714
Ave neighs/atom = 8.70732
Neighbor list builds = 0
Dangerous builds = 0
        # write_dump all atom ${dumpfile}
        next i
jump SELF loop1
        displace_atoms upper move ${xstep1} 0.0 0.0 units lattice
        displace_atoms upper move 0.00333333333333333 0.0 0.0 units lattice
        min_style ${style}
        min_style cg
        minimize ${etol} ${ftol} ${maxiter} ${maxeval}
        minimize 1e-12 ${ftol} ${maxiter} ${maxeval}
        minimize 1e-12 1e-08 ${maxiter} ${maxeval}
        minimize 1e-12 1e-08 10000 ${maxeval}
        minimize 1e-12 1e-08 10000 20000
WARNING: Resetting reneighboring criteria during minimization (../min.cpp:168)
Memory usage per processor = 3.35169 Mbytes
Step Temp PotEng Lx Ly Lz 
     120            0   -362.76334    2.2449075    38.891561    1.1224537 
     121            0   -362.76335    2.2449075    38.891561    1.1224537 
     122            0   -362.76335    2.2449075    38.891561    1.1224537 
     123            0   -362.76335    2.2449075    38.891561    1.1224537 
     124            0   -362.76335    2.2449075    38.891561    1.1224537 
Loop time of 0.00106909 on 1 procs for 4 steps with 82 atoms

Minimization stats:
  Stopping criterion = linesearch alpha is zero
  Energy initial, next-to-last, final = 
        -362.763343767     -362.763351733     -362.763351733
  Force two-norm initial, final = 0.0392373 0.016151
  Force max component initial, final = 0.0186921 0.00539428
  Final line search alpha, max atom move = 3.05176e-05 1.6462e-07
  Iterations, force evaluations = 4 46

Pair  time (%) = 0.000742554 (69.4566)
Neigh time (%) = 0 (0)
Comm  time (%) = 9.64559e-05 (9.02224)
Outpt time (%) = 0.00010416 (9.74287)
Other time (%) = 0.000125921 (11.7783)

Nlocal:    82 ave 82 max 82 min
Histogram: 1 0 0 0 0 0 0 0 0 0
Nghost:    175 ave 175 max 175 min
Histogram: 1 0 0 0 0 0 0 0 0 0
Neighs:    714 ave 714 max 714 min
Histogram: 1 0 0 0 0 0 0 0 0 0

Total # of neighbors = 714
Ave neighs/atom = 8.70732
Neighbor list builds = 0
Dangerous builds = 0
        # write_dump all atom ${dumpfile}
        next i
jump SELF loop1
        displace_atoms upper move ${xstep1} 0.0 0.0 units lattice
        displace_atoms upper move 0.00333333333333333 0.0 0.0 units lattice
        min_style ${style}
        min_style cg
        minimize ${etol} ${ftol} ${maxiter} ${maxeval}
        minimize 1e-12 ${ftol} ${maxiter} ${maxeval}
        minimize 1e-12 1e-08 ${maxiter} ${maxeval}
        minimize 1e-12 1e-08 10000 ${maxeval}
        minimize 1e-12 1e-08 10000 20000
WARNING: Resetting reneighboring criteria during minimization (../min.cpp:168)
Memory usage per processor = 3.35169 Mbytes
Step Temp PotEng Lx Ly Lz 
     124            0   -362.75007    2.2449075    38.891572    1.1224537 
     125            0   -362.75008    2.2449075    38.891572    1.1224537 
     126            0   -362.75008    2.2449075    38.891572    1.1224537 
     127            0   -362.75009    2.2449075    38.891572    1.1224537 
     128            0   -362.75009    2.2449075    38.891572    1.1224537 
     129            0    -362.7501    2.2449075    38.891572    1.1224537 
     130            0   -362.75011    2.2449075    38.891572    1.1224537 
     131            0   -362.75011    2.2449075    38.891572    1.1224537 
Loop time of 0.000827925 on 1 procs for 7 steps with 82 atoms

Minimization stats:
  Stopping criterion = linesearch alpha is zero
  Energy initial, next-to-last, final = 
        -362.750071689     -362.750108401     -362.750108401
  Force two-norm initial, final = 0.0468619 0.0130275
  Force max component initial, final = 0.0226481 0.00347015
  Final line search alpha, max atom move = 3.05176e-05 1.05901e-07
  Iterations, force evaluations = 7 59

Pair  time (%) = 0.000656541 (79.2995)
Neigh time (%) = 0 (0)
Comm  time (%) = 5.21471e-05 (6.29853)
Outpt time (%) = 2.29873e-05 (2.77649)
Other time (%) = 9.62501e-05 (11.6255)

Nlocal:    82 ave 82 max 82 min
Histogram: 1 0 0 0 0 0 0 0 0 0
Nghost:    175 ave 175 max 175 min
Histogram: 1 0 0 0 0 0 0 0 0 0
Neighs:    714 ave 714 max 714 min
Histogram: 1 0 0 0 0 0 0 0 0 0

Total # of neighbors = 714
Ave neighs/atom = 8.70732
Neighbor list builds = 0
Dangerous builds = 0
        # write_dump all atom ${dumpfile}
        next i
jump SELF loop1
        displace_atoms upper move ${xstep1} 0.0 0.0 units lattice
        displace_atoms upper move 0.00333333333333333 0.0 0.0 units lattice
        min_style ${style}
        min_style cg
        minimize ${etol} ${ftol} ${maxiter} ${maxeval}
        minimize 1e-12 ${ftol} ${maxiter} ${maxeval}
        minimize 1e-12 1e-08 ${maxiter} ${maxeval}
        minimize 1e-12 1e-08 10000 ${maxeval}
        minimize 1e-12 1e-08 10000 20000
WARNING: Resetting reneighboring criteria during minimization (../min.cpp:168)
[...]
        minimize 1e-12 1e-08 ${maxiter} ${maxeval}
        minimize 1e-12 1e-08 10000 ${maxeval}
        minimize 1e-12 1e-08 10000 20000
WARNING: Resetting reneighboring criteria during minimization (../min.cpp:168)
Memory usage per processor = 3.35169 Mbytes
Step Temp PotEng Lx Ly Lz 
     982            0   -362.98265    2.2449075    38.906975    1.1224537 
     983            0   -362.98266    2.2449075    38.906975    1.1224537 
     984            0   -362.98266    2.2449075    38.906975    1.1224537 
Loop time of 0.000456975 on 1 procs for 2 steps with 82 atoms

Minimization stats:
  Stopping criterion = linesearch alpha is zero
  Energy initial, next-to-last, final = 
        -362.982647014     -362.982657488     -362.982657488
  Force two-norm initial, final = 0.0313644 0.028186
  Force max component initial, final = 0.0144058 0.0108178
  Final line search alpha, max atom move = 0.00012207 1.32053e-06
  Iterations, force evaluations = 2 21

Pair  time (%) = 0.000374908 (82.0413)
Neigh time (%) = 0 (0)
Comm  time (%) = 2.79102e-05 (6.10761)
Outpt time (%) = 6.04906e-06 (1.32372)
Other time (%) = 4.81075e-05 (10.5274)

Nlocal:    82 ave 82 max 82 min
Histogram: 1 0 0 0 0 0 0 0 0 0
Nghost:    185 ave 185 max 185 min
Histogram: 1 0 0 0 0 0 0 0 0 0
Neighs:    718 ave 718 max 718 min
Histogram: 1 0 0 0 0 0 0 0 0 0

Total # of neighbors = 718
Ave neighs/atom = 8.7561
Neighbor list builds = 0
Dangerous builds = 0
        # write_dump all atom ${dumpfile}
        next i
jump SELF loop1
        displace_atoms upper move ${xstep1} 0.0 0.0 units lattice
        displace_atoms upper move 0.00333333333333333 0.0 0.0 units lattice
        min_style ${style}
        min_style cg
        minimize ${etol} ${ftol} ${maxiter} ${maxeval}
        minimize 1e-12 ${ftol} ${maxiter} ${maxeval}
        minimize 1e-12 1e-08 ${maxiter} ${maxeval}
        minimize 1e-12 1e-08 10000 ${maxeval}
        minimize 1e-12 1e-08 10000 20000
WARNING: Resetting reneighboring criteria during minimization (../min.cpp:168)
Memory usage per processor = 3.35169 Mbytes
Step Temp PotEng Lx Ly Lz 
     984            0   -362.98583    2.2449075    38.906943    1.1224537 
     985            0   -362.98584    2.2449075    38.906943    1.1224537 
     986            0   -362.98585    2.2449075    38.906943    1.1224537 
     987            0   -362.98586    2.2449075    38.906943    1.1224537 
     988            0   -362.98588    2.2449075    38.906943    1.1224537 
     989            0   -362.98588    2.2449075    38.906943    1.1224537 
     990            0   -362.98588    2.2449075    38.906943    1.1224537 
     991            0   -362.98588    2.2449075    38.906943    1.1224537 
     992            0   -362.98588    2.2449075    38.906943    1.1224537 
Loop time of 0.00169498 on 1 procs for 8 steps with 82 atoms

Minimization stats:
  Stopping criterion = linesearch alpha is zero
  Energy initial, next-to-last, final = 
        -362.985834309     -362.985879794     -362.985879794
  Force two-norm initial, final = 0.0187415 0.0358912
  Force max component initial, final = 0.00723245 0.0129254
  Final line search alpha, max atom move = 7.62939e-06 9.86126e-08
  Iterations, force evaluations = 8 80

Pair  time (%) = 0.00135893 (80.1742)
Neigh time (%) = 0 (0)
Comm  time (%) = 0.00011348 (6.69508)
Outpt time (%) = 4.31242e-05 (2.54424)
Other time (%) = 0.000179438 (10.5864)

Nlocal:    82 ave 82 max 82 min
Histogram: 1 0 0 0 0 0 0 0 0 0
Nghost:    185 ave 185 max 185 min
Histogram: 1 0 0 0 0 0 0 0 0 0
Neighs:    718 ave 718 max 718 min
Histogram: 1 0 0 0 0 0 0 0 0 0

Total # of neighbors = 718
Ave neighs/atom = 8.7561
Neighbor list builds = 0
Dangerous builds = 0
        # write_dump all atom ${dumpfile}
        next i
jump SELF loop1
        displace_atoms upper move ${xstep1} 0.0 0.0 units lattice
        displace_atoms upper move 0.00333333333333333 0.0 0.0 units lattice
        min_style ${style}
        min_style cg
        minimize ${etol} ${ftol} ${maxiter} ${maxeval}
        minimize 1e-12 ${ftol} ${maxiter} ${maxeval}
        minimize 1e-12 1e-08 ${maxiter} ${maxeval}
        minimize 1e-12 1e-08 10000 ${maxeval}
        minimize 1e-12 1e-08 10000 20000
WARNING: Resetting reneighboring criteria during minimization (../min.cpp:168)
Memory usage per processor = 3.35169 Mbytes
Step Temp PotEng Lx Ly Lz 
     992            0   -362.98874    2.2449075    38.905698    1.1224537 
     993            0   -362.98874    2.2449075    38.905698    1.1224537 
Loop time of 0.000377077 on 1 procs for 1 steps with 82 atoms

Minimization stats:
  Stopping criterion = linesearch alpha is zero
  Energy initial, next-to-last, final = 
        -362.988743629     -362.988743629     -362.988743629
  Force two-norm initial, final = 0.0401773 0.0401773
  Force max component initial, final = 0.0129254 0.0129254
  Final line search alpha, max atom move = 7.62939e-06 9.86126e-08
  Iterations, force evaluations = 1 18

Pair  time (%) = 0.000311086 (82.4993)
Neigh time (%) = 0 (0)
Comm  time (%) = 2.55863e-05 (6.78544)
Outpt time (%) = 0 (0)
Other time (%) = 4.04047e-05 (10.7152)

Nlocal:    82 ave 82 max 82 min
Histogram: 1 0 0 0 0 0 0 0 0 0
Nghost:    185 ave 185 max 185 min
Histogram: 1 0 0 0 0 0 0 0 0 0
Neighs:    718 ave 718 max 718 min
Histogram: 1 0 0 0 0 0 0 0 0 0

Total # of neighbors = 718
Ave neighs/atom = 8.7561
Neighbor list builds = 0
Dangerous builds = 0
        # write_dump all atom ${dumpfile}
        next i
jump SELF loop1
        displace_atoms upper move ${xstep1} 0.0 0.0 units lattice
        displace_atoms upper move 0.00333333333333333 0.0 0.0 units lattice
        min_style ${style}
        min_style cg
        minimize ${etol} ${ftol} ${maxiter} ${maxeval}
        minimize 1e-12 ${ftol} ${maxiter} ${maxeval}
        minimize 1e-12 1e-08 ${maxiter} ${maxeval}
        minimize 1e-12 1e-08 10000 ${maxeval}
        minimize 1e-12 1e-08 10000 20000
WARNING: Resetting reneighboring criteria during minimization (../min.cpp:168)
Memory usage per processor = 3.35169 Mbytes
Step Temp PotEng Lx Ly Lz 
     993            0   -362.99127    2.2449075    38.905698    1.1224537 
     994            0   -362.99127    2.2449075    38.905698    1.1224537 
Loop time of 0.00040902 on 1 procs for 1 steps with 82 atoms

Minimization stats:
  Stopping criterion = linesearch alpha is zero
  Energy initial, next-to-last, final = 
        -362.991273668     -362.991273668     -362.991273668
  Force two-norm initial, final = 0.0533499 0.0533499
  Force max component initial, final = 0.0199146 0.0199146
  Final line search alpha, max atom move = 3.8147e-06 7.59683e-08
  Iterations, force evaluations = 1 19

Pair  time (%) = 0.000342002 (83.6151)
Neigh time (%) = 0 (0)
Comm  time (%) = 2.4001e-05 (5.86792)
Outpt time (%) = 0 (0)
Other time (%) = 4.30167e-05 (10.517)

Nlocal:    82 ave 82 max 82 min
Histogram: 1 0 0 0 0 0 0 0 0 0
Nghost:    185 ave 185 max 185 min
Histogram: 1 0 0 0 0 0 0 0 0 0
Neighs:    718 ave 718 max 718 min
Histogram: 1 0 0 0 0 0 0 0 0 0

Total # of neighbors = 718
Ave neighs/atom = 8.7561
Neighbor list builds = 0
Dangerous builds = 0
        # write_dump all atom ${dumpfile}
        next i
jump SELF loop1
        displace_atoms upper move ${xstep1} 0.0 0.0 units lattice
        displace_atoms upper move 0.00333333333333333 0.0 0.0 units lattice
        min_style ${style}
        min_style cg
        minimize ${etol} ${ftol} ${maxiter} ${maxeval}
        minimize 1e-12 ${ftol} ${maxiter} ${maxeval}
        minimize 1e-12 1e-08 ${maxiter} ${maxeval}
        minimize 1e-12 1e-08 10000 ${maxeval}
        minimize 1e-12 1e-08 10000 20000
WARNING: Resetting reneighboring criteria during minimization (../min.cpp:168)
Memory usage per processor = 3.35169 Mbytes
Step Temp PotEng Lx Ly Lz 
     994            0   -362.99347    2.2449075    38.905698    1.1224537 
     995            0   -362.99347    2.2449075    38.905698    1.1224537 
     996            0   -362.99347    2.2449075    38.905698    1.1224537 
Loop time of 0.000478095 on 1 procs for 2 steps with 82 atoms

Minimization stats:
  Stopping criterion = linesearch alpha is zero
  Energy initial, next-to-last, final = 
        -362.993465845     -362.993465958     -362.993465958
  Force two-norm initial, final = 0.0680375 0.0675609
  Force max component initial, final = 0.029028 0.028805
  Final line search alpha, max atom move = 1.90735e-06 5.49411e-08
  Iterations, force evaluations = 2 35

Pair  time (%) = 0.00039275 (82.1489)
Neigh time (%) = 0 (0)
Comm  time (%) = 2.99512e-05 (6.2647)
Outpt time (%) = 3.90084e-06 (0.815913)
Other time (%) = 5.14934e-05 (10.7705)

Nlocal:    82 ave 82 max 82 min
Histogram: 1 0 0 0 0 0 0 0 0 0
Nghost:    185 ave 185 max 185 min
Histogram: 1 0 0 0 0 0 0 0 0 0
Neighs:    718 ave 718 max 718 min
Histogram: 1 0 0 0 0 0 0 0 0 0

Total # of neighbors = 718
Ave neighs/atom = 8.7561
Neighbor list builds = 0
Dangerous builds = 0
        # write_dump all atom ${dumpfile}
        next i
jump SELF loop1
        displace_atoms upper move ${xstep1} 0.0 0.0 units lattice
        displace_atoms upper move 0.00333333333333333 0.0 0.0 units lattice
        min_style ${style}
        min_style cg
        minimize ${etol} ${ftol} ${maxiter} ${maxeval}
        minimize 1e-12 ${ftol} ${maxiter} ${maxeval}
        minimize 1e-12 1e-08 ${maxiter} ${maxeval}
        minimize 1e-12 1e-08 10000 ${maxeval}
        minimize 1e-12 1e-08 10000 20000
WARNING: Resetting reneighboring criteria during minimization (../min.cpp:168)
Memory usage per processor = 3.35169 Mbytes
Step Temp PotEng Lx Ly Lz 
     996            0   -362.99532    2.2449075    38.905697    1.1224537 
     997            0   -362.99535    2.2449075    38.905697    1.1224537 
     998            0   -362.99535    2.2449075    38.905697    1.1224537 
Loop time of 0.000546941 on 1 procs for 2 steps with 82 atoms

Minimization stats:
  Stopping criterion = linesearch alpha is zero
  Energy initial, next-to-last, final = 
        -362.995323225     -362.995345912     -362.995345912
  Force two-norm initial, final = 0.0811282 0.0210628
  Force max component initial, final = 0.0365283 0.00627727
  Final line search alpha, max atom move = 1.52588e-05 9.57836e-08
  Iterations, force evaluations = 2 25

Pair  time (%) = 0.000449575 (82.1981)
Neigh time (%) = 0 (0)
Comm  time (%) = 3.01955e-05 (5.52079)
Outpt time (%) = 9.06037e-06 (1.65655)
Other time (%) = 5.81101e-05 (10.6246)

Nlocal:    82 ave 82 max 82 min
Histogram: 1 0 0 0 0 0 0 0 0 0
Nghost:    185 ave 185 max 185 min
Histogram: 1 0 0 0 0 0 0 0 0 0
Neighs:    718 ave 718 max 718 min
Histogram: 1 0 0 0 0 0 0 0 0 0

Total # of neighbors = 718
Ave neighs/atom = 8.7561
Neighbor list builds = 0
Dangerous builds = 0
        # write_dump all atom ${dumpfile}
        next i
jump SELF loop1
        displace_atoms upper move ${xstep1} 0.0 0.0 units lattice
        displace_atoms upper move 0.00333333333333333 0.0 0.0 units lattice
        min_style ${style}
        min_style cg
        minimize ${etol} ${ftol} ${maxiter} ${maxeval}
        minimize 1e-12 ${ftol} ${maxiter} ${maxeval}
        minimize 1e-12 1e-08 ${maxiter} ${maxeval}
        minimize 1e-12 1e-08 10000 ${maxeval}
        minimize 1e-12 1e-08 10000 20000
WARNING: Resetting reneighboring criteria during minimization (../min.cpp:168)
Memory usage per processor = 3.35169 Mbytes
Step Temp PotEng Lx Ly Lz 
     998            0   -362.99687    2.2449075    38.905675    1.1224537 
     999            0   -362.99688    2.2449075    38.905675    1.1224537 
    1000            0   -362.99688    2.2449075    38.905675    1.1224537 
    1001            0   -362.99689    2.2449075    38.905675    1.1224537 
    1002            0   -362.99692    2.2449075    38.905675    1.1224537 
    1003            0   -362.99695    2.2449075    38.905675    1.1224537 
    1004            0   -362.99695    2.2449075    38.905675    1.1224537 
Loop time of 0.0013439 on 1 procs for 6 steps with 82 atoms

Minimization stats:
  Stopping criterion = linesearch alpha is zero
  Energy initial, next-to-last, final = 
        -362.996873169     -362.996949068     -362.996949068
  Force two-norm initial, final = 0.0261871 0.0375831
  Force max component initial, final = 0.00795793 0.00959684
  Final line search alpha, max atom move = 7.62939e-06 7.32181e-08
  Iterations, force evaluations = 6 49

Pair  time (%) = 0.00114117 (84.9143)
Neigh time (%) = 0 (0)
Comm  time (%) = 6.50446e-05 (4.83997)
Outpt time (%) = 3.00797e-05 (2.23824)
Other time (%) = 0.000107613 (8.00751)

Nlocal:    82 ave 82 max 82 min
Histogram: 1 0 0 0 0 0 0 0 0 0
Nghost:    185 ave 185 max 185 min
Histogram: 1 0 0 0 0 0 0 0 0 0
Neighs:    718 ave 718 max 718 min
Histogram: 1 0 0 0 0 0 0 0 0 0

Total # of neighbors = 718
Ave neighs/atom = 8.7561
Neighbor list builds = 0
Dangerous builds = 0
        # write_dump all atom ${dumpfile}
        next i
jump SELF loop1
        displace_atoms upper move ${xstep1} 0.0 0.0 units lattice
        displace_atoms upper move 0.00333333333333333 0.0 0.0 units lattice
        min_style ${style}
        min_style cg
        minimize ${etol} ${ftol} ${maxiter} ${maxeval}
        minimize 1e-12 ${ftol} ${maxiter} ${maxeval}
        minimize 1e-12 1e-08 ${maxiter} ${maxeval}
        minimize 1e-12 1e-08 10000 ${maxeval}
        minimize 1e-12 1e-08 10000 20000
WARNING: Resetting reneighboring criteria during minimization (../min.cpp:168)
Memory usage per processor = 3.35169 Mbytes
Step Temp PotEng Lx Ly Lz 
    1004            0   -362.99814    2.2449075    38.903064    1.1224537 
    1005            0   -362.99814    2.2449075    38.903064    1.1224537 
Loop time of 0.000407925 on 1 procs for 1 steps with 82 atoms

Minimization stats:
  Stopping criterion = linesearch alpha is zero
  Energy initial, next-to-last, final = 
        -362.998139727     -362.998139727     -362.998139727
  Force two-norm initial, final = 0.0425209 0.0425209
  Force max component initial, final = 0.0124872 0.0124872
  Final line search alpha, max atom move = 3.8147e-06 4.76349e-08
  Iterations, force evaluations = 1 19

Pair  time (%) = 0.000329115 (80.6804)
Neigh time (%) = 0 (0)
Comm  time (%) = 2.64316e-05 (6.47954)
Outpt time (%) = 0 (0)
Other time (%) = 5.23778e-05 (12.8401)

Nlocal:    82 ave 82 max 82 min
Histogram: 1 0 0 0 0 0 0 0 0 0
Nghost:    185 ave 185 max 185 min
Histogram: 1 0 0 0 0 0 0 0 0 0
Neighs:    718 ave 718 max 718 min
Histogram: 1 0 0 0 0 0 0 0 0 0

Total # of neighbors = 718
Ave neighs/atom = 8.7561
Neighbor list builds = 0
Dangerous builds = 0
        # write_dump all atom ${dumpfile}
        next i
jump SELF loop1
        displace_atoms upper move ${xstep1} 0.0 0.0 units lattice
        displace_atoms upper move 0.00333333333333333 0.0 0.0 units lattice
        min_style ${style}
        min_style cg
        minimize ${etol} ${ftol} ${maxiter} ${maxeval}
        minimize 1e-12 ${ftol} ${maxiter} ${maxeval}
        minimize 1e-12 1e-08 ${maxiter} ${maxeval}
        minimize 1e-12 1e-08 10000 ${maxeval}
        minimize 1e-12 1e-08 10000 20000
WARNING: Resetting reneighboring criteria during minimization (../min.cpp:168)
Memory usage per processor = 3.35169 Mbytes
Step Temp PotEng Lx Ly Lz 
    1005            0   -362.99899    2.2449075    38.903064    1.1224537 
    1006            0   -362.99899    2.2449075    38.903064    1.1224537 
Loop time of 0.000401934 on 1 procs for 1 steps with 82 atoms

Minimization stats:
  Stopping criterion = linesearch alpha is zero
  Energy initial, next-to-last, final = 
        -362.998991259     -362.998991259     -362.998991259
  Force two-norm initial, final = 0.0470254 0.0470254
  Force max component initial, final = 0.0160299 0.0160299
  Final line search alpha, max atom move = 3.8147e-06 6.11492e-08
  Iterations, force evaluations = 1 19

Pair  time (%) = 0.000335924 (83.5768)
Neigh time (%) = 0 (0)
Comm  time (%) = 2.59434e-05 (6.45463)
Outpt time (%) = 0 (0)
Other time (%) = 4.0067e-05 (9.96855)

Nlocal:    82 ave 82 max 82 min
Histogram: 1 0 0 0 0 0 0 0 0 0
Nghost:    185 ave 185 max 185 min
Histogram: 1 0 0 0 0 0 0 0 0 0
Neighs:    718 ave 718 max 718 min
Histogram: 1 0 0 0 0 0 0 0 0 0

Total # of neighbors = 718
Ave neighs/atom = 8.7561
Neighbor list builds = 0
Dangerous builds = 0
        # write_dump all atom ${dumpfile}
        next i
jump SELF loop1
        displace_atoms upper move ${xstep1} 0.0 0.0 units lattice
        displace_atoms upper move 0.00333333333333333 0.0 0.0 units lattice
        min_style ${style}
        min_style cg
        minimize ${etol} ${ftol} ${maxiter} ${maxeval}
        minimize 1e-12 ${ftol} ${maxiter} ${maxeval}
        minimize 1e-12 1e-08 ${maxiter} ${maxeval}
        minimize 1e-12 1e-08 10000 ${maxeval}
        minimize 1e-12 1e-08 10000 20000
WARNING: Resetting reneighboring criteria during minimization (../min.cpp:168)
Memory usage per processor = 3.35169 Mbytes
Step Temp PotEng Lx Ly Lz 
    1006            0    -362.9995    2.2449075    38.903064    1.1224537 
    1007            0   -362.99951    2.2449075    38.903064    1.1224537 
    1008            0   -362.99951    2.2449075    38.903064    1.1224537 
    1009            0   -362.99951    2.2449075    38.903064    1.1224537 
Loop time of 0.000786048 on 1 procs for 3 steps with 82 atoms

Minimization stats:
  Stopping criterion = linesearch alpha is zero
  Energy initial, next-to-last, final = 
        -362.999503103     -362.999509165     -362.999509165
  Force two-norm initial, final = 0.0500232 0.029017
  Force max component initial, final = 0.0181605 0.00674268
  Final line search alpha, max atom move = 7.62939e-06 5.14426e-08
  Iterations, force evaluations = 3 36

Pair  time (%) = 0.000630715 (80.2387)
Neigh time (%) = 0 (0)
Comm  time (%) = 4.29658e-05 (5.46605)
Outpt time (%) = 1.41447e-05 (1.79947)
Other time (%) = 9.82229e-05 (12.4958)

Nlocal:    82 ave 82 max 82 min
Histogram: 1 0 0 0 0 0 0 0 0 0
Nghost:    185 ave 185 max 185 min
Histogram: 1 0 0 0 0 0 0 0 0 0
Neighs:    718 ave 718 max 718 min
Histogram: 1 0 0 0 0 0 0 0 0 0

Total # of neighbors = 718
Ave neighs/atom = 8.7561
Neighbor list builds = 0
Dangerous builds = 0
        # write_dump all atom ${dumpfile}
        next i
jump SELF loop1
        displace_atoms upper move ${xstep1} 0.0 0.0 units lattice
        displace_atoms upper move 0.00333333333333333 0.0 0.0 units lattice
        min_style ${style}
        min_style cg
        minimize ${etol} ${ftol} ${maxiter} ${maxeval}
        minimize 1e-12 ${ftol} ${maxiter} ${maxeval}
        minimize 1e-12 1e-08 ${maxiter} ${maxeval}
        minimize 1e-12 1e-08 10000 ${maxeval}
        minimize 1e-12 1e-08 10000 20000
WARNING: Resetting reneighboring criteria during minimization (../min.cpp:168)
Memory usage per processor = 3.35169 Mbytes
Step Temp PotEng Lx Ly Lz 
    1009            0   -362.99968    2.2449075    38.903057    1.1224537 
    1010            0   -362.99968    2.2449075    38.903057    1.1224537 
Loop time of 0.000372945 on 1 procs for 1 steps with 82 atoms

Minimization stats:
  Stopping criterion = linesearch alpha is zero
  Energy initial, next-to-last, final = 
        -362.999679326     -362.999679326     -362.999679326
  Force two-norm initial, final = 0.0296983 0.0296983
  Force max component initial, final = 0.00744992 0.00744992
  Final line search alpha, max atom move = 7.62939e-06 5.68383e-08
  Iterations, force evaluations = 1 18

Pair  time (%) = 0.000310816 (83.341)
Neigh time (%) = 0 (0)
Comm  time (%) = 2.62856e-05 (7.04813)
Outpt time (%) = 0 (0)
Other time (%) = 3.58431e-05 (9.61083)

Nlocal:    82 ave 82 max 82 min
Histogram: 1 0 0 0 0 0 0 0 0 0
Nghost:    185 ave 185 max 185 min
Histogram: 1 0 0 0 0 0 0 0 0 0
Neighs:    718 ave 718 max 718 min
Histogram: 1 0 0 0 0 0 0 0 0 0

Total # of neighbors = 718
Ave neighs/atom = 8.7561
Neighbor list builds = 0
Dangerous builds = 0
        # write_dump all atom ${dumpfile}
        next i
jump SELF loop1


