LAMMPS (28 Jun 2014)
# attempt at getting generalized stacking fault (GSF) energy curve

#file prefix
variable prefix string gsf_morse
variable dumpfile string ${prefix}.*.dump
variable dumpfile string gsf_morse.*.dump
variable restartfile string ${prefix}.*.equil
variable restartfile string gsf_morse.*.equil

#Mass (g/mol)
variable m equal 1

# lattice constant (in Angstroms) and orientation of axes (given by lattice vectors)
variable rho equal 0.9165
variable x1 equal 1
variable x2 equal 0
variable x3 equal 0
variable y1 equal 0
variable y2 equal 1
variable y3 equal 0
# length of lattice in different directions (using orientation of lattice vectors)
variable ax equal sqrt(${x1}*${x1}+${x2}*${x2}+${x3}*${x3})
variable ax equal sqrt(1*${x1}+${x2}*${x2}+${x3}*${x3})
variable ax equal sqrt(1*1+${x2}*${x2}+${x3}*${x3})
variable ax equal sqrt(1*1+0*${x2}+${x3}*${x3})
variable ax equal sqrt(1*1+0*0+${x3}*${x3})
variable ax equal sqrt(1*1+0*0+0*${x3})
variable ax equal sqrt(1*1+0*0+0*0)
variable ay equal sqrt(${y1}*${y1}+${y2}*${y2}+${y3}*${y3})
variable ay equal sqrt(0*${y1}+${y2}*${y2}+${y3}*${y3})
variable ay equal sqrt(0*0+${y2}*${y2}+${y3}*${y3})
variable ay equal sqrt(0*0+1*${y2}+${y3}*${y3})
variable ay equal sqrt(0*0+1*1+${y3}*${y3})
variable ay equal sqrt(0*0+1*1+0*${y3})
variable ay equal sqrt(0*0+1*1+0*0)
variable az equal 1

# size of box in lattice units
variable lxpos equal 1
variable lxneg equal -1*${lxpos}
variable lxneg equal -1*1
variable lypos equal 10
variable lyneg equal -1*${lypos}
variable lyneg equal -1*10
variable lzpos equal 0
variable lzneg equal -1

# Define minimization parameters and damping
variable etol equal 1.0e-12
variable ftol equal 1.0e-8
variable maxiter equal 10000
variable maxeval equal 20000
variable style string cg

# boundary conditions
dimension	2
boundary	p s p
atom_style	atomic

# create geometry
units		lj
lattice         hex ${rho}
lattice         hex 0.9165
Lattice spacing in x,y,z = 1.12245 1.94415 1.12245
region		myregion block ${lxneg} ${lxpos} ${lyneg} ${lypos} ${lzneg} ${lzpos} units lattice
region		myregion block -1 ${lxpos} ${lyneg} ${lypos} ${lzneg} ${lzpos} units lattice
region		myregion block -1 1 ${lyneg} ${lypos} ${lzneg} ${lzpos} units lattice
region		myregion block -1 1 -10 ${lypos} ${lzneg} ${lzpos} units lattice
region		myregion block -1 1 -10 10 ${lzneg} ${lzpos} units lattice
region		myregion block -1 1 -10 10 -1 ${lzpos} units lattice
region		myregion block -1 1 -10 10 -1 0 units lattice
create_box	3 myregion
Created orthogonal box = (-1.12245 -19.4415 -1.12245) to (1.12245 19.4415 0)
  1 by 1 by 1 MPI processor grid
create_atoms	1 box
Created 82 atoms

# define masses
mass * $m
mass * 1

# my fake/morse potential
pair_style      morse 2.5
pair_coeff      * * 1.0 3.5 1.12246
neighbor	0.3 bin
neigh_modify	delay 5

# define groups
region	    upper block INF INF 0.01 ${lypos} INF INF units lattice
region	    upper block INF INF 0.01 10 INF INF units lattice
group		upper region upper
40 atoms in group upper

# Setup output
thermo 1
thermo_style custom step temp pe lx ly lz
thermo_modify norm no

# Compute initial state by relaxing box
min_style ${style}
min_style cg
minimize ${etol} ${ftol} ${maxiter} ${maxeval}
minimize 1e-12 ${ftol} ${maxiter} ${maxeval}
minimize 1e-12 1e-08 ${maxiter} ${maxeval}
minimize 1e-12 1e-08 10000 ${maxeval}
minimize 1e-12 1e-08 10000 20000
WARNING: Resetting reneighboring criteria during minimization (../min.cpp:168)
Memory usage per processor = 3.35153 Mbytes
Step Temp PotEng Lx Ly Lz 
       0            0   -277.34538    2.2449075    38.890715    1.1224537 
       1            0   -277.52571    2.2449075    38.890715    1.1224537 
       2            0    -277.6111    2.2449075    38.890715    1.1224537 
       3            0   -277.76354    2.2449075    38.570092    1.1224537 
       4            0   -277.82738    2.2449075    38.570092    1.1224537 
       5            0   -277.88582    2.2449075    38.570092    1.1224537 
       6            0   -277.94703    2.2449075    38.570092    1.1224537 
       7            0   -278.01835    2.2449075    38.570092    1.1224537 
       8            0   -278.04262    2.2449075    38.570092    1.1224537 
       9            0   -278.08236    2.2449075    38.570092    1.1224537 
      10            0   -278.15467    2.2449075    38.570092    1.1224537 
      11            0   -278.37135    2.2449075    38.570092    1.1224537 
      12            0   -278.63453    2.2449075    38.113465    1.1224537 
      13            0    -278.9035    2.2449075    38.113465    1.1224537 
      14            0   -279.02921    2.2449075    37.792581    1.1224537 
      15            0   -279.08322    2.2449075    37.792581    1.1224537 
      16            0   -279.14839    2.2449075    37.792581    1.1224537 
      17            0   -279.20056    2.2449075    37.792581    1.1224537 
      18            0   -279.24141    2.2449075    37.792581    1.1224537 
      19            0   -279.27943    2.2449075    37.792581    1.1224537 
      20            0   -279.29998    2.2449075    37.792581    1.1224537 
      21            0   -279.32042    2.2449075    37.852281    1.1224537 
      22            0   -279.33772    2.2449075    37.852281    1.1224537 
      23            0   -279.40916    2.2449075    37.852281    1.1224537 
      24            0   -279.53508    2.2449075    37.852281    1.1224537 
      25            0   -279.63795    2.2449075    37.883043    1.1224537 
      26            0   -279.66268    2.2449075    37.883043    1.1224537 
      27            0   -279.67622    2.2449075    37.883043    1.1224537 
      28            0    -279.6839    2.2449075    37.883043    1.1224537 
      29            0    -279.6962    2.2449075    37.883043    1.1224537 
      30            0   -279.73164    2.2449075    37.883043    1.1224537 
      31            0   -279.79009    2.2449075    37.883043    1.1224537 
      32            0   -279.83219    2.2449075    37.548566    1.1224537 
      33            0   -279.84851    2.2449075    37.548566    1.1224537 
      34            0   -279.88308    2.2449075    37.548566    1.1224537 
      35            0   -279.91851    2.2449075    37.548566    1.1224537 
      36            0    -279.9571    2.2449075    37.548566    1.1224537 
      37            0   -280.00323    2.2449075    37.548566    1.1224537 
      38            0   -280.02978    2.2449075    37.548566    1.1224537 
      39            0   -280.05285    2.2449075    37.548566    1.1224537 
      40            0   -280.06553    2.2449075    37.406253    1.1224537 
      41            0   -280.08448    2.2449075    37.406253    1.1224537 
      42            0   -280.11518    2.2449075    37.406253    1.1224537 
      43            0   -280.13921    2.2449075    37.406253    1.1224537 
      44            0   -280.15319    2.2449075    37.406253    1.1224537 
      45            0    -280.1624    2.2449075    37.406253    1.1224537 
      46            0   -280.17078    2.2449075    37.406253    1.1224537 
      47            0   -280.17809    2.2449075    37.406253    1.1224537 
      48            0   -280.18327    2.2449075    37.406253    1.1224537 
      49            0   -280.18627    2.2449075    37.406253    1.1224537 
      50            0   -280.18975    2.2449075    37.406253    1.1224537 
      51            0   -280.19299    2.2449075    37.406253    1.1224537 
      52            0   -280.19621    2.2449075    37.406253    1.1224537 
      53            0   -280.19827    2.2449075    37.406253    1.1224537 
      54            0    -280.2012    2.2449075    37.406253    1.1224537 
      55            0     -280.206    2.2449075    37.406253    1.1224537 
      56            0   -280.20988    2.2449075    37.406253    1.1224537 
      57            0   -280.21214    2.2449075    37.406253    1.1224537 
      58            0   -280.21479    2.2449075    37.406253    1.1224537 
      59            0   -280.21868    2.2449075    37.406253    1.1224537 
      60            0   -280.22068    2.2449075    37.138124    1.1224537 
      61            0    -280.2217    2.2449075    37.138124    1.1224537 
      62            0   -280.22277    2.2449075    37.138124    1.1224537 
      63            0   -280.22386    2.2449075    37.138124    1.1224537 
      64            0   -280.22586    2.2449075    37.138124    1.1224537 
      65            0   -280.22768    2.2449075    37.138124    1.1224537 
      66            0   -280.23201    2.2449075    37.138124    1.1224537 
      67            0   -280.23443    2.2449075    37.138124    1.1224537 
      68            0   -280.23553    2.2449075    37.138124    1.1224537 
      69            0   -280.23872    2.2449075    37.133323    1.1224537 
      70            0   -280.24161    2.2449075    37.133323    1.1224537 
      71            0   -280.24261    2.2449075    37.133323    1.1224537 
      72            0   -280.24336    2.2449075    37.133323    1.1224537 
      73            0   -280.24378    2.2449075    37.133323    1.1224537 
      74            0   -280.24418    2.2449075    37.133323    1.1224537 
      75            0   -280.24489    2.2449075    37.133323    1.1224537 
      76            0   -280.24663    2.2449075    37.133323    1.1224537 
      77            0   -280.24801    2.2449075    37.133323    1.1224537 
      78            0   -280.25039    2.2449075    37.133323    1.1224537 
      79            0   -280.25257    2.2449075    37.133323    1.1224537 
      80            0    -280.2533    2.2449075    37.133323    1.1224537 
      81            0   -280.25404    2.2449075    37.133323    1.1224537 
      82            0   -280.25463    2.2449075    37.133323    1.1224537 
      83            0   -280.25498    2.2449075    37.133323    1.1224537 
      84            0   -280.25673    2.2449075    37.133323    1.1224537 
      85            0   -280.25769    2.2449075    37.133323    1.1224537 
      86            0   -280.25805    2.2449075    37.133323    1.1224537 
      87            0   -280.25939    2.2449075    37.133323    1.1224537 
      88            0    -280.2612    2.2449075    37.133323    1.1224537 
      89            0   -280.26246    2.2449075    37.133323    1.1224537 
      90            0   -280.26335    2.2449075    37.133323    1.1224537 
      91            0   -280.26424    2.2449075    37.133323    1.1224537 
      92            0   -280.26456    2.2449075    37.133323    1.1224537 
      93            0   -280.26474    2.2449075    37.133323    1.1224537 
      94            0   -280.26488    2.2449075    37.133323    1.1224537 
      95            0   -280.26512    2.2449075    37.133323    1.1224537 
      96            0    -280.2652    2.2449075    37.133323    1.1224537 
      97            0   -280.26547    2.2449075    37.133323    1.1224537 
      98            0   -280.26584    2.2449075    37.133323    1.1224537 
      99            0   -280.26609    2.2449075    37.133323    1.1224537 
     100            0   -280.26628    2.2449075    37.133323    1.1224537 
     101            0    -280.2664    2.2449075    37.133323    1.1224537 
     102            0   -280.26653    2.2449075    37.133323    1.1224537 
     103            0   -280.26666    2.2449075    37.133323    1.1224537 
     104            0   -280.26681    2.2449075    37.133323    1.1224537 
     105            0   -280.26713    2.2449075    37.133323    1.1224537 
     106            0   -280.26755    2.2449075    37.133323    1.1224537 
     107            0   -280.26789    2.2449075    37.133323    1.1224537 
     108            0   -280.26814    2.2449075    37.133323    1.1224537 
     109            0   -280.26835    2.2449075    37.133323    1.1224537 
     110            0   -280.26865    2.2449075    37.133323    1.1224537 
     111            0   -280.26902    2.2449075    37.133323    1.1224537 
     112            0   -280.26928    2.2449075    37.133323    1.1224537 
     113            0    -280.2694    2.2449075    37.133323    1.1224537 
     114            0   -280.26944    2.2449075    37.133323    1.1224537 
     115            0   -280.26946    2.2449075    37.133323    1.1224537 
     116            0   -280.26947    2.2449075    37.133323    1.1224537 
     117            0   -280.26948    2.2449075    37.133323    1.1224537 
     118            0    -280.2695    2.2449075    37.133323    1.1224537 
     119            0   -280.26953    2.2449075    37.133323    1.1224537 
     120            0   -280.26965    2.2449075    37.133323    1.1224537 
     121            0   -280.26992    2.2449075    37.133323    1.1224537 
     122            0   -280.27009    2.2449075    37.133323    1.1224537 
     123            0   -280.27016    2.2449075    37.133323    1.1224537 
     124            0   -280.27024    2.2449075    37.133323    1.1224537 
     125            0   -280.27026    2.2449075    37.133323    1.1224537 
     126            0   -280.27027    2.2449075    37.133323    1.1224537 
     127            0   -280.27028    2.2449075    37.133323    1.1224537 
     128            0   -280.27029    2.2449075    37.133323    1.1224537 
     129            0   -280.27029    2.2449075    37.133323    1.1224537 
     130            0    -280.2703    2.2449075    37.133323    1.1224537 
     131            0   -280.27032    2.2449075    37.133323    1.1224537 
     132            0   -280.27034    2.2449075    37.133323    1.1224537 
     133            0   -280.27035    2.2449075    37.133323    1.1224537 
     134            0   -280.27036    2.2449075    37.133323    1.1224537 
     135            0   -280.27041    2.2449075    37.133323    1.1224537 
     136            0   -280.27044    2.2449075    37.133323    1.1224537 
     137            0   -280.27048    2.2449075    37.133323    1.1224537 
     138            0    -280.2705    2.2449075    37.133323    1.1224537 
     139            0   -280.27054    2.2449075    37.133323    1.1224537 
     140            0   -280.27057    2.2449075    37.133323    1.1224537 
     141            0   -280.27058    2.2449075    37.133323    1.1224537 
     142            0   -280.27058    2.2449075    37.133323    1.1224537 
     143            0   -280.27058    2.2449075    37.133323    1.1224537 
     144            0   -280.27058    2.2449075    37.133323    1.1224537 
     145            0   -280.27058    2.2449075    37.133323    1.1224537 
     146            0   -280.27058    2.2449075    37.133323    1.1224537 
     147            0   -280.27058    2.2449075    37.133323    1.1224537 
     148            0   -280.27058    2.2449075    37.133323    1.1224537 
     149            0   -280.27058    2.2449075    37.133323    1.1224537 
     150            0   -280.27058    2.2449075    37.133323    1.1224537 
     151            0   -280.27058    2.2449075    37.133323    1.1224537 
     152            0   -280.27058    2.2449075    37.133323    1.1224537 
     153            0   -280.27058    2.2449075    37.133323    1.1224537 
     154            0   -280.27058    2.2449075    37.133323    1.1224537 
     155            0   -280.27058    2.2449075    37.133323    1.1224537 
     156            0   -280.27058    2.2449075    37.133323    1.1224537 
     157            0   -280.27058    2.2449075    37.133323    1.1224537 
     158            0   -280.27058    2.2449075    37.133323    1.1224537 
     159            0   -280.27058    2.2449075    37.133323    1.1224537 
     160            0   -280.27058    2.2449075    37.133323    1.1224537 
     161            0   -280.27058    2.2449075    37.133323    1.1224537 
     162            0   -280.27059    2.2449075    37.133323    1.1224537 
     163            0   -280.27059    2.2449075    37.133323    1.1224537 
     164            0   -280.27059    2.2449075    37.133323    1.1224537 
     165            0   -280.27059    2.2449075    37.133323    1.1224537 
     166            0   -280.27059    2.2449075    37.133323    1.1224537 
     167            0   -280.27059    2.2449075    37.133323    1.1224537 
     168            0   -280.27059    2.2449075    37.133323    1.1224537 
     169            0   -280.27059    2.2449075    37.133323    1.1224537 
     170            0   -280.27059    2.2449075    37.133323    1.1224537 
     171            0   -280.27059    2.2449075    37.133323    1.1224537 
Loop time of 0.0766431 on 1 procs for 171 steps with 82 atoms

Minimization stats:
  Stopping criterion = linesearch alpha is zero
  Energy initial, next-to-last, final = 
        -277.345383104     -280.270586175     -280.270586175
  Force two-norm initial, final = 2.30152 0.000496336
  Force max component initial, final = 0.978185 0.000127193
  Final line search alpha, max atom move = 0.03125 3.97477e-06
  Iterations, force evaluations = 171 974

Pair  time (%) = 0.0617615 (80.5833)
Neigh time (%) = 0.00021686 (0.282948)
Comm  time (%) = 0.00219977 (2.87015)
Outpt time (%) = 0.0100497 (13.1123)
Other time (%) = 0.00241531 (3.15137)

Nlocal:    82 ave 82 max 82 min
Histogram: 1 0 0 0 0 0 0 0 0 0
Nghost:    185 ave 185 max 185 min
Histogram: 1 0 0 0 0 0 0 0 0 0
Neighs:    726 ave 726 max 726 min
Histogram: 1 0 0 0 0 0 0 0 0 0

Total # of neighbors = 726
Ave neighs/atom = 8.85366
Neighbor list builds = 9
Dangerous builds = 0

# don't allow atoms to relax in x-direction
fix 2 all setforce 0.0 NULL 0.0

# GSF energy curve will have 100*2 steps
variable nsteps equal 300
variable sstep1 equal 1.
variable xstep1 equal ${sstep1}/(${ax}*${nsteps})
variable xstep1 equal 1/(${ax}*${nsteps})
variable xstep1 equal 1/(1*${nsteps})
variable xstep1 equal 1/(1*300)

variable i loop ${nsteps}
variable i loop 300
label loop1
        displace_atoms upper move ${xstep1} 0.0 0.0 units lattice
        displace_atoms upper move 0.00333333333333333 0.0 0.0 units lattice
        min_style ${style}
        min_style cg
        minimize ${etol} ${ftol} ${maxiter} ${maxeval}
        minimize 1e-12 ${ftol} ${maxiter} ${maxeval}
        minimize 1e-12 1e-08 ${maxiter} ${maxeval}
        minimize 1e-12 1e-08 10000 ${maxeval}
        minimize 1e-12 1e-08 10000 20000
WARNING: Resetting reneighboring criteria during minimization (../min.cpp:168)
Memory usage per processor = 3.35153 Mbytes
Step Temp PotEng Lx Ly Lz 
     171            0   -280.27036    2.2449075    37.133019    1.1224537 
     172            0   -280.27036    2.2449075    37.133019    1.1224537 
     173            0   -280.27036    2.2449075    37.133019    1.1224537 
Loop time of 0.00114291 on 1 procs for 2 steps with 82 atoms

Minimization stats:
  Stopping criterion = linesearch alpha is zero
  Energy initial, next-to-last, final = 
        -280.270361561     -280.270361575     -280.270361575
  Force two-norm initial, final = 0.00205861 0.00102003
  Force max component initial, final = 0.00102156 0.000443152
  Final line search alpha, max atom move = 0.0078125 3.46212e-06
  Iterations, force evaluations = 2 16

Pair  time (%) = 0.00101708 (88.9905)
Neigh time (%) = 0 (0)
Comm  time (%) = 2.01488e-05 (1.76293)
Outpt time (%) = 3.90291e-05 (3.41487)
Other time (%) = 6.66514e-05 (5.83171)

Nlocal:    82 ave 82 max 82 min
Histogram: 1 0 0 0 0 0 0 0 0 0
Nghost:    185 ave 185 max 185 min
Histogram: 1 0 0 0 0 0 0 0 0 0
Neighs:    718 ave 718 max 718 min
Histogram: 1 0 0 0 0 0 0 0 0 0

Total # of neighbors = 718
Ave neighs/atom = 8.7561
Neighbor list builds = 0
Dangerous builds = 0
        # write_dump all atom ${dumpfile}
        next i
jump SELF loop1
        displace_atoms upper move ${xstep1} 0.0 0.0 units lattice
        displace_atoms upper move 0.00333333333333333 0.0 0.0 units lattice
        min_style ${style}
        min_style cg
        minimize ${etol} ${ftol} ${maxiter} ${maxeval}
        minimize 1e-12 ${ftol} ${maxiter} ${maxeval}
        minimize 1e-12 1e-08 ${maxiter} ${maxeval}
        minimize 1e-12 1e-08 10000 ${maxeval}
        minimize 1e-12 1e-08 10000 20000
WARNING: Resetting reneighboring criteria during minimization (../min.cpp:168)
Memory usage per processor = 3.35153 Mbytes
Step Temp PotEng Lx Ly Lz 
     173            0   -280.26969    2.2449075    37.133017    1.1224537 
     174            0   -280.26969    2.2449075    37.133017    1.1224537 
     175            0   -280.26969    2.2449075    37.133017    1.1224537 
     176            0   -280.26969    2.2449075    37.133017    1.1224537 
     177            0   -280.26969    2.2449075    37.133017    1.1224537 
     178            0   -280.26969    2.2449075    37.133017    1.1224537 
Loop time of 0.00218393 on 1 procs for 5 steps with 82 atoms

Minimization stats:
  Stopping criterion = linesearch alpha is zero
  Energy initial, next-to-last, final = 
         -280.26968791     -280.269688117     -280.269688117
  Force two-norm initial, final = 0.00584361 0.00123649
  Force max component initial, final = 0.00288597 0.000367442
  Final line search alpha, max atom move = 0.0078125 2.87064e-06
  Iterations, force evaluations = 5 38

Pair  time (%) = 0.00201879 (92.4383)
Neigh time (%) = 0 (0)
Comm  time (%) = 5.27564e-05 (2.41566)
Outpt time (%) = 3.16992e-05 (1.45147)
Other time (%) = 8.06864e-05 (3.69454)

Nlocal:    82 ave 82 max 82 min
Histogram: 1 0 0 0 0 0 0 0 0 0
Nghost:    195 ave 195 max 195 min
Histogram: 1 0 0 0 0 0 0 0 0 0
Neighs:    718 ave 718 max 718 min
Histogram: 1 0 0 0 0 0 0 0 0 0

Total # of neighbors = 718
Ave neighs/atom = 8.7561
Neighbor list builds = 0
Dangerous builds = 0
        # write_dump all atom ${dumpfile}
        next i
jump SELF loop1
        displace_atoms upper move ${xstep1} 0.0 0.0 units lattice
        displace_atoms upper move 0.00333333333333333 0.0 0.0 units lattice
        min_style ${style}
        min_style cg
        minimize ${etol} ${ftol} ${maxiter} ${maxeval}
        minimize 1e-12 ${ftol} ${maxiter} ${maxeval}
        minimize 1e-12 1e-08 ${maxiter} ${maxeval}
        minimize 1e-12 1e-08 10000 ${maxeval}
        minimize 1e-12 1e-08 10000 20000
WARNING: Resetting reneighboring criteria during minimization (../min.cpp:168)
Memory usage per processor = 3.35153 Mbytes
Step Temp PotEng Lx Ly Lz 
     178            0   -280.26857    2.2449075    37.133003    1.1224537 
     179            0   -280.26857    2.2449075    37.133003    1.1224537 
     180            0   -280.26857    2.2449075    37.133003    1.1224537 
     181            0   -280.26857    2.2449075    37.133003    1.1224537 
     182            0   -280.26857    2.2449075    37.133003    1.1224537 
     183            0   -280.26857    2.2449075    37.133003    1.1224537 
     184            0   -280.26857    2.2449075    37.133003    1.1224537 
     185            0   -280.26857    2.2449075    37.133003    1.1224537 
     186            0   -280.26857    2.2449075    37.133003    1.1224537 
     187            0   -280.26857    2.2449075    37.133003    1.1224537 
     188            0   -280.26857    2.2449075    37.133003    1.1224537 
     189            0   -280.26857    2.2449075    37.133003    1.1224537 
Loop time of 0.00887907 on 1 procs for 11 steps with 82 atoms

Minimization stats:
  Stopping criterion = linesearch alpha is zero
  Energy initial, next-to-last, final = 
        -280.268566191     -280.268566855     -280.268566855
  Force two-norm initial, final = 0.0106592 0.000778639
  Force max component initial, final = 0.00529833 0.000181783
  Final line search alpha, max atom move = 0.015625 2.84036e-06
  Iterations, force evaluations = 11 81

Pair  time (%) = 0.0051626 (58.1434)
Neigh time (%) = 0 (0)
Comm  time (%) = 0.000115881 (1.3051)
Outpt time (%) = 0.000131236 (1.47803)
Other time (%) = 0.00346936 (39.0734)

Nlocal:    82 ave 82 max 82 min
Histogram: 1 0 0 0 0 0 0 0 0 0
Nghost:    195 ave 195 max 195 min
Histogram: 1 0 0 0 0 0 0 0 0 0
Neighs:    718 ave 718 max 718 min
Histogram: 1 0 0 0 0 0 0 0 0 0

Total # of neighbors = 718
Ave neighs/atom = 8.7561
Neighbor list builds = 0
Dangerous builds = 0
        # write_dump all atom ${dumpfile}
        next i
jump SELF loop1
        displace_atoms upper move ${xstep1} 0.0 0.0 units lattice
        displace_atoms upper move 0.00333333333333333 0.0 0.0 units lattice
        min_style ${style}
        min_style cg
        minimize ${etol} ${ftol} ${maxiter} ${maxeval}
        minimize 1e-12 ${ftol} ${maxiter} ${maxeval}
        minimize 1e-12 1e-08 ${maxiter} ${maxeval}
        minimize 1e-12 1e-08 10000 ${maxeval}
        minimize 1e-12 1e-08 10000 20000
WARNING: Resetting reneighboring criteria during minimization (../min.cpp:168)
Memory usage per processor = 3.35153 Mbytes
Step Temp PotEng Lx Ly Lz 
     189            0     -280.267    2.2449075    37.132959    1.1224537 
     190            0     -280.267    2.2449075    37.132959    1.1224537 
     191            0     -280.267    2.2449075    37.132959    1.1224537 
     192            0     -280.267    2.2449075    37.132959    1.1224537 
     193            0     -280.267    2.2449075    37.132959    1.1224537 
     194            0     -280.267    2.2449075    37.132959    1.1224537 
     195            0     -280.267    2.2449075    37.132959    1.1224537 
     196            0     -280.267    2.2449075    37.132959    1.1224537 
     197            0     -280.267    2.2449075    37.132959    1.1224537 
     198            0     -280.267    2.2449075    37.132959    1.1224537 
     199            0     -280.267    2.2449075    37.132959    1.1224537 
     200            0     -280.267    2.2449075    37.132959    1.1224537 
Loop time of 0.00536497 on 1 procs for 11 steps with 82 atoms

Minimization stats:
  Stopping criterion = linesearch alpha is zero
  Energy initial, next-to-last, final = 
        -280.266998336     -280.266999388     -280.266999388
  Force two-norm initial, final = 0.0145123 0.00181045
  Force max component initial, final = 0.007247 0.000556332
  Final line search alpha, max atom move = 0.00390625 2.17317e-06
  Iterations, force evaluations = 11 82

Pair  time (%) = 0.00467507 (87.1408)
Neigh time (%) = 0 (0)
Comm  time (%) = 0.000112696 (2.10059)
Outpt time (%) = 0.000360997 (6.72878)
Other time (%) = 0.000216199 (4.02983)

Nlocal:    82 ave 82 max 82 min
Histogram: 1 0 0 0 0 0 0 0 0 0
Nghost:    195 ave 195 max 195 min
Histogram: 1 0 0 0 0 0 0 0 0 0
Neighs:    718 ave 718 max 718 min
Histogram: 1 0 0 0 0 0 0 0 0 0

Total # of neighbors = 718
Ave neighs/atom = 8.7561
Neighbor list builds = 0
Dangerous builds = 0
        # write_dump all atom ${dumpfile}
        next i
jump SELF loop1
        displace_atoms upper move ${xstep1} 0.0 0.0 units lattice
        displace_atoms upper move 0.00333333333333333 0.0 0.0 units lattice
        min_style ${style}
        min_style cg
        minimize ${etol} ${ftol} ${maxiter} ${maxeval}
        minimize 1e-12 ${ftol} ${maxiter} ${maxeval}
        minimize 1e-12 1e-08 ${maxiter} ${maxeval}
        minimize 1e-12 1e-08 10000 ${maxeval}
        minimize 1e-12 1e-08 10000 20000
WARNING: Resetting reneighboring criteria during minimization (../min.cpp:168)
Memory usage per processor = 3.35153 Mbytes
Step Temp PotEng Lx Ly Lz 
     200            0   -280.26499    2.2449075    37.132935    1.1224537 
     201            0   -280.26499    2.2449075    37.132935    1.1224537 
     202            0   -280.26499    2.2449075    37.132935    1.1224537 
     203            0   -280.26499    2.2449075    37.132935    1.1224537 
     204            0   -280.26499    2.2449075    37.132935    1.1224537 
     205            0   -280.26499    2.2449075    37.132935    1.1224537 
     206            0   -280.26499    2.2449075    37.132935    1.1224537 
     207            0   -280.26499    2.2449075    37.132935    1.1224537 
     208            0   -280.26499    2.2449075    37.132935    1.1224537 
     209            0   -280.26499    2.2449075    37.132935    1.1224537 
     210            0   -280.26499    2.2449075    37.132935    1.1224537 
     211            0   -280.26499    2.2449075    37.132935    1.1224537 
     212            0   -280.26499    2.2449075    37.132935    1.1224537 
     213            0   -280.26499    2.2449075    37.132935    1.1224537 
     214            0   -280.26499    2.2449075    37.132935    1.1224537 
     215            0   -280.26499    2.2449075    37.132935    1.1224537 
     216            0   -280.26499    2.2449075    37.132935    1.1224537 
     217            0   -280.26499    2.2449075    37.132935    1.1224537 
Loop time of 0.00878504 on 1 procs for 17 steps with 82 atoms

Minimization stats:
  Stopping criterion = linesearch alpha is zero
  Energy initial, next-to-last, final = 
        -280.264986278     -280.264988161     -280.264988161
  Force two-norm initial, final = 0.0187339 0.000851821
  Force max component initial, final = 0.0093256 0.000238837
  Final line search alpha, max atom move = 0.015625 3.73183e-06
  Iterations, force evaluations = 17 123

Pair  time (%) = 0.00787649 (89.6579)
Neigh time (%) = 0 (0)
Comm  time (%) = 0.000196718 (2.23924)
Outpt time (%) = 0.000380037 (4.32595)
Other time (%) = 0.0003318 (3.77687)

Nlocal:    82 ave 82 max 82 min
Histogram: 1 0 0 0 0 0 0 0 0 0
Nghost:    195 ave 195 max 195 min
Histogram: 1 0 0 0 0 0 0 0 0 0
Neighs:    718 ave 718 max 718 min
Histogram: 1 0 0 0 0 0 0 0 0 0

Total # of neighbors = 718
Ave neighs/atom = 8.7561
Neighbor list builds = 0
Dangerous builds = 0
        # write_dump all atom ${dumpfile}
        next i
jump SELF loop1
        displace_atoms upper move ${xstep1} 0.0 0.0 units lattice
        displace_atoms upper move 0.00333333333333333 0.0 0.0 units lattice
        min_style ${style}
        min_style cg
        minimize ${etol} ${ftol} ${maxiter} ${maxeval}
        minimize 1e-12 ${ftol} ${maxiter} ${maxeval}
        minimize 1e-12 1e-08 ${maxiter} ${maxeval}
        minimize 1e-12 1e-08 10000 ${maxeval}
        minimize 1e-12 1e-08 10000 20000
WARNING: Resetting reneighboring criteria during minimization (../min.cpp:168)
Memory usage per processor = 3.35153 Mbytes
Step Temp PotEng Lx Ly Lz 
     217            0   -280.26253    2.2449075    37.132916    1.1224537 
     218            0   -280.26253    2.2449075    37.132916    1.1224537 
     219            0   -280.26254    2.2449075    37.132916    1.1224537 
     220            0   -280.26254    2.2449075    37.132916    1.1224537 
     221            0   -280.26254    2.2449075    37.132916    1.1224537 
     222            0   -280.26254    2.2449075    37.132916    1.1224537 
     223            0   -280.26254    2.2449075    37.132916    1.1224537 
     224            0   -280.26254    2.2449075    37.132916    1.1224537 
     225            0   -280.26254    2.2449075    37.132916    1.1224537 
     226            0   -280.26254    2.2449075    37.132916    1.1224537 
     227            0   -280.26254    2.2449075    37.132916    1.1224537 
     228            0   -280.26254    2.2449075    37.132916    1.1224537 
     229            0   -280.26254    2.2449075    37.132916    1.1224537 
     230            0   -280.26254    2.2449075    37.132916    1.1224537 
     231            0   -280.26254    2.2449075    37.132916    1.1224537 
     232            0   -280.26254    2.2449075    37.132916    1.1224537 
     233            0   -280.26254    2.2449075    37.132916    1.1224537 
     234            0   -280.26254    2.2449075    37.132916    1.1224537 
     235            0   -280.26254    2.2449075    37.132916    1.1224537 
     236            0   -280.26254    2.2449075    37.132916    1.1224537 
     237            0   -280.26254    2.2449075    37.132916    1.1224537 
     238            0   -280.26254    2.2449075    37.132916    1.1224537 
     239            0   -280.26254    2.2449075    37.132916    1.1224537 
     240            0   -280.26254    2.2449075    37.132916    1.1224537 
     241            0   -280.26254    2.2449075    37.132916    1.1224537 
Loop time of 0.0151621 on 1 procs for 24 steps with 82 atoms

Minimization stats:
  Stopping criterion = linesearch alpha is zero
  Energy initial, next-to-last, final = 
        -280.262533327     -280.262536281     -280.262536281
  Force two-norm initial, final = 0.022823 0.00122637
  Force max component initial, final = 0.0114072 0.000285992
  Final line search alpha, max atom move = 0.0078125 2.23431e-06
  Iterations, force evaluations = 24 175

Pair  time (%) = 0.0136556 (90.0639)
Neigh time (%) = 0 (0)
Comm  time (%) = 0.000292137 (1.92676)
Outpt time (%) = 0.0002347 (1.54794)
Other time (%) = 0.000979682 (6.4614)

Nlocal:    82 ave 82 max 82 min
Histogram: 1 0 0 0 0 0 0 0 0 0
Nghost:    195 ave 195 max 195 min
Histogram: 1 0 0 0 0 0 0 0 0 0
Neighs:    718 ave 718 max 718 min
Histogram: 1 0 0 0 0 0 0 0 0 0

Total # of neighbors = 718
Ave neighs/atom = 8.7561
Neighbor list builds = 0
Dangerous builds = 0
        # write_dump all atom ${dumpfile}
        next i
jump SELF loop1
        displace_atoms upper move ${xstep1} 0.0 0.0 units lattice
        displace_atoms upper move 0.00333333333333333 0.0 0.0 units lattice
        min_style ${style}
        min_style cg
        minimize ${etol} ${ftol} ${maxiter} ${maxeval}
        minimize 1e-12 ${ftol} ${maxiter} ${maxeval}
        minimize 1e-12 1e-08 ${maxiter} ${maxeval}
        minimize 1e-12 1e-08 10000 ${maxeval}
        minimize 1e-12 1e-08 10000 20000
WARNING: Resetting reneighboring criteria during minimization (../min.cpp:168)
Memory usage per processor = 3.35153 Mbytes
Step Temp PotEng Lx Ly Lz 
     241            0   -280.25964    2.2449075    37.132978    1.1224537 
     242            0   -280.25965    2.2449075    37.132978    1.1224537 
     243            0   -280.25965    2.2449075    37.132978    1.1224537 
     244            0   -280.25965    2.2449075    37.132978    1.1224537 
     245            0   -280.25965    2.2449075    37.132978    1.1224537 
     246            0   -280.25965    2.2449075    37.132978    1.1224537 
     247            0   -280.25965    2.2449075    37.132978    1.1224537 
     248            0   -280.25965    2.2449075    37.132978    1.1224537 
     249            0   -280.25965    2.2449075    37.132978    1.1224537 
     250            0   -280.25965    2.2449075    37.132978    1.1224537 
     251            0   -280.25965    2.2449075    37.132978    1.1224537 
     252            0   -280.25965    2.2449075    37.132978    1.1224537 
     253            0   -280.25965    2.2449075    37.132978    1.1224537 
     254            0   -280.25965    2.2449075    37.132978    1.1224537 
     255            0   -280.25965    2.2449075    37.132978    1.1224537 
     256            0   -280.25965    2.2449075    37.132978    1.1224537 
     257            0   -280.25965    2.2449075    37.132978    1.1224537 
     258            0   -280.25965    2.2449075    37.132978    1.1224537 
     259            0   -280.25965    2.2449075    37.132978    1.1224537 
     260            0   -280.25965    2.2449075    37.132978    1.1224537 
     261            0   -280.25965    2.2449075    37.132978    1.1224537 
     262            0   -280.25965    2.2449075    37.132978    1.1224537 
     263            0   -280.25965    2.2449075    37.132978    1.1224537 
     264            0   -280.25965    2.2449075    37.132978    1.1224537 
     265            0   -280.25965    2.2449075    37.132978    1.1224537 
     266            0   -280.25965    2.2449075    37.132978    1.1224537 
     267            0   -280.25965    2.2449075    37.132978    1.1224537 
     268            0   -280.25965    2.2449075    37.132978    1.1224537 
     269            0   -280.25965    2.2449075    37.132978    1.1224537 
     270            0   -280.25965    2.2449075    37.132978    1.1224537 
     271            0   -280.25965    2.2449075    37.132978    1.1224537 
     272            0   -280.25965    2.2449075    37.132978    1.1224537 
     273            0   -280.25965    2.2449075    37.132978    1.1224537 
     274            0   -280.25965    2.2449075    37.132978    1.1224537 
Loop time of 0.0177269 on 1 procs for 33 steps with 82 atoms

Minimization stats:
  Stopping criterion = linesearch alpha is zero
  Energy initial, next-to-last, final = 
        -280.259643301      -280.25964804      -280.25964804
  Force two-norm initial, final = 0.0269207 0.00074979
  Force max component initial, final = 0.0134495 0.000212564
  Final line search alpha, max atom move = 0.015625 3.32131e-06
  Iterations, force evaluations = 33 233

Pair  time (%) = 0.0146065 (82.3976)
Neigh time (%) = 0 (0)
Comm  time (%) = 0.000441179 (2.48875)
Outpt time (%) = 0.00163227 (9.20786)
Other time (%) = 0.0010469 (5.90574)

Nlocal:    82 ave 82 max 82 min
Histogram: 1 0 0 0 0 0 0 0 0 0
Nghost:    195 ave 195 max 195 min
Histogram: 1 0 0 0 0 0 0 0 0 0
Neighs:    718 ave 718 max 718 min
Histogram: 1 0 0 0 0 0 0 0 0 0

Total # of neighbors = 718
Ave neighs/atom = 8.7561
Neighbor list builds = 0
Dangerous builds = 0
        # write_dump all atom ${dumpfile}
        next i
jump SELF loop1
        displace_atoms upper move ${xstep1} 0.0 0.0 units lattice
        displace_atoms upper move 0.00333333333333333 0.0 0.0 units lattice
        min_style ${style}
        min_style cg
        minimize ${etol} ${ftol} ${maxiter} ${maxeval}
        minimize 1e-12 ${ftol} ${maxiter} ${maxeval}
        minimize 1e-12 1e-08 ${maxiter} ${maxeval}
        minimize 1e-12 1e-08 10000 ${maxeval}
        minimize 1e-12 1e-08 10000 20000
WARNING: Resetting reneighboring criteria during minimization (../min.cpp:168)
Memory usage per processor = 3.35153 Mbytes
Step Temp PotEng Lx Ly Lz 
     274            0   -280.25632    2.2449075    37.133598    1.1224537 
     275            0   -280.25633    2.2449075    37.133598    1.1224537 
     276            0   -280.25633    2.2449075    37.133598    1.1224537 
     277            0   -280.25633    2.2449075    37.133598    1.1224537 
     278            0   -280.25633    2.2449075    37.133598    1.1224537 
     279            0   -280.25633    2.2449075    37.133598    1.1224537 
     280            0   -280.25633    2.2449075    37.133598    1.1224537 
     281            0   -280.25633    2.2449075    37.133598    1.1224537 
     282            0   -280.25633    2.2449075    37.133598    1.1224537 
     283            0   -280.25633    2.2449075    37.133598    1.1224537 
     284            0   -280.25633    2.2449075    37.133598    1.1224537 
     285            0   -280.25633    2.2449075    37.133598    1.1224537 
     286            0   -280.25633    2.2449075    37.133598    1.1224537 
     287            0   -280.25633    2.2449075    37.133598    1.1224537 
     288            0   -280.25633    2.2449075    37.133598    1.1224537 
     289            0   -280.25633    2.2449075    37.133598    1.1224537 
     290            0   -280.25633    2.2449075    37.133598    1.1224537 
     291            0   -280.25633    2.2449075    37.133598    1.1224537 
     292            0   -280.25633    2.2449075    37.133598    1.1224537 
     293            0   -280.25633    2.2449075    37.133598    1.1224537 
     294            0   -280.25633    2.2449075    37.133598    1.1224537 
     295            0   -280.25633    2.2449075    37.133598    1.1224537 
     296            0   -280.25633    2.2449075    37.133598    1.1224537 
     297            0   -280.25633    2.2449075    37.133598    1.1224537 
     298            0   -280.25633    2.2449075    37.133598    1.1224537 
     299            0   -280.25633    2.2449075    37.133598    1.1224537 
     300            0   -280.25633    2.2449075    37.133598    1.1224537 
     301            0   -280.25633    2.2449075    37.133598    1.1224537 
     302            0   -280.25633    2.2449075    37.133598    1.1224537 
     303            0   -280.25633    2.2449075    37.133598    1.1224537 
     304            0   -280.25633    2.2449075    37.133598    1.1224537 
Loop time of 0.0183471 on 1 procs for 30 steps with 82 atoms

Minimization stats:
  Stopping criterion = linesearch alpha is zero
  Energy initial, next-to-last, final = 
        -280.256322098     -280.256326921     -280.256326921
  Force two-norm initial, final = 0.0301229 0.000630816
  Force max component initial, final = 0.0150589 0.000148641
  Final line search alpha, max atom move = 0.015625 2.32252e-06
  Iterations, force evaluations = 30 215

Pair  time (%) = 0.0165899 (90.4229)
Neigh time (%) = 0 (0)
Comm  time (%) = 0.00035151 (1.91589)
Outpt time (%) = 0.000843167 (4.59565)
Other time (%) = 0.000562447 (3.0656)

Nlocal:    82 ave 82 max 82 min
Histogram: 1 0 0 0 0 0 0 0 0 0
Nghost:    195 ave 195 max 195 min
Histogram: 1 0 0 0 0 0 0 0 0 0
Neighs:    718 ave 718 max 718 min
Histogram: 1 0 0 0 0 0 0 0 0 0

Total # of neighbors = 718
Ave neighs/atom = 8.7561
Neighbor list builds = 0
Dangerous builds = 0
        # write_dump all atom ${dumpfile}
        next i
jump SELF loop1
        displace_atoms upper move ${xstep1} 0.0 0.0 units lattice
        displace_atoms upper move 0.00333333333333333 0.0 0.0 units lattice
        min_style ${style}
        min_style cg
        minimize ${etol} ${ftol} ${maxiter} ${maxeval}
        minimize 1e-12 ${ftol} ${maxiter} ${maxeval}
        minimize 1e-12 1e-08 ${maxiter} ${maxeval}
        minimize 1e-12 1e-08 10000 ${maxeval}
        minimize 1e-12 1e-08 10000 20000
WARNING: Resetting reneighboring criteria during minimization (../min.cpp:168)
Memory usage per processor = 3.35153 Mbytes
Step Temp PotEng Lx Ly Lz 
     304            0   -280.25257    2.2449075    37.133789    1.1224537 
     305            0   -280.25258    2.2449075    37.133789    1.1224537 
     306            0   -280.25258    2.2449075    37.133789    1.1224537 
     307            0   -280.25258    2.2449075    37.133789    1.1224537 
     308            0   -280.25258    2.2449075    37.133789    1.1224537 
     309            0   -280.25258    2.2449075    37.133789    1.1224537 
     310            0   -280.25258    2.2449075    37.133789    1.1224537 
     311            0   -280.25258    2.2449075    37.133789    1.1224537 
     312            0   -280.25258    2.2449075    37.133789    1.1224537 
     313            0   -280.25258    2.2449075    37.133789    1.1224537 
     314            0   -280.25258    2.2449075    37.133789    1.1224537 
     315            0   -280.25258    2.2449075    37.133789    1.1224537 
     316            0   -280.25258    2.2449075    37.133789    1.1224537 
     317            0   -280.25258    2.2449075    37.133789    1.1224537 
     318            0   -280.25258    2.2449075    37.133789    1.1224537 
     319            0   -280.25258    2.2449075    37.133789    1.1224537 
     320            0   -280.25258    2.2449075    37.133789    1.1224537 
     321            0   -280.25258    2.2449075    37.133789    1.1224537 
     322            0   -280.25258    2.2449075    37.133789    1.1224537 
     323            0   -280.25258    2.2449075    37.133789    1.1224537 
     324            0   -280.25258    2.2449075    37.133789    1.1224537 
     325            0   -280.25258    2.2449075    37.133789    1.1224537 
     326            0   -280.25258    2.2449075    37.133789    1.1224537 
     327            0   -280.25258    2.2449075    37.133789    1.1224537 
     328            0   -280.25258    2.2449075    37.133789    1.1224537 
     329            0   -280.25258    2.2449075    37.133789    1.1224537 
     330            0   -280.25258    2.2449075    37.133789    1.1224537 
     331            0   -280.25258    2.2449075    37.133789    1.1224537 
     332            0   -280.25258    2.2449075    37.133789    1.1224537 
     333            0   -280.25258    2.2449075    37.133789    1.1224537 
     334            0   -280.25258    2.2449075    37.133789    1.1224537 
     335            0   -280.25258    2.2449075    37.133789    1.1224537 
     336            0   -280.25258    2.2449075    37.133789    1.1224537 
     337            0   -280.25258    2.2449075    37.133789    1.1224537 
Loop time of 0.019716 on 1 procs for 33 steps with 82 atoms

Minimization stats:
  Stopping criterion = linesearch alpha is zero
  Energy initial, next-to-last, final = 
        -280.252571691     -280.252578378     -280.252578378
  Force two-norm initial, final = 0.0342874 0.000802409
  Force max component initial, final = 0.0171412 0.000238963
  Final line search alpha, max atom move = 0.015625 3.7338e-06
  Iterations, force evaluations = 33 235

Pair  time (%) = 0.013406 (67.9952)
Neigh time (%) = 0 (0)
Comm  time (%) = 0.00101424 (5.14424)
Outpt time (%) = 0.00469327 (23.8043)
Other time (%) = 0.000602567 (3.05623)

Nlocal:    82 ave 82 max 82 min
Histogram: 1 0 0 0 0 0 0 0 0 0
Nghost:    195 ave 195 max 195 min
Histogram: 1 0 0 0 0 0 0 0 0 0
Neighs:    718 ave 718 max 718 min
Histogram: 1 0 0 0 0 0 0 0 0 0

Total # of neighbors = 718
Ave neighs/atom = 8.7561
Neighbor list builds = 0
Dangerous builds = 0
        # write_dump all atom ${dumpfile}
        next i
jump SELF loop1
        displace_atoms upper move ${xstep1} 0.0 0.0 units lattice
        displace_atoms upper move 0.00333333333333333 0.0 0.0 units lattice
        min_style ${style}
        min_style cg
        minimize ${etol} ${ftol} ${maxiter} ${maxeval}
        minimize 1e-12 ${ftol} ${maxiter} ${maxeval}
        minimize 1e-12 1e-08 ${maxiter} ${maxeval}
        minimize 1e-12 1e-08 10000 ${maxeval}
        minimize 1e-12 1e-08 10000 20000
WARNING: Resetting reneighboring criteria during minimization (../min.cpp:168)
Memory usage per processor = 3.35153 Mbytes
Step Temp PotEng Lx Ly Lz 
     337            0    -280.2484    2.2449075    37.134115    1.1224537 
     338            0    -280.2484    2.2449075    37.134115    1.1224537 
     339            0   -280.24841    2.2449075    37.134115    1.1224537 
     340            0   -280.24841    2.2449075    37.134115    1.1224537 
     341            0   -280.24841    2.2449075    37.134115    1.1224537 
     342            0   -280.24841    2.2449075    37.134115    1.1224537 
     343            0   -280.24841    2.2449075    37.134115    1.1224537 
     344            0   -280.24841    2.2449075    37.134115    1.1224537 
     345            0   -280.24841    2.2449075    37.134115    1.1224537 
     346            0   -280.24841    2.2449075    37.134115    1.1224537 
     347            0   -280.24841    2.2449075    37.134115    1.1224537 
     348            0   -280.24841    2.2449075    37.134115    1.1224537 
     349            0   -280.24841    2.2449075    37.134115    1.1224537 
     350            0   -280.24841    2.2449075    37.134115    1.1224537 
     351            0   -280.24841    2.2449075    37.134115    1.1224537 
     352            0   -280.24841    2.2449075    37.134115    1.1224537 
     353            0   -280.24841    2.2449075    37.134115    1.1224537 
     354            0   -280.24841    2.2449075    37.134115    1.1224537 
     355            0   -280.24841    2.2449075    37.134115    1.1224537 
     356            0   -280.24841    2.2449075    37.134115    1.1224537 
     357            0   -280.24841    2.2449075    37.134115    1.1224537 
     358            0   -280.24841    2.2449075    37.134115    1.1224537 
     359            0   -280.24841    2.2449075    37.134115    1.1224537 
     360            0   -280.24841    2.2449075    37.134115    1.1224537 
     361            0   -280.24841    2.2449075    37.134115    1.1224537 
     362            0   -280.24841    2.2449075    37.134115    1.1224537 
     363            0   -280.24841    2.2449075    37.134115    1.1224537 
     364            0   -280.24841    2.2449075    37.134115    1.1224537 
     365            0   -280.24841    2.2449075    37.134115    1.1224537 
     366            0   -280.24841    2.2449075    37.134115    1.1224537 
     367            0   -280.24841    2.2449075    37.134115    1.1224537 
     368            0   -280.24841    2.2449075    37.134115    1.1224537 
     369            0   -280.24841    2.2449075    37.134115    1.1224537 
     370            0   -280.24841    2.2449075    37.134115    1.1224537 
     371            0   -280.24841    2.2449075    37.134115    1.1224537 
     372            0   -280.24841    2.2449075    37.134115    1.1224537 
     373            0   -280.24841    2.2449075    37.134115    1.1224537 
     374            0   -280.24841    2.2449075    37.134115    1.1224537 
     375            0   -280.24841    2.2449075    37.134115    1.1224537 
     376            0   -280.24841    2.2449075    37.134115    1.1224537 
     377            0   -280.24841    2.2449075    37.134115    1.1224537 
     378            0   -280.24841    2.2449075    37.134115    1.1224537 
     379            0   -280.24841    2.2449075    37.134115    1.1224537 
Loop time of 0.020452 on 1 procs for 42 steps with 82 atoms

Minimization stats:
  Stopping criterion = linesearch alpha is zero
  Energy initial, next-to-last, final = 
         -280.24839962     -280.248408163     -280.248408163
  Force two-norm initial, final = 0.0381362 0.00096305
  Force max component initial, final = 0.0190637 0.000192759
  Final line search alpha, max atom move = 0.015625 3.01186e-06
  Iterations, force evaluations = 42 297

Pair  time (%) = 0.0165071 (80.7118)
Neigh time (%) = 0 (0)
Comm  time (%) = 0.000693687 (3.39178)
Outpt time (%) = 0.00160966 (7.87043)
Other time (%) = 0.00164148 (8.02603)

Nlocal:    82 ave 82 max 82 min
Histogram: 1 0 0 0 0 0 0 0 0 0
Nghost:    195 ave 195 max 195 min
Histogram: 1 0 0 0 0 0 0 0 0 0
Neighs:    718 ave 718 max 718 min
Histogram: 1 0 0 0 0 0 0 0 0 0

Total # of neighbors = 718
Ave neighs/atom = 8.7561
Neighbor list builds = 0
Dangerous builds = 0
        # write_dump all atom ${dumpfile}
        next i
jump SELF loop1
        displace_atoms upper move ${xstep1} 0.0 0.0 units lattice
        displace_atoms upper move 0.00333333333333333 0.0 0.0 units lattice
        min_style ${style}
        min_style cg
        minimize ${etol} ${ftol} ${maxiter} ${maxeval}
        minimize 1e-12 ${ftol} ${maxiter} ${maxeval}
        minimize 1e-12 1e-08 ${maxiter} ${maxeval}
        minimize 1e-12 1e-08 10000 ${maxeval}
        minimize 1e-12 1e-08 10000 20000
WARNING: Resetting reneighboring criteria during minimization (../min.cpp:168)
Memory usage per processor = 3.35153 Mbytes
Step Temp PotEng Lx Ly Lz 
     379            0   -280.24381    2.2449075    37.134577    1.1224537 
     380            0   -280.24382    2.2449075    37.134577    1.1224537 
     381            0   -280.24382    2.2449075    37.134577    1.1224537 
     382            0   -280.24382    2.2449075    37.134577    1.1224537 
     383            0   -280.24382    2.2449075    37.134577    1.1224537 
     384            0   -280.24382    2.2449075    37.134577    1.1224537 
     385            0   -280.24382    2.2449075    37.134577    1.1224537 
     386            0   -280.24382    2.2449075    37.134577    1.1224537 
     387            0   -280.24382    2.2449075    37.134577    1.1224537 
     388            0   -280.24382    2.2449075    37.134577    1.1224537 
     389            0   -280.24382    2.2449075    37.134577    1.1224537 
     390            0   -280.24382    2.2449075    37.134577    1.1224537 
     391            0   -280.24382    2.2449075    37.134577    1.1224537 
     392            0   -280.24382    2.2449075    37.134577    1.1224537 
     393            0   -280.24382    2.2449075    37.134577    1.1224537 
     394            0   -280.24382    2.2449075    37.134577    1.1224537 
     395            0   -280.24382    2.2449075    37.134577    1.1224537 
     396            0   -280.24382    2.2449075    37.134577    1.1224537 
     397            0   -280.24382    2.2449075    37.134577    1.1224537 
     398            0   -280.24382    2.2449075    37.134577    1.1224537 
     399            0   -280.24382    2.2449075    37.134577    1.1224537 
     400            0   -280.24382    2.2449075    37.134577    1.1224537 
     401            0   -280.24382    2.2449075    37.134577    1.1224537 
     402            0   -280.24382    2.2449075    37.134577    1.1224537 
     403            0   -280.24382    2.2449075    37.134577    1.1224537 
     404            0   -280.24382    2.2449075    37.134577    1.1224537 
     405            0   -280.24382    2.2449075    37.134577    1.1224537 
     406            0   -280.24382    2.2449075    37.134577    1.1224537 
     407            0   -280.24382    2.2449075    37.134577    1.1224537 
     408            0   -280.24382    2.2449075    37.134577    1.1224537 
     409            0   -280.24382    2.2449075    37.134577    1.1224537 
     410            0   -280.24382    2.2449075    37.134577    1.1224537 
Loop time of 0.019771 on 1 procs for 31 steps with 82 atoms

Minimization stats:
  Stopping criterion = linesearch alpha is zero
  Energy initial, next-to-last, final = 
        -280.243812158      -280.24382213      -280.24382213
  Force two-norm initial, final = 0.0421638 0.00120007
  Force max component initial, final = 0.0210869 0.000315925
  Final line search alpha, max atom move = 0.0078125 2.46816e-06
  Iterations, force evaluations = 31 224

Pair  time (%) = 0.0131236 (66.3782)
Neigh time (%) = 0 (0)
Comm  time (%) = 0.00437879 (22.1476)
Outpt time (%) = 0.00165799 (8.38599)
Other time (%) = 0.000610576 (3.08824)

Nlocal:    82 ave 82 max 82 min
Histogram: 1 0 0 0 0 0 0 0 0 0
Nghost:    195 ave 195 max 195 min
Histogram: 1 0 0 0 0 0 0 0 0 0
Neighs:    718 ave 718 max 718 min
Histogram: 1 0 0 0 0 0 0 0 0 0

Total # of neighbors = 718
Ave neighs/atom = 8.7561
Neighbor list builds = 0
Dangerous builds = 0
        # write_dump all atom ${dumpfile}
        next i
jump SELF loop1
        displace_atoms upper move ${xstep1} 0.0 0.0 units lattice
        displace_atoms upper move 0.00333333333333333 0.0 0.0 units lattice
        min_style ${style}
        min_style cg
        minimize ${etol} ${ftol} ${maxiter} ${maxeval}
        minimize 1e-12 ${ftol} ${maxiter} ${maxeval}
        minimize 1e-12 1e-08 ${maxiter} ${maxeval}
        minimize 1e-12 1e-08 10000 ${maxeval}
        minimize 1e-12 1e-08 10000 20000
WARNING: Resetting reneighboring criteria during minimization (../min.cpp:168)
Memory usage per processor = 3.35153 Mbytes
Step Temp PotEng Lx Ly Lz 
     410            0   -280.23882    2.2449075    37.134924    1.1224537 
     411            0   -280.23882    2.2449075    37.134924    1.1224537 
     412            0   -280.23882    2.2449075    37.134924    1.1224537 
     413            0   -280.23882    2.2449075    37.134924    1.1224537 
     414            0   -280.23882    2.2449075    37.134924    1.1224537 
     415            0   -280.23883    2.2449075    37.134924    1.1224537 
     416            0   -280.23883    2.2449075    37.134924    1.1224537 
     417            0   -280.23883    2.2449075    37.134924    1.1224537 
     418            0   -280.23883    2.2449075    37.134924    1.1224537 
     419            0   -280.23883    2.2449075    37.134924    1.1224537 
     420            0   -280.23883    2.2449075    37.134924    1.1224537 
     421            0   -280.23883    2.2449075    37.134924    1.1224537 
     422            0   -280.23883    2.2449075    37.134924    1.1224537 
     423            0   -280.23883    2.2449075    37.134924    1.1224537 
     424            0   -280.23883    2.2449075    37.134924    1.1224537 
     425            0   -280.23883    2.2449075    37.134924    1.1224537 
     426            0   -280.23883    2.2449075    37.134924    1.1224537 
     427            0   -280.23883    2.2449075    37.134924    1.1224537 
     428            0   -280.23883    2.2449075    37.134924    1.1224537 
     429            0   -280.23883    2.2449075    37.134924    1.1224537 
     430            0   -280.23883    2.2449075    37.134924    1.1224537 
     431            0   -280.23883    2.2449075    37.134924    1.1224537 
     432            0   -280.23883    2.2449075    37.134924    1.1224537 
     433            0   -280.23883    2.2449075    37.134924    1.1224537 
     434            0   -280.23883    2.2449075    37.134924    1.1224537 
     435            0   -280.23883    2.2449075    37.134924    1.1224537 
     436            0   -280.23883    2.2449075    37.134924    1.1224537 
     437            0   -280.23883    2.2449075    37.134924    1.1224537 
     438            0   -280.23883    2.2449075    37.134924    1.1224537 
     439            0   -280.23883    2.2449075    37.134924    1.1224537 
     440            0   -280.23883    2.2449075    37.134924    1.1224537 
     441            0   -280.23883    2.2449075    37.134924    1.1224537 
     442            0   -280.23883    2.2449075    37.134924    1.1224537 
     443            0   -280.23883    2.2449075    37.134924    1.1224537 
     444            0   -280.23883    2.2449075    37.134924    1.1224537 
Loop time of 0.0187551 on 1 procs for 34 steps with 82 atoms

Minimization stats:
  Stopping criterion = linesearch alpha is zero
  Energy initial, next-to-last, final = 
        -280.238815307     -280.238827325     -280.238827325
  Force two-norm initial, final = 0.0456359 0.00074085
  Force max component initial, final = 0.022812 0.000173632
  Final line search alpha, max atom move = 0.015625 2.713e-06
  Iterations, force evaluations = 34 244

Pair  time (%) = 0.0135795 (72.4042)
Neigh time (%) = 0 (0)
Comm  time (%) = 0.00353501 (18.8483)
Outpt time (%) = 0.000672262 (3.58443)
Other time (%) = 0.000968351 (5.16314)

Nlocal:    82 ave 82 max 82 min
Histogram: 1 0 0 0 0 0 0 0 0 0
Nghost:    195 ave 195 max 195 min
Histogram: 1 0 0 0 0 0 0 0 0 0
Neighs:    718 ave 718 max 718 min
Histogram: 1 0 0 0 0 0 0 0 0 0

Total # of neighbors = 718
Ave neighs/atom = 8.7561
Neighbor list builds = 0
Dangerous builds = 0
        # write_dump all atom ${dumpfile}
        next i
jump SELF loop1
        displace_atoms upper move ${xstep1} 0.0 0.0 units lattice
        displace_atoms upper move 0.00333333333333333 0.0 0.0 units lattice
        min_style ${style}
        min_style cg
        minimize ${etol} ${ftol} ${maxiter} ${maxeval}
        minimize 1e-12 ${ftol} ${maxiter} ${maxeval}
        minimize 1e-12 1e-08 ${maxiter} ${maxeval}
        minimize 1e-12 1e-08 10000 ${maxeval}
        minimize 1e-12 1e-08 10000 20000
WARNING: Resetting reneighboring criteria during minimization (../min.cpp:168)
Memory usage per processor = 3.35153 Mbytes
Step Temp PotEng Lx Ly Lz 
     444            0   -280.23342    2.2449075    37.135398    1.1224537 
     445            0   -280.23342    2.2449075    37.135398    1.1224537 
     446            0   -280.23343    2.2449075    37.135398    1.1224537 
     447            0   -280.23343    2.2449075    37.135398    1.1224537 
     448            0   -280.23343    2.2449075    37.135398    1.1224537 
     449            0   -280.23343    2.2449075    37.135398    1.1224537 
     450            0   -280.23343    2.2449075    37.135398    1.1224537 
     451            0   -280.23343    2.2449075    37.135398    1.1224537 
     452            0   -280.23343    2.2449075    37.135398    1.1224537 
     453            0   -280.23343    2.2449075    37.135398    1.1224537 
     454            0   -280.23343    2.2449075    37.135398    1.1224537 
     455            0   -280.23343    2.2449075    37.135398    1.1224537 
     456            0   -280.23343    2.2449075    37.135398    1.1224537 
     457            0   -280.23343    2.2449075    37.135398    1.1224537 
     458            0   -280.23343    2.2449075    37.135398    1.1224537 
     459            0   -280.23343    2.2449075    37.135398    1.1224537 
     460            0   -280.23343    2.2449075    37.135398    1.1224537 
     461            0   -280.23343    2.2449075    37.135398    1.1224537 
     462            0   -280.23343    2.2449075    37.135398    1.1224537 
     463            0   -280.23343    2.2449075    37.135398    1.1224537 
     464            0   -280.23343    2.2449075    37.135398    1.1224537 
     465            0   -280.23343    2.2449075    37.135398    1.1224537 
     466            0   -280.23343    2.2449075    37.135398    1.1224537 
     467            0   -280.23343    2.2449075    37.135398    1.1224537 
     468            0   -280.23343    2.2449075    37.135398    1.1224537 
     469            0   -280.23343    2.2449075    37.135398    1.1224537 
     470            0   -280.23343    2.2449075    37.135398    1.1224537 
     471            0   -280.23343    2.2449075    37.135398    1.1224537 
     472            0   -280.23343    2.2449075    37.135398    1.1224537 
     473            0   -280.23343    2.2449075    37.135398    1.1224537 
     474            0   -280.23343    2.2449075    37.135398    1.1224537 
     475            0   -280.23343    2.2449075    37.135398    1.1224537 
     476            0   -280.23343    2.2449075    37.135398    1.1224537 
     477            0   -280.23343    2.2449075    37.135398    1.1224537 
     478            0   -280.23343    2.2449075    37.135398    1.1224537 
     479            0   -280.23343    2.2449075    37.135398    1.1224537 
     480            0   -280.23343    2.2449075    37.135398    1.1224537 
     481            0   -280.23343    2.2449075    37.135398    1.1224537 
     482            0   -280.23343    2.2449075    37.135398    1.1224537 
     483            0   -280.23343    2.2449075    37.135398    1.1224537 
Loop time of 0.018438 on 1 procs for 39 steps with 82 atoms

Minimization stats:
  Stopping criterion = linesearch alpha is zero
  Energy initial, next-to-last, final = 
        -280.233416906     -280.233431431     -280.233431431
  Force two-norm initial, final = 0.0494405 0.000875226
  Force max component initial, final = 0.02472 0.000217223
  Final line search alpha, max atom move = 0.015625 3.39412e-06
  Iterations, force evaluations = 39 272

Pair  time (%) = 0.0150079 (81.397)
Neigh time (%) = 0 (0)
Comm  time (%) = 0.000384893 (2.0875)
Outpt time (%) = 0.00240611 (13.0498)
Other time (%) = 0.000639013 (3.46575)

Nlocal:    82 ave 82 max 82 min
Histogram: 1 0 0 0 0 0 0 0 0 0
Nghost:    195 ave 195 max 195 min
Histogram: 1 0 0 0 0 0 0 0 0 0
Neighs:    718 ave 718 max 718 min
Histogram: 1 0 0 0 0 0 0 0 0 0

Total # of neighbors = 718
Ave neighs/atom = 8.7561
Neighbor list builds = 0
Dangerous builds = 0
        # write_dump all atom ${dumpfile}
        next i
jump SELF loop1
        displace_atoms upper move ${xstep1} 0.0 0.0 units lattice
        displace_atoms upper move 0.00333333333333333 0.0 0.0 units lattice
        min_style ${style}
        min_style cg
        minimize ${etol} ${ftol} ${maxiter} ${maxeval}
        minimize 1e-12 ${ftol} ${maxiter} ${maxeval}
        minimize 1e-12 1e-08 ${maxiter} ${maxeval}
        minimize 1e-12 1e-08 10000 ${maxeval}
        minimize 1e-12 1e-08 10000 20000
WARNING: Resetting reneighboring criteria during minimization (../min.cpp:168)
Memory usage per processor = 3.35153 Mbytes
Step Temp PotEng Lx Ly Lz 
     483            0   -280.22763    2.2449075    37.136241    1.1224537 
     484            0   -280.22763    2.2449075    37.136241    1.1224537 
     485            0   -280.22764    2.2449075    37.136241    1.1224537 
     486            0   -280.22764    2.2449075    37.136241    1.1224537 
     487            0   -280.22764    2.2449075    37.136241    1.1224537 
     488            0   -280.22764    2.2449075    37.136241    1.1224537 
     489            0   -280.22764    2.2449075    37.136241    1.1224537 
     490            0   -280.22764    2.2449075    37.136241    1.1224537 
     491            0   -280.22764    2.2449075    37.136241    1.1224537 
     492            0   -280.22764    2.2449075    37.136241    1.1224537 
     493            0   -280.22764    2.2449075    37.136241    1.1224537 
     494            0   -280.22764    2.2449075    37.136241    1.1224537 
     495            0   -280.22764    2.2449075    37.136241    1.1224537 
     496            0   -280.22764    2.2449075    37.136241    1.1224537 
     497            0   -280.22764    2.2449075    37.136241    1.1224537 
     498            0   -280.22764    2.2449075    37.136241    1.1224537 
     499            0   -280.22764    2.2449075    37.136241    1.1224537 
     500            0   -280.22764    2.2449075    37.136241    1.1224537 
     501            0   -280.22764    2.2449075    37.136241    1.1224537 
     502            0   -280.22764    2.2449075    37.136241    1.1224537 
     503            0   -280.22764    2.2449075    37.136241    1.1224537 
     504            0   -280.22764    2.2449075    37.136241    1.1224537 
     505            0   -280.22764    2.2449075    37.136241    1.1224537 
     506            0   -280.22764    2.2449075    37.136241    1.1224537 
     507            0   -280.22764    2.2449075    37.136241    1.1224537 
     508            0   -280.22764    2.2449075    37.136241    1.1224537 
     509            0   -280.22764    2.2449075    37.136241    1.1224537 
     510            0   -280.22764    2.2449075    37.136241    1.1224537 
     511            0   -280.22764    2.2449075    37.136241    1.1224537 
     512            0   -280.22764    2.2449075    37.136241    1.1224537 
     513            0   -280.22764    2.2449075    37.136241    1.1224537 
     514            0   -280.22764    2.2449075    37.136241    1.1224537 
     515            0   -280.22764    2.2449075    37.136241    1.1224537 
     516            0   -280.22764    2.2449075    37.136241    1.1224537 
     517            0   -280.22764    2.2449075    37.136241    1.1224537 
     518            0   -280.22764    2.2449075    37.136241    1.1224537 
     519            0   -280.22764    2.2449075    37.136241    1.1224537 
     520            0   -280.22764    2.2449075    37.136241    1.1224537 
     521            0   -280.22764    2.2449075    37.136241    1.1224537 
     522            0   -280.22764    2.2449075    37.136241    1.1224537 
     523            0   -280.22764    2.2449075    37.136241    1.1224537 
     524            0   -280.22764    2.2449075    37.136241    1.1224537 
     525            0   -280.22764    2.2449075    37.136241    1.1224537 
     526            0   -280.22764    2.2449075    37.136241    1.1224537 
     527            0   -280.22764    2.2449075    37.136241    1.1224537 
     528            0   -280.22764    2.2449075    37.136241    1.1224537 
Loop time of 0.025756 on 1 procs for 45 steps with 82 atoms

Minimization stats:
  Stopping criterion = linesearch alpha is zero
  Energy initial, next-to-last, final = 
        -280.227625657     -280.227641521     -280.227641521
  Force two-norm initial, final = 0.0528913 0.000858091
  Force max component initial, final = 0.026449 0.000196735
  Final line search alpha, max atom move = 0.015625 3.07399e-06
  Iterations, force evaluations = 45 316

Pair  time (%) = 0.0217961 (84.6252)
Neigh time (%) = 0 (0)
Comm  time (%) = 0.00137372 (5.33357)
Outpt time (%) = 0.00153864 (5.97391)
Other time (%) = 0.00104757 (4.06729)

Nlocal:    82 ave 82 max 82 min
Histogram: 1 0 0 0 0 0 0 0 0 0
Nghost:    195 ave 195 max 195 min
Histogram: 1 0 0 0 0 0 0 0 0 0
Neighs:    718 ave 718 max 718 min
Histogram: 1 0 0 0 0 0 0 0 0 0

Total # of neighbors = 718
Ave neighs/atom = 8.7561
Neighbor list builds = 0
Dangerous builds = 0
        # write_dump all atom ${dumpfile}
        next i
jump SELF loop1
        displace_atoms upper move ${xstep1} 0.0 0.0 units lattice
        displace_atoms upper move 0.00333333333333333 0.0 0.0 units lattice
        min_style ${style}
        min_style cg
        minimize ${etol} ${ftol} ${maxiter} ${maxeval}
        minimize 1e-12 ${ftol} ${maxiter} ${maxeval}
        minimize 1e-12 1e-08 ${maxiter} ${maxeval}
        minimize 1e-12 1e-08 10000 ${maxeval}
        minimize 1e-12 1e-08 10000 20000
WARNING: Resetting reneighboring criteria during minimization (../min.cpp:168)
Memory usage per processor = 3.35153 Mbytes
Step Temp PotEng Lx Ly Lz 
     528            0   -280.22145    2.2449075    37.136988    1.1224537 
     529            0   -280.22146    2.2449075    37.136988    1.1224537 
     530            0   -280.22146    2.2449075    37.136988    1.1224537 
     531            0   -280.22146    2.2449075    37.136988    1.1224537 
     532            0   -280.22146    2.2449075    37.136988    1.1224537 
     533            0   -280.22146    2.2449075    37.136988    1.1224537 
     534            0   -280.22146    2.2449075    37.136988    1.1224537 
     535            0   -280.22146    2.2449075    37.136988    1.1224537 
     536            0   -280.22146    2.2449075    37.136988    1.1224537 
     537            0   -280.22146    2.2449075    37.136988    1.1224537 
     538            0   -280.22146    2.2449075    37.136988    1.1224537 
     539            0   -280.22146    2.2449075    37.136988    1.1224537 
     540            0   -280.22146    2.2449075    37.136988    1.1224537 
     541            0   -280.22146    2.2449075    37.136988    1.1224537 
     542            0   -280.22146    2.2449075    37.136988    1.1224537 
     543            0   -280.22146    2.2449075    37.136988    1.1224537 
     544            0   -280.22146    2.2449075    37.136988    1.1224537 
     545            0   -280.22146    2.2449075    37.136988    1.1224537 
     546            0   -280.22146    2.2449075    37.136988    1.1224537 
     547            0   -280.22146    2.2449075    37.136988    1.1224537 
     548            0   -280.22146    2.2449075    37.136988    1.1224537 
     549            0   -280.22146    2.2449075    37.136988    1.1224537 
     550            0   -280.22147    2.2449075    37.136988    1.1224537 
     551            0   -280.22147    2.2449075    37.136988    1.1224537 
     552            0   -280.22147    2.2449075    37.136988    1.1224537 
     553            0   -280.22147    2.2449075    37.136988    1.1224537 
     554            0   -280.22147    2.2449075    37.136988    1.1224537 
     555            0   -280.22147    2.2449075    37.136988    1.1224537 
     556            0   -280.22147    2.2449075    37.136988    1.1224537 
     557            0   -280.22147    2.2449075    37.136988    1.1224537 
     558            0   -280.22147    2.2449075    37.136988    1.1224537 
     559            0   -280.22147    2.2449075    37.136988    1.1224537 
     560            0   -280.22147    2.2449075    37.136988    1.1224537 
     561            0   -280.22147    2.2449075    37.136988    1.1224537 
     562            0   -280.22147    2.2449075    37.136988    1.1224537 
     563            0   -280.22147    2.2449075    37.136988    1.1224537 
     564            0   -280.22147    2.2449075    37.136988    1.1224537 
     565            0   -280.22147    2.2449075    37.136988    1.1224537 
     566            0   -280.22147    2.2449075    37.136988    1.1224537 
     567            0   -280.22147    2.2449075    37.136988    1.1224537 
     568            0   -280.22147    2.2449075    37.136988    1.1224537 
     569            0   -280.22147    2.2449075    37.136988    1.1224537 
     570            0   -280.22147    2.2449075    37.136988    1.1224537 
     571            0   -280.22147    2.2449075    37.136988    1.1224537 
     572            0   -280.22147    2.2449075    37.136988    1.1224537 
     573            0   -280.22147    2.2449075    37.136988    1.1224537 
Loop time of 0.0254379 on 1 procs for 45 steps with 82 atoms

Minimization stats:
  Stopping criterion = linesearch alpha is zero
  Energy initial, next-to-last, final = 
         -280.22144852     -280.221465927     -280.221465927
  Force two-norm initial, final = 0.0564431 0.00114568
  Force max component initial, final = 0.0282392 0.000267383
  Final line search alpha, max atom move = 0.0078125 2.08893e-06
  Iterations, force evaluations = 45 316

Pair  time (%) = 0.0227603 (89.4739)
Neigh time (%) = 0 (0)
Comm  time (%) = 0.000523593 (2.05832)
Outpt time (%) = 0.00125547 (4.93543)
Other time (%) = 0.000898543 (3.5323)

Nlocal:    82 ave 82 max 82 min
Histogram: 1 0 0 0 0 0 0 0 0 0
Nghost:    195 ave 195 max 195 min
Histogram: 1 0 0 0 0 0 0 0 0 0
Neighs:    718 ave 718 max 718 min
Histogram: 1 0 0 0 0 0 0 0 0 0

Total # of neighbors = 718
Ave neighs/atom = 8.7561
Neighbor list builds = 0
Dangerous builds = 0
        # write_dump all atom ${dumpfile}
        next i
jump SELF loop1
        displace_atoms upper move ${xstep1} 0.0 0.0 units lattice
        displace_atoms upper move 0.00333333333333333 0.0 0.0 units lattice
        min_style ${style}
        min_style cg
        minimize ${etol} ${ftol} ${maxiter} ${maxeval}
        minimize 1e-12 ${ftol} ${maxiter} ${maxeval}
        minimize 1e-12 1e-08 ${maxiter} ${maxeval}
        minimize 1e-12 1e-08 10000 ${maxeval}
        minimize 1e-12 1e-08 10000 20000
WARNING: Resetting reneighboring criteria during minimization (../min.cpp:168)
Memory usage per processor = 3.35153 Mbytes
Step Temp PotEng Lx Ly Lz 
     573            0   -280.21489    2.2449075     37.13758    1.1224537 
     574            0   -280.21491    2.2449075     37.13758    1.1224537 
     575            0   -280.21491    2.2449075     37.13758    1.1224537 
     576            0   -280.21491    2.2449075     37.13758    1.1224537 
     577            0   -280.21491    2.2449075     37.13758    1.1224537 
     578            0   -280.21491    2.2449075     37.13758    1.1224537 
     579            0   -280.21491    2.2449075     37.13758    1.1224537 
     580            0   -280.21491    2.2449075     37.13758    1.1224537 
     581            0   -280.21491    2.2449075     37.13758    1.1224537 
     582            0   -280.21491    2.2449075     37.13758    1.1224537 
     583            0   -280.21491    2.2449075     37.13758    1.1224537 
     584            0   -280.21491    2.2449075     37.13758    1.1224537 
     585            0   -280.21491    2.2449075     37.13758    1.1224537 
     586            0   -280.21491    2.2449075     37.13758    1.1224537 
     587            0   -280.21491    2.2449075     37.13758    1.1224537 
     588            0   -280.21491    2.2449075     37.13758    1.1224537 
     589            0   -280.21491    2.2449075     37.13758    1.1224537 
     590            0   -280.21491    2.2449075     37.13758    1.1224537 
     591            0   -280.21491    2.2449075     37.13758    1.1224537 
     592            0   -280.21491    2.2449075     37.13758    1.1224537 
     593            0   -280.21491    2.2449075     37.13758    1.1224537 
     594            0   -280.21491    2.2449075     37.13758    1.1224537 
     595            0   -280.21491    2.2449075     37.13758    1.1224537 
     596            0   -280.21491    2.2449075     37.13758    1.1224537 
     597            0   -280.21491    2.2449075     37.13758    1.1224537 
     598            0   -280.21491    2.2449075     37.13758    1.1224537 
     599            0   -280.21491    2.2449075     37.13758    1.1224537 
     600            0   -280.21491    2.2449075     37.13758    1.1224537 
     601            0   -280.21491    2.2449075     37.13758    1.1224537 
     602            0   -280.21491    2.2449075     37.13758    1.1224537 
     603            0   -280.21491    2.2449075     37.13758    1.1224537 
     604            0   -280.21491    2.2449075     37.13758    1.1224537 
     605            0   -280.21491    2.2449075     37.13758    1.1224537 
     606            0   -280.21491    2.2449075     37.13758    1.1224537 
     607            0   -280.21491    2.2449075     37.13758    1.1224537 
     608            0   -280.21491    2.2449075     37.13758    1.1224537 
     609            0   -280.21491    2.2449075     37.13758    1.1224537 
     610            0   -280.21491    2.2449075     37.13758    1.1224537 
     611            0   -280.21491    2.2449075     37.13758    1.1224537 
     612            0   -280.21491    2.2449075     37.13758    1.1224537 
     613            0   -280.21491    2.2449075     37.13758    1.1224537 
     614            0   -280.21491    2.2449075     37.13758    1.1224537 
     615            0   -280.21491    2.2449075     37.13758    1.1224537 
     616            0   -280.21491    2.2449075     37.13758    1.1224537 
Loop time of 0.022555 on 1 procs for 43 steps with 82 atoms

Minimization stats:
  Stopping criterion = linesearch alpha is zero
  Energy initial, next-to-last, final = 
        -280.214893612      -280.21491362      -280.21491362
  Force two-norm initial, final = 0.0601798 0.000776374
  Force max component initial, final = 0.0301582 0.00020917
  Final line search alpha, max atom move = 0.015625 3.26829e-06
  Iterations, force evaluations = 43 301

Pair  time (%) = 0.0204008 (90.4493)
Neigh time (%) = 0 (0)
Comm  time (%) = 0.000400254 (1.77457)
Outpt time (%) = 0.00104018 (4.61175)
Other time (%) = 0.000713723 (3.16437)

Nlocal:    82 ave 82 max 82 min
Histogram: 1 0 0 0 0 0 0 0 0 0
Nghost:    195 ave 195 max 195 min
Histogram: 1 0 0 0 0 0 0 0 0 0
Neighs:    718 ave 718 max 718 min
Histogram: 1 0 0 0 0 0 0 0 0 0

Total # of neighbors = 718
Ave neighs/atom = 8.7561
Neighbor list builds = 0
Dangerous builds = 0
        # write_dump all atom ${dumpfile}
        next i
jump SELF loop1
        displace_atoms upper move ${xstep1} 0.0 0.0 units lattice
        displace_atoms upper move 0.00333333333333333 0.0 0.0 units lattice
        min_style ${style}
        min_style cg
        minimize ${etol} ${ftol} ${maxiter} ${maxeval}
        minimize 1e-12 ${ftol} ${maxiter} ${maxeval}
        minimize 1e-12 1e-08 ${maxiter} ${maxeval}
        minimize 1e-12 1e-08 10000 ${maxeval}
        minimize 1e-12 1e-08 10000 20000
WARNING: Resetting reneighboring criteria during minimization (../min.cpp:168)
Memory usage per processor = 3.35153 Mbytes
Step Temp PotEng Lx Ly Lz 
     616            0   -280.20797    2.2449075    37.138277    1.1224537 
     617            0   -280.20798    2.2449075    37.138277    1.1224537 
     618            0   -280.20799    2.2449075    37.138277    1.1224537 
     619            0   -280.20799    2.2449075    37.138277    1.1224537 
     620            0   -280.20799    2.2449075    37.138277    1.1224537 
     621            0   -280.20799    2.2449075    37.138277    1.1224537 
     622            0   -280.20799    2.2449075    37.138277    1.1224537 
     623            0   -280.20799    2.2449075    37.138277    1.1224537 
     624            0   -280.20799    2.2449075    37.138277    1.1224537 
     625            0   -280.20799    2.2449075    37.138277    1.1224537 
     626            0   -280.20799    2.2449075    37.138277    1.1224537 
     627            0   -280.20799    2.2449075    37.138277    1.1224537 
     628            0   -280.20799    2.2449075    37.138277    1.1224537 
     629            0   -280.20799    2.2449075    37.138277    1.1224537 
     630            0   -280.20799    2.2449075    37.138277    1.1224537 
     631            0   -280.20799    2.2449075    37.138277    1.1224537 
     632            0   -280.20799    2.2449075    37.138277    1.1224537 
     633            0   -280.20799    2.2449075    37.138277    1.1224537 
     634            0   -280.20799    2.2449075    37.138277    1.1224537 
     635            0   -280.20799    2.2449075    37.138277    1.1224537 
     636            0   -280.20799    2.2449075    37.138277    1.1224537 
     637            0   -280.20799    2.2449075    37.138277    1.1224537 
     638            0   -280.20799    2.2449075    37.138277    1.1224537 
[...]
   13336            0   -280.26254    2.2449075    37.134519    1.1224537 
   13337            0   -280.26254    2.2449075    37.134519    1.1224537 
   13338            0   -280.26254    2.2449075    37.134519    1.1224537 
   13339            0   -280.26254    2.2449075    37.134519    1.1224537 
   13340            0   -280.26254    2.2449075    37.134519    1.1224537 
   13341            0   -280.26254    2.2449075    37.134519    1.1224537 
   13342            0   -280.26254    2.2449075    37.134519    1.1224537 
   13343            0   -280.26254    2.2449075    37.134519    1.1224537 
   13344            0   -280.26254    2.2449075    37.134519    1.1224537 
   13345            0   -280.26254    2.2449075    37.134519    1.1224537 
   13346            0   -280.26254    2.2449075    37.134519    1.1224537 
   13347            0   -280.26254    2.2449075    37.134519    1.1224537 
   13348            0   -280.26254    2.2449075    37.134519    1.1224537 
   13349            0   -280.26254    2.2449075    37.134519    1.1224537 
   13350            0   -280.26254    2.2449075    37.134519    1.1224537 
   13351            0   -280.26254    2.2449075    37.134519    1.1224537 
   13352            0   -280.26254    2.2449075    37.134519    1.1224537 
   13353            0   -280.26254    2.2449075    37.134519    1.1224537 
   13354            0   -280.26254    2.2449075    37.134519    1.1224537 
Loop time of 0.0185631 on 1 procs for 32 steps with 82 atoms

Minimization stats:
  Stopping criterion = linesearch alpha is zero
  Energy initial, next-to-last, final = 
        -280.262531712     -280.262536559     -280.262536559
  Force two-norm initial, final = 0.0260574 0.000528641
  Force max component initial, final = 0.0130188 0.000170558
  Final line search alpha, max atom move = 0.03125 5.32994e-06
  Iterations, force evaluations = 32 225

Pair  time (%) = 0.0161533 (87.0187)
Neigh time (%) = 0 (0)
Comm  time (%) = 0.000394747 (2.12651)
Outpt time (%) = 0.000783838 (4.22257)
Other time (%) = 0.00123115 (6.63224)

Nlocal:    82 ave 82 max 82 min
Histogram: 1 0 0 0 0 0 0 0 0 0
Nghost:    195 ave 195 max 195 min
Histogram: 1 0 0 0 0 0 0 0 0 0
Neighs:    718 ave 718 max 718 min
Histogram: 1 0 0 0 0 0 0 0 0 0

Total # of neighbors = 718
Ave neighs/atom = 8.7561
Neighbor list builds = 0
Dangerous builds = 0
        # write_dump all atom ${dumpfile}
        next i
jump SELF loop1
        displace_atoms upper move ${xstep1} 0.0 0.0 units lattice
        displace_atoms upper move 0.00333333333333333 0.0 0.0 units lattice
        min_style ${style}
        min_style cg
        minimize ${etol} ${ftol} ${maxiter} ${maxeval}
        minimize 1e-12 ${ftol} ${maxiter} ${maxeval}
        minimize 1e-12 1e-08 ${maxiter} ${maxeval}
        minimize 1e-12 1e-08 10000 ${maxeval}
        minimize 1e-12 1e-08 10000 20000
WARNING: Resetting reneighboring criteria during minimization (../min.cpp:168)
Memory usage per processor = 3.35153 Mbytes
Step Temp PotEng Lx Ly Lz 
   13354            0   -280.26499    2.2449075     37.13383    1.1224537 
   13355            0   -280.26499    2.2449075     37.13383    1.1224537 
   13356            0   -280.26499    2.2449075     37.13383    1.1224537 
   13357            0   -280.26499    2.2449075     37.13383    1.1224537 
   13358            0   -280.26499    2.2449075     37.13383    1.1224537 
   13359            0   -280.26499    2.2449075     37.13383    1.1224537 
   13360            0   -280.26499    2.2449075     37.13383    1.1224537 
   13361            0   -280.26499    2.2449075     37.13383    1.1224537 
   13362            0   -280.26499    2.2449075     37.13383    1.1224537 
   13363            0   -280.26499    2.2449075     37.13383    1.1224537 
   13364            0   -280.26499    2.2449075     37.13383    1.1224537 
   13365            0   -280.26499    2.2449075     37.13383    1.1224537 
   13366            0   -280.26499    2.2449075     37.13383    1.1224537 
   13367            0   -280.26499    2.2449075     37.13383    1.1224537 
   13368            0   -280.26499    2.2449075     37.13383    1.1224537 
   13369            0   -280.26499    2.2449075     37.13383    1.1224537 
   13370            0   -280.26499    2.2449075     37.13383    1.1224537 
   13371            0   -280.26499    2.2449075     37.13383    1.1224537 
   13372            0   -280.26499    2.2449075     37.13383    1.1224537 
Loop time of 0.00780407 on 1 procs for 18 steps with 82 atoms

Minimization stats:
  Stopping criterion = linesearch alpha is zero
  Energy initial, next-to-last, final = 
        -280.264985392     -280.264988015     -280.264988015
  Force two-norm initial, final = 0.0223407 0.0008588
  Force max component initial, final = 0.0111709 0.000226484
  Final line search alpha, max atom move = 0.015625 3.53881e-06
  Iterations, force evaluations = 18 131

Pair  time (%) = 0.00681491 (87.3251)
Neigh time (%) = 0 (0)
Comm  time (%) = 0.000154357 (1.9779)
Outpt time (%) = 0.000517035 (6.6252)
Other time (%) = 0.00031777 (4.07185)

Nlocal:    82 ave 82 max 82 min
Histogram: 1 0 0 0 0 0 0 0 0 0
Nghost:    195 ave 195 max 195 min
Histogram: 1 0 0 0 0 0 0 0 0 0
Neighs:    718 ave 718 max 718 min
Histogram: 1 0 0 0 0 0 0 0 0 0

Total # of neighbors = 718
Ave neighs/atom = 8.7561
Neighbor list builds = 0
Dangerous builds = 0
        # write_dump all atom ${dumpfile}
        next i
jump SELF loop1
        displace_atoms upper move ${xstep1} 0.0 0.0 units lattice
        displace_atoms upper move 0.00333333333333333 0.0 0.0 units lattice
        min_style ${style}
        min_style cg
        minimize ${etol} ${ftol} ${maxiter} ${maxeval}
        minimize 1e-12 ${ftol} ${maxiter} ${maxeval}
        minimize 1e-12 1e-08 ${maxiter} ${maxeval}
        minimize 1e-12 1e-08 10000 ${maxeval}
        minimize 1e-12 1e-08 10000 20000
WARNING: Resetting reneighboring criteria during minimization (../min.cpp:168)
Memory usage per processor = 3.35153 Mbytes
Step Temp PotEng Lx Ly Lz 
   13372            0     -280.267    2.2449075    37.133768    1.1224537 
   13373            0     -280.267    2.2449075    37.133768    1.1224537 
   13374            0     -280.267    2.2449075    37.133768    1.1224537 
   13375            0     -280.267    2.2449075    37.133768    1.1224537 
   13376            0     -280.267    2.2449075    37.133768    1.1224537 
   13377            0     -280.267    2.2449075    37.133768    1.1224537 
   13378            0     -280.267    2.2449075    37.133768    1.1224537 
   13379            0     -280.267    2.2449075    37.133768    1.1224537 
   13380            0     -280.267    2.2449075    37.133768    1.1224537 
   13381            0     -280.267    2.2449075    37.133768    1.1224537 
   13382            0     -280.267    2.2449075    37.133768    1.1224537 
   13383            0     -280.267    2.2449075    37.133768    1.1224537 
   13384            0     -280.267    2.2449075    37.133768    1.1224537 
   13385            0     -280.267    2.2449075    37.133768    1.1224537 
   13386            0     -280.267    2.2449075    37.133768    1.1224537 
   13387            0     -280.267    2.2449075    37.133768    1.1224537 
   13388            0     -280.267    2.2449075    37.133768    1.1224537 
   13389            0     -280.267    2.2449075    37.133768    1.1224537 
   13390            0     -280.267    2.2449075    37.133768    1.1224537 
   13391            0     -280.267    2.2449075    37.133768    1.1224537 
   13392            0     -280.267    2.2449075    37.133768    1.1224537 
   13393            0     -280.267    2.2449075    37.133768    1.1224537 
   13394            0     -280.267    2.2449075    37.133768    1.1224537 
   13395            0     -280.267    2.2449075    37.133768    1.1224537 
   13396            0     -280.267    2.2449075    37.133768    1.1224537 
   13397            0     -280.267    2.2449075    37.133768    1.1224537 
   13398            0     -280.267    2.2449075    37.133768    1.1224537 
   13399            0     -280.267    2.2449075    37.133768    1.1224537 
   13400            0     -280.267    2.2449075    37.133768    1.1224537 
   13401            0     -280.267    2.2449075    37.133768    1.1224537 
   13402            0     -280.267    2.2449075    37.133768    1.1224537 
   13403            0     -280.267    2.2449075    37.133768    1.1224537 
   13404            0     -280.267    2.2449075    37.133768    1.1224537 
   13405            0     -280.267    2.2449075    37.133768    1.1224537 
   13406            0     -280.267    2.2449075    37.133768    1.1224537 
   13407            0     -280.267    2.2449075    37.133768    1.1224537 
Loop time of 0.0203001 on 1 procs for 35 steps with 82 atoms

Minimization stats:
  Stopping criterion = linesearch alpha is zero
  Energy initial, next-to-last, final = 
         -280.26699697     -280.266999349     -280.266999349
  Force two-norm initial, final = 0.0183296 0.000669978
  Force max component initial, final = 0.00916343 0.000162445
  Final line search alpha, max atom move = 0.015625 2.53821e-06
  Iterations, force evaluations = 35 246

Pair  time (%) = 0.0152687 (75.215)
Neigh time (%) = 0 (0)
Comm  time (%) = 0.000437094 (2.15317)
Outpt time (%) = 0.000820386 (4.0413)
Other time (%) = 0.00377389 (18.5905)

Nlocal:    82 ave 82 max 82 min
Histogram: 1 0 0 0 0 0 0 0 0 0
Nghost:    195 ave 195 max 195 min
Histogram: 1 0 0 0 0 0 0 0 0 0
Neighs:    718 ave 718 max 718 min
Histogram: 1 0 0 0 0 0 0 0 0 0

Total # of neighbors = 718
Ave neighs/atom = 8.7561
Neighbor list builds = 0
Dangerous builds = 0
        # write_dump all atom ${dumpfile}
        next i
jump SELF loop1
        displace_atoms upper move ${xstep1} 0.0 0.0 units lattice
        displace_atoms upper move 0.00333333333333333 0.0 0.0 units lattice
        min_style ${style}
        min_style cg
        minimize ${etol} ${ftol} ${maxiter} ${maxeval}
        minimize 1e-12 ${ftol} ${maxiter} ${maxeval}
        minimize 1e-12 1e-08 ${maxiter} ${maxeval}
        minimize 1e-12 1e-08 10000 ${maxeval}
        minimize 1e-12 1e-08 10000 20000
WARNING: Resetting reneighboring criteria during minimization (../min.cpp:168)
Memory usage per processor = 3.35153 Mbytes
Step Temp PotEng Lx Ly Lz 
   13407            0   -280.26857    2.2449075    37.133291    1.1224537 
   13408            0   -280.26857    2.2449075    37.133291    1.1224537 
   13409            0   -280.26857    2.2449075    37.133291    1.1224537 
   13410            0   -280.26857    2.2449075    37.133291    1.1224537 
   13411            0   -280.26857    2.2449075    37.133291    1.1224537 
   13412            0   -280.26857    2.2449075    37.133291    1.1224537 
   13413            0   -280.26857    2.2449075    37.133291    1.1224537 
   13414            0   -280.26857    2.2449075    37.133291    1.1224537 
   13415            0   -280.26857    2.2449075    37.133291    1.1224537 
   13416            0   -280.26857    2.2449075    37.133291    1.1224537 
   13417            0   -280.26857    2.2449075    37.133291    1.1224537 
   13418            0   -280.26857    2.2449075    37.133291    1.1224537 
   13419            0   -280.26857    2.2449075    37.133291    1.1224537 
   13420            0   -280.26857    2.2449075    37.133291    1.1224537 
   13421            0   -280.26857    2.2449075    37.133291    1.1224537 
   13422            0   -280.26857    2.2449075    37.133291    1.1224537 
   13423            0   -280.26857    2.2449075    37.133291    1.1224537 
Loop time of 0.00850988 on 1 procs for 16 steps with 82 atoms

Minimization stats:
  Stopping criterion = linesearch alpha is zero
  Energy initial, next-to-last, final = 
        -280.268565512     -280.268566673     -280.268566673
  Force two-norm initial, final = 0.0142393 0.000802118
  Force max component initial, final = 0.00711599 0.000255998
  Final line search alpha, max atom move = 0.015625 3.99996e-06
  Iterations, force evaluations = 16 115

Pair  time (%) = 0.00640092 (75.2174)
Neigh time (%) = 0 (0)
Comm  time (%) = 0.000158892 (1.86714)
Outpt time (%) = 0.00163606 (19.2254)
Other time (%) = 0.000314019 (3.69005)

Nlocal:    82 ave 82 max 82 min
Histogram: 1 0 0 0 0 0 0 0 0 0
Nghost:    195 ave 195 max 195 min
Histogram: 1 0 0 0 0 0 0 0 0 0
Neighs:    718 ave 718 max 718 min
Histogram: 1 0 0 0 0 0 0 0 0 0

Total # of neighbors = 718
Ave neighs/atom = 8.7561
Neighbor list builds = 0
Dangerous builds = 0
        # write_dump all atom ${dumpfile}
        next i
jump SELF loop1
        displace_atoms upper move ${xstep1} 0.0 0.0 units lattice
        displace_atoms upper move 0.00333333333333333 0.0 0.0 units lattice
        min_style ${style}
        min_style cg
        minimize ${etol} ${ftol} ${maxiter} ${maxeval}
        minimize 1e-12 ${ftol} ${maxiter} ${maxeval}
        minimize 1e-12 1e-08 ${maxiter} ${maxeval}
        minimize 1e-12 1e-08 10000 ${maxeval}
        minimize 1e-12 1e-08 10000 20000
WARNING: Resetting reneighboring criteria during minimization (../min.cpp:168)
Memory usage per processor = 3.35153 Mbytes
Step Temp PotEng Lx Ly Lz 
   13423            0   -280.26969    2.2449075    37.133286    1.1224537 
   13424            0   -280.26969    2.2449075    37.133286    1.1224537 
   13425            0   -280.26969    2.2449075    37.133286    1.1224537 
   13426            0   -280.26969    2.2449075    37.133286    1.1224537 
   13427            0   -280.26969    2.2449075    37.133286    1.1224537 
   13428            0   -280.26969    2.2449075    37.133286    1.1224537 
   13429            0   -280.26969    2.2449075    37.133286    1.1224537 
Loop time of 0.00276702 on 1 procs for 6 steps with 82 atoms

Minimization stats:
  Stopping criterion = linesearch alpha is zero
  Energy initial, next-to-last, final = 
         -280.26968731     -280.269687796     -280.269687796
  Force two-norm initial, final = 0.0101191 0.000881858
  Force max component initial, final = 0.00504592 0.000301475
  Final line search alpha, max atom move = 0.015625 4.71054e-06
  Iterations, force evaluations = 6 46

Pair  time (%) = 0.00253975 (91.7865)
Neigh time (%) = 0 (0)
Comm  time (%) = 6.97412e-05 (2.52044)
Outpt time (%) = 3.70211e-05 (1.33794)
Other time (%) = 0.000120506 (4.35508)

Nlocal:    82 ave 82 max 82 min
Histogram: 1 0 0 0 0 0 0 0 0 0
Nghost:    195 ave 195 max 195 min
Histogram: 1 0 0 0 0 0 0 0 0 0
Neighs:    718 ave 718 max 718 min
Histogram: 1 0 0 0 0 0 0 0 0 0

Total # of neighbors = 718
Ave neighs/atom = 8.7561
Neighbor list builds = 0
Dangerous builds = 0
        # write_dump all atom ${dumpfile}
        next i
jump SELF loop1
        displace_atoms upper move ${xstep1} 0.0 0.0 units lattice
        displace_atoms upper move 0.00333333333333333 0.0 0.0 units lattice
        min_style ${style}
        min_style cg
        minimize ${etol} ${ftol} ${maxiter} ${maxeval}
        minimize 1e-12 ${ftol} ${maxiter} ${maxeval}
        minimize 1e-12 1e-08 ${maxiter} ${maxeval}
        minimize 1e-12 1e-08 10000 ${maxeval}
        minimize 1e-12 1e-08 10000 20000
WARNING: Resetting reneighboring criteria during minimization (../min.cpp:168)
Memory usage per processor = 3.35153 Mbytes
Step Temp PotEng Lx Ly Lz 
   13429            0   -280.27036    2.2449075    37.133282    1.1224537 
   13430            0   -280.27036    2.2449075    37.133282    1.1224537 
   13431            0   -280.27036    2.2449075    37.133282    1.1224537 
   13432            0   -280.27036    2.2449075    37.133282    1.1224537 
   13433            0   -280.27036    2.2449075    37.133282    1.1224537 
   13434            0   -280.27036    2.2449075    37.133282    1.1224537 
   13435            0   -280.27036    2.2449075    37.133282    1.1224537 
   13436            0   -280.27036    2.2449075    37.133282    1.1224537 
   13437            0   -280.27036    2.2449075    37.133282    1.1224537 
   13438            0   -280.27036    2.2449075    37.133282    1.1224537 
   13439            0   -280.27036    2.2449075    37.133282    1.1224537 
   13440            0   -280.27036    2.2449075    37.133282    1.1224537 
   13441            0   -280.27036    2.2449075    37.133282    1.1224537 
   13442            0   -280.27036    2.2449075    37.133282    1.1224537 
   13443            0   -280.27036    2.2449075    37.133282    1.1224537 
   13444            0   -280.27036    2.2449075    37.133282    1.1224537 
   13445            0   -280.27036    2.2449075    37.133282    1.1224537 
   13446            0   -280.27036    2.2449075    37.133282    1.1224537 
   13447            0   -280.27036    2.2449075    37.133282    1.1224537 
   13448            0   -280.27036    2.2449075    37.133282    1.1224537 
   13449            0   -280.27036    2.2449075    37.133282    1.1224537 
Loop time of 0.011689 on 1 procs for 20 steps with 82 atoms

Minimization stats:
  Stopping criterion = linesearch alpha is zero
  Energy initial, next-to-last, final = 
        -280.270360891     -280.270361438     -280.270361438
  Force two-norm initial, final = 0.00619233 0.000814793
  Force max component initial, final = 0.00306655 0.000185067
  Final line search alpha, max atom move = 0.015625 2.89168e-06
  Iterations, force evaluations = 20 141

Pair  time (%) = 0.0108873 (93.142)
Neigh time (%) = 0 (0)
Comm  time (%) = 0.000182341 (1.55994)
Outpt time (%) = 0.000278852 (2.3856)
Other time (%) = 0.000340434 (2.91244)

Nlocal:    82 ave 82 max 82 min
Histogram: 1 0 0 0 0 0 0 0 0 0
Nghost:    185 ave 185 max 185 min
Histogram: 1 0 0 0 0 0 0 0 0 0
Neighs:    718 ave 718 max 718 min
Histogram: 1 0 0 0 0 0 0 0 0 0

Total # of neighbors = 718
Ave neighs/atom = 8.7561
Neighbor list builds = 0
Dangerous builds = 0
        # write_dump all atom ${dumpfile}
        next i
jump SELF loop1
        displace_atoms upper move ${xstep1} 0.0 0.0 units lattice
        displace_atoms upper move 0.00333333333333333 0.0 0.0 units lattice
        min_style ${style}
        min_style cg
        minimize ${etol} ${ftol} ${maxiter} ${maxeval}
        minimize 1e-12 ${ftol} ${maxiter} ${maxeval}
        minimize 1e-12 1e-08 ${maxiter} ${maxeval}
        minimize 1e-12 1e-08 10000 ${maxeval}
        minimize 1e-12 1e-08 10000 20000
WARNING: Resetting reneighboring criteria during minimization (../min.cpp:168)
Memory usage per processor = 3.35153 Mbytes
Step Temp PotEng Lx Ly Lz 
   13449            0   -280.27059    2.2449075    37.133156    1.1224537 
   13450            0   -280.27059    2.2449075    37.133156    1.1224537 
   13451            0   -280.27059    2.2449075    37.133156    1.1224537 
   13452            0   -280.27059    2.2449075    37.133156    1.1224537 
   13453            0   -280.27059    2.2449075    37.133156    1.1224537 
   13454            0   -280.27059    2.2449075    37.133156    1.1224537 
   13455            0   -280.27059    2.2449075    37.133156    1.1224537 
Loop time of 0.00283894 on 1 procs for 6 steps with 82 atoms

Minimization stats:
  Stopping criterion = linesearch alpha is zero
  Energy initial, next-to-last, final = 
         -280.27058599      -280.27058604      -280.27058604
  Force two-norm initial, final = 0.0022722 0.000773974
  Force max component initial, final = 0.0010622 0.000209072
  Final line search alpha, max atom move = 0.015625 3.26675e-06
  Iterations, force evaluations = 6 43

Pair  time (%) = 0.00245324 (86.414)
Neigh time (%) = 0 (0)
Comm  time (%) = 6.41838e-05 (2.26084)
Outpt time (%) = 0.000183053 (6.44793)
Other time (%) = 0.000138463 (4.87727)

Nlocal:    82 ave 82 max 82 min
Histogram: 1 0 0 0 0 0 0 0 0 0
Nghost:    185 ave 185 max 185 min
Histogram: 1 0 0 0 0 0 0 0 0 0
Neighs:    718 ave 718 max 718 min
Histogram: 1 0 0 0 0 0 0 0 0 0

Total # of neighbors = 718
Ave neighs/atom = 8.7561
Neighbor list builds = 0
Dangerous builds = 0
        # write_dump all atom ${dumpfile}
        next i
jump SELF loop1


