LAMMPS (28 Jun 2014)
# attempt at getting GSF energy

#file prefix
variable prefix string gsf_V_brittle_3d
variable dumpfile string ${prefix}.*.dump
variable dumpfile string gsf_V_brittle_3d.*.dump
variable restartfile string ${prefix}.*.equil
variable restartfile string gsf_V_brittle_3d.*.equil

#Mass (g/mol)
variable m equal 1.0

# lattice constant (in Angstroms) and orientation of axes (given by lattice vectors)
variable rho equal 1.0
variable x1 equal 1
variable x2 equal -2
variable x3 equal 1
variable y1 equal 1
variable y2 equal 1
variable y3 equal 1
variable z1 equal -1
variable z2 equal 0
variable z3 equal 1
# length of lattice in different directions (using orientation of lattice vectors)
variable ax equal sqrt(${x1}*${x1}+${x2}*${x2}+${x3}*${x3})
variable ax equal sqrt(1*${x1}+${x2}*${x2}+${x3}*${x3})
variable ax equal sqrt(1*1+${x2}*${x2}+${x3}*${x3})
variable ax equal sqrt(1*1+-2*${x2}+${x3}*${x3})
variable ax equal sqrt(1*1+-2*-2+${x3}*${x3})
variable ax equal sqrt(1*1+-2*-2+1*${x3})
variable ax equal sqrt(1*1+-2*-2+1*1)
variable ay equal sqrt(${y1}*${y1}+${y2}*${y2}+${y3}*${y3})
variable ay equal sqrt(1*${y1}+${y2}*${y2}+${y3}*${y3})
variable ay equal sqrt(1*1+${y2}*${y2}+${y3}*${y3})
variable ay equal sqrt(1*1+1*${y2}+${y3}*${y3})
variable ay equal sqrt(1*1+1*1+${y3}*${y3})
variable ay equal sqrt(1*1+1*1+1*${y3})
variable ay equal sqrt(1*1+1*1+1*1)
variable az equal sqrt(${z1}*${z1}+${z2}*${z2}+${z3}*${z3})
variable az equal sqrt(-1*${z1}+${z2}*${z2}+${z3}*${z3})
variable az equal sqrt(-1*-1+${z2}*${z2}+${z3}*${z3})
variable az equal sqrt(-1*-1+0*${z2}+${z3}*${z3})
variable az equal sqrt(-1*-1+0*0+${z3}*${z3})
variable az equal sqrt(-1*-1+0*0+1*${z3})
variable az equal sqrt(-1*-1+0*0+1*1)

# size of box in lattice units
variable lxpos equal 2
variable lxneg equal 0
variable lypos equal 15
variable lyneg equal -1*${lypos}
variable lyneg equal -1*15
variable lzpos equal 2
variable lzneg equal 0

# Define minimization parameters and damping
variable etol equal 1.0e-12
variable ftol equal 1.0e-8
variable maxiter equal 10000
variable maxeval equal 20000
variable style string hftn

# boundary conditions
dimension	3
boundary	p s p
atom_style	atomic

# create geometry
units		lj
lattice         fcc ${rho} orient x ${x1} ${x2} ${x3} orient y ${y1} ${y2} ${y3} orient z ${z1} ${z2} ${z3} spacing ${ax} ${ay} ${az}
lattice         fcc 1 orient x ${x1} ${x2} ${x3} orient y ${y1} ${y2} ${y3} orient z ${z1} ${z2} ${z3} spacing ${ax} ${ay} ${az}
lattice         fcc 1 orient x 1 ${x2} ${x3} orient y ${y1} ${y2} ${y3} orient z ${z1} ${z2} ${z3} spacing ${ax} ${ay} ${az}
lattice         fcc 1 orient x 1 -2 ${x3} orient y ${y1} ${y2} ${y3} orient z ${z1} ${z2} ${z3} spacing ${ax} ${ay} ${az}
lattice         fcc 1 orient x 1 -2 1 orient y ${y1} ${y2} ${y3} orient z ${z1} ${z2} ${z3} spacing ${ax} ${ay} ${az}
lattice         fcc 1 orient x 1 -2 1 orient y 1 ${y2} ${y3} orient z ${z1} ${z2} ${z3} spacing ${ax} ${ay} ${az}
lattice         fcc 1 orient x 1 -2 1 orient y 1 1 ${y3} orient z ${z1} ${z2} ${z3} spacing ${ax} ${ay} ${az}
lattice         fcc 1 orient x 1 -2 1 orient y 1 1 1 orient z ${z1} ${z2} ${z3} spacing ${ax} ${ay} ${az}
lattice         fcc 1 orient x 1 -2 1 orient y 1 1 1 orient z -1 ${z2} ${z3} spacing ${ax} ${ay} ${az}
lattice         fcc 1 orient x 1 -2 1 orient y 1 1 1 orient z -1 0 ${z3} spacing ${ax} ${ay} ${az}
lattice         fcc 1 orient x 1 -2 1 orient y 1 1 1 orient z -1 0 1 spacing ${ax} ${ay} ${az}
lattice         fcc 1 orient x 1 -2 1 orient y 1 1 1 orient z -1 0 1 spacing 2.44948974278318 ${ay} ${az}
lattice         fcc 1 orient x 1 -2 1 orient y 1 1 1 orient z -1 0 1 spacing 2.44948974278318 1.73205080756888 ${az}
lattice         fcc 1 orient x 1 -2 1 orient y 1 1 1 orient z -1 0 1 spacing 2.44948974278318 1.73205080756888 1.4142135623731
Lattice spacing in x,y,z = 3.88832 2.74946 2.24492
region		myregion block ${lxneg} ${lxpos} ${lyneg} ${lypos} ${lzneg} ${lzpos} units lattice
region		myregion block 0 ${lxpos} ${lyneg} ${lypos} ${lzneg} ${lzpos} units lattice
region		myregion block 0 2 ${lyneg} ${lypos} ${lzneg} ${lzpos} units lattice
region		myregion block 0 2 -15 ${lypos} ${lzneg} ${lzpos} units lattice
region		myregion block 0 2 -15 15 ${lzneg} ${lzpos} units lattice
region		myregion block 0 2 -15 15 0 ${lzpos} units lattice
region		myregion block 0 2 -15 15 0 2 units lattice
create_box	1 myregion
Created orthogonal box = (0 -41.2419 0) to (7.77665 41.2419 4.48985)
  1 by 1 by 1 MPI processor grid
create_atoms	1 box
Created 2912 atoms

# define masses
mass * $m
mass * 1

# my fake/morse potential
pair_style      table linear 3001
pair_coeff      * * vpotential_ductile3d dummy
neighbor	0.3 bin
neigh_modify	delay 5

# define groups. Nudge to separate planes cleanly
region	    upper block INF INF 0.01 ${lypos} INF INF units lattice
region	    upper block INF INF 0.01 15 INF INF units lattice
group		upper region upper
1440 atoms in group upper

# Setup output
thermo 1
thermo_style custom step temp pe lx ly lz
thermo_modify norm no

# Compute initial state by relaxing box
min_style ${style}
min_style hftn
minimize ${etol} ${ftol} ${maxiter} ${maxeval}
minimize 1e-12 ${ftol} ${maxiter} ${maxeval}
minimize 1e-12 1e-08 ${maxiter} ${maxeval}
minimize 1e-12 1e-08 10000 ${maxeval}
minimize 1e-12 1e-08 10000 20000
WARNING: Resetting reneighboring criteria during minimization (../min.cpp:168)
Memory usage per processor = 5.28939 Mbytes
Step Temp PotEng Lx Ly Lz 
       0            0   -17375.986    7.7766452    82.500275    4.4898482 
       1            0   -17375.986    7.7766452    82.500275    4.4898482 
       2            0   -17375.986    7.7766452    82.500275    4.4898482 
Loop time of 1.50727 on 1 procs for 1 steps with 2912 atoms

Minimization stats:
  Stopping criterion = force tolerance
  Energy initial, next-to-last, final = 
        -17375.9855515     -17375.9855515     -17375.9858427
  Force two-norm initial, final = 0.00252636 4.78485e-12
  Force max component initial, final = 0.000315795 3.56737e-13
  Final line search alpha, max atom move = 0 0
  Iterations, force evaluations = 1 629

Pair  time (%) = 1.38528 (91.9064)
Neigh time (%) = 0 (0)
Comm  time (%) = 0.0258823 (1.71716)
Outpt time (%) = 0.000115081 (0.00763502)
Other time (%) = 0.0959956 (6.36882)

Nlocal:    2912 ave 2912 max 2912 min
Histogram: 1 0 0 0 0 0 0 0 0 0
Nghost:    7129 ave 7129 max 7129 min
Histogram: 1 0 0 0 0 0 0 0 0 0
Neighs:    77856 ave 77856 max 77856 min
Histogram: 1 0 0 0 0 0 0 0 0 0

Total # of neighbors = 77856
Ave neighs/atom = 26.7363
Neighbor list builds = 0
Dangerous builds = 0

# don't allow atoms to relax in x- and y-directions
fix 2 all setforce 0.0 NULL 0.0

# GSF energy curve will have 100*2 steps
variable nsteps equal 100
# first partial is parallel to x-axis
variable angle1 equal 0
# second partial is at 60 degrees to first partial
variable angle2 equal PI/180*60
# partial dislocations have length a*sqrt(6)/6
variable sstep1 equal sqrt(6)/6
variable sstep2 equal sqrt(6)/6
variable xstep1 equal cos(${angle1})*${sstep1}/(${ax}*${nsteps})
variable xstep1 equal cos(0)*${sstep1}/(${ax}*${nsteps})
variable xstep1 equal cos(0)*0.408248290463863/(${ax}*${nsteps})
variable xstep1 equal cos(0)*0.408248290463863/(2.44948974278318*${nsteps})
variable xstep1 equal cos(0)*0.408248290463863/(2.44948974278318*100)
variable zstep1 equal sin(${angle1})*${sstep1}/(${az}*${nsteps})
variable zstep1 equal sin(0)*${sstep1}/(${az}*${nsteps})
variable zstep1 equal sin(0)*0.408248290463863/(${az}*${nsteps})
variable zstep1 equal sin(0)*0.408248290463863/(1.4142135623731*${nsteps})
variable zstep1 equal sin(0)*0.408248290463863/(1.4142135623731*100)
variable xstep2 equal cos(${angle2})*${sstep2}/(${ax}*${nsteps})
variable xstep2 equal cos(1.0471975511966)*${sstep2}/(${ax}*${nsteps})
variable xstep2 equal cos(1.0471975511966)*0.408248290463863/(${ax}*${nsteps})
variable xstep2 equal cos(1.0471975511966)*0.408248290463863/(2.44948974278318*${nsteps})
variable xstep2 equal cos(1.0471975511966)*0.408248290463863/(2.44948974278318*100)
variable zstep2 equal sin(${angle2})*${sstep2}/(${az}*${nsteps})
variable zstep2 equal sin(1.0471975511966)*${sstep2}/(${az}*${nsteps})
variable zstep2 equal sin(1.0471975511966)*0.408248290463863/(${az}*${nsteps})
variable zstep2 equal sin(1.0471975511966)*0.408248290463863/(1.4142135623731*${nsteps})
variable zstep2 equal sin(1.0471975511966)*0.408248290463863/(1.4142135623731*100)

variable i loop ${nsteps}
variable i loop 100
label loop1
        displace_atoms upper move ${xstep1} 0.0 ${zstep1} units lattice
        displace_atoms upper move 0.00166666666666667 0.0 ${zstep1} units lattice
        displace_atoms upper move 0.00166666666666667 0.0 0 units lattice
        min_style ${style}
        min_style hftn
        minimize ${etol} ${ftol} ${maxiter} ${maxeval}
        minimize 1e-12 ${ftol} ${maxiter} ${maxeval}
        minimize 1e-12 1e-08 ${maxiter} ${maxeval}
        minimize 1e-12 1e-08 10000 ${maxeval}
        minimize 1e-12 1e-08 10000 20000
WARNING: Resetting reneighboring criteria during minimization (../min.cpp:168)
Memory usage per processor = 5.28939 Mbytes
Step Temp PotEng Lx Ly Lz 
       2            0   -17375.958    7.7766452    82.500442    4.4898482 
       3            0   -17375.958    7.7766452    82.500442    4.4898482 
       4            0   -17375.958    7.7766452    82.500442    4.4898482 
       5            0   -17375.958    7.7766452    82.500442    4.4898482 
       6            0   -17375.958    7.7766452    82.500442    4.4898482 
       7            0   -17375.958    7.7766452    82.500442    4.4898482 
       8            0   -17375.958    7.7766452    82.500442    4.4898482 
       9            0   -17375.958    7.7766452    82.500442    4.4898482 
Loop time of 0.159515 on 1 procs for 6 steps with 2912 atoms

Minimization stats:
  Stopping criterion = energy tolerance
  Energy initial, next-to-last, final = 
        -17375.9576916     -17375.9576916     -17375.9576916
  Force two-norm initial, final = 0.0967175 0.0967002
  Force max component initial, final = 0.0120897 0.0120875
  Final line search alpha, max atom move = 0 0
  Iterations, force evaluations = 6 65

Pair  time (%) = 0.146868 (92.0716)
Neigh time (%) = 0 (0)
Comm  time (%) = 0.00253789 (1.591)
Outpt time (%) = 0.000652122 (0.408815)
Other time (%) = 0.00945699 (5.92859)

Nlocal:    2912 ave 2912 max 2912 min
Histogram: 1 0 0 0 0 0 0 0 0 0
Nghost:    7129 ave 7129 max 7129 min
Histogram: 1 0 0 0 0 0 0 0 0 0
Neighs:    77856 ave 77856 max 77856 min
Histogram: 1 0 0 0 0 0 0 0 0 0

Total # of neighbors = 77856
Ave neighs/atom = 26.7363
Neighbor list builds = 0
Dangerous builds = 0
        next i
jump SELF loop1
        displace_atoms upper move ${xstep1} 0.0 ${zstep1} units lattice
        displace_atoms upper move 0.00166666666666667 0.0 ${zstep1} units lattice
        displace_atoms upper move 0.00166666666666667 0.0 0 units lattice
        min_style ${style}
        min_style hftn
        minimize ${etol} ${ftol} ${maxiter} ${maxeval}
        minimize 1e-12 ${ftol} ${maxiter} ${maxeval}
        minimize 1e-12 1e-08 ${maxiter} ${maxeval}
        minimize 1e-12 1e-08 10000 ${maxeval}
        minimize 1e-12 1e-08 10000 20000
WARNING: Resetting reneighboring criteria during minimization (../min.cpp:168)
Memory usage per processor = 5.28939 Mbytes
Step Temp PotEng Lx Ly Lz 
       9            0   -17375.875    7.7766452    82.500442    4.4898482 
      10            0   -17375.875    7.7766452    82.500442    4.4898482 
      11            0   -17375.875    7.7766452    82.500442    4.4898482 
      12            0   -17375.875    7.7766452    82.500442    4.4898482 
      13            0   -17375.875    7.7766452    82.500442    4.4898482 
      14            0   -17375.875    7.7766452    82.500442    4.4898482 
      15            0   -17375.875    7.7766452    82.500442    4.4898482 
      16            0   -17375.875    7.7766452    82.500442    4.4898482 
      17            0   -17375.875    7.7766452    82.500442    4.4898482 
      18            0   -17375.875    7.7766452    82.500442    4.4898482 
      19            0   -17375.875    7.7766452    82.500442    4.4898482 
Loop time of 0.204177 on 1 procs for 9 steps with 2912 atoms

Minimization stats:
  Stopping criterion = energy tolerance
  Energy initial, next-to-last, final = 
        -17375.8752298     -17375.8752972     -17375.8753178
  Force two-norm initial, final = 0.379021 0.0896676
  Force max component initial, final = 0.0473777 0.0103845
  Final line search alpha, max atom move = 0 0
  Iterations, force evaluations = 9 72

Pair  time (%) = 0.190403 (93.2541)
Neigh time (%) = 0 (0)
Comm  time (%) = 0.0033592 (1.64524)
Outpt time (%) = 0.0014289 (0.699833)
Other time (%) = 0.0089854 (4.40079)

Nlocal:    2912 ave 2912 max 2912 min
Histogram: 1 0 0 0 0 0 0 0 0 0
Nghost:    7129 ave 7129 max 7129 min
Histogram: 1 0 0 0 0 0 0 0 0 0
Neighs:    77856 ave 77856 max 77856 min
Histogram: 1 0 0 0 0 0 0 0 0 0

Total # of neighbors = 77856
Ave neighs/atom = 26.7363
Neighbor list builds = 0
Dangerous builds = 0
        next i
jump SELF loop1
        displace_atoms upper move ${xstep1} 0.0 ${zstep1} units lattice
        displace_atoms upper move 0.00166666666666667 0.0 ${zstep1} units lattice
        displace_atoms upper move 0.00166666666666667 0.0 0 units lattice
        min_style ${style}
        min_style hftn
        minimize ${etol} ${ftol} ${maxiter} ${maxeval}
        minimize 1e-12 ${ftol} ${maxiter} ${maxeval}
        minimize 1e-12 1e-08 ${maxiter} ${maxeval}
        minimize 1e-12 1e-08 10000 ${maxeval}
        minimize 1e-12 1e-08 10000 20000
WARNING: Resetting reneighboring criteria during minimization (../min.cpp:168)
Memory usage per processor = 5.28939 Mbytes
Step Temp PotEng Lx Ly Lz 
      19            0   -17375.741    7.7766452    82.500442    4.4898482 
      20            0   -17375.741    7.7766452    82.500442    4.4898482 
      21            0   -17375.741    7.7766452    82.500442    4.4898482 
      22            0   -17375.741    7.7766452    82.500442    4.4898482 
      23            0   -17375.741    7.7766452    82.500442    4.4898482 
      24            0   -17375.741    7.7766452    82.500442    4.4898482 
      25            0   -17375.741    7.7766452    82.500442    4.4898482 
      26            0   -17375.741    7.7766452    82.500442    4.4898482 
      27            0   -17375.741    7.7766452    82.500442    4.4898482 
      28            0   -17375.741    7.7766452    82.500442    4.4898482 
Loop time of 0.185249 on 1 procs for 8 steps with 2912 atoms

Minimization stats:
  Stopping criterion = energy tolerance
  Energy initial, next-to-last, final = 
        -17375.7411028     -17375.7411028     -17375.7411027
  Force two-norm initial, final = 0.49275 0.492724
  Force max component initial, final = 0.0606575 0.060654
  Final line search alpha, max atom move = 0 0
  Iterations, force evaluations = 8 75

Pair  time (%) = 0.169597 (91.551)
Neigh time (%) = 0 (0)
Comm  time (%) = 0.00538213 (2.90535)
Outpt time (%) = 0.00117718 (0.635456)
Other time (%) = 0.00909238 (4.9082)

Nlocal:    2912 ave 2912 max 2912 min
Histogram: 1 0 0 0 0 0 0 0 0 0
Nghost:    7129 ave 7129 max 7129 min
Histogram: 1 0 0 0 0 0 0 0 0 0
Neighs:    77856 ave 77856 max 77856 min
Histogram: 1 0 0 0 0 0 0 0 0 0

Total # of neighbors = 77856
Ave neighs/atom = 26.7363
Neighbor list builds = 0
Dangerous builds = 0
        next i
jump SELF loop1
        displace_atoms upper move ${xstep1} 0.0 ${zstep1} units lattice
        displace_atoms upper move 0.00166666666666667 0.0 ${zstep1} units lattice
        displace_atoms upper move 0.00166666666666667 0.0 0 units lattice
        min_style ${style}
        min_style hftn
        minimize ${etol} ${ftol} ${maxiter} ${maxeval}
        minimize 1e-12 ${ftol} ${maxiter} ${maxeval}
        minimize 1e-12 1e-08 ${maxiter} ${maxeval}
        minimize 1e-12 1e-08 10000 ${maxeval}
        minimize 1e-12 1e-08 10000 20000
WARNING: Resetting reneighboring criteria during minimization (../min.cpp:168)
Memory usage per processor = 5.28939 Mbytes
Step Temp PotEng Lx Ly Lz 
      28            0   -17375.557    7.7766452    82.500442    4.4898482 
      29            0   -17375.558    7.7766452    82.500442    4.4898482 
      30            0    -17375.56    7.7766452    82.500442    4.4898482 
      31            0    -17375.56    7.7766452    82.500442    4.4898482 
      32            0    -17375.56    7.7766452    82.500442    4.4898482 
Loop time of 1.44337 on 1 procs for 3 steps with 2912 atoms

Minimization stats:
  Stopping criterion = force tolerance
  Energy initial, next-to-last, final = 
        -17375.5573507     -17375.5596613     -17375.5596792
  Force two-norm initial, final = 1.11464 6.61085e-12
  Force max component initial, final = 0.138919 1.18694e-12
  Final line search alpha, max atom move = 0 0
  Iterations, force evaluations = 3 621

Pair  time (%) = 1.32245 (91.6225)
Neigh time (%) = 0 (0)
Comm  time (%) = 0.0258636 (1.79189)
Outpt time (%) = 0.00028827 (0.019972)
Other time (%) = 0.0947672 (6.56568)

Nlocal:    2912 ave 2912 max 2912 min
Histogram: 1 0 0 0 0 0 0 0 0 0
Nghost:    7129 ave 7129 max 7129 min
Histogram: 1 0 0 0 0 0 0 0 0 0
Neighs:    77856 ave 77856 max 77856 min
Histogram: 1 0 0 0 0 0 0 0 0 0

Total # of neighbors = 77856
Ave neighs/atom = 26.7363
Neighbor list builds = 0
Dangerous builds = 0
        next i
jump SELF loop1
        displace_atoms upper move ${xstep1} 0.0 ${zstep1} units lattice
        displace_atoms upper move 0.00166666666666667 0.0 ${zstep1} units lattice
        displace_atoms upper move 0.00166666666666667 0.0 0 units lattice
        min_style ${style}
        min_style hftn
        minimize ${etol} ${ftol} ${maxiter} ${maxeval}
        minimize 1e-12 ${ftol} ${maxiter} ${maxeval}
        minimize 1e-12 1e-08 ${maxiter} ${maxeval}
        minimize 1e-12 1e-08 10000 ${maxeval}
        minimize 1e-12 1e-08 10000 20000
WARNING: Resetting reneighboring criteria during minimization (../min.cpp:168)
Memory usage per processor = 5.28939 Mbytes
Step Temp PotEng Lx Ly Lz 
      32            0   -17375.331    7.7766452     82.50152    4.4898482 
      33            0   -17375.332    7.7766452     82.50152    4.4898482 
      34            0   -17375.332    7.7766452     82.50152    4.4898482 
      35            0   -17375.332    7.7766452     82.50152    4.4898482 
      36            0   -17375.332    7.7766452     82.50152    4.4898482 
Loop time of 1.21077 on 1 procs for 3 steps with 2912 atoms

Minimization stats:
  Stopping criterion = force tolerance
  Energy initial, next-to-last, final = 
        -17375.3314279     -17375.3323562     -17375.3323663
  Force two-norm initial, final = 0.775379 1.67278e-11
  Force max component initial, final = 0.0969224 2.37494e-12
  Final line search alpha, max atom move = 0 0
  Iterations, force evaluations = 3 497

Pair  time (%) = 1.10189 (91.0076)
Neigh time (%) = 0 (0)
Comm  time (%) = 0.028815 (2.37989)
Outpt time (%) = 0.000303051 (0.0250296)
Other time (%) = 0.0797594 (6.58749)

Nlocal:    2912 ave 2912 max 2912 min
Histogram: 1 0 0 0 0 0 0 0 0 0
Nghost:    7009 ave 7009 max 7009 min
Histogram: 1 0 0 0 0 0 0 0 0 0
Neighs:    77856 ave 77856 max 77856 min
Histogram: 1 0 0 0 0 0 0 0 0 0

Total # of neighbors = 77856
Ave neighs/atom = 26.7363
Neighbor list builds = 0
Dangerous builds = 0
        next i
jump SELF loop1
        displace_atoms upper move ${xstep1} 0.0 ${zstep1} units lattice
        displace_atoms upper move 0.00166666666666667 0.0 ${zstep1} units lattice
        displace_atoms upper move 0.00166666666666667 0.0 0 units lattice
        min_style ${style}
        min_style hftn
        minimize ${etol} ${ftol} ${maxiter} ${maxeval}
        minimize 1e-12 ${ftol} ${maxiter} ${maxeval}
        minimize 1e-12 1e-08 ${maxiter} ${maxeval}
        minimize 1e-12 1e-08 10000 ${maxeval}
        minimize 1e-12 1e-08 10000 20000
WARNING: Resetting reneighboring criteria during minimization (../min.cpp:168)
Memory usage per processor = 5.28939 Mbytes
Step Temp PotEng Lx Ly Lz 
      36            0   -17375.069    7.7766452    82.502093    4.4898482 
      37            0   -17375.069    7.7766452    82.502093    4.4898482 
      38            0   -17375.069    7.7766452    82.502093    4.4898482 
      39            0   -17375.069    7.7766452    82.502093    4.4898482 
      40            0   -17375.069    7.7766452    82.502093    4.4898482 
      41            0   -17375.069    7.7766452    82.502093    4.4898482 
      42            0   -17375.069    7.7766452    82.502093    4.4898482 
      43            0   -17375.069    7.7766452    82.502093    4.4898482 
      44            0   -17375.069    7.7766452    82.502093    4.4898482 
Loop time of 0.154557 on 1 procs for 7 steps with 2912 atoms

Minimization stats:
  Stopping criterion = energy tolerance
  Energy initial, next-to-last, final = 
        -17375.0693055     -17375.0693055     -17375.0693055
  Force two-norm initial, final = 0.417654 0.417602
  Force max component initial, final = 0.0522068 0.0522002
  Final line search alpha, max atom move = 0 0
  Iterations, force evaluations = 7 62

Pair  time (%) = 0.139049 (89.9661)
Neigh time (%) = 0 (0)
Comm  time (%) = 0.00441854 (2.85884)
Outpt time (%) = 0.00390421 (2.52606)
Other time (%) = 0.00718536 (4.64901)

Nlocal:    2912 ave 2912 max 2912 min
Histogram: 1 0 0 0 0 0 0 0 0 0
Nghost:    7009 ave 7009 max 7009 min
Histogram: 1 0 0 0 0 0 0 0 0 0
Neighs:    77856 ave 77856 max 77856 min
Histogram: 1 0 0 0 0 0 0 0 0 0

Total # of neighbors = 77856
Ave neighs/atom = 26.7363
Neighbor list builds = 0
Dangerous builds = 0
        next i
jump SELF loop1
        displace_atoms upper move ${xstep1} 0.0 ${zstep1} units lattice
        displace_atoms upper move 0.00166666666666667 0.0 ${zstep1} units lattice
        displace_atoms upper move 0.00166666666666667 0.0 0 units lattice
        min_style ${style}
        min_style hftn
        minimize ${etol} ${ftol} ${maxiter} ${maxeval}
        minimize 1e-12 ${ftol} ${maxiter} ${maxeval}
        minimize 1e-12 1e-08 ${maxiter} ${maxeval}
        minimize 1e-12 1e-08 10000 ${maxeval}
        minimize 1e-12 1e-08 10000 20000
WARNING: Resetting reneighboring criteria during minimization (../min.cpp:168)
Memory usage per processor = 5.28939 Mbytes
Step Temp PotEng Lx Ly Lz 
      44            0   -17374.785    7.7766452    82.502093    4.4898482 
      45            0   -17374.785    7.7766452    82.502093    4.4898482 
      46            0   -17374.786    7.7766452    82.502093    4.4898482 
      47            0   -17374.786    7.7766452    82.502093    4.4898482 
      48            0   -17374.786    7.7766452    82.502093    4.4898482 
Loop time of 1.55043 on 1 procs for 3 steps with 2912 atoms

Minimization stats:
  Stopping criterion = force tolerance
  Energy initial, next-to-last, final = 
        -17374.7853268      -17374.786463     -17374.7864772
  Force two-norm initial, final = 0.88238 1.42702e-11
  Force max component initial, final = 0.110297 2.38181e-12
  Final line search alpha, max atom move = 0 0
  Iterations, force evaluations = 3 659

Pair  time (%) = 1.41878 (91.5087)
Neigh time (%) = 0 (0)
Comm  time (%) = 0.0272923 (1.7603)
Outpt time (%) = 0.000911201 (0.0587707)
Other time (%) = 0.103448 (6.67221)

Nlocal:    2912 ave 2912 max 2912 min
Histogram: 1 0 0 0 0 0 0 0 0 0
Nghost:    7009 ave 7009 max 7009 min
Histogram: 1 0 0 0 0 0 0 0 0 0
Neighs:    77856 ave 77856 max 77856 min
Histogram: 1 0 0 0 0 0 0 0 0 0

Total # of neighbors = 77856
Ave neighs/atom = 26.7363
Neighbor list builds = 0
Dangerous builds = 0
        next i
jump SELF loop1
        displace_atoms upper move ${xstep1} 0.0 ${zstep1} units lattice
        displace_atoms upper move 0.00166666666666667 0.0 ${zstep1} units lattice
        displace_atoms upper move 0.00166666666666667 0.0 0 units lattice
        min_style ${style}
        min_style hftn
        minimize ${etol} ${ftol} ${maxiter} ${maxeval}
        minimize 1e-12 ${ftol} ${maxiter} ${maxeval}
        minimize 1e-12 1e-08 ${maxiter} ${maxeval}
        minimize 1e-12 1e-08 10000 ${maxeval}
        minimize 1e-12 1e-08 10000 20000
WARNING: Resetting reneighboring criteria during minimization (../min.cpp:168)
Memory usage per processor = 5.28939 Mbytes
Step Temp PotEng Lx Ly Lz 
      48            0   -17374.485    7.7766452    82.502771    4.4898482 
      49            0   -17374.485    7.7766452    82.502771    4.4898482 
      50            0   -17374.485    7.7766452    82.502771    4.4898482 
      51            0   -17374.485    7.7766452    82.502771    4.4898482 
      52            0   -17374.485    7.7766452    82.502771    4.4898482 
      53            0   -17374.485    7.7766452    82.502771    4.4898482 
      54            0   -17374.485    7.7766452    82.502771    4.4898482 
      55            0   -17374.485    7.7766452    82.502771    4.4898482 
      56            0   -17374.485    7.7766452    82.502771    4.4898482 
      57            0   -17374.485    7.7766452    82.502771    4.4898482 
      58            0   -17374.485    7.7766452    82.502771    4.4898482 
Loop time of 0.219956 on 1 procs for 9 steps with 2912 atoms

Minimization stats:
  Stopping criterion = energy tolerance
  Energy initial, next-to-last, final = 
        -17374.4853173     -17374.4853173     -17374.4853568
  Force two-norm initial, final = 0.592701 0.518031
  Force max component initial, final = 0.0740876 0.0646742
  Final line search alpha, max atom move = 0 0
  Iterations, force evaluations = 9 74

Pair  time (%) = 0.202392 (92.0149)
Neigh time (%) = 0 (0)
Comm  time (%) = 0.00641652 (2.91718)
Outpt time (%) = 0.00279499 (1.2707)
Other time (%) = 0.00835218 (3.7972)

Nlocal:    2912 ave 2912 max 2912 min
Histogram: 1 0 0 0 0 0 0 0 0 0
Nghost:    7009 ave 7009 max 7009 min
Histogram: 1 0 0 0 0 0 0 0 0 0
Neighs:    77856 ave 77856 max 77856 min
Histogram: 1 0 0 0 0 0 0 0 0 0

Total # of neighbors = 77856
Ave neighs/atom = 26.7363
Neighbor list builds = 0
Dangerous builds = 0
        next i
jump SELF loop1
        displace_atoms upper move ${xstep1} 0.0 ${zstep1} units lattice
        displace_atoms upper move 0.00166666666666667 0.0 ${zstep1} units lattice
        displace_atoms upper move 0.00166666666666667 0.0 0 units lattice
        min_style ${style}
        min_style hftn
        minimize ${etol} ${ftol} ${maxiter} ${maxeval}
        minimize 1e-12 ${ftol} ${maxiter} ${maxeval}
        minimize 1e-12 1e-08 ${maxiter} ${maxeval}
        minimize 1e-12 1e-08 10000 ${maxeval}
        minimize 1e-12 1e-08 10000 20000
WARNING: Resetting reneighboring criteria during minimization (../min.cpp:168)
Memory usage per processor = 5.28939 Mbytes
Step Temp PotEng Lx Ly Lz 
      58            0   -17374.167    7.7766452    82.502771    4.4898482 
      59            0   -17374.168    7.7766452    82.502771    4.4898482 
      60            0   -17374.169    7.7766452    82.502771    4.4898482 
      61            0   -17374.169    7.7766452    82.502771    4.4898482 
      62            0   -17374.169    7.7766452    82.502771    4.4898482 
Loop time of 1.18906 on 1 procs for 3 steps with 2912 atoms

Minimization stats:
  Stopping criterion = force tolerance
  Energy initial, next-to-last, final = 
        -17374.1668715     -17374.1694085     -17374.1694293
  Force two-norm initial, final = 1.24237 1.10903e-10
  Force max component initial, final = 0.155263 7.20721e-12
  Final line search alpha, max atom move = 0 0
  Iterations, force evaluations = 3 487

Pair  time (%) = 1.09312 (91.9317)
Neigh time (%) = 0 (0)
Comm  time (%) = 0.0181301 (1.52475)
Outpt time (%) = 0.000307984 (0.0259015)
Other time (%) = 0.0774988 (6.51765)

Nlocal:    2912 ave 2912 max 2912 min
Histogram: 1 0 0 0 0 0 0 0 0 0
Nghost:    7009 ave 7009 max 7009 min
Histogram: 1 0 0 0 0 0 0 0 0 0
Neighs:    77856 ave 77856 max 77856 min
Histogram: 1 0 0 0 0 0 0 0 0 0

Total # of neighbors = 77856
Ave neighs/atom = 26.7363
Neighbor list builds = 0
Dangerous builds = 0
        next i
jump SELF loop1
        displace_atoms upper move ${xstep1} 0.0 ${zstep1} units lattice
        displace_atoms upper move 0.00166666666666667 0.0 ${zstep1} units lattice
        displace_atoms upper move 0.00166666666666667 0.0 0 units lattice
        min_style ${style}
        min_style hftn
        minimize ${etol} ${ftol} ${maxiter} ${maxeval}
        minimize 1e-12 ${ftol} ${maxiter} ${maxeval}
        minimize 1e-12 1e-08 ${maxiter} ${maxeval}
        minimize 1e-12 1e-08 10000 ${maxeval}
        minimize 1e-12 1e-08 10000 20000
WARNING: Resetting reneighboring criteria during minimization (../min.cpp:168)
Memory usage per processor = 5.28939 Mbytes
Step Temp PotEng Lx Ly Lz 
      62            0   -17373.839    7.7766452     82.50377    4.4898482 
      63            0   -17373.839    7.7766452     82.50377    4.4898482 
      64            0    -17373.84    7.7766452     82.50377    4.4898482 
      65            0    -17373.84    7.7766452     82.50377    4.4898482 
Loop time of 0.755617 on 1 procs for 2 steps with 2912 atoms

Minimization stats:
  Stopping criterion = force tolerance
  Energy initial, next-to-last, final = 
        -17373.8392414      -17373.839406     -17373.8404004
  Force two-norm initial, final = 0.826479 8.06499e-09
  Force max component initial, final = 0.10331 1.04198e-09
  Final line search alpha, max atom move = 0 0
  Iterations, force evaluations = 2 307

Pair  time (%) = 0.681602 (90.2047)
Neigh time (%) = 0 (0)
Comm  time (%) = 0.015858 (2.09868)
Outpt time (%) = 0.000194006 (0.0256752)
Other time (%) = 0.0579632 (7.67098)

Nlocal:    2912 ave 2912 max 2912 min
Histogram: 1 0 0 0 0 0 0 0 0 0
Nghost:    7009 ave 7009 max 7009 min
Histogram: 1 0 0 0 0 0 0 0 0 0
Neighs:    77856 ave 77856 max 77856 min
Histogram: 1 0 0 0 0 0 0 0 0 0

Total # of neighbors = 77856
Ave neighs/atom = 26.7363
Neighbor list builds = 0
Dangerous builds = 0
        next i
jump SELF loop1
        displace_atoms upper move ${xstep1} 0.0 ${zstep1} units lattice
        displace_atoms upper move 0.00166666666666667 0.0 ${zstep1} units lattice
        displace_atoms upper move 0.00166666666666667 0.0 0 units lattice
        min_style ${style}
        min_style hftn
        minimize ${etol} ${ftol} ${maxiter} ${maxeval}
        minimize 1e-12 ${ftol} ${maxiter} ${maxeval}
        minimize 1e-12 1e-08 ${maxiter} ${maxeval}
        minimize 1e-12 1e-08 10000 ${maxeval}
        minimize 1e-12 1e-08 10000 20000
WARNING: Resetting reneighboring criteria during minimization (../min.cpp:168)
Memory usage per processor = 5.28939 Mbytes
Step Temp PotEng Lx Ly Lz 
      65            0   -17373.499    7.7766452    82.504395    4.4898482 
      66            0   -17373.499    7.7766452    82.504395    4.4898482 
      67            0     -17373.5    7.7766452    82.504395    4.4898482 
      68            0     -17373.5    7.7766452    82.504395    4.4898482 
      69            0     -17373.5    7.7766452    82.504395    4.4898482 
Loop time of 1.50795 on 1 procs for 3 steps with 2912 atoms

Minimization stats:
  Stopping criterion = force tolerance
  Energy initial, next-to-last, final = 
        -17373.4990443     -17373.5003133     -17373.5003278
  Force two-norm initial, final = 0.927426 8.67672e-12
  Force max component initial, final = 0.115928 1.16688e-12
  Final line search alpha, max atom move = 0 0
  Iterations, force evaluations = 3 629

Pair  time (%) = 1.38324 (91.73)
Neigh time (%) = 0 (0)
Comm  time (%) = 0.024479 (1.62333)
Outpt time (%) = 0.000478001 (0.0316988)
Other time (%) = 0.0997501 (6.61495)

Nlocal:    2912 ave 2912 max 2912 min
Histogram: 1 0 0 0 0 0 0 0 0 0
Nghost:    7009 ave 7009 max 7009 min
Histogram: 1 0 0 0 0 0 0 0 0 0
Neighs:    77856 ave 77856 max 77856 min
Histogram: 1 0 0 0 0 0 0 0 0 0

Total # of neighbors = 77856
Ave neighs/atom = 26.7363
Neighbor list builds = 0
Dangerous builds = 0
        next i
jump SELF loop1
        displace_atoms upper move ${xstep1} 0.0 ${zstep1} units lattice
        displace_atoms upper move 0.00166666666666667 0.0 ${zstep1} units lattice
        displace_atoms upper move 0.00166666666666667 0.0 0 units lattice
        min_style ${style}
        min_style hftn
        minimize ${etol} ${ftol} ${maxiter} ${maxeval}
        minimize 1e-12 ${ftol} ${maxiter} ${maxeval}
        minimize 1e-12 1e-08 ${maxiter} ${maxeval}
        minimize 1e-12 1e-08 10000 ${maxeval}
        minimize 1e-12 1e-08 10000 20000
WARNING: Resetting reneighboring criteria during minimization (../min.cpp:168)
Memory usage per processor = 5.28939 Mbytes
Step Temp PotEng Lx Ly Lz 
      69            0   -17373.151    7.7766452    82.505093    4.4898482 
      70            0   -17373.151    7.7766452    82.505093    4.4898482 
      71            0   -17373.152    7.7766452    82.505093    4.4898482 
      72            0   -17373.152    7.7766452    82.505093    4.4898482 
      73            0   -17373.152    7.7766452    82.505093    4.4898482 
Loop time of 1.22572 on 1 procs for 3 steps with 2912 atoms

Minimization stats:
  Stopping criterion = force tolerance
  Energy initial, next-to-last, final = 
        -17373.1510039      -17373.152466     -17373.1524821
  Force two-norm initial, final = 1.01369 3.61794e-11
  Force max component initial, final = 0.126711 2.43672e-12
  Final line search alpha, max atom move = 0 0
  Iterations, force evaluations = 3 491

Pair  time (%) = 1.12077 (91.4378)
Neigh time (%) = 0 (0)
Comm  time (%) = 0.0239485 (1.95382)
Outpt time (%) = 0.000511989 (0.0417704)
Other time (%) = 0.0804891 (6.56666)

Nlocal:    2912 ave 2912 max 2912 min
Histogram: 1 0 0 0 0 0 0 0 0 0
Nghost:    7009 ave 7009 max 7009 min
Histogram: 1 0 0 0 0 0 0 0 0 0
Neighs:    77856 ave 77856 max 77856 min
Histogram: 1 0 0 0 0 0 0 0 0 0

Total # of neighbors = 77856
Ave neighs/atom = 26.7363
Neighbor list builds = 0
Dangerous builds = 0
        next i
jump SELF loop1
        displace_atoms upper move ${xstep1} 0.0 ${zstep1} units lattice
        displace_atoms upper move 0.00166666666666667 0.0 ${zstep1} units lattice
        displace_atoms upper move 0.00166666666666667 0.0 0 units lattice
        min_style ${style}
        min_style hftn
        minimize ${etol} ${ftol} ${maxiter} ${maxeval}
        minimize 1e-12 ${ftol} ${maxiter} ${maxeval}
        minimize 1e-12 1e-08 ${maxiter} ${maxeval}
        minimize 1e-12 1e-08 10000 ${maxeval}
        minimize 1e-12 1e-08 10000 20000
WARNING: Resetting reneighboring criteria during minimization (../min.cpp:168)
Memory usage per processor = 5.28939 Mbytes
Step Temp PotEng Lx Ly Lz 
      73            0   -17372.797    7.7766452    82.505852    4.4898482 
      74            0   -17372.797    7.7766452    82.505852    4.4898482 
      75            0   -17372.799    7.7766452    82.505852    4.4898482 
      76            0   -17372.799    7.7766452    82.505852    4.4898482 
      77            0   -17372.799    7.7766452    82.505852    4.4898482 
Loop time of 1.19086 on 1 procs for 3 steps with 2912 atoms

Minimization stats:
  Stopping criterion = force tolerance
  Energy initial, next-to-last, final = 
         -17372.796729     -17372.7985928     -17372.7986147
  Force two-norm initial, final = 1.09261 7.62704e-11
  Force max component initial, final = 0.136576 5.4363e-12
  Final line search alpha, max atom move = 0 0
  Iterations, force evaluations = 3 487

Pair  time (%) = 1.09295 (91.7782)
Neigh time (%) = 0 (0)
Comm  time (%) = 0.0202835 (1.70326)
Outpt time (%) = 0.000526195 (0.0441861)
Other time (%) = 0.0771006 (6.47436)

Nlocal:    2912 ave 2912 max 2912 min
Histogram: 1 0 0 0 0 0 0 0 0 0
Nghost:    7009 ave 7009 max 7009 min
Histogram: 1 0 0 0 0 0 0 0 0 0
Neighs:    77856 ave 77856 max 77856 min
Histogram: 1 0 0 0 0 0 0 0 0 0

Total # of neighbors = 77856
Ave neighs/atom = 26.7363
Neighbor list builds = 0
Dangerous builds = 0
        next i
jump SELF loop1
        displace_atoms upper move ${xstep1} 0.0 ${zstep1} units lattice
        displace_atoms upper move 0.00166666666666667 0.0 ${zstep1} units lattice
        displace_atoms upper move 0.00166666666666667 0.0 0 units lattice
        min_style ${style}
        min_style hftn
        minimize ${etol} ${ftol} ${maxiter} ${maxeval}
        minimize 1e-12 ${ftol} ${maxiter} ${maxeval}
        minimize 1e-12 1e-08 ${maxiter} ${maxeval}
        minimize 1e-12 1e-08 10000 ${maxeval}
        minimize 1e-12 1e-08 10000 20000
WARNING: Resetting reneighboring criteria during minimization (../min.cpp:168)
Memory usage per processor = 5.28939 Mbytes
Step Temp PotEng Lx Ly Lz 
      77            0   -17372.442    7.7766452    82.506667    4.4898482 
      78            0   -17372.444    7.7766452    82.506667    4.4898482 
      79            0   -17372.445    7.7766452    82.506667    4.4898482 
      80            0   -17372.445    7.7766452    82.506667    4.4898482 
      81            0   -17372.445    7.7766452    82.506667    4.4898482 
Loop time of 1.14397 on 1 procs for 3 steps with 2912 atoms

Minimization stats:
  Stopping criterion = force tolerance
  Energy initial, next-to-last, final = 
         -17372.441818     -17372.4453086     -17372.4453394
  Force two-norm initial, final = 1.48436 2.02007e-10
  Force max component initial, final = 0.185545 1.19708e-11
  Final line search alpha, max atom move = 0 0
  Iterations, force evaluations = 3 482

Pair  time (%) = 1.04796 (91.6068)
Neigh time (%) = 0 (0)
Comm  time (%) = 0.0188039 (1.64374)
Outpt time (%) = 0.000315788 (0.0276045)
Other time (%) = 0.0768959 (6.72184)

Nlocal:    2912 ave 2912 max 2912 min
Histogram: 1 0 0 0 0 0 0 0 0 0
Nghost:    7009 ave 7009 max 7009 min
Histogram: 1 0 0 0 0 0 0 0 0 0
Neighs:    77792 ave 77792 max 77792 min
Histogram: 1 0 0 0 0 0 0 0 0 0

Total # of neighbors = 77792
Ave neighs/atom = 26.7143
Neighbor list builds = 0
Dangerous builds = 0
        next i
jump SELF loop1
        displace_atoms upper move ${xstep1} 0.0 ${zstep1} units lattice
        displace_atoms upper move 0.00166666666666667 0.0 ${zstep1} units lattice
        displace_atoms upper move 0.00166666666666667 0.0 0 units lattice
        min_style ${style}
        min_style hftn
        minimize ${etol} ${ftol} ${maxiter} ${maxeval}
        minimize 1e-12 ${ftol} ${maxiter} ${maxeval}
        minimize 1e-12 1e-08 ${maxiter} ${maxeval}
        minimize 1e-12 1e-08 10000 ${maxeval}
        minimize 1e-12 1e-08 10000 20000
WARNING: Resetting reneighboring criteria during minimization (../min.cpp:168)
Memory usage per processor = 5.28939 Mbytes
Step Temp PotEng Lx Ly Lz 
      81            0   -17372.098    7.7766452    82.507831    4.4898482 
      82            0   -17372.099    7.7766452    82.507831    4.4898482 
      83            0   -17372.101    7.7766452    82.507831    4.4898482 
      84            0   -17372.101    7.7766452    82.507831    4.4898482 
      85            0   -17372.101    7.7766452    82.507831    4.4898482 
Loop time of 1.12537 on 1 procs for 3 steps with 2912 atoms

Minimization stats:
  Stopping criterion = force tolerance
  Energy initial, next-to-last, final = 
        -17372.0975352      -17372.100784     -17372.1008154
  Force two-norm initial, final = 1.52236 9.46165e-11
  Force max component initial, final = 0.190295 5.84127e-12
  Final line search alpha, max atom move = 0 0
  Iterations, force evaluations = 3 482

Pair  time (%) = 1.02324 (90.9246)
Neigh time (%) = 0 (0)
Comm  time (%) = 0.0283031 (2.515)
Outpt time (%) = 0.000404182 (0.0359155)
Other time (%) = 0.0734249 (6.52451)

Nlocal:    2912 ave 2912 max 2912 min
Histogram: 1 0 0 0 0 0 0 0 0 0
Nghost:    7009 ave 7009 max 7009 min
Histogram: 1 0 0 0 0 0 0 0 0 0
Neighs:    77792 ave 77792 max 77792 min
Histogram: 1 0 0 0 0 0 0 0 0 0

Total # of neighbors = 77792
Ave neighs/atom = 26.7143
Neighbor list builds = 0
Dangerous builds = 0
        next i
jump SELF loop1
        displace_atoms upper move ${xstep1} 0.0 ${zstep1} units lattice
        displace_atoms upper move 0.00166666666666667 0.0 ${zstep1} units lattice
        displace_atoms upper move 0.00166666666666667 0.0 0 units lattice
        min_style ${style}
        min_style hftn
        minimize ${etol} ${ftol} ${maxiter} ${maxeval}
        minimize 1e-12 ${ftol} ${maxiter} ${maxeval}
        minimize 1e-12 1e-08 ${maxiter} ${maxeval}
        minimize 1e-12 1e-08 10000 ${maxeval}
        minimize 1e-12 1e-08 10000 20000
WARNING: Resetting reneighboring criteria during minimization (../min.cpp:168)
Memory usage per processor = 5.28939 Mbytes
Step Temp PotEng Lx Ly Lz 
      85            0   -17371.762    7.7766452    82.509013    4.4898482 
      86            0   -17371.764    7.7766452    82.509013    4.4898482 
      87            0   -17371.766    7.7766452    82.509013    4.4898482 
      88            0   -17371.766    7.7766452    82.509013    4.4898482 
      89            0   -17371.766    7.7766452    82.509013    4.4898482 
Loop time of 1.13893 on 1 procs for 3 steps with 2912 atoms

Minimization stats:
  Stopping criterion = force tolerance
  Energy initial, next-to-last, final = 
        -17371.7618972      -17371.765587     -17371.7656105
  Force two-norm initial, final = 1.4975 5.93764e-11
  Force max component initial, final = 0.187187 3.84384e-12
  Final line search alpha, max atom move = 0 0
  Iterations, force evaluations = 3 485

Pair  time (%) = 1.04881 (92.087)
Neigh time (%) = 0 (0)
Comm  time (%) = 0.0176648 (1.551)
Outpt time (%) = 0.000293979 (0.0258118)
Other time (%) = 0.0721653 (6.33623)

Nlocal:    2912 ave 2912 max 2912 min
Histogram: 1 0 0 0 0 0 0 0 0 0
Nghost:    7009 ave 7009 max 7009 min
Histogram: 1 0 0 0 0 0 0 0 0 0
Neighs:    77792 ave 77792 max 77792 min
Histogram: 1 0 0 0 0 0 0 0 0 0

Total # of neighbors = 77792
Ave neighs/atom = 26.7143
Neighbor list builds = 0
Dangerous builds = 0
        next i
jump SELF loop1
        displace_atoms upper move ${xstep1} 0.0 ${zstep1} units lattice
        displace_atoms upper move 0.00166666666666667 0.0 ${zstep1} units lattice
        displace_atoms upper move 0.00166666666666667 0.0 0 units lattice
        min_style ${style}
        min_style hftn
        minimize ${etol} ${ftol} ${maxiter} ${maxeval}
        minimize 1e-12 ${ftol} ${maxiter} ${maxeval}
        minimize 1e-12 1e-08 ${maxiter} ${maxeval}
        minimize 1e-12 1e-08 10000 ${maxeval}
        minimize 1e-12 1e-08 10000 20000
WARNING: Resetting reneighboring criteria during minimization (../min.cpp:168)
Memory usage per processor = 5.28939 Mbytes
Step Temp PotEng Lx Ly Lz 
      89            0   -17371.436    7.7766452    82.510165    4.4898482 
      90            0   -17371.437    7.7766452    82.510165    4.4898482 
      91            0   -17371.439    7.7766452    82.510165    4.4898482 
      92            0   -17371.439    7.7766452    82.510165    4.4898482 
      93            0   -17371.439    7.7766452    82.510165    4.4898482 
Loop time of 1.14036 on 1 procs for 3 steps with 2912 atoms

Minimization stats:
  Stopping criterion = force tolerance
  Energy initial, next-to-last, final = 
        -17371.4359211      -17371.438906     -17371.4389357
  Force two-norm initial, final = 1.4702 3.43617e-11
  Force max component initial, final = 0.183775 2.44359e-12
  Final line search alpha, max atom move = 0 0
  Iterations, force evaluations = 3 484

Pair  time (%) = 1.04248 (91.4163)
Neigh time (%) = 0 (0)
Comm  time (%) = 0.0217185 (1.90453)
Outpt time (%) = 0.000317112 (0.0278081)
Other time (%) = 0.0758501 (6.6514)

Nlocal:    2912 ave 2912 max 2912 min
Histogram: 1 0 0 0 0 0 0 0 0 0
Nghost:    7009 ave 7009 max 7009 min
Histogram: 1 0 0 0 0 0 0 0 0 0
Neighs:    77792 ave 77792 max 77792 min
Histogram: 1 0 0 0 0 0 0 0 0 0

Total # of neighbors = 77792
Ave neighs/atom = 26.7143
Neighbor list builds = 0
Dangerous builds = 0
        next i
jump SELF loop1
        displace_atoms upper move ${xstep1} 0.0 ${zstep1} units lattice
        displace_atoms upper move 0.00166666666666667 0.0 ${zstep1} units lattice
        displace_atoms upper move 0.00166666666666667 0.0 0 units lattice
        min_style ${style}
        min_style hftn
        minimize ${etol} ${ftol} ${maxiter} ${maxeval}
        minimize 1e-12 ${ftol} ${maxiter} ${maxeval}
        minimize 1e-12 1e-08 ${maxiter} ${maxeval}
        minimize 1e-12 1e-08 10000 ${maxeval}
        minimize 1e-12 1e-08 10000 20000
WARNING: Resetting reneighboring criteria during minimization (../min.cpp:168)
Memory usage per processor = 5.28939 Mbytes
Step Temp PotEng Lx Ly Lz 
      93            0   -17371.119    7.7766452    82.511287    4.4898482 
      94            0    -17371.12    7.7766452    82.511287    4.4898482 
      95            0   -17371.122    7.7766452    82.511287    4.4898482 
      96            0   -17371.122    7.7766452    82.511287    4.4898482 
      97            0   -17371.122    7.7766452    82.511287    4.4898482 
Loop time of 1.13543 on 1 procs for 3 steps with 2912 atoms

Minimization stats:
  Stopping criterion = force tolerance
  Energy initial, next-to-last, final = 
        -17371.1186139     -17371.1220076      -17371.122037
  Force two-norm initial, final = 1.44133 4.08085e-11
  Force max component initial, final = 0.180167 2.82797e-12
  Final line search alpha, max atom move = 0 0
  Iterations, force evaluations = 3 484

Pair  time (%) = 1.03925 (91.5284)
Neigh time (%) = 0 (0)
Comm  time (%) = 0.0202465 (1.78315)
Outpt time (%) = 0.000513998 (0.0452688)
Other time (%) = 0.0754293 (6.6432)

Nlocal:    2912 ave 2912 max 2912 min
Histogram: 1 0 0 0 0 0 0 0 0 0
Nghost:    7009 ave 7009 max 7009 min
Histogram: 1 0 0 0 0 0 0 0 0 0
Neighs:    77792 ave 77792 max 77792 min
Histogram: 1 0 0 0 0 0 0 0 0 0

Total # of neighbors = 77792
Ave neighs/atom = 26.7143
Neighbor list builds = 0
Dangerous builds = 0
        next i
jump SELF loop1
        displace_atoms upper move ${xstep1} 0.0 ${zstep1} units lattice
        displace_atoms upper move 0.00166666666666667 0.0 ${zstep1} units lattice
        displace_atoms upper move 0.00166666666666667 0.0 0 units lattice
        min_style ${style}
        min_style hftn
        minimize ${etol} ${ftol} ${maxiter} ${maxeval}
        minimize 1e-12 ${ftol} ${maxiter} ${maxeval}
        minimize 1e-12 1e-08 ${maxiter} ${maxeval}
        minimize 1e-12 1e-08 10000 ${maxeval}
        minimize 1e-12 1e-08 10000 20000
WARNING: Resetting reneighboring criteria during minimization (../min.cpp:168)
Memory usage per processor = 5.28939 Mbytes
Step Temp PotEng Lx Ly Lz 
      97            0   -17370.811    7.7766452    82.512376    4.4898482 
      98            0   -17370.812    7.7766452    82.512376    4.4898482 
      99            0   -17370.814    7.7766452    82.512376    4.4898482 
     100            0   -17370.814    7.7766452    82.512376    4.4898482 
     101            0   -17370.814    7.7766452    82.512376    4.4898482 
Loop time of 1.14026 on 1 procs for 3 steps with 2912 atoms

Minimization stats:
  Stopping criterion = force tolerance
  Energy initial, next-to-last, final = 
        -17370.8111796     -17370.8137958     -17370.8138239
  Force two-norm initial, final = 1.41113 8.54749e-11
  Force max component initial, final = 0.176392 6.90519e-12
  Final line search alpha, max atom move = 0 0
  Iterations, force evaluations = 3 482

Pair  time (%) = 1.03302 (90.5953)
Neigh time (%) = 0 (0)
Comm  time (%) = 0.027279 (2.39236)
Outpt time (%) = 0.000348875 (0.0305962)
Other time (%) = 0.0796102 (6.98177)

Nlocal:    2912 ave 2912 max 2912 min
Histogram: 1 0 0 0 0 0 0 0 0 0
Nghost:    7009 ave 7009 max 7009 min
Histogram: 1 0 0 0 0 0 0 0 0 0
Neighs:    77792 ave 77792 max 77792 min
Histogram: 1 0 0 0 0 0 0 0 0 0

Total # of neighbors = 77792
Ave neighs/atom = 26.7143
Neighbor list builds = 0
Dangerous builds = 0
        next i
jump SELF loop1
        displace_atoms upper move ${xstep1} 0.0 ${zstep1} units lattice
        displace_atoms upper move 0.00166666666666667 0.0 ${zstep1} units lattice
        displace_atoms upper move 0.00166666666666667 0.0 0 units lattice
        min_style ${style}
        min_style hftn
        minimize ${etol} ${ftol} ${maxiter} ${maxeval}
        minimize 1e-12 ${ftol} ${maxiter} ${maxeval}
        minimize 1e-12 1e-08 ${maxiter} ${maxeval}
        minimize 1e-12 1e-08 10000 ${maxeval}
        minimize 1e-12 1e-08 10000 20000
WARNING: Resetting reneighboring criteria during minimization (../min.cpp:168)
Memory usage per processor = 5.28939 Mbytes
Step Temp PotEng Lx Ly Lz 
     101            0   -17370.512    7.7766452    82.513436    4.4898482 
     102            0   -17370.514    7.7766452    82.513436    4.4898482 
     103            0   -17370.516    7.7766452    82.513436    4.4898482 
     104            0   -17370.516    7.7766452    82.513436    4.4898482 
     105            0   -17370.516    7.7766452    82.513436    4.4898482 
Loop time of 1.14015 on 1 procs for 3 steps with 2912 atoms

Minimization stats:
  Stopping criterion = force tolerance
  Energy initial, next-to-last, final = 
        -17370.5124832     -17370.5155822     -17370.5156034
  Force two-norm initial, final = 1.37977 1.04282e-10
  Force max component initial, final = 0.172471 8.05835e-12
  Final line search alpha, max atom move = 0 0
  Iterations, force evaluations = 3 485

Pair  time (%) = 1.04955 (92.0539)
Neigh time (%) = 0 (0)
Comm  time (%) = 0.017623 (1.54567)
Outpt time (%) = 0.00031224 (0.0273858)
Other time (%) = 0.0726628 (6.37308)

Nlocal:    2912 ave 2912 max 2912 min
Histogram: 1 0 0 0 0 0 0 0 0 0
Nghost:    7009 ave 7009 max 7009 min
Histogram: 1 0 0 0 0 0 0 0 0 0
Neighs:    77792 ave 77792 max 77792 min
Histogram: 1 0 0 0 0 0 0 0 0 0

Total # of neighbors = 77792
Ave neighs/atom = 26.7143
Neighbor list builds = 0
Dangerous builds = 0
        next i
jump SELF loop1
        displace_atoms upper move ${xstep1} 0.0 ${zstep1} units lattice
        displace_atoms upper move 0.00166666666666667 0.0 ${zstep1} units lattice
        displace_atoms upper move 0.00166666666666667 0.0 0 units lattice
        min_style ${style}
        min_style hftn
        minimize ${etol} ${ftol} ${maxiter} ${maxeval}
        minimize 1e-12 ${ftol} ${maxiter} ${maxeval}
        minimize 1e-12 1e-08 ${maxiter} ${maxeval}
        minimize 1e-12 1e-08 10000 ${maxeval}
        minimize 1e-12 1e-08 10000 20000
WARNING: Resetting reneighboring criteria during minimization (../min.cpp:168)
Memory usage per processor = 5.28939 Mbytes
Step Temp PotEng Lx Ly Lz 
     105            0   -17370.224    7.7766452    82.514463    4.4898482 
     106            0   -17370.225    7.7766452    82.514463    4.4898482 
     107            0   -17370.226    7.7766452    82.514463    4.4898482 
     108            0   -17370.226    7.7766452    82.514463    4.4898482 
     109            0   -17370.226    7.7766452    82.514463    4.4898482 
Loop time of 1.16245 on 1 procs for 3 steps with 2912 atoms

Minimization stats:
  Stopping criterion = force tolerance
  Energy initial, next-to-last, final = 
        -17370.2237986     -17370.2262172     -17370.2262381
  Force two-norm initial, final = 1.34744 8.83957e-11
  Force max component initial, final = 0.16843 7.87988e-12
  Final line search alpha, max atom move = 0 0
  Iterations, force evaluations = 3 485

Pair  time (%) = 1.06048 (91.2281)
Neigh time (%) = 0 (0)
Comm  time (%) = 0.0185707 (1.59755)
Outpt time (%) = 0.0003188 (0.027425)
Other time (%) = 0.083079 (7.14692)

Nlocal:    2912 ave 2912 max 2912 min
Histogram: 1 0 0 0 0 0 0 0 0 0
Nghost:    7009 ave 7009 max 7009 min
Histogram: 1 0 0 0 0 0 0 0 0 0
Neighs:    77792 ave 77792 max 77792 min
Histogram: 1 0 0 0 0 0 0 0 0 0

Total # of neighbors = 77792
Ave neighs/atom = 26.7143
Neighbor list builds = 0
Dangerous builds = 0
        next i
jump SELF loop1
        displace_atoms upper move ${xstep1} 0.0 ${zstep1} units lattice
        displace_atoms upper move 0.00166666666666667 0.0 ${zstep1} units lattice
        displace_atoms upper move 0.00166666666666667 0.0 0 units lattice
        min_style ${style}
        min_style hftn
        minimize ${etol} ${ftol} ${maxiter} ${maxeval}
        minimize 1e-12 ${ftol} ${maxiter} ${maxeval}
        minimize 1e-12 1e-08 ${maxiter} ${maxeval}
        minimize 1e-12 1e-08 10000 ${maxeval}
        minimize 1e-12 1e-08 10000 20000
WARNING: Resetting reneighboring criteria during minimization (../min.cpp:168)
Memory usage per processor = 5.28939 Mbytes
Step Temp PotEng Lx Ly Lz 
     109            0   -17369.944    7.7766452    82.515459    4.4898482 
     110            0   -17369.945    7.7766452    82.515459    4.4898482 
     111            0   -17369.947    7.7766452    82.515459    4.4898482 
     112            0   -17369.947    7.7766452    82.515459    4.4898482 
     113            0   -17369.947    7.7766452    82.515459    4.4898482 
Loop time of 1.142 on 1 procs for 3 steps with 2912 atoms

Minimization stats:
  Stopping criterion = force tolerance
  Energy initial, next-to-last, final = 
        -17369.9443004     -17369.9470154     -17369.9470394
  Force two-norm initial, final = 1.31276 1.38331e-10
  Force max component initial, final = 0.164095 8.47019e-12
  Final line search alpha, max atom move = 0 0
  Iterations, force evaluations = 3 485

Pair  time (%) = 1.04464 (91.4742)
Neigh time (%) = 0 (0)
Comm  time (%) = 0.0198719 (1.7401)
Outpt time (%) = 0.000439022 (0.0384432)
Other time (%) = 0.0770541 (6.74728)

Nlocal:    2912 ave 2912 max 2912 min
Histogram: 1 0 0 0 0 0 0 0 0 0
Nghost:    7009 ave 7009 max 7009 min
Histogram: 1 0 0 0 0 0 0 0 0 0
Neighs:    77792 ave 77792 max 77792 min
Histogram: 1 0 0 0 0 0 0 0 0 0

Total # of neighbors = 77792
Ave neighs/atom = 26.7143
Neighbor list builds = 0
Dangerous builds = 0
        next i
jump SELF loop1
        displace_atoms upper move ${xstep1} 0.0 ${zstep1} units lattice
        displace_atoms upper move 0.00166666666666667 0.0 ${zstep1} units lattice
        displace_atoms upper move 0.00166666666666667 0.0 0 units lattice
        min_style ${style}
        min_style hftn
        minimize ${etol} ${ftol} ${maxiter} ${maxeval}
        minimize 1e-12 ${ftol} ${maxiter} ${maxeval}
        minimize 1e-12 1e-08 ${maxiter} ${maxeval}
        minimize 1e-12 1e-08 10000 ${maxeval}
        minimize 1e-12 1e-08 10000 20000
WARNING: Resetting reneighboring criteria during minimization (../min.cpp:168)
Memory usage per processor = 5.28939 Mbytes
Step Temp PotEng Lx Ly Lz 
     113            0   -17369.675    7.7766452    82.516422    4.4898482 
     114            0   -17369.675    7.7766452    82.516422    4.4898482 
     115            0   -17369.677    7.7766452    82.516422    4.4898482 
     116            0   -17369.677    7.7766452    82.516422    4.4898482 
     117            0   -17369.677    7.7766452    82.516422    4.4898482 
Loop time of 1.13903 on 1 procs for 3 steps with 2912 atoms

Minimization stats:
  Stopping criterion = force tolerance
  Energy initial, next-to-last, final = 
        -17369.6745669     -17369.6769005       -17369.67692
  Force two-norm initial, final = 1.27891 7.42009e-11
  Force max component initial, final = 0.159864 4.46161e-12
  Final line search alpha, max atom move = 0 0
  Iterations, force evaluations = 3 487

Pair  time (%) = 1.0448 (91.7271)
Neigh time (%) = 0 (0)
Comm  time (%) = 0.0195061 (1.71252)
Outpt time (%) = 0.000408018 (0.0358215)
Other time (%) = 0.0743162 (6.52451)

Nlocal:    2912 ave 2912 max 2912 min
Histogram: 1 0 0 0 0 0 0 0 0 0
Nghost:    7009 ave 7009 max 7009 min
Histogram: 1 0 0 0 0 0 0 0 0 0
Neighs:    77792 ave 77792 max 77792 min
Histogram: 1 0 0 0 0 0 0 0 0 0

Total # of neighbors = 77792
Ave neighs/atom = 26.7143
Neighbor list builds = 0
Dangerous builds = 0
        next i
jump SELF loop1
        displace_atoms upper move ${xstep1} 0.0 ${zstep1} units lattice
        displace_atoms upper move 0.00166666666666667 0.0 ${zstep1} units lattice
        displace_atoms upper move 0.00166666666666667 0.0 0 units lattice
        min_style ${style}
        min_style hftn
        minimize ${etol} ${ftol} ${maxiter} ${maxeval}
        minimize 1e-12 ${ftol} ${maxiter} ${maxeval}
        minimize 1e-12 1e-08 ${maxiter} ${maxeval}
        minimize 1e-12 1e-08 10000 ${maxeval}
        minimize 1e-12 1e-08 10000 20000
WARNING: Resetting reneighboring criteria during minimization (../min.cpp:168)
Memory usage per processor = 5.28939 Mbytes
Step Temp PotEng Lx Ly Lz 
     117            0   -17369.415    7.7766452    82.517354    4.4898482 
     118            0   -17369.416    7.7766452    82.517354    4.4898482 
     119            0   -17369.417    7.7766452    82.517354    4.4898482 
     120            0   -17369.417    7.7766452    82.517354    4.4898482 
     121            0   -17369.417    7.7766452    82.517354    4.4898482 
Loop time of 1.15763 on 1 procs for 3 steps with 2912 atoms

Minimization stats:
  Stopping criterion = force tolerance
  Energy initial, next-to-last, final = 
        -17369.4148226     -17369.4168422     -17369.4168656
  Force two-norm initial, final = 1.24029 9.04534e-11
  Force max component initial, final = 0.155036 6.4353e-12
  Final line search alpha, max atom move = 0 0
  Iterations, force evaluations = 3 487

Pair  time (%) = 1.05149 (90.8307)
Neigh time (%) = 0 (0)
Comm  time (%) = 0.0257146 (2.22131)
Outpt time (%) = 0.000453755 (0.0391968)
Other time (%) = 0.0799784 (6.90878)

Nlocal:    2912 ave 2912 max 2912 min
Histogram: 1 0 0 0 0 0 0 0 0 0
Nghost:    7009 ave 7009 max 7009 min
Histogram: 1 0 0 0 0 0 0 0 0 0
Neighs:    77792 ave 77792 max 77792 min
Histogram: 1 0 0 0 0 0 0 0 0 0

Total # of neighbors = 77792
Ave neighs/atom = 26.7143
Neighbor list builds = 0
Dangerous builds = 0
        next i
jump SELF loop1
        displace_atoms upper move ${xstep1} 0.0 ${zstep1} units lattice
        displace_atoms upper move 0.00166666666666667 0.0 ${zstep1} units lattice
        displace_atoms upper move 0.00166666666666667 0.0 0 units lattice
        min_style ${style}
        min_style hftn
        minimize ${etol} ${ftol} ${maxiter} ${maxeval}
        minimize 1e-12 ${ftol} ${maxiter} ${maxeval}
        minimize 1e-12 1e-08 ${maxiter} ${maxeval}
        minimize 1e-12 1e-08 10000 ${maxeval}
        minimize 1e-12 1e-08 10000 20000
WARNING: Resetting reneighboring criteria during minimization (../min.cpp:168)
Memory usage per processor = 5.28939 Mbytes
Step Temp PotEng Lx Ly Lz 
     121            0   -17369.164    7.7766452    82.518253    4.4898482 
     122            0   -17369.165    7.7766452    82.518253    4.4898482 
     123            0   -17369.166    7.7766452    82.518253    4.4898482 
     124            0   -17369.167    7.7766452    82.518253    4.4898482 
     125            0   -17369.167    7.7766452    82.518253    4.4898482 
Loop time of 1.15208 on 1 procs for 3 steps with 2912 atoms

Minimization stats:
  Stopping criterion = force tolerance
  Energy initial, next-to-last, final = 
        -17369.1642974     -17369.1664864     -17369.1665093
  Force two-norm initial, final = 1.20454 2.24028e-10
  Force max component initial, final = 0.150568 1.92947e-11
  Final line search alpha, max atom move = 0 0
  Iterations, force evaluations = 3 485

Pair  time (%) = 1.0604 (92.042)
Neigh time (%) = 0 (0)
Comm  time (%) = 0.020066 (1.74171)
Outpt time (%) = 0.000442942 (0.038447)
Other time (%) = 0.0711737 (6.17783)

Nlocal:    2912 ave 2912 max 2912 min
Histogram: 1 0 0 0 0 0 0 0 0 0
Nghost:    7009 ave 7009 max 7009 min
Histogram: 1 0 0 0 0 0 0 0 0 0
Neighs:    77792 ave 77792 max 77792 min
Histogram: 1 0 0 0 0 0 0 0 0 0

Total # of neighbors = 77792
Ave neighs/atom = 26.7143
Neighbor list builds = 0
Dangerous builds = 0
        next i
jump SELF loop1
        displace_atoms upper move ${xstep1} 0.0 ${zstep1} units lattice
        displace_atoms upper move 0.00166666666666667 0.0 ${zstep1} units lattice
        displace_atoms upper move 0.00166666666666667 0.0 0 units lattice
        min_style ${style}
        min_style hftn
        minimize ${etol} ${ftol} ${maxiter} ${maxeval}
        minimize 1e-12 ${ftol} ${maxiter} ${maxeval}
        minimize 1e-12 1e-08 ${maxiter} ${maxeval}
        minimize 1e-12 1e-08 10000 ${maxeval}
        minimize 1e-12 1e-08 10000 20000
WARNING: Resetting reneighboring criteria during minimization (../min.cpp:168)
Memory usage per processor = 5.28939 Mbytes
Step Temp PotEng Lx Ly Lz 
     125            0   -17368.924    7.7766452    82.519119    4.4898482 
     126            0   -17368.924    7.7766452    82.519119    4.4898482 
     127            0   -17368.926    7.7766452    82.519119    4.4898482 
     128            0   -17368.926    7.7766452    82.519119    4.4898482 
     129            0   -17368.926    7.7766452    82.519119    4.4898482 
Loop time of 1.16391 on 1 procs for 3 steps with 2912 atoms

Minimization stats:
  Stopping criterion = force tolerance
  Energy initial, next-to-last, final = 
         -17368.923932     -17368.9257734     -17368.9257954
  Force two-norm initial, final = 1.16595 7.74846e-11
  Force max component initial, final = 0.145744 5.81382e-12
  Final line search alpha, max atom move = 0 0
  Iterations, force evaluations = 3 487

Pair  time (%) = 1.05975 (91.0508)
Neigh time (%) = 0 (0)
Comm  time (%) = 0.0235176 (2.02056)
Outpt time (%) = 0.000534056 (0.0458844)
Other time (%) = 0.0801093 (6.88274)

Nlocal:    2912 ave 2912 max 2912 min
Histogram: 1 0 0 0 0 0 0 0 0 0
Nghost:    7009 ave 7009 max 7009 min
Histogram: 1 0 0 0 0 0 0 0 0 0
Neighs:    77792 ave 77792 max 77792 min
Histogram: 1 0 0 0 0 0 0 0 0 0

Total # of neighbors = 77792
Ave neighs/atom = 26.7143
Neighbor list builds = 0
Dangerous builds = 0
        next i
jump SELF loop1
        displace_atoms upper move ${xstep1} 0.0 ${zstep1} units lattice
        displace_atoms upper move 0.00166666666666667 0.0 ${zstep1} units lattice
        displace_atoms upper move 0.00166666666666667 0.0 0 units lattice
        min_style ${style}
        min_style hftn
        minimize ${etol} ${ftol} ${maxiter} ${maxeval}
        minimize 1e-12 ${ftol} ${maxiter} ${maxeval}
        minimize 1e-12 1e-08 ${maxiter} ${maxeval}
        minimize 1e-12 1e-08 10000 ${maxeval}
        minimize 1e-12 1e-08 10000 20000
WARNING: Resetting reneighboring criteria during minimization (../min.cpp:168)
Memory usage per processor = 5.28939 Mbytes
Step Temp PotEng Lx Ly Lz 
     129            0   -17368.694    7.7766452    82.519954    4.4898482 
     130            0   -17368.694    7.7766452    82.519954    4.4898482 
     131            0   -17368.695    7.7766452    82.519954    4.4898482 
     132            0   -17368.695    7.7766452    82.519954    4.4898482 
     133            0   -17368.695    7.7766452    82.519954    4.4898482 
Loop time of 1.15364 on 1 procs for 3 steps with 2912 atoms

Minimization stats:
  Stopping criterion = force tolerance
  Energy initial, next-to-last, final = 
        -17368.6936318     -17368.6953175     -17368.6953368
  Force two-norm initial, final = 1.1247 6.44756e-11
  Force max component initial, final = 0.140588 4.40669e-12
  Final line search alpha, max atom move = 0 0
  Iterations, force evaluations = 3 483

Pair  time (%) = 1.04822 (90.8621)
Neigh time (%) = 0 (0)
Comm  time (%) = 0.0309996 (2.68712)
Outpt time (%) = 0.000286928 (0.0248716)
Other time (%) = 0.0741314 (6.42589)

Nlocal:    2912 ave 2912 max 2912 min
Histogram: 1 0 0 0 0 0 0 0 0 0
Nghost:    7009 ave 7009 max 7009 min
Histogram: 1 0 0 0 0 0 0 0 0 0
Neighs:    77792 ave 77792 max 77792 min
Histogram: 1 0 0 0 0 0 0 0 0 0

Total # of neighbors = 77792
Ave neighs/atom = 26.7143
Neighbor list builds = 0
Dangerous builds = 0
        next i
jump SELF loop1
        displace_atoms upper move ${xstep1} 0.0 ${zstep1} units lattice
        displace_atoms upper move 0.00166666666666667 0.0 ${zstep1} units lattice
        displace_atoms upper move 0.00166666666666667 0.0 0 units lattice
        min_style ${style}
        min_style hftn
        minimize ${etol} ${ftol} ${maxiter} ${maxeval}
        minimize 1e-12 ${ftol} ${maxiter} ${maxeval}
        minimize 1e-12 1e-08 ${maxiter} ${maxeval}
        minimize 1e-12 1e-08 10000 ${maxeval}
        minimize 1e-12 1e-08 10000 20000
WARNING: Resetting reneighboring criteria during minimization (../min.cpp:168)
Memory usage per processor = 5.28939 Mbytes
Step Temp PotEng Lx Ly Lz 
     133            0   -17368.473    7.7766452    82.520754    4.4898482 
     134            0   -17368.473    7.7766452    82.520754    4.4898482 
     135            0   -17368.474    7.7766452    82.520754    4.4898482 
     136            0   -17368.474    7.7766452    82.520754    4.4898482 
     137            0   -17368.474    7.7766452    82.520754    4.4898482 
Loop time of 1.18007 on 1 procs for 3 steps with 2912 atoms

Minimization stats:
  Stopping criterion = force tolerance
  Energy initial, next-to-last, final = 
        -17368.4726979     -17368.4743975     -17368.4744135
  Force two-norm initial, final = 1.08654 6.84371e-11
  Force max component initial, final = 0.135818 4.44788e-12
  Final line search alpha, max atom move = 0 0
  Iterations, force evaluations = 3 487

Pair  time (%) = 1.08098 (91.6032)
Neigh time (%) = 0 (0)
Comm  time (%) = 0.0196977 (1.6692)
Outpt time (%) = 0.000285735 (0.0242134)
Other time (%) = 0.0791046 (6.70339)

Nlocal:    2912 ave 2912 max 2912 min
Histogram: 1 0 0 0 0 0 0 0 0 0
Nghost:    7009 ave 7009 max 7009 min
Histogram: 1 0 0 0 0 0 0 0 0 0
Neighs:    77792 ave 77792 max 77792 min
Histogram: 1 0 0 0 0 0 0 0 0 0

Total # of neighbors = 77792
Ave neighs/atom = 26.7143
Neighbor list builds = 0
Dangerous builds = 0
        next i
jump SELF loop1
        displace_atoms upper move ${xstep1} 0.0 ${zstep1} units lattice
        displace_atoms upper move 0.00166666666666667 0.0 ${zstep1} units lattice
        displace_atoms upper move 0.00166666666666667 0.0 0 units lattice
        min_style ${style}
        min_style hftn
        minimize ${etol} ${ftol} ${maxiter} ${maxeval}
        minimize 1e-12 ${ftol} ${maxiter} ${maxeval}
        minimize 1e-12 1e-08 ${maxiter} ${maxeval}
        minimize 1e-12 1e-08 10000 ${maxeval}
        minimize 1e-12 1e-08 10000 20000
WARNING: Resetting reneighboring criteria during minimization (../min.cpp:168)
Memory usage per processor = 5.28939 Mbytes
Step Temp PotEng Lx Ly Lz 
     137            0   -17368.262    7.7766452    82.521522    4.4898482 
     138            0   -17368.262    7.7766452    82.521522    4.4898482 
     139            0   -17368.263    7.7766452    82.521522    4.4898482 
     140            0   -17368.264    7.7766452    82.521522    4.4898482 
     141            0   -17368.264    7.7766452    82.521522    4.4898482 
Loop time of 1.18161 on 1 procs for 3 steps with 2912 atoms

Minimization stats:
  Stopping criterion = force tolerance
  Energy initial, next-to-last, final = 
        -17368.2619863     -17368.2634895     -17368.2635049
  Force two-norm initial, final = 1.04465 4.2122e-11
  Force max component initial, final = 0.130581 2.60832e-12
  Final line search alpha, max atom move = 0 0
  Iterations, force evaluations = 3 491

Pair  time (%) = 1.08514 (91.8351)
Neigh time (%) = 0 (0)
Comm  time (%) = 0.0233596 (1.97692)
Outpt time (%) = 0.000338847 (0.0286766)
Other time (%) = 0.0727788 (6.15928)

Nlocal:    2912 ave 2912 max 2912 min
Histogram: 1 0 0 0 0 0 0 0 0 0
Nghost:    7009 ave 7009 max 7009 min
Histogram: 1 0 0 0 0 0 0 0 0 0
Neighs:    77792 ave 77792 max 77792 min
Histogram: 1 0 0 0 0 0 0 0 0 0

Total # of neighbors = 77792
Ave neighs/atom = 26.7143
Neighbor list builds = 0
Dangerous builds = 0
        next i
jump SELF loop1
        displace_atoms upper move ${xstep1} 0.0 ${zstep1} units lattice
        displace_atoms upper move 0.00166666666666667 0.0 ${zstep1} units lattice
        displace_atoms upper move 0.00166666666666667 0.0 0 units lattice
        min_style ${style}
        min_style hftn
        minimize ${etol} ${ftol} ${maxiter} ${maxeval}
        minimize 1e-12 ${ftol} ${maxiter} ${maxeval}
        minimize 1e-12 1e-08 ${maxiter} ${maxeval}
        minimize 1e-12 1e-08 10000 ${maxeval}
        minimize 1e-12 1e-08 10000 20000
WARNING: Resetting reneighboring criteria during minimization (../min.cpp:168)
Memory usage per processor = 5.28939 Mbytes
Step Temp PotEng Lx Ly Lz 
     141            0   -17368.061    7.7766452    82.522257    4.4898482 
     142            0   -17368.062    7.7766452    82.522257    4.4898482 
     143            0   -17368.063    7.7766452    82.522257    4.4898482 
     144            0   -17368.063    7.7766452    82.522257    4.4898482 
     145            0   -17368.063    7.7766452    82.522257    4.4898482 
Loop time of 1.64517 on 1 procs for 3 steps with 2912 atoms

Minimization stats:
  Stopping criterion = force tolerance
  Energy initial, next-to-last, final = 
        -17368.0614503     -17368.0628449     -17368.0628595
  Force two-norm initial, final = 1.00123 1.11618e-11
  Force max component initial, final = 0.125154 1.44144e-12
  Final line search alpha, max atom move = 0 0
  Iterations, force evaluations = 3 657

Pair  time (%) = 1.5007 (91.2186)
Neigh time (%) = 0 (0)
Comm  time (%) = 0.0281498 (1.71105)
Outpt time (%) = 0.000306792 (0.0186481)
Other time (%) = 0.116013 (7.05174)

Nlocal:    2912 ave 2912 max 2912 min
Histogram: 1 0 0 0 0 0 0 0 0 0
Nghost:    7009 ave 7009 max 7009 min
Histogram: 1 0 0 0 0 0 0 0 0 0
Neighs:    77792 ave 77792 max 77792 min
Histogram: 1 0 0 0 0 0 0 0 0 0

Total # of neighbors = 77792
Ave neighs/atom = 26.7143
Neighbor list builds = 0
Dangerous builds = 0
        next i
jump SELF loop1
        displace_atoms upper move ${xstep1} 0.0 ${zstep1} units lattice
        displace_atoms upper move 0.00166666666666667 0.0 ${zstep1} units lattice
        displace_atoms upper move 0.00166666666666667 0.0 0 units lattice
        min_style ${style}
        min_style hftn
        minimize ${etol} ${ftol} ${maxiter} ${maxeval}
        minimize 1e-12 ${ftol} ${maxiter} ${maxeval}
        minimize 1e-12 1e-08 ${maxiter} ${maxeval}
        minimize 1e-12 1e-08 10000 ${maxeval}
        minimize 1e-12 1e-08 10000 20000
WARNING: Resetting reneighboring criteria during minimization (../min.cpp:168)
Memory usage per processor = 5.28939 Mbytes
Step Temp PotEng Lx Ly Lz 
     145            0   -17367.871    7.7766452    82.522958    4.4898482 
     146            0   -17367.871    7.7766452    82.522958    4.4898482 
     147            0   -17367.872    7.7766452    82.522958    4.4898482 
     148            0   -17367.872    7.7766452    82.522958    4.4898482 
     149            0   -17367.872    7.7766452    82.522958    4.4898482 
Loop time of 1.19254 on 1 procs for 3 steps with 2912 atoms

Minimization stats:
  Stopping criterion = force tolerance
  Energy initial, next-to-last, final = 
        -17367.8707788     -17367.8719747     -17367.8719887
  Force two-norm initial, final = 0.958775 2.98494e-11
  Force max component initial, final = 0.119847 2.73874e-12
  Final line search alpha, max atom move = 0 0
  Iterations, force evaluations = 3 491

Pair  time (%) = 1.09119 (91.5016)
Neigh time (%) = 0 (0)
Comm  time (%) = 0.0203542 (1.70679)
Outpt time (%) = 0.000299078 (0.0250791)
Other time (%) = 0.080694 (6.76656)

Nlocal:    2912 ave 2912 max 2912 min
Histogram: 1 0 0 0 0 0 0 0 0 0
Nghost:    7009 ave 7009 max 7009 min
Histogram: 1 0 0 0 0 0 0 0 0 0
Neighs:    77792 ave 77792 max 77792 min
Histogram: 1 0 0 0 0 0 0 0 0 0

Total # of neighbors = 77792
Ave neighs/atom = 26.7143
Neighbor list builds = 0
Dangerous builds = 0
        next i
jump SELF loop1
        displace_atoms upper move ${xstep1} 0.0 ${zstep1} units lattice
        displace_atoms upper move 0.00166666666666667 0.0 ${zstep1} units lattice
        displace_atoms upper move 0.00166666666666667 0.0 0 units lattice
        min_style ${style}
        min_style hftn
        minimize ${etol} ${ftol} ${maxiter} ${maxeval}
        minimize 1e-12 ${ftol} ${maxiter} ${maxeval}
        minimize 1e-12 1e-08 ${maxiter} ${maxeval}
        minimize 1e-12 1e-08 10000 ${maxeval}
        minimize 1e-12 1e-08 10000 20000
WARNING: Resetting reneighboring criteria during minimization (../min.cpp:168)
Memory usage per processor = 5.28939 Mbytes
Step Temp PotEng Lx Ly Lz 
     149            0    -17367.69    7.7766452    82.523627    4.4898482 
     150            0    -17367.69    7.7766452    82.523627    4.4898482 
     151            0   -17367.691    7.7766452    82.523627    4.4898482 
     152            0   -17367.691    7.7766452    82.523627    4.4898482 
     153            0   -17367.691    7.7766452    82.523627    4.4898482 
Loop time of 1.22167 on 1 procs for 3 steps with 2912 atoms

Minimization stats:
  Stopping criterion = force tolerance
  Energy initial, next-to-last, final = 
        -17367.6898881     -17367.6909912      -17367.691002
  Force two-norm initial, final = 0.915665 1.94224e-11
  Force max component initial, final = 0.114458 2.40927e-12
  Final line search alpha, max atom move = 0 0
  Iterations, force evaluations = 3 495

Pair  time (%) = 1.11887 (91.5854)
Neigh time (%) = 0 (0)
Comm  time (%) = 0.0229903 (1.88187)
Outpt time (%) = 0.000305757 (0.0250277)
Other time (%) = 0.0795033 (6.50774)

Nlocal:    2912 ave 2912 max 2912 min
Histogram: 1 0 0 0 0 0 0 0 0 0
Nghost:    7009 ave 7009 max 7009 min
Histogram: 1 0 0 0 0 0 0 0 0 0
Neighs:    77792 ave 77792 max 77792 min
Histogram: 1 0 0 0 0 0 0 0 0 0

Total # of neighbors = 77792
Ave neighs/atom = 26.7143
Neighbor list builds = 0
Dangerous builds = 0
        next i
jump SELF loop1
        displace_atoms upper move ${xstep1} 0.0 ${zstep1} units lattice
        displace_atoms upper move 0.00166666666666667 0.0 ${zstep1} units lattice
        displace_atoms upper move 0.00166666666666667 0.0 0 units lattice
        min_style ${style}
        min_style hftn
        minimize ${etol} ${ftol} ${maxiter} ${maxeval}
        minimize 1e-12 ${ftol} ${maxiter} ${maxeval}
        minimize 1e-12 1e-08 ${maxiter} ${maxeval}
        minimize 1e-12 1e-08 10000 ${maxeval}
        minimize 1e-12 1e-08 10000 20000
WARNING: Resetting reneighboring criteria during minimization (../min.cpp:168)
Memory usage per processor = 5.28939 Mbytes
Step Temp PotEng Lx Ly Lz 
     153            0   -17367.519    7.7766452    82.524262    4.4898482 
     154            0   -17367.519    7.7766452    82.524262    4.4898482 
     155            0    -17367.52    7.7766452    82.524262    4.4898482 
     156            0    -17367.52    7.7766452    82.524262    4.4898482 
     157            0    -17367.52    7.7766452    82.524262    4.4898482 
Loop time of 1.52638 on 1 procs for 3 steps with 2912 atoms

Minimization stats:
  Stopping criterion = force tolerance
  Energy initial, next-to-last, final = 
        -17367.5191744      -17367.520251     -17367.5202613
  Force two-norm initial, final = 0.870546 1.29967e-11
  Force max component initial, final = 0.108818 2.27885e-12
  Final line search alpha, max atom move = 0 0
  Iterations, force evaluations = 3 629

Pair  time (%) = 1.3979 (91.5825)
Neigh time (%) = 0 (0)
Comm  time (%) = 0.0246252 (1.61331)
Outpt time (%) = 0.000259153 (0.0169783)
Other time (%) = 0.103598 (6.78718)

Nlocal:    2912 ave 2912 max 2912 min
Histogram: 1 0 0 0 0 0 0 0 0 0
Nghost:    7009 ave 7009 max 7009 min
Histogram: 1 0 0 0 0 0 0 0 0 0
Neighs:    77792 ave 77792 max 77792 min
Histogram: 1 0 0 0 0 0 0 0 0 0

Total # of neighbors = 77792
Ave neighs/atom = 26.7143
Neighbor list builds = 0
Dangerous builds = 0
        next i
jump SELF loop1
        displace_atoms upper move ${xstep1} 0.0 ${zstep1} units lattice
        displace_atoms upper move 0.00166666666666667 0.0 ${zstep1} units lattice
        displace_atoms upper move 0.00166666666666667 0.0 0 units lattice
        min_style ${style}
        min_style hftn
        minimize ${etol} ${ftol} ${maxiter} ${maxeval}
        minimize 1e-12 ${ftol} ${maxiter} ${maxeval}
        minimize 1e-12 1e-08 ${maxiter} ${maxeval}
        minimize 1e-12 1e-08 10000 ${maxeval}
        minimize 1e-12 1e-08 10000 20000
WARNING: Resetting reneighboring criteria during minimization (../min.cpp:168)
Memory usage per processor = 5.28939 Mbytes
Step Temp PotEng Lx Ly Lz 
     157            0   -17367.359    7.7766452    82.524863    4.4898482 
     158            0   -17367.359    7.7766452    82.524863    4.4898482 
     159            0    -17367.36    7.7766452    82.524863    4.4898482 
     160            0    -17367.36    7.7766452    82.524863    4.4898482 
     161            0    -17367.36    7.7766452    82.524863    4.4898482 
Loop time of 1.18649 on 1 procs for 3 steps with 2912 atoms

Minimization stats:
  Stopping criterion = force tolerance
  Energy initial, next-to-last, final = 
         -17367.358592     -17367.3597121     -17367.3597202
  Force two-norm initial, final = 0.825104 9.57205e-11
  Force max component initial, final = 0.103138 4.88031e-12
  Final line search alpha, max atom move = 0 0
  Iterations, force evaluations = 3 491

Pair  time (%) = 1.09129 (91.9761)
Neigh time (%) = 0 (0)
Comm  time (%) = 0.0191133 (1.61091)
Outpt time (%) = 0.000470887 (0.0396873)
Other time (%) = 0.0756192 (6.37334)

Nlocal:    2912 ave 2912 max 2912 min
Histogram: 1 0 0 0 0 0 0 0 0 0
Nghost:    7009 ave 7009 max 7009 min
Histogram: 1 0 0 0 0 0 0 0 0 0
Neighs:    77792 ave 77792 max 77792 min
Histogram: 1 0 0 0 0 0 0 0 0 0

Total # of neighbors = 77792
Ave neighs/atom = 26.7143
Neighbor list builds = 0
Dangerous builds = 0
        next i
jump SELF loop1
        displace_atoms upper move ${xstep1} 0.0 ${zstep1} units lattice
        displace_atoms upper move 0.00166666666666667 0.0 ${zstep1} units lattice
        displace_atoms upper move 0.00166666666666667 0.0 0 units lattice
        min_style ${style}
        min_style hftn
        minimize ${etol} ${ftol} ${maxiter} ${maxeval}
        minimize 1e-12 ${ftol} ${maxiter} ${maxeval}
        minimize 1e-12 1e-08 ${maxiter} ${maxeval}
        minimize 1e-12 1e-08 10000 ${maxeval}
        minimize 1e-12 1e-08 10000 20000
WARNING: Resetting reneighboring criteria during minimization (../min.cpp:168)
Memory usage per processor = 5.28939 Mbytes
Step Temp PotEng Lx Ly Lz 
     161            0   -17367.208    7.7766452    82.525431    4.4898482 
     162            0   -17367.208    7.7766452    82.525431    4.4898482 
     163            0   -17367.208    7.7766452    82.525431    4.4898482 
     164            0   -17367.208    7.7766452    82.525431    4.4898482 
     165            0   -17367.208    7.7766452    82.525431    4.4898482 
     166            0   -17367.208    7.7766452    82.525431    4.4898482 
     167            0   -17367.208    7.7766452    82.525431    4.4898482 
     168            0   -17367.208    7.7766452    82.525431    4.4898482 
     169            0   -17367.208    7.7766452    82.525431    4.4898482 
Loop time of 0.153743 on 1 procs for 7 steps with 2912 atoms

Minimization stats:
  Stopping criterion = energy tolerance
  Energy initial, next-to-last, final = 
        -17367.2081388     -17367.2081388     -17367.2081388
  Force two-norm initial, final = 0.779395 0.7793
  Force max component initial, final = 0.0974244 0.0974125
  Final line search alpha, max atom move = 0 0
  Iterations, force evaluations = 7 62

Pair  time (%) = 0.144484 (93.9773)
Neigh time (%) = 0 (0)
Comm  time (%) = 0.00219741 (1.42927)
Outpt time (%) = 0.00059092 (0.384355)
Other time (%) = 0.00647109 (4.20903)

Nlocal:    2912 ave 2912 max 2912 min
Histogram: 1 0 0 0 0 0 0 0 0 0
Nghost:    7009 ave 7009 max 7009 min
Histogram: 1 0 0 0 0 0 0 0 0 0
Neighs:    77792 ave 77792 max 77792 min
[...]
        minimize 1e-12 1e-08 ${maxiter} ${maxeval}
        minimize 1e-12 1e-08 10000 ${maxeval}
        minimize 1e-12 1e-08 10000 20000
WARNING: Resetting reneighboring criteria during minimization (../min.cpp:168)
Memory usage per processor = 5.28939 Mbytes
Step Temp PotEng Lx Ly Lz 
    1975            0   -17375.073    7.7766452    82.505248    4.4898482 
    1976            0   -17375.073    7.7766452    82.505248    4.4898482 
    1977            0   -17375.073    7.7766452    82.505248    4.4898482 
    1978            0   -17375.073    7.7766452    82.505248    4.4898482 
    1979            0   -17375.074    7.7766452    82.505248    4.4898482 
    1980            0   -17375.074    7.7766452    82.505248    4.4898482 
    1981            0   -17375.074    7.7766452    82.505248    4.4898482 
    1982            0   -17375.074    7.7766452    82.505248    4.4898482 
    1983            0   -17375.074    7.7766452    82.505248    4.4898482 
    1984            0   -17375.074    7.7766452    82.505248    4.4898482 
    1985            0   -17375.074    7.7766452    82.505248    4.4898482 
    1986            0   -17375.074    7.7766452    82.505248    4.4898482 
    1987            0   -17375.074    7.7766452    82.505248    4.4898482 
    1988            0   -17375.074    7.7766452    82.505248    4.4898482 
    1989            0   -17375.074    7.7766452    82.505248    4.4898482 
    1990            0   -17375.074    7.7766452    82.505248    4.4898482 
    1991            0   -17375.074    7.7766452    82.505248    4.4898482 
    1992            0   -17375.074    7.7766452    82.505248    4.4898482 
    1993            0   -17375.074    7.7766452    82.505248    4.4898482 
    1994            0   -17375.074    7.7766452    82.505248    4.4898482 
    1995            0   -17375.074    7.7766452    82.505248    4.4898482 
    1996            0   -17375.074    7.7766452    82.505248    4.4898482 
    1997            0   -17375.074    7.7766452    82.505248    4.4898482 
    1998            0   -17375.074    7.7766452    82.505248    4.4898482 
    1999            0   -17375.074    7.7766452    82.505248    4.4898482 
    2000            0   -17375.074    7.7766452    82.505248    4.4898482 
    2001            0   -17375.074    7.7766452    82.505248    4.4898482 
    2002            0   -17375.074    7.7766452    82.505248    4.4898482 
    2003            0   -17375.074    7.7766452    82.505248    4.4898482 
Loop time of 1.01617 on 1 procs for 27 steps with 2912 atoms

Minimization stats:
  Stopping criterion = energy tolerance
  Energy initial, next-to-last, final = 
        -17375.0733325     -17375.0737926     -17375.0738009
  Force two-norm initial, final = 0.4614 0.012643
  Force max component initial, final = 0.0576246 0.00053103
  Final line search alpha, max atom move = 0 0
  Iterations, force evaluations = 27 402

Pair  time (%) = 0.930405 (91.5599)
Neigh time (%) = 0 (0)
Comm  time (%) = 0.0178887 (1.7604)
Outpt time (%) = 0.00933598 (0.918741)
Other time (%) = 0.058541 (5.76094)

Nlocal:    2912 ave 2912 max 2912 min
Histogram: 1 0 0 0 0 0 0 0 0 0
Nghost:    7129 ave 7129 max 7129 min
Histogram: 1 0 0 0 0 0 0 0 0 0
Neighs:    77856 ave 77856 max 77856 min
Histogram: 1 0 0 0 0 0 0 0 0 0

Total # of neighbors = 77856
Ave neighs/atom = 26.7363
Neighbor list builds = 0
Dangerous builds = 0
        next j
jump SELF loop2
        displace_atoms upper move ${xstep2} 0.0 ${zstep2} units lattice
        displace_atoms upper move 0.000833333333333329 0.0 ${zstep2} units lattice
        displace_atoms upper move 0.000833333333333329 0.0 0.00249999999999999 units lattice
        min_style ${style}
        min_style hftn
        minimize ${etol} ${ftol} ${maxiter} ${maxeval}
        minimize 1e-12 ${ftol} ${maxiter} ${maxeval}
        minimize 1e-12 1e-08 ${maxiter} ${maxeval}
        minimize 1e-12 1e-08 10000 ${maxeval}
        minimize 1e-12 1e-08 10000 20000
WARNING: Resetting reneighboring criteria during minimization (../min.cpp:168)
Memory usage per processor = 5.28939 Mbytes
Step Temp PotEng Lx Ly Lz 
    2003            0   -17375.336    7.7766452    82.505058    4.4898482 
    2004            0   -17375.336    7.7766452    82.505058    4.4898482 
    2005            0   -17375.336    7.7766452    82.505058    4.4898482 
    2006            0   -17375.336    7.7766452    82.505058    4.4898482 
    2007            0   -17375.336    7.7766452    82.505058    4.4898482 
    2008            0   -17375.336    7.7766452    82.505058    4.4898482 
    2009            0   -17375.336    7.7766452    82.505058    4.4898482 
    2010            0   -17375.336    7.7766452    82.505058    4.4898482 
    2011            0   -17375.336    7.7766452    82.505058    4.4898482 
Loop time of 0.15763 on 1 procs for 7 steps with 2912 atoms

Minimization stats:
  Stopping criterion = energy tolerance
  Energy initial, next-to-last, final = 
        -17375.3360795     -17375.3360795     -17375.3360795
  Force two-norm initial, final = 0.440065 0.440013
  Force max component initial, final = 0.0549897 0.0549832
  Final line search alpha, max atom move = 0 0
  Iterations, force evaluations = 7 64

Pair  time (%) = 0.147777 (93.7496)
Neigh time (%) = 0 (0)
Comm  time (%) = 0.00249495 (1.58279)
Outpt time (%) = 0.000629894 (0.399603)
Other time (%) = 0.0067276 (4.26797)

Nlocal:    2912 ave 2912 max 2912 min
Histogram: 1 0 0 0 0 0 0 0 0 0
Nghost:    7129 ave 7129 max 7129 min
Histogram: 1 0 0 0 0 0 0 0 0 0
Neighs:    77856 ave 77856 max 77856 min
Histogram: 1 0 0 0 0 0 0 0 0 0

Total # of neighbors = 77856
Ave neighs/atom = 26.7363
Neighbor list builds = 0
Dangerous builds = 0
        next j
jump SELF loop2
        displace_atoms upper move ${xstep2} 0.0 ${zstep2} units lattice
        displace_atoms upper move 0.000833333333333329 0.0 ${zstep2} units lattice
        displace_atoms upper move 0.000833333333333329 0.0 0.00249999999999999 units lattice
        min_style ${style}
        min_style hftn
        minimize ${etol} ${ftol} ${maxiter} ${maxeval}
        minimize 1e-12 ${ftol} ${maxiter} ${maxeval}
        minimize 1e-12 1e-08 ${maxiter} ${maxeval}
        minimize 1e-12 1e-08 10000 ${maxeval}
        minimize 1e-12 1e-08 10000 20000
WARNING: Resetting reneighboring criteria during minimization (../min.cpp:168)
Memory usage per processor = 5.28939 Mbytes
Step Temp PotEng Lx Ly Lz 
    2011            0   -17375.561    7.7766452    82.505058    4.4898482 
    2012            0   -17375.562    7.7766452    82.505058    4.4898482 
    2013            0   -17375.562    7.7766452    82.505058    4.4898482 
    2014            0   -17375.563    7.7766452    82.505058    4.4898482 
    2015            0   -17375.563    7.7766452    82.505058    4.4898482 
    2016            0   -17375.563    7.7766452    82.505058    4.4898482 
    2017            0   -17375.563    7.7766452    82.505058    4.4898482 
    2018            0   -17375.563    7.7766452    82.505058    4.4898482 
    2019            0   -17375.563    7.7766452    82.505058    4.4898482 
    2020            0   -17375.563    7.7766452    82.505058    4.4898482 
    2021            0   -17375.563    7.7766452    82.505058    4.4898482 
    2022            0   -17375.563    7.7766452    82.505058    4.4898482 
    2023            0   -17375.563    7.7766452    82.505058    4.4898482 
    2024            0   -17375.563    7.7766452    82.505058    4.4898482 
    2025            0   -17375.563    7.7766452    82.505058    4.4898482 
    2026            0   -17375.563    7.7766452    82.505058    4.4898482 
    2027            0   -17375.563    7.7766452    82.505058    4.4898482 
    2028            0   -17375.563    7.7766452    82.505058    4.4898482 
    2029            0   -17375.563    7.7766452    82.505058    4.4898482 
Loop time of 1.08535 on 1 procs for 17 steps with 2912 atoms

Minimization stats:
  Stopping criterion = energy tolerance
  Energy initial, next-to-last, final = 
        -17375.5612137      -17375.563001     -17375.5630106
  Force two-norm initial, final = 1.20582 0.0217456
  Force max component initial, final = 0.150723 0.0012657
  Final line search alpha, max atom move = 0 0
  Iterations, force evaluations = 17 454

Pair  time (%) = 0.991741 (91.3754)
Neigh time (%) = 0 (0)
Comm  time (%) = 0.0206928 (1.90656)
Outpt time (%) = 0.00172783 (0.159196)
Other time (%) = 0.0711869 (6.5589)

Nlocal:    2912 ave 2912 max 2912 min
Histogram: 1 0 0 0 0 0 0 0 0 0
Nghost:    7129 ave 7129 max 7129 min
Histogram: 1 0 0 0 0 0 0 0 0 0
Neighs:    77856 ave 77856 max 77856 min
Histogram: 1 0 0 0 0 0 0 0 0 0

Total # of neighbors = 77856
Ave neighs/atom = 26.7363
Neighbor list builds = 0
Dangerous builds = 0
        next j
jump SELF loop2
        displace_atoms upper move ${xstep2} 0.0 ${zstep2} units lattice
        displace_atoms upper move 0.000833333333333329 0.0 ${zstep2} units lattice
        displace_atoms upper move 0.000833333333333329 0.0 0.00249999999999999 units lattice
        min_style ${style}
        min_style hftn
        minimize ${etol} ${ftol} ${maxiter} ${maxeval}
        minimize 1e-12 ${ftol} ${maxiter} ${maxeval}
        minimize 1e-12 1e-08 ${maxiter} ${maxeval}
        minimize 1e-12 1e-08 10000 ${maxeval}
        minimize 1e-12 1e-08 10000 20000
WARNING: Resetting reneighboring criteria during minimization (../min.cpp:168)
Memory usage per processor = 5.28939 Mbytes
Step Temp PotEng Lx Ly Lz 
    2029            0   -17375.744    7.7766452    82.503496    4.4898482 
    2030            0   -17375.744    7.7766452    82.503496    4.4898482 
    2031            0   -17375.745    7.7766452    82.503496    4.4898482 
    2032            0   -17375.745    7.7766452    82.503496    4.4898482 
    2033            0   -17375.745    7.7766452    82.503496    4.4898482 
    2034            0   -17375.745    7.7766452    82.503496    4.4898482 
    2035            0   -17375.745    7.7766452    82.503496    4.4898482 
    2036            0   -17375.745    7.7766452    82.503496    4.4898482 
    2037            0   -17375.745    7.7766452    82.503496    4.4898482 
    2038            0   -17375.745    7.7766452    82.503496    4.4898482 
    2039            0   -17375.745    7.7766452    82.503496    4.4898482 
    2040            0   -17375.745    7.7766452    82.503496    4.4898482 
Loop time of 0.216841 on 1 procs for 10 steps with 2912 atoms

Minimization stats:
  Stopping criterion = energy tolerance
  Energy initial, next-to-last, final = 
        -17375.7444212     -17375.7445713      -17375.744572
  Force two-norm initial, final = 0.618267 0.199464
  Force max component initial, final = 0.0772399 0.0214704
  Final line search alpha, max atom move = 0 0
  Iterations, force evaluations = 10 87

Pair  time (%) = 0.198541 (91.5605)
Neigh time (%) = 0 (0)
Comm  time (%) = 0.00714081 (3.29311)
Outpt time (%) = 0.000923048 (0.425679)
Other time (%) = 0.0102365 (4.72075)

Nlocal:    2912 ave 2912 max 2912 min
Histogram: 1 0 0 0 0 0 0 0 0 0
Nghost:    7129 ave 7129 max 7129 min
Histogram: 1 0 0 0 0 0 0 0 0 0
Neighs:    77856 ave 77856 max 77856 min
Histogram: 1 0 0 0 0 0 0 0 0 0

Total # of neighbors = 77856
Ave neighs/atom = 26.7363
Neighbor list builds = 0
Dangerous builds = 0
        next j
jump SELF loop2
        displace_atoms upper move ${xstep2} 0.0 ${zstep2} units lattice
        displace_atoms upper move 0.000833333333333329 0.0 ${zstep2} units lattice
        displace_atoms upper move 0.000833333333333329 0.0 0.00249999999999999 units lattice
        min_style ${style}
        min_style hftn
        minimize ${etol} ${ftol} ${maxiter} ${maxeval}
        minimize 1e-12 ${ftol} ${maxiter} ${maxeval}
        minimize 1e-12 1e-08 ${maxiter} ${maxeval}
        minimize 1e-12 1e-08 10000 ${maxeval}
        minimize 1e-12 1e-08 10000 20000
WARNING: Resetting reneighboring criteria during minimization (../min.cpp:168)
Memory usage per processor = 5.28939 Mbytes
Step Temp PotEng Lx Ly Lz 
    2040            0   -17375.878    7.7766452    82.503493    4.4898482 
    2041            0   -17375.878    7.7766452    82.503493    4.4898482 
    2042            0   -17375.878    7.7766452    82.503493    4.4898482 
    2043            0   -17375.879    7.7766452    82.503493    4.4898482 
    2044            0   -17375.879    7.7766452    82.503493    4.4898482 
    2045            0   -17375.879    7.7766452    82.503493    4.4898482 
    2046            0   -17375.879    7.7766452    82.503493    4.4898482 
    2047            0   -17375.879    7.7766452    82.503493    4.4898482 
    2048            0   -17375.879    7.7766452    82.503493    4.4898482 
    2049            0   -17375.879    7.7766452    82.503493    4.4898482 
    2050            0   -17375.879    7.7766452    82.503493    4.4898482 
    2051            0   -17375.879    7.7766452    82.503493    4.4898482 
    2052            0   -17375.879    7.7766452    82.503493    4.4898482 
    2053            0   -17375.879    7.7766452    82.503493    4.4898482 
    2054            0   -17375.879    7.7766452    82.503493    4.4898482 
    2055            0   -17375.879    7.7766452    82.503493    4.4898482 
Loop time of 0.881129 on 1 procs for 14 steps with 2912 atoms

Minimization stats:
  Stopping criterion = energy tolerance
  Energy initial, next-to-last, final = 
        -17375.8775075     -17375.8789581     -17375.8790171
  Force two-norm initial, final = 0.579954 0.0211282
  Force max component initial, final = 0.0691982 0.00112335
  Final line search alpha, max atom move = 0 0
  Iterations, force evaluations = 14 363

Pair  time (%) = 0.80884 (91.7959)
Neigh time (%) = 0 (0)
Comm  time (%) = 0.0195289 (2.21635)
Outpt time (%) = 0.00109935 (0.124766)
Other time (%) = 0.0516604 (5.86298)

Nlocal:    2912 ave 2912 max 2912 min
Histogram: 1 0 0 0 0 0 0 0 0 0
Nghost:    7129 ave 7129 max 7129 min
Histogram: 1 0 0 0 0 0 0 0 0 0
Neighs:    77856 ave 77856 max 77856 min
Histogram: 1 0 0 0 0 0 0 0 0 0

Total # of neighbors = 77856
Ave neighs/atom = 26.7363
Neighbor list builds = 0
Dangerous builds = 0
        next j
jump SELF loop2
        displace_atoms upper move ${xstep2} 0.0 ${zstep2} units lattice
        displace_atoms upper move 0.000833333333333329 0.0 ${zstep2} units lattice
        displace_atoms upper move 0.000833333333333329 0.0 0.00249999999999999 units lattice
        min_style ${style}
        min_style hftn
        minimize ${etol} ${ftol} ${maxiter} ${maxeval}
        minimize 1e-12 ${ftol} ${maxiter} ${maxeval}
        minimize 1e-12 1e-08 ${maxiter} ${maxeval}
        minimize 1e-12 1e-08 10000 ${maxeval}
        minimize 1e-12 1e-08 10000 20000
WARNING: Resetting reneighboring criteria during minimization (../min.cpp:168)
Memory usage per processor = 5.28939 Mbytes
Step Temp PotEng Lx Ly Lz 
    2055            0   -17375.961    7.7766452    82.502765    4.4898482 
    2056            0   -17375.961    7.7766452    82.502765    4.4898482 
    2057            0   -17375.961    7.7766452    82.502765    4.4898482 
    2058            0   -17375.961    7.7766452    82.502765    4.4898482 
    2059            0   -17375.961    7.7766452    82.502765    4.4898482 
    2060            0   -17375.961    7.7766452    82.502765    4.4898482 
    2061            0   -17375.961    7.7766452    82.502765    4.4898482 
    2062            0   -17375.961    7.7766452    82.502765    4.4898482 
    2063            0   -17375.961    7.7766452    82.502765    4.4898482 
    2064            0   -17375.961    7.7766452    82.502765    4.4898482 
    2065            0   -17375.961    7.7766452    82.502765    4.4898482 
    2066            0   -17375.961    7.7766452    82.502765    4.4898482 
    2067            0   -17375.961    7.7766452    82.502765    4.4898482 
    2068            0   -17375.961    7.7766452    82.502765    4.4898482 
    2069            0   -17375.961    7.7766452    82.502765    4.4898482 
    2070            0   -17375.961    7.7766452    82.502765    4.4898482 
Loop time of 0.750841 on 1 procs for 14 steps with 2912 atoms

Minimization stats:
  Stopping criterion = energy tolerance
  Energy initial, next-to-last, final = 
        -17375.9610065     -17375.9614051     -17375.9614056
  Force two-norm initial, final = 0.281247 0.011872
  Force max component initial, final = 0.0350679 0.000546945
  Final line search alpha, max atom move = 0 0
  Iterations, force evaluations = 14 301

Pair  time (%) = 0.693593 (92.3754)
Neigh time (%) = 0 (0)
Comm  time (%) = 0.0150524 (2.00474)
Outpt time (%) = 0.0012311 (0.163963)
Other time (%) = 0.0409648 (5.45586)

Nlocal:    2912 ave 2912 max 2912 min
Histogram: 1 0 0 0 0 0 0 0 0 0
Nghost:    7129 ave 7129 max 7129 min
Histogram: 1 0 0 0 0 0 0 0 0 0
Neighs:    77856 ave 77856 max 77856 min
Histogram: 1 0 0 0 0 0 0 0 0 0

Total # of neighbors = 77856
Ave neighs/atom = 26.7363
Neighbor list builds = 0
Dangerous builds = 0
        next j
jump SELF loop2
        displace_atoms upper move ${xstep2} 0.0 ${zstep2} units lattice
        displace_atoms upper move 0.000833333333333329 0.0 ${zstep2} units lattice
        displace_atoms upper move 0.000833333333333329 0.0 0.00249999999999999 units lattice
        min_style ${style}
        min_style hftn
        minimize ${etol} ${ftol} ${maxiter} ${maxeval}
        minimize 1e-12 ${ftol} ${maxiter} ${maxeval}
        minimize 1e-12 1e-08 ${maxiter} ${maxeval}
        minimize 1e-12 1e-08 10000 ${maxeval}
        minimize 1e-12 1e-08 10000 20000
WARNING: Resetting reneighboring criteria during minimization (../min.cpp:168)
Memory usage per processor = 5.28939 Mbytes
Step Temp PotEng Lx Ly Lz 
    2070            0   -17375.989    7.7766452    82.502622    4.4898482 
    2071            0   -17375.989    7.7766452    82.502622    4.4898482 
    2072            0   -17375.989    7.7766452    82.502622    4.4898482 
    2073            0   -17375.989    7.7766452    82.502622    4.4898482 
    2074            0   -17375.989    7.7766452    82.502622    4.4898482 
    2075            0   -17375.989    7.7766452    82.502622    4.4898482 
    2076            0   -17375.989    7.7766452    82.502622    4.4898482 
    2077            0    -17375.99    7.7766452    82.502622    4.4898482 
    2078            0    -17375.99    7.7766452    82.502622    4.4898482 
    2079            0    -17375.99    7.7766452    82.502622    4.4898482 
    2080            0    -17375.99    7.7766452    82.502622    4.4898482 
    2081            0    -17375.99    7.7766452    82.502622    4.4898482 
    2082            0    -17375.99    7.7766452    82.502622    4.4898482 
    2083            0    -17375.99    7.7766452    82.502622    4.4898482 
    2084            0    -17375.99    7.7766452    82.502622    4.4898482 
    2085            0    -17375.99    7.7766452    82.502622    4.4898482 
    2086            0    -17375.99    7.7766452    82.502622    4.4898482 
    2087            0    -17375.99    7.7766452    82.502622    4.4898482 
Loop time of 0.661948 on 1 procs for 16 steps with 2912 atoms

Minimization stats:
  Stopping criterion = energy tolerance
  Energy initial, next-to-last, final = 
         -17375.989367      -17375.989537     -17375.9895428
  Force two-norm initial, final = 0.0944577 0.00891216
  Force max component initial, final = 0.0117193 0.000241034
  Final line search alpha, max atom move = 0 0
  Iterations, force evaluations = 16 269

Pair  time (%) = 0.600337 (90.6925)
Neigh time (%) = 0 (0)
Comm  time (%) = 0.016519 (2.49552)
Outpt time (%) = 0.00156393 (0.236262)
Other time (%) = 0.0435278 (6.57571)

Nlocal:    2912 ave 2912 max 2912 min
Histogram: 1 0 0 0 0 0 0 0 0 0
Nghost:    7129 ave 7129 max 7129 min
Histogram: 1 0 0 0 0 0 0 0 0 0
Neighs:    77856 ave 77856 max 77856 min
Histogram: 1 0 0 0 0 0 0 0 0 0

Total # of neighbors = 77856
Ave neighs/atom = 26.7363
Neighbor list builds = 0
Dangerous builds = 0
        next j
jump SELF loop2


