LAMMPS (28 Jun 2014)
# attempt at getting GSF energy

#file prefix
variable prefix string gsf_V_brittle_3d
variable dumpfile string ${prefix}.*.dump
variable dumpfile string gsf_V_brittle_3d.*.dump
variable restartfile string ${prefix}.*.equil
variable restartfile string gsf_V_brittle_3d.*.equil

#Mass (g/mol)
variable m equal 1.0

# lattice constant (in Angstroms) and orientation of axes (given by lattice vectors)
variable rho equal 1.0
variable x1 equal 1
variable x2 equal -2
variable x3 equal 1
variable y1 equal 1
variable y2 equal 1
variable y3 equal 1
variable z1 equal -1
variable z2 equal 0
variable z3 equal 1
# length of lattice in different directions (using orientation of lattice vectors)
variable ax equal sqrt(${x1}*${x1}+${x2}*${x2}+${x3}*${x3})
variable ax equal sqrt(1*${x1}+${x2}*${x2}+${x3}*${x3})
variable ax equal sqrt(1*1+${x2}*${x2}+${x3}*${x3})
variable ax equal sqrt(1*1+-2*${x2}+${x3}*${x3})
variable ax equal sqrt(1*1+-2*-2+${x3}*${x3})
variable ax equal sqrt(1*1+-2*-2+1*${x3})
variable ax equal sqrt(1*1+-2*-2+1*1)
variable ay equal sqrt(${y1}*${y1}+${y2}*${y2}+${y3}*${y3})
variable ay equal sqrt(1*${y1}+${y2}*${y2}+${y3}*${y3})
variable ay equal sqrt(1*1+${y2}*${y2}+${y3}*${y3})
variable ay equal sqrt(1*1+1*${y2}+${y3}*${y3})
variable ay equal sqrt(1*1+1*1+${y3}*${y3})
variable ay equal sqrt(1*1+1*1+1*${y3})
variable ay equal sqrt(1*1+1*1+1*1)
variable az equal sqrt(${z1}*${z1}+${z2}*${z2}+${z3}*${z3})
variable az equal sqrt(-1*${z1}+${z2}*${z2}+${z3}*${z3})
variable az equal sqrt(-1*-1+${z2}*${z2}+${z3}*${z3})
variable az equal sqrt(-1*-1+0*${z2}+${z3}*${z3})
variable az equal sqrt(-1*-1+0*0+${z3}*${z3})
variable az equal sqrt(-1*-1+0*0+1*${z3})
variable az equal sqrt(-1*-1+0*0+1*1)

# size of box in lattice units
variable lxpos equal 2
variable lxneg equal 0
variable lypos equal 15
variable lyneg equal -1*${lypos}
variable lyneg equal -1*15
variable lzpos equal 2
variable lzneg equal 0

# Define minimization parameters and damping
variable etol equal 1.0e-12
variable ftol equal 1.0e-8
variable maxiter equal 10000
variable maxeval equal 20000
variable style string hftn

# boundary conditions
dimension	3
boundary	p s p
atom_style	atomic

# create geometry
units		lj
lattice         fcc ${rho} orient x ${x1} ${x2} ${x3} orient y ${y1} ${y2} ${y3} orient z ${z1} ${z2} ${z3} spacing ${ax} ${ay} ${az}
lattice         fcc 1 orient x ${x1} ${x2} ${x3} orient y ${y1} ${y2} ${y3} orient z ${z1} ${z2} ${z3} spacing ${ax} ${ay} ${az}
lattice         fcc 1 orient x 1 ${x2} ${x3} orient y ${y1} ${y2} ${y3} orient z ${z1} ${z2} ${z3} spacing ${ax} ${ay} ${az}
lattice         fcc 1 orient x 1 -2 ${x3} orient y ${y1} ${y2} ${y3} orient z ${z1} ${z2} ${z3} spacing ${ax} ${ay} ${az}
lattice         fcc 1 orient x 1 -2 1 orient y ${y1} ${y2} ${y3} orient z ${z1} ${z2} ${z3} spacing ${ax} ${ay} ${az}
lattice         fcc 1 orient x 1 -2 1 orient y 1 ${y2} ${y3} orient z ${z1} ${z2} ${z3} spacing ${ax} ${ay} ${az}
lattice         fcc 1 orient x 1 -2 1 orient y 1 1 ${y3} orient z ${z1} ${z2} ${z3} spacing ${ax} ${ay} ${az}
lattice         fcc 1 orient x 1 -2 1 orient y 1 1 1 orient z ${z1} ${z2} ${z3} spacing ${ax} ${ay} ${az}
lattice         fcc 1 orient x 1 -2 1 orient y 1 1 1 orient z -1 ${z2} ${z3} spacing ${ax} ${ay} ${az}
lattice         fcc 1 orient x 1 -2 1 orient y 1 1 1 orient z -1 0 ${z3} spacing ${ax} ${ay} ${az}
lattice         fcc 1 orient x 1 -2 1 orient y 1 1 1 orient z -1 0 1 spacing ${ax} ${ay} ${az}
lattice         fcc 1 orient x 1 -2 1 orient y 1 1 1 orient z -1 0 1 spacing 2.44948974278318 ${ay} ${az}
lattice         fcc 1 orient x 1 -2 1 orient y 1 1 1 orient z -1 0 1 spacing 2.44948974278318 1.73205080756888 ${az}
lattice         fcc 1 orient x 1 -2 1 orient y 1 1 1 orient z -1 0 1 spacing 2.44948974278318 1.73205080756888 1.4142135623731
Lattice spacing in x,y,z = 3.88832 2.74946 2.24492
region		myregion block ${lxneg} ${lxpos} ${lyneg} ${lypos} ${lzneg} ${lzpos} units lattice
region		myregion block 0 ${lxpos} ${lyneg} ${lypos} ${lzneg} ${lzpos} units lattice
region		myregion block 0 2 ${lyneg} ${lypos} ${lzneg} ${lzpos} units lattice
region		myregion block 0 2 -15 ${lypos} ${lzneg} ${lzpos} units lattice
region		myregion block 0 2 -15 15 ${lzneg} ${lzpos} units lattice
region		myregion block 0 2 -15 15 0 ${lzpos} units lattice
region		myregion block 0 2 -15 15 0 2 units lattice
create_box	1 myregion
Created orthogonal box = (0 -41.2419 0) to (7.77665 41.2419 4.48985)
  1 by 1 by 1 MPI processor grid
create_atoms	1 box
Created 2912 atoms

# define masses
mass * $m
mass * 1

# my fake/morse potential
pair_style      table linear 3001
pair_coeff      * * vpotential_brittle3d dummy
neighbor	0.3 bin
neigh_modify	delay 5

# define groups. Nudge to separate planes cleanly
region	    upper block INF INF 0.01 ${lypos} INF INF units lattice
region	    upper block INF INF 0.01 15 INF INF units lattice
group		upper region upper
1440 atoms in group upper

# Setup output
thermo 1
thermo_style custom step temp pe lx ly lz
thermo_modify norm no

# Compute initial state by relaxing box
min_style ${style}
min_style hftn
minimize ${etol} ${ftol} ${maxiter} ${maxeval}
minimize 1e-12 ${ftol} ${maxiter} ${maxeval}
minimize 1e-12 1e-08 ${maxiter} ${maxeval}
minimize 1e-12 1e-08 10000 ${maxeval}
minimize 1e-12 1e-08 10000 20000
WARNING: Resetting reneighboring criteria during minimization (../min.cpp:168)
Memory usage per processor = 5.28939 Mbytes
Step Temp PotEng Lx Ly Lz 
       0            0   -17375.986    7.7766452    82.500275    4.4898482 
       1            0   -17375.986    7.7766452    82.500275    4.4898482 
       2            0   -17375.986    7.7766452    82.500275    4.4898482 
Loop time of 1.38612 on 1 procs for 1 steps with 2912 atoms

Minimization stats:
  Stopping criterion = force tolerance
  Energy initial, next-to-last, final = 
        -17375.9855515     -17375.9855515     -17375.9858427
  Force two-norm initial, final = 0.00252636 4.78485e-12
  Force max component initial, final = 0.000315795 3.56737e-13
  Final line search alpha, max atom move = 0 0
  Iterations, force evaluations = 1 629

Pair  time (%) = 1.27056 (91.6626)
Neigh time (%) = 0 (0)
Comm  time (%) = 0.0240705 (1.73653)
Outpt time (%) = 9.39401e-05 (0.00677717)
Other time (%) = 0.091403 (6.59414)

Nlocal:    2912 ave 2912 max 2912 min
Histogram: 1 0 0 0 0 0 0 0 0 0
Nghost:    7129 ave 7129 max 7129 min
Histogram: 1 0 0 0 0 0 0 0 0 0
Neighs:    77856 ave 77856 max 77856 min
Histogram: 1 0 0 0 0 0 0 0 0 0

Total # of neighbors = 77856
Ave neighs/atom = 26.7363
Neighbor list builds = 0
Dangerous builds = 0

# don't allow atoms to relax in x- and y-directions
fix 2 all setforce 0.0 NULL 0.0

# GSF energy curve will have 100*2 steps
variable nsteps equal 100
# first partial is parallel to x-axis
variable angle1 equal 0
# second partial is at 60 degrees to first partial
variable angle2 equal PI/180*60
# partial dislocations have length a*sqrt(6)/6
variable sstep1 equal sqrt(6)/6
variable sstep2 equal sqrt(6)/6
variable xstep1 equal cos(${angle1})*${sstep1}/(${ax}*${nsteps})
variable xstep1 equal cos(0)*${sstep1}/(${ax}*${nsteps})
variable xstep1 equal cos(0)*0.408248290463863/(${ax}*${nsteps})
variable xstep1 equal cos(0)*0.408248290463863/(2.44948974278318*${nsteps})
variable xstep1 equal cos(0)*0.408248290463863/(2.44948974278318*100)
variable zstep1 equal sin(${angle1})*${sstep1}/(${az}*${nsteps})
variable zstep1 equal sin(0)*${sstep1}/(${az}*${nsteps})
variable zstep1 equal sin(0)*0.408248290463863/(${az}*${nsteps})
variable zstep1 equal sin(0)*0.408248290463863/(1.4142135623731*${nsteps})
variable zstep1 equal sin(0)*0.408248290463863/(1.4142135623731*100)
variable xstep2 equal cos(${angle2})*${sstep2}/(${ax}*${nsteps})
variable xstep2 equal cos(1.0471975511966)*${sstep2}/(${ax}*${nsteps})
variable xstep2 equal cos(1.0471975511966)*0.408248290463863/(${ax}*${nsteps})
variable xstep2 equal cos(1.0471975511966)*0.408248290463863/(2.44948974278318*${nsteps})
variable xstep2 equal cos(1.0471975511966)*0.408248290463863/(2.44948974278318*100)
variable zstep2 equal sin(${angle2})*${sstep2}/(${az}*${nsteps})
variable zstep2 equal sin(1.0471975511966)*${sstep2}/(${az}*${nsteps})
variable zstep2 equal sin(1.0471975511966)*0.408248290463863/(${az}*${nsteps})
variable zstep2 equal sin(1.0471975511966)*0.408248290463863/(1.4142135623731*${nsteps})
variable zstep2 equal sin(1.0471975511966)*0.408248290463863/(1.4142135623731*100)

variable i loop ${nsteps}
variable i loop 100
label loop1
        displace_atoms upper move ${xstep1} 0.0 ${zstep1} units lattice
        displace_atoms upper move 0.00166666666666667 0.0 ${zstep1} units lattice
        displace_atoms upper move 0.00166666666666667 0.0 0 units lattice
        min_style ${style}
        min_style hftn
        minimize ${etol} ${ftol} ${maxiter} ${maxeval}
        minimize 1e-12 ${ftol} ${maxiter} ${maxeval}
        minimize 1e-12 1e-08 ${maxiter} ${maxeval}
        minimize 1e-12 1e-08 10000 ${maxeval}
        minimize 1e-12 1e-08 10000 20000
WARNING: Resetting reneighboring criteria during minimization (../min.cpp:168)
Memory usage per processor = 5.28939 Mbytes
Step Temp PotEng Lx Ly Lz 
       2            0   -17375.958    7.7766452    82.500442    4.4898482 
       3            0   -17375.958    7.7766452    82.500442    4.4898482 
       4            0   -17375.958    7.7766452    82.500442    4.4898482 
       5            0   -17375.958    7.7766452    82.500442    4.4898482 
       6            0   -17375.958    7.7766452    82.500442    4.4898482 
       7            0   -17375.958    7.7766452    82.500442    4.4898482 
       8            0   -17375.958    7.7766452    82.500442    4.4898482 
       9            0   -17375.958    7.7766452    82.500442    4.4898482 
Loop time of 0.155367 on 1 procs for 6 steps with 2912 atoms

Minimization stats:
  Stopping criterion = energy tolerance
  Energy initial, next-to-last, final = 
        -17375.9576916     -17375.9576916     -17375.9576916
  Force two-norm initial, final = 0.0967175 0.0967002
  Force max component initial, final = 0.0120897 0.0120875
  Final line search alpha, max atom move = 0 0
  Iterations, force evaluations = 6 65

Pair  time (%) = 0.14279 (91.9051)
Neigh time (%) = 0 (0)
Comm  time (%) = 0.00481577 (3.09961)
Outpt time (%) = 0.000466765 (0.300428)
Other time (%) = 0.00729427 (4.69487)

Nlocal:    2912 ave 2912 max 2912 min
Histogram: 1 0 0 0 0 0 0 0 0 0
Nghost:    7129 ave 7129 max 7129 min
Histogram: 1 0 0 0 0 0 0 0 0 0
Neighs:    77856 ave 77856 max 77856 min
Histogram: 1 0 0 0 0 0 0 0 0 0

Total # of neighbors = 77856
Ave neighs/atom = 26.7363
Neighbor list builds = 0
Dangerous builds = 0
        next i
jump SELF loop1
        displace_atoms upper move ${xstep1} 0.0 ${zstep1} units lattice
        displace_atoms upper move 0.00166666666666667 0.0 ${zstep1} units lattice
        displace_atoms upper move 0.00166666666666667 0.0 0 units lattice
        min_style ${style}
        min_style hftn
        minimize ${etol} ${ftol} ${maxiter} ${maxeval}
        minimize 1e-12 ${ftol} ${maxiter} ${maxeval}
        minimize 1e-12 1e-08 ${maxiter} ${maxeval}
        minimize 1e-12 1e-08 10000 ${maxeval}
        minimize 1e-12 1e-08 10000 20000
WARNING: Resetting reneighboring criteria during minimization (../min.cpp:168)
Memory usage per processor = 5.28939 Mbytes
Step Temp PotEng Lx Ly Lz 
       9            0   -17375.875    7.7766452    82.500442    4.4898482 
      10            0   -17375.875    7.7766452    82.500442    4.4898482 
      11            0   -17375.875    7.7766452    82.500442    4.4898482 
      12            0   -17375.875    7.7766452    82.500442    4.4898482 
      13            0   -17375.875    7.7766452    82.500442    4.4898482 
      14            0   -17375.875    7.7766452    82.500442    4.4898482 
      15            0   -17375.875    7.7766452    82.500442    4.4898482 
      16            0   -17375.875    7.7766452    82.500442    4.4898482 
      17            0   -17375.875    7.7766452    82.500442    4.4898482 
      18            0   -17375.875    7.7766452    82.500442    4.4898482 
      19            0   -17375.875    7.7766452    82.500442    4.4898482 
Loop time of 0.18191 on 1 procs for 9 steps with 2912 atoms

Minimization stats:
  Stopping criterion = energy tolerance
  Energy initial, next-to-last, final = 
        -17375.8752298     -17375.8752972     -17375.8753178
  Force two-norm initial, final = 0.379021 0.0896676
  Force max component initial, final = 0.0473777 0.0103845
  Final line search alpha, max atom move = 0 0
  Iterations, force evaluations = 9 72

Pair  time (%) = 0.166163 (91.3432)
Neigh time (%) = 0 (0)
Comm  time (%) = 0.00425159 (2.33719)
Outpt time (%) = 0.00101508 (0.558014)
Other time (%) = 0.0104809 (5.76156)

Nlocal:    2912 ave 2912 max 2912 min
Histogram: 1 0 0 0 0 0 0 0 0 0
Nghost:    7129 ave 7129 max 7129 min
Histogram: 1 0 0 0 0 0 0 0 0 0
Neighs:    77856 ave 77856 max 77856 min
Histogram: 1 0 0 0 0 0 0 0 0 0

Total # of neighbors = 77856
Ave neighs/atom = 26.7363
Neighbor list builds = 0
Dangerous builds = 0
        next i
jump SELF loop1
        displace_atoms upper move ${xstep1} 0.0 ${zstep1} units lattice
        displace_atoms upper move 0.00166666666666667 0.0 ${zstep1} units lattice
        displace_atoms upper move 0.00166666666666667 0.0 0 units lattice
        min_style ${style}
        min_style hftn
        minimize ${etol} ${ftol} ${maxiter} ${maxeval}
        minimize 1e-12 ${ftol} ${maxiter} ${maxeval}
        minimize 1e-12 1e-08 ${maxiter} ${maxeval}
        minimize 1e-12 1e-08 10000 ${maxeval}
        minimize 1e-12 1e-08 10000 20000
WARNING: Resetting reneighboring criteria during minimization (../min.cpp:168)
Memory usage per processor = 5.28939 Mbytes
Step Temp PotEng Lx Ly Lz 
      19            0   -17375.741    7.7766452    82.500442    4.4898482 
      20            0   -17375.741    7.7766452    82.500442    4.4898482 
      21            0   -17375.741    7.7766452    82.500442    4.4898482 
      22            0   -17375.741    7.7766452    82.500442    4.4898482 
      23            0   -17375.741    7.7766452    82.500442    4.4898482 
      24            0   -17375.741    7.7766452    82.500442    4.4898482 
      25            0   -17375.741    7.7766452    82.500442    4.4898482 
      26            0   -17375.741    7.7766452    82.500442    4.4898482 
      27            0   -17375.741    7.7766452    82.500442    4.4898482 
      28            0   -17375.741    7.7766452    82.500442    4.4898482 
Loop time of 0.209308 on 1 procs for 8 steps with 2912 atoms

Minimization stats:
  Stopping criterion = energy tolerance
  Energy initial, next-to-last, final = 
        -17375.7411028     -17375.7411028     -17375.7411027
  Force two-norm initial, final = 0.49275 0.492724
  Force max component initial, final = 0.0606575 0.060654
  Final line search alpha, max atom move = 0 0
  Iterations, force evaluations = 8 75

Pair  time (%) = 0.196814 (94.0308)
Neigh time (%) = 0 (0)
Comm  time (%) = 0.00357461 (1.70782)
Outpt time (%) = 0.000964433 (0.460772)
Other time (%) = 0.00795491 (3.80058)

Nlocal:    2912 ave 2912 max 2912 min
Histogram: 1 0 0 0 0 0 0 0 0 0
Nghost:    7129 ave 7129 max 7129 min
Histogram: 1 0 0 0 0 0 0 0 0 0
Neighs:    77856 ave 77856 max 77856 min
Histogram: 1 0 0 0 0 0 0 0 0 0

Total # of neighbors = 77856
Ave neighs/atom = 26.7363
Neighbor list builds = 0
Dangerous builds = 0
        next i
jump SELF loop1
        displace_atoms upper move ${xstep1} 0.0 ${zstep1} units lattice
        displace_atoms upper move 0.00166666666666667 0.0 ${zstep1} units lattice
        displace_atoms upper move 0.00166666666666667 0.0 0 units lattice
        min_style ${style}
        min_style hftn
        minimize ${etol} ${ftol} ${maxiter} ${maxeval}
        minimize 1e-12 ${ftol} ${maxiter} ${maxeval}
        minimize 1e-12 1e-08 ${maxiter} ${maxeval}
        minimize 1e-12 1e-08 10000 ${maxeval}
        minimize 1e-12 1e-08 10000 20000
WARNING: Resetting reneighboring criteria during minimization (../min.cpp:168)
Memory usage per processor = 5.28939 Mbytes
Step Temp PotEng Lx Ly Lz 
      28            0   -17375.557    7.7766452    82.500442    4.4898482 
      29            0   -17375.558    7.7766452    82.500442    4.4898482 
      30            0    -17375.56    7.7766452    82.500442    4.4898482 
      31            0    -17375.56    7.7766452    82.500442    4.4898482 
      32            0    -17375.56    7.7766452    82.500442    4.4898482 
Loop time of 1.38212 on 1 procs for 3 steps with 2912 atoms

Minimization stats:
  Stopping criterion = force tolerance
  Energy initial, next-to-last, final = 
        -17375.5573507     -17375.5596613     -17375.5596792
  Force two-norm initial, final = 1.11464 9.44928e-12
  Force max component initial, final = 0.138919 1.16688e-12
  Final line search alpha, max atom move = 0 0
  Iterations, force evaluations = 3 621

Pair  time (%) = 1.26526 (91.5448)
Neigh time (%) = 0 (0)
Comm  time (%) = 0.0247692 (1.79212)
Outpt time (%) = 0.00032093 (0.0232202)
Other time (%) = 0.0917702 (6.63982)

Nlocal:    2912 ave 2912 max 2912 min
Histogram: 1 0 0 0 0 0 0 0 0 0
Nghost:    7129 ave 7129 max 7129 min
Histogram: 1 0 0 0 0 0 0 0 0 0
Neighs:    77856 ave 77856 max 77856 min
Histogram: 1 0 0 0 0 0 0 0 0 0

Total # of neighbors = 77856
Ave neighs/atom = 26.7363
Neighbor list builds = 0
Dangerous builds = 0
        next i
jump SELF loop1
        displace_atoms upper move ${xstep1} 0.0 ${zstep1} units lattice
        displace_atoms upper move 0.00166666666666667 0.0 ${zstep1} units lattice
        displace_atoms upper move 0.00166666666666667 0.0 0 units lattice
        min_style ${style}
        min_style hftn
        minimize ${etol} ${ftol} ${maxiter} ${maxeval}
        minimize 1e-12 ${ftol} ${maxiter} ${maxeval}
        minimize 1e-12 1e-08 ${maxiter} ${maxeval}
        minimize 1e-12 1e-08 10000 ${maxeval}
        minimize 1e-12 1e-08 10000 20000
WARNING: Resetting reneighboring criteria during minimization (../min.cpp:168)
Memory usage per processor = 5.28939 Mbytes
Step Temp PotEng Lx Ly Lz 
      32            0   -17375.331    7.7766452     82.50152    4.4898482 
      33            0   -17375.332    7.7766452     82.50152    4.4898482 
      34            0   -17375.332    7.7766452     82.50152    4.4898482 
      35            0   -17375.332    7.7766452     82.50152    4.4898482 
      36            0   -17375.332    7.7766452     82.50152    4.4898482 
Loop time of 1.14751 on 1 procs for 3 steps with 2912 atoms

Minimization stats:
  Stopping criterion = force tolerance
  Energy initial, next-to-last, final = 
         -17375.331427     -17375.3323551     -17375.3323652
  Force two-norm initial, final = 0.776226 1.00969e-11
  Force max component initial, final = 0.0970283 1.94251e-12
  Final line search alpha, max atom move = 0 0
  Iterations, force evaluations = 3 515

Pair  time (%) = 1.05009 (91.5099)
Neigh time (%) = 0 (0)
Comm  time (%) = 0.0196935 (1.71619)
Outpt time (%) = 0.000292755 (0.0255121)
Other time (%) = 0.0774385 (6.74838)

Nlocal:    2912 ave 2912 max 2912 min
Histogram: 1 0 0 0 0 0 0 0 0 0
Nghost:    7009 ave 7009 max 7009 min
Histogram: 1 0 0 0 0 0 0 0 0 0
Neighs:    77856 ave 77856 max 77856 min
Histogram: 1 0 0 0 0 0 0 0 0 0

Total # of neighbors = 77856
Ave neighs/atom = 26.7363
Neighbor list builds = 0
Dangerous builds = 0
        next i
jump SELF loop1
        displace_atoms upper move ${xstep1} 0.0 ${zstep1} units lattice
        displace_atoms upper move 0.00166666666666667 0.0 ${zstep1} units lattice
        displace_atoms upper move 0.00166666666666667 0.0 0 units lattice
        min_style ${style}
        min_style hftn
        minimize ${etol} ${ftol} ${maxiter} ${maxeval}
        minimize 1e-12 ${ftol} ${maxiter} ${maxeval}
        minimize 1e-12 1e-08 ${maxiter} ${maxeval}
        minimize 1e-12 1e-08 10000 ${maxeval}
        minimize 1e-12 1e-08 10000 20000
WARNING: Resetting reneighboring criteria during minimization (../min.cpp:168)
Memory usage per processor = 5.28939 Mbytes
Step Temp PotEng Lx Ly Lz 
      36            0   -17375.062    7.7766452    82.502093    4.4898482 
      37            0   -17375.062    7.7766452    82.502093    4.4898482 
      38            0   -17375.063    7.7766452    82.502093    4.4898482 
      39            0   -17375.063    7.7766452    82.502093    4.4898482 
      40            0   -17375.063    7.7766452    82.502093    4.4898482 
Loop time of 1.10115 on 1 procs for 3 steps with 2912 atoms

Minimization stats:
  Stopping criterion = force tolerance
  Energy initial, next-to-last, final = 
        -17375.0618854     -17375.0631337     -17375.0631478
  Force two-norm initial, final = 0.917572 2.40559e-11
  Force max component initial, final = 0.114697 2.45732e-12
  Final line search alpha, max atom move = 0 0
  Iterations, force evaluations = 3 491

Pair  time (%) = 1.0065 (91.4046)
Neigh time (%) = 0 (0)
Comm  time (%) = 0.0206199 (1.87257)
Outpt time (%) = 0.000407038 (0.0369647)
Other time (%) = 0.0736218 (6.68588)

Nlocal:    2912 ave 2912 max 2912 min
Histogram: 1 0 0 0 0 0 0 0 0 0
Nghost:    7009 ave 7009 max 7009 min
Histogram: 1 0 0 0 0 0 0 0 0 0
Neighs:    77856 ave 77856 max 77856 min
Histogram: 1 0 0 0 0 0 0 0 0 0

Total # of neighbors = 77856
Ave neighs/atom = 26.7363
Neighbor list builds = 0
Dangerous builds = 0
        next i
jump SELF loop1
        displace_atoms upper move ${xstep1} 0.0 ${zstep1} units lattice
        displace_atoms upper move 0.00166666666666667 0.0 ${zstep1} units lattice
        displace_atoms upper move 0.00166666666666667 0.0 0 units lattice
        min_style ${style}
        min_style hftn
        minimize ${etol} ${ftol} ${maxiter} ${maxeval}
        minimize 1e-12 ${ftol} ${maxiter} ${maxeval}
        minimize 1e-12 1e-08 ${maxiter} ${maxeval}
        minimize 1e-12 1e-08 10000 ${maxeval}
        minimize 1e-12 1e-08 10000 20000
WARNING: Resetting reneighboring criteria during minimization (../min.cpp:168)
Memory usage per processor = 5.28939 Mbytes
Step Temp PotEng Lx Ly Lz 
      40            0   -17374.754    7.7766452    82.502771    4.4898482 
      41            0   -17374.754    7.7766452    82.502771    4.4898482 
      42            0   -17374.755    7.7766452    82.502771    4.4898482 
      43            0   -17374.755    7.7766452    82.502771    4.4898482 
      44            0   -17374.755    7.7766452    82.502771    4.4898482 
Loop time of 1.11946 on 1 procs for 3 steps with 2912 atoms

Minimization stats:
  Stopping criterion = force tolerance
  Energy initial, next-to-last, final = 
        -17374.7537828     -17374.7554163     -17374.7554324
  Force two-norm initial, final = 1.04692 3.76544e-11
  Force max component initial, final = 0.130864 2.42986e-12
  Final line search alpha, max atom move = 0 0
  Iterations, force evaluations = 3 491

Pair  time (%) = 1.02535 (91.5931)
Neigh time (%) = 0 (0)
Comm  time (%) = 0.0189221 (1.69028)
Outpt time (%) = 0.000416914 (0.0372423)
Other time (%) = 0.0747737 (6.67942)

Nlocal:    2912 ave 2912 max 2912 min
Histogram: 1 0 0 0 0 0 0 0 0 0
Nghost:    7009 ave 7009 max 7009 min
Histogram: 1 0 0 0 0 0 0 0 0 0
Neighs:    77856 ave 77856 max 77856 min
Histogram: 1 0 0 0 0 0 0 0 0 0

Total # of neighbors = 77856
Ave neighs/atom = 26.7363
Neighbor list builds = 0
Dangerous builds = 0
        next i
jump SELF loop1
        displace_atoms upper move ${xstep1} 0.0 ${zstep1} units lattice
        displace_atoms upper move 0.00166666666666667 0.0 ${zstep1} units lattice
        displace_atoms upper move 0.00166666666666667 0.0 0 units lattice
        min_style ${style}
        min_style hftn
        minimize ${etol} ${ftol} ${maxiter} ${maxeval}
        minimize 1e-12 ${ftol} ${maxiter} ${maxeval}
        minimize 1e-12 1e-08 ${maxiter} ${maxeval}
        minimize 1e-12 1e-08 10000 ${maxeval}
        minimize 1e-12 1e-08 10000 20000
WARNING: Resetting reneighboring criteria during minimization (../min.cpp:168)
Memory usage per processor = 5.28939 Mbytes
Step Temp PotEng Lx Ly Lz 
      44            0   -17374.411    7.7766452    82.503545    4.4898482 
      45            0   -17374.411    7.7766452    82.503545    4.4898482 
      46            0   -17374.413    7.7766452    82.503545    4.4898482 
      47            0   -17374.413    7.7766452    82.503545    4.4898482 
      48            0   -17374.413    7.7766452    82.503545    4.4898482 
Loop time of 1.09805 on 1 procs for 3 steps with 2912 atoms

Minimization stats:
  Stopping criterion = force tolerance
  Energy initial, next-to-last, final = 
        -17374.4107647     -17374.4125878     -17374.4126057
  Force two-norm initial, final = 1.16316 8.16977e-11
  Force max component initial, final = 0.145395 6.74046e-12
  Final line search alpha, max atom move = 0 0
  Iterations, force evaluations = 3 487

Pair  time (%) = 1.00567 (91.5867)
Neigh time (%) = 0 (0)
Comm  time (%) = 0.0184785 (1.68285)
Outpt time (%) = 0.000262953 (0.0239472)
Other time (%) = 0.0736406 (6.70647)

Nlocal:    2912 ave 2912 max 2912 min
Histogram: 1 0 0 0 0 0 0 0 0 0
Nghost:    7009 ave 7009 max 7009 min
Histogram: 1 0 0 0 0 0 0 0 0 0
Neighs:    77856 ave 77856 max 77856 min
Histogram: 1 0 0 0 0 0 0 0 0 0

Total # of neighbors = 77856
Ave neighs/atom = 26.7363
Neighbor list builds = 0
Dangerous builds = 0
        next i
jump SELF loop1
        displace_atoms upper move ${xstep1} 0.0 ${zstep1} units lattice
        displace_atoms upper move 0.00166666666666667 0.0 ${zstep1} units lattice
        displace_atoms upper move 0.00166666666666667 0.0 0 units lattice
        min_style ${style}
        min_style hftn
        minimize ${etol} ${ftol} ${maxiter} ${maxeval}
        minimize 1e-12 ${ftol} ${maxiter} ${maxeval}
        minimize 1e-12 1e-08 ${maxiter} ${maxeval}
        minimize 1e-12 1e-08 10000 ${maxeval}
        minimize 1e-12 1e-08 10000 20000
WARNING: Resetting reneighboring criteria during minimization (../min.cpp:168)
Memory usage per processor = 5.28939 Mbytes
Step Temp PotEng Lx Ly Lz 
      48            0   -17374.036    7.7766452    82.504406    4.4898482 
      49            0   -17374.037    7.7766452    82.504406    4.4898482 
      50            0   -17374.038    7.7766452    82.504406    4.4898482 
      51            0   -17374.038    7.7766452    82.504406    4.4898482 
      52            0   -17374.038    7.7766452    82.504406    4.4898482 
Loop time of 1.09438 on 1 procs for 3 steps with 2912 atoms

Minimization stats:
  Stopping criterion = force tolerance
  Energy initial, next-to-last, final = 
         -17374.035532     -17374.0381066     -17374.0381261
  Force two-norm initial, final = 1.26932 9.43573e-11
  Force max component initial, final = 0.158665 6.2737e-12
  Final line search alpha, max atom move = 0 0
  Iterations, force evaluations = 3 487

Pair  time (%) = 0.996918 (91.0939)
Neigh time (%) = 0 (0)
Comm  time (%) = 0.0210893 (1.92705)
Outpt time (%) = 0.000265083 (0.0242221)
Other time (%) = 0.076112 (6.95478)

Nlocal:    2912 ave 2912 max 2912 min
Histogram: 1 0 0 0 0 0 0 0 0 0
Nghost:    7009 ave 7009 max 7009 min
Histogram: 1 0 0 0 0 0 0 0 0 0
Neighs:    77856 ave 77856 max 77856 min
Histogram: 1 0 0 0 0 0 0 0 0 0

Total # of neighbors = 77856
Ave neighs/atom = 26.7363
Neighbor list builds = 0
Dangerous builds = 0
        next i
jump SELF loop1
        displace_atoms upper move ${xstep1} 0.0 ${zstep1} units lattice
        displace_atoms upper move 0.00166666666666667 0.0 ${zstep1} units lattice
        displace_atoms upper move 0.00166666666666667 0.0 0 units lattice
        min_style ${style}
        min_style hftn
        minimize ${etol} ${ftol} ${maxiter} ${maxeval}
        minimize 1e-12 ${ftol} ${maxiter} ${maxeval}
        minimize 1e-12 1e-08 ${maxiter} ${maxeval}
        minimize 1e-12 1e-08 10000 ${maxeval}
        minimize 1e-12 1e-08 10000 20000
WARNING: Resetting reneighboring criteria during minimization (../min.cpp:168)
Memory usage per processor = 5.28939 Mbytes
Step Temp PotEng Lx Ly Lz 
      52            0   -17373.632    7.7766452    82.505346    4.4898482 
      53            0   -17373.633    7.7766452    82.505346    4.4898482 
      54            0   -17373.635    7.7766452    82.505346    4.4898482 
      55            0   -17373.635    7.7766452    82.505346    4.4898482 
      56            0   -17373.635    7.7766452    82.505346    4.4898482 
Loop time of 1.14474 on 1 procs for 3 steps with 2912 atoms

Minimization stats:
  Stopping criterion = force tolerance
  Energy initial, next-to-last, final = 
        -17373.6321624     -17373.6349256     -17373.6349466
  Force two-norm initial, final = 1.36267 8.79507e-11
  Force max component initial, final = 0.170333 6.64436e-12
  Final line search alpha, max atom move = 0 0
  Iterations, force evaluations = 3 485

Pair  time (%) = 1.0406 (90.9028)
Neigh time (%) = 0 (0)
Comm  time (%) = 0.0264272 (2.30857)
Outpt time (%) = 0.000370012 (0.0323227)
Other time (%) = 0.0773425 (6.75632)

Nlocal:    2912 ave 2912 max 2912 min
Histogram: 1 0 0 0 0 0 0 0 0 0
Nghost:    7009 ave 7009 max 7009 min
Histogram: 1 0 0 0 0 0 0 0 0 0
Neighs:    77856 ave 77856 max 77856 min
Histogram: 1 0 0 0 0 0 0 0 0 0

Total # of neighbors = 77856
Ave neighs/atom = 26.7363
Neighbor list builds = 0
Dangerous builds = 0
        next i
jump SELF loop1
        displace_atoms upper move ${xstep1} 0.0 ${zstep1} units lattice
        displace_atoms upper move 0.00166666666666667 0.0 ${zstep1} units lattice
        displace_atoms upper move 0.00166666666666667 0.0 0 units lattice
        min_style ${style}
        min_style hftn
        minimize ${etol} ${ftol} ${maxiter} ${maxeval}
        minimize 1e-12 ${ftol} ${maxiter} ${maxeval}
        minimize 1e-12 1e-08 ${maxiter} ${maxeval}
        minimize 1e-12 1e-08 10000 ${maxeval}
        minimize 1e-12 1e-08 10000 20000
WARNING: Resetting reneighboring criteria during minimization (../min.cpp:168)
Memory usage per processor = 5.28939 Mbytes
Step Temp PotEng Lx Ly Lz 
      56            0   -17373.204    7.7766452    82.506358    4.4898482 
      57            0   -17373.205    7.7766452    82.506358    4.4898482 
      58            0   -17373.207    7.7766452    82.506358    4.4898482 
      59            0   -17373.207    7.7766452    82.506358    4.4898482 
      60            0   -17373.207    7.7766452    82.506358    4.4898482 
Loop time of 1.08906 on 1 procs for 3 steps with 2912 atoms

Minimization stats:
  Stopping criterion = force tolerance
  Energy initial, next-to-last, final = 
        -17373.2036306     -17373.2066885     -17373.2067109
  Force two-norm initial, final = 1.44302 8.88335e-11
  Force max component initial, final = 0.180378 5.64908e-12
  Final line search alpha, max atom move = 0 0
  Iterations, force evaluations = 3 485

Pair  time (%) = 0.988764 (90.7908)
Neigh time (%) = 0 (0)
Comm  time (%) = 0.0291773 (2.67914)
Outpt time (%) = 0.000257001 (0.0235985)
Other time (%) = 0.0708589 (6.50644)

Nlocal:    2912 ave 2912 max 2912 min
Histogram: 1 0 0 0 0 0 0 0 0 0
Nghost:    7009 ave 7009 max 7009 min
Histogram: 1 0 0 0 0 0 0 0 0 0
Neighs:    77856 ave 77856 max 77856 min
Histogram: 1 0 0 0 0 0 0 0 0 0

Total # of neighbors = 77856
Ave neighs/atom = 26.7363
Neighbor list builds = 0
Dangerous builds = 0
        next i
jump SELF loop1
        displace_atoms upper move ${xstep1} 0.0 ${zstep1} units lattice
        displace_atoms upper move 0.00166666666666667 0.0 ${zstep1} units lattice
        displace_atoms upper move 0.00166666666666667 0.0 0 units lattice
        min_style ${style}
        min_style hftn
        minimize ${etol} ${ftol} ${maxiter} ${maxeval}
        minimize 1e-12 ${ftol} ${maxiter} ${maxeval}
        minimize 1e-12 1e-08 ${maxiter} ${maxeval}
        minimize 1e-12 1e-08 10000 ${maxeval}
        minimize 1e-12 1e-08 10000 20000
WARNING: Resetting reneighboring criteria during minimization (../min.cpp:168)
Memory usage per processor = 5.28939 Mbytes
Step Temp PotEng Lx Ly Lz 
      60            0   -17372.753    7.7766452     82.50743    4.4898482 
      61            0   -17372.755    7.7766452     82.50743    4.4898482 
      62            0   -17372.756    7.7766452     82.50743    4.4898482 
      63            0   -17372.757    7.7766452     82.50743    4.4898482 
      64            0   -17372.757    7.7766452     82.50743    4.4898482 
Loop time of 1.08525 on 1 procs for 3 steps with 2912 atoms

Minimization stats:
  Stopping criterion = force tolerance
  Energy initial, next-to-last, final = 
        -17372.7529656     -17372.7564822     -17372.7565056
  Force two-norm initial, final = 1.513 1.07606e-10
  Force max component initial, final = 0.189125 8.45646e-12
  Final line search alpha, max atom move = 0 0
  Iterations, force evaluations = 3 485

Pair  time (%) = 0.993742 (91.5679)
Neigh time (%) = 0 (0)
Comm  time (%) = 0.0181683 (1.67411)
Outpt time (%) = 0.000258088 (0.0237814)
Other time (%) = 0.0730834 (6.73424)

Nlocal:    2912 ave 2912 max 2912 min
Histogram: 1 0 0 0 0 0 0 0 0 0
Nghost:    7009 ave 7009 max 7009 min
Histogram: 1 0 0 0 0 0 0 0 0 0
Neighs:    77856 ave 77856 max 77856 min
Histogram: 1 0 0 0 0 0 0 0 0 0

Total # of neighbors = 77856
Ave neighs/atom = 26.7363
Neighbor list builds = 0
Dangerous builds = 0
        next i
jump SELF loop1
        displace_atoms upper move ${xstep1} 0.0 ${zstep1} units lattice
        displace_atoms upper move 0.00166666666666667 0.0 ${zstep1} units lattice
        displace_atoms upper move 0.00166666666666667 0.0 0 units lattice
        min_style ${style}
        min_style hftn
        minimize ${etol} ${ftol} ${maxiter} ${maxeval}
        minimize 1e-12 ${ftol} ${maxiter} ${maxeval}
        minimize 1e-12 1e-08 ${maxiter} ${maxeval}
        minimize 1e-12 1e-08 10000 ${maxeval}
        minimize 1e-12 1e-08 10000 20000
WARNING: Resetting reneighboring criteria during minimization (../min.cpp:168)
Memory usage per processor = 5.28939 Mbytes
Step Temp PotEng Lx Ly Lz 
      64            0   -17372.283    7.7766452    82.508557    4.4898482 
      65            0   -17372.283    7.7766452    82.508557    4.4898482 
      66            0   -17372.285    7.7766452    82.508557    4.4898482 
      67            0   -17372.285    7.7766452    82.508557    4.4898482 
      68            0   -17372.285    7.7766452    82.508557    4.4898482 
Loop time of 1.06196 on 1 procs for 3 steps with 2912 atoms

Minimization stats:
  Stopping criterion = force tolerance
  Energy initial, next-to-last, final = 
        -17372.2825319     -17372.2846318     -17372.2846615
  Force two-norm initial, final = 1.29686 5.06741e-11
  Force max component initial, final = 0.162108 4.23509e-12
  Final line search alpha, max atom move = 0 0
  Iterations, force evaluations = 3 474

Pair  time (%) = 0.965521 (90.9187)
Neigh time (%) = 0 (0)
Comm  time (%) = 0.0188559 (1.77557)
Outpt time (%) = 0.000271992 (0.0256122)
Other time (%) = 0.0773122 (7.28013)

Nlocal:    2912 ave 2912 max 2912 min
Histogram: 1 0 0 0 0 0 0 0 0 0
Nghost:    7009 ave 7009 max 7009 min
Histogram: 1 0 0 0 0 0 0 0 0 0
Neighs:    77792 ave 77792 max 77792 min
Histogram: 1 0 0 0 0 0 0 0 0 0

Total # of neighbors = 77792
Ave neighs/atom = 26.7143
Neighbor list builds = 0
Dangerous builds = 0
        next i
jump SELF loop1
        displace_atoms upper move ${xstep1} 0.0 ${zstep1} units lattice
        displace_atoms upper move 0.00166666666666667 0.0 ${zstep1} units lattice
        displace_atoms upper move 0.00166666666666667 0.0 0 units lattice
        min_style ${style}
        min_style hftn
        minimize ${etol} ${ftol} ${maxiter} ${maxeval}
        minimize 1e-12 ${ftol} ${maxiter} ${maxeval}
        minimize 1e-12 1e-08 ${maxiter} ${maxeval}
        minimize 1e-12 1e-08 10000 ${maxeval}
        minimize 1e-12 1e-08 10000 20000
WARNING: Resetting reneighboring criteria during minimization (../min.cpp:168)
Memory usage per processor = 5.28939 Mbytes
Step Temp PotEng Lx Ly Lz 
      68            0    -17371.77    7.7766452    82.509373    4.4898482 
      69            0    -17371.77    7.7766452    82.509373    4.4898482 
      70            0    -17371.77    7.7766452    82.509373    4.4898482 
      71            0    -17371.77    7.7766452    82.509373    4.4898482 
      72            0    -17371.77    7.7766452    82.509373    4.4898482 
      73            0    -17371.77    7.7766452    82.509373    4.4898482 
      74            0    -17371.77    7.7766452    82.509373    4.4898482 
      75            0    -17371.77    7.7766452    82.509373    4.4898482 
      76            0    -17371.77    7.7766452    82.509373    4.4898482 
Loop time of 0.144505 on 1 procs for 7 steps with 2912 atoms

Minimization stats:
  Stopping criterion = energy tolerance
  Energy initial, next-to-last, final = 
        -17371.7701431     -17371.7701431     -17371.7701431
  Force two-norm initial, final = 0.391699 0.391656
  Force max component initial, final = 0.0489623 0.048957
  Final line search alpha, max atom move = 0 0
  Iterations, force evaluations = 7 60

Pair  time (%) = 0.132752 (91.8668)
Neigh time (%) = 0 (0)
Comm  time (%) = 0.00247197 (1.71065)
Outpt time (%) = 0.000632028 (0.437375)
Other time (%) = 0.00864891 (5.9852)

Nlocal:    2912 ave 2912 max 2912 min
Histogram: 1 0 0 0 0 0 0 0 0 0
Nghost:    7009 ave 7009 max 7009 min
Histogram: 1 0 0 0 0 0 0 0 0 0
Neighs:    77792 ave 77792 max 77792 min
Histogram: 1 0 0 0 0 0 0 0 0 0

Total # of neighbors = 77792
Ave neighs/atom = 26.7143
Neighbor list builds = 0
Dangerous builds = 0
        next i
jump SELF loop1
        displace_atoms upper move ${xstep1} 0.0 ${zstep1} units lattice
        displace_atoms upper move 0.00166666666666667 0.0 ${zstep1} units lattice
        displace_atoms upper move 0.00166666666666667 0.0 0 units lattice
        min_style ${style}
        min_style hftn
        minimize ${etol} ${ftol} ${maxiter} ${maxeval}
        minimize 1e-12 ${ftol} ${maxiter} ${maxeval}
        minimize 1e-12 1e-08 ${maxiter} ${maxeval}
        minimize 1e-12 1e-08 10000 ${maxeval}
        minimize 1e-12 1e-08 10000 20000
WARNING: Resetting reneighboring criteria during minimization (../min.cpp:168)
Memory usage per processor = 5.28939 Mbytes
Step Temp PotEng Lx Ly Lz 
      76            0   -17371.208    7.7766452    82.509373    4.4898482 
      77            0   -17371.208    7.7766452    82.509373    4.4898482 
      78            0   -17371.208    7.7766452    82.509373    4.4898482 
      79            0   -17371.208    7.7766452    82.509373    4.4898482 
      80            0   -17371.208    7.7766452    82.509373    4.4898482 
      81            0   -17371.208    7.7766452    82.509373    4.4898482 
      82            0   -17371.208    7.7766452    82.509373    4.4898482 
      83            0   -17371.208    7.7766452    82.509373    4.4898482 
      84            0   -17371.208    7.7766452    82.509373    4.4898482 
      85            0   -17371.208    7.7766452    82.509373    4.4898482 
Loop time of 0.157813 on 1 procs for 8 steps with 2912 atoms

Minimization stats:
  Stopping criterion = energy tolerance
  Energy initial, next-to-last, final = 
         -17371.208132      -17371.208132     -17371.2081762
  Force two-norm initial, final = 0.870647 0.500248
  Force max component initial, final = 0.108831 0.0608826
  Final line search alpha, max atom move = 0 0
  Iterations, force evaluations = 8 65

Pair  time (%) = 0.147356 (93.3739)
Neigh time (%) = 0 (0)
Comm  time (%) = 0.00278502 (1.76476)
Outpt time (%) = 0.000693095 (0.439188)
Other time (%) = 0.0069787 (4.42214)

Nlocal:    2912 ave 2912 max 2912 min
Histogram: 1 0 0 0 0 0 0 0 0 0
Nghost:    7009 ave 7009 max 7009 min
Histogram: 1 0 0 0 0 0 0 0 0 0
Neighs:    77792 ave 77792 max 77792 min
Histogram: 1 0 0 0 0 0 0 0 0 0

Total # of neighbors = 77792
Ave neighs/atom = 26.7143
Neighbor list builds = 0
Dangerous builds = 0
        next i
jump SELF loop1
        displace_atoms upper move ${xstep1} 0.0 ${zstep1} units lattice
        displace_atoms upper move 0.00166666666666667 0.0 ${zstep1} units lattice
        displace_atoms upper move 0.00166666666666667 0.0 0 units lattice
        min_style ${style}
        min_style hftn
        minimize ${etol} ${ftol} ${maxiter} ${maxeval}
        minimize 1e-12 ${ftol} ${maxiter} ${maxeval}
        minimize 1e-12 1e-08 ${maxiter} ${maxeval}
        minimize 1e-12 1e-08 10000 ${maxeval}
        minimize 1e-12 1e-08 10000 20000
WARNING: Resetting reneighboring criteria during minimization (../min.cpp:168)
Memory usage per processor = 5.28939 Mbytes
Step Temp PotEng Lx Ly Lz 
      85            0   -17370.601    7.7766452    82.509373    4.4898482 
      86            0   -17370.601    7.7766452    82.509373    4.4898482 
      87            0   -17370.603    7.7766452    82.509373    4.4898482 
      88            0   -17370.603    7.7766452    82.509373    4.4898482 
      89            0   -17370.603    7.7766452    82.509373    4.4898482 
Loop time of 1.08247 on 1 procs for 3 steps with 2912 atoms

Minimization stats:
  Stopping criterion = force tolerance
  Energy initial, next-to-last, final = 
        -17370.6007035     -17370.6026484     -17370.6026621
  Force two-norm initial, final = 1.05541 1.11509e-10
  Force max component initial, final = 0.131153 6.83656e-12
  Final line search alpha, max atom move = 0 0
  Iterations, force evaluations = 3 483

Pair  time (%) = 0.984593 (90.9582)
Neigh time (%) = 0 (0)
Comm  time (%) = 0.0218327 (2.01693)
Outpt time (%) = 0.000275169 (0.0254205)
Other time (%) = 0.0757669 (6.99946)

Nlocal:    2912 ave 2912 max 2912 min
Histogram: 1 0 0 0 0 0 0 0 0 0
Nghost:    7009 ave 7009 max 7009 min
Histogram: 1 0 0 0 0 0 0 0 0 0
Neighs:    77792 ave 77792 max 77792 min
Histogram: 1 0 0 0 0 0 0 0 0 0

Total # of neighbors = 77792
Ave neighs/atom = 26.7143
Neighbor list builds = 0
Dangerous builds = 0
        next i
jump SELF loop1
        displace_atoms upper move ${xstep1} 0.0 ${zstep1} units lattice
        displace_atoms upper move 0.00166666666666667 0.0 ${zstep1} units lattice
        displace_atoms upper move 0.00166666666666667 0.0 0 units lattice
        min_style ${style}
        min_style hftn
        minimize ${etol} ${ftol} ${maxiter} ${maxeval}
        minimize 1e-12 ${ftol} ${maxiter} ${maxeval}
        minimize 1e-12 1e-08 ${maxiter} ${maxeval}
        minimize 1e-12 1e-08 10000 ${maxeval}
        minimize 1e-12 1e-08 10000 20000
WARNING: Resetting reneighboring criteria during minimization (../min.cpp:168)
Memory usage per processor = 5.28939 Mbytes
Step Temp PotEng Lx Ly Lz 
      89            0   -17369.954    7.7766452    82.510261    4.4898482 
      90            0   -17369.954    7.7766452    82.510261    4.4898482 
      91            0   -17369.954    7.7766452    82.510261    4.4898482 
      92            0   -17369.954    7.7766452    82.510261    4.4898482 
      93            0   -17369.954    7.7766452    82.510261    4.4898482 
      94            0   -17369.954    7.7766452    82.510261    4.4898482 
      95            0   -17369.954    7.7766452    82.510261    4.4898482 
      96            0   -17369.954    7.7766452    82.510261    4.4898482 
      97            0   -17369.954    7.7766452    82.510261    4.4898482 
      98            0   -17369.954    7.7766452    82.510261    4.4898482 
Loop time of 0.160217 on 1 procs for 8 steps with 2912 atoms

Minimization stats:
  Stopping criterion = energy tolerance
  Energy initial, next-to-last, final = 
        -17369.9535097     -17369.9535097     -17369.9535097
  Force two-norm initial, final = 0.632933 0.632916
  Force max component initial, final = 0.0791166 0.0791145
  Final line search alpha, max atom move = 0 0
  Iterations, force evaluations = 8 67

Pair  time (%) = 0.143953 (89.8485)
Neigh time (%) = 0 (0)
Comm  time (%) = 0.00541098 (3.37728)
Outpt time (%) = 0.00344889 (2.15264)
Other time (%) = 0.00740454 (4.62157)

Nlocal:    2912 ave 2912 max 2912 min
Histogram: 1 0 0 0 0 0 0 0 0 0
Nghost:    7009 ave 7009 max 7009 min
Histogram: 1 0 0 0 0 0 0 0 0 0
Neighs:    77792 ave 77792 max 77792 min
Histogram: 1 0 0 0 0 0 0 0 0 0

Total # of neighbors = 77792
Ave neighs/atom = 26.7143
Neighbor list builds = 0
Dangerous builds = 0
        next i
jump SELF loop1
        displace_atoms upper move ${xstep1} 0.0 ${zstep1} units lattice
        displace_atoms upper move 0.00166666666666667 0.0 ${zstep1} units lattice
        displace_atoms upper move 0.00166666666666667 0.0 0 units lattice
        min_style ${style}
        min_style hftn
        minimize ${etol} ${ftol} ${maxiter} ${maxeval}
        minimize 1e-12 ${ftol} ${maxiter} ${maxeval}
        minimize 1e-12 1e-08 ${maxiter} ${maxeval}
        minimize 1e-12 1e-08 10000 ${maxeval}
        minimize 1e-12 1e-08 10000 20000
WARNING: Resetting reneighboring criteria during minimization (../min.cpp:168)
Memory usage per processor = 5.28939 Mbytes
Step Temp PotEng Lx Ly Lz 
      98            0   -17369.263    7.7766452    82.510261    4.4898482 
      99            0   -17369.264    7.7766452    82.510261    4.4898482 
     100            0   -17369.265    7.7766452    82.510261    4.4898482 
     101            0   -17369.265    7.7766452    82.510261    4.4898482 
     102            0   -17369.265    7.7766452    82.510261    4.4898482 
Loop time of 1.05595 on 1 procs for 3 steps with 2912 atoms

Minimization stats:
  Stopping criterion = force tolerance
  Energy initial, next-to-last, final = 
        -17369.2631185     -17369.2651036     -17369.2651341
  Force two-norm initial, final = 1.34553 3.19609e-11
  Force max component initial, final = 0.168191 2.4779e-12
  Final line search alpha, max atom move = 0 0
  Iterations, force evaluations = 3 474

Pair  time (%) = 0.965016 (91.3886)
Neigh time (%) = 0 (0)
Comm  time (%) = 0.0189719 (1.79667)
Outpt time (%) = 0.000593047 (0.0561625)
Other time (%) = 0.0713673 (6.7586)

Nlocal:    2912 ave 2912 max 2912 min
Histogram: 1 0 0 0 0 0 0 0 0 0
Nghost:    7009 ave 7009 max 7009 min
Histogram: 1 0 0 0 0 0 0 0 0 0
Neighs:    77792 ave 77792 max 77792 min
Histogram: 1 0 0 0 0 0 0 0 0 0

Total # of neighbors = 77792
Ave neighs/atom = 26.7143
Neighbor list builds = 0
Dangerous builds = 0
        next i
jump SELF loop1
        displace_atoms upper move ${xstep1} 0.0 ${zstep1} units lattice
        displace_atoms upper move 0.00166666666666667 0.0 ${zstep1} units lattice
        displace_atoms upper move 0.00166666666666667 0.0 0 units lattice
        min_style ${style}
        min_style hftn
        minimize ${etol} ${ftol} ${maxiter} ${maxeval}
        minimize 1e-12 ${ftol} ${maxiter} ${maxeval}
        minimize 1e-12 1e-08 ${maxiter} ${maxeval}
        minimize 1e-12 1e-08 10000 ${maxeval}
        minimize 1e-12 1e-08 10000 20000
WARNING: Resetting reneighboring criteria during minimization (../min.cpp:168)
Memory usage per processor = 5.28939 Mbytes
Step Temp PotEng Lx Ly Lz 
     102            0   -17368.538    7.7766452    82.511086    4.4898482 
     103            0   -17368.538    7.7766452    82.511086    4.4898482 
     104            0   -17368.538    7.7766452    82.511086    4.4898482 
     105            0   -17368.538    7.7766452    82.511086    4.4898482 
     106            0   -17368.538    7.7766452    82.511086    4.4898482 
     107            0   -17368.538    7.7766452    82.511086    4.4898482 
     108            0   -17368.538    7.7766452    82.511086    4.4898482 
     109            0   -17368.538    7.7766452    82.511086    4.4898482 
     110            0   -17368.538    7.7766452    82.511086    4.4898482 
     111            0   -17368.538    7.7766452    82.511086    4.4898482 
     112            0   -17368.538    7.7766452    82.511086    4.4898482 
     113            0   -17368.538    7.7766452    82.511086    4.4898482 
     114            0   -17368.538    7.7766452    82.511086    4.4898482 
     115            0   -17368.538    7.7766452    82.511086    4.4898482 
     116            0   -17368.538    7.7766452    82.511086    4.4898482 
     117            0   -17368.538    7.7766452    82.511086    4.4898482 
     118            0   -17368.538    7.7766452    82.511086    4.4898482 
Loop time of 0.239175 on 1 procs for 15 steps with 2912 atoms

Minimization stats:
  Stopping criterion = energy tolerance
  Energy initial, next-to-last, final = 
        -17368.5382271     -17368.5382698     -17368.5382698
  Force two-norm initial, final = 0.776812 0.348332
  Force max component initial, final = 0.0971015 0.0409958
  Final line search alpha, max atom move = 0 0
  Iterations, force evaluations = 15 100

Pair  time (%) = 0.217703 (91.0225)
Neigh time (%) = 0 (0)
Comm  time (%) = 0.00666282 (2.78575)
Outpt time (%) = 0.00380987 (1.59292)
Other time (%) = 0.0109993 (4.59887)

Nlocal:    2912 ave 2912 max 2912 min
Histogram: 1 0 0 0 0 0 0 0 0 0
Nghost:    7009 ave 7009 max 7009 min
Histogram: 1 0 0 0 0 0 0 0 0 0
Neighs:    77792 ave 77792 max 77792 min
Histogram: 1 0 0 0 0 0 0 0 0 0

Total # of neighbors = 77792
Ave neighs/atom = 26.7143
Neighbor list builds = 0
Dangerous builds = 0
        next i
jump SELF loop1
        displace_atoms upper move ${xstep1} 0.0 ${zstep1} units lattice
        displace_atoms upper move 0.00166666666666667 0.0 ${zstep1} units lattice
        displace_atoms upper move 0.00166666666666667 0.0 0 units lattice
        min_style ${style}
        min_style hftn
        minimize ${etol} ${ftol} ${maxiter} ${maxeval}
        minimize 1e-12 ${ftol} ${maxiter} ${maxeval}
        minimize 1e-12 1e-08 ${maxiter} ${maxeval}
        minimize 1e-12 1e-08 10000 ${maxeval}
        minimize 1e-12 1e-08 10000 20000
WARNING: Resetting reneighboring criteria during minimization (../min.cpp:168)
Memory usage per processor = 5.28939 Mbytes
Step Temp PotEng Lx Ly Lz 
     118            0   -17367.776    7.7766452    82.511086    4.4898482 
     119            0   -17367.776    7.7766452    82.511086    4.4898482 
     120            0   -17367.778    7.7766452    82.511086    4.4898482 
     121            0   -17367.778    7.7766452    82.511086    4.4898482 
     122            0   -17367.778    7.7766452    82.511086    4.4898482 
Loop time of 1.079 on 1 procs for 3 steps with 2912 atoms

Minimization stats:
  Stopping criterion = force tolerance
  Energy initial, next-to-last, final = 
        -17367.7755304     -17367.7779478     -17367.7779626
  Force two-norm initial, final = 1.18132 1.33162e-10
  Force max component initial, final = 0.146934 7.64651e-12
  Final line search alpha, max atom move = 0 0
  Iterations, force evaluations = 3 483

Pair  time (%) = 0.985784 (91.3606)
Neigh time (%) = 0 (0)
Comm  time (%) = 0.0184479 (1.70972)
Outpt time (%) = 0.000364738 (0.0338032)
Other time (%) = 0.0744064 (6.89585)

Nlocal:    2912 ave 2912 max 2912 min
Histogram: 1 0 0 0 0 0 0 0 0 0
Nghost:    7009 ave 7009 max 7009 min
Histogram: 1 0 0 0 0 0 0 0 0 0
Neighs:    77792 ave 77792 max 77792 min
Histogram: 1 0 0 0 0 0 0 0 0 0

Total # of neighbors = 77792
Ave neighs/atom = 26.7143
Neighbor list builds = 0
Dangerous builds = 0
        next i
jump SELF loop1
        displace_atoms upper move ${xstep1} 0.0 ${zstep1} units lattice
        displace_atoms upper move 0.00166666666666667 0.0 ${zstep1} units lattice
        displace_atoms upper move 0.00166666666666667 0.0 0 units lattice
        min_style ${style}
        min_style hftn
        minimize ${etol} ${ftol} ${maxiter} ${maxeval}
        minimize 1e-12 ${ftol} ${maxiter} ${maxeval}
        minimize 1e-12 1e-08 ${maxiter} ${maxeval}
        minimize 1e-12 1e-08 10000 ${maxeval}
        minimize 1e-12 1e-08 10000 20000
WARNING: Resetting reneighboring criteria during minimization (../min.cpp:168)
Memory usage per processor = 5.28939 Mbytes
Step Temp PotEng Lx Ly Lz 
     122            0   -17366.984    7.7766452    82.512079    4.4898482 
     123            0   -17366.984    7.7766452    82.512079    4.4898482 
     124            0   -17366.985    7.7766452    82.512079    4.4898482 
     125            0   -17366.985    7.7766452    82.512079    4.4898482 
     126            0   -17366.985    7.7766452    82.512079    4.4898482 
Loop time of 1.10387 on 1 procs for 3 steps with 2912 atoms

Minimization stats:
  Stopping criterion = force tolerance
  Energy initial, next-to-last, final = 
        -17366.9842223     -17366.9851152     -17366.9851308
  Force two-norm initial, final = 0.905737 1.65688e-11
  Force max component initial, final = 0.113217 2.01802e-12
  Final line search alpha, max atom move = 0 0
  Iterations, force evaluations = 3 495

Pair  time (%) = 1.01363 (91.8251)
Neigh time (%) = 0 (0)
Comm  time (%) = 0.0175425 (1.58918)
Outpt time (%) = 0.000429061 (0.0388689)
Other time (%) = 0.072268 (6.54681)

Nlocal:    2912 ave 2912 max 2912 min
Histogram: 1 0 0 0 0 0 0 0 0 0
Nghost:    7009 ave 7009 max 7009 min
Histogram: 1 0 0 0 0 0 0 0 0 0
Neighs:    77792 ave 77792 max 77792 min
Histogram: 1 0 0 0 0 0 0 0 0 0

Total # of neighbors = 77792
Ave neighs/atom = 26.7143
Neighbor list builds = 0
Dangerous builds = 0
        next i
jump SELF loop1
        displace_atoms upper move ${xstep1} 0.0 ${zstep1} units lattice
        displace_atoms upper move 0.00166666666666667 0.0 ${zstep1} units lattice
        displace_atoms upper move 0.00166666666666667 0.0 0 units lattice
        min_style ${style}
        min_style hftn
        minimize ${etol} ${ftol} ${maxiter} ${maxeval}
        minimize 1e-12 ${ftol} ${maxiter} ${maxeval}
        minimize 1e-12 1e-08 ${maxiter} ${maxeval}
        minimize 1e-12 1e-08 10000 ${maxeval}
        minimize 1e-12 1e-08 10000 20000
WARNING: Resetting reneighboring criteria during minimization (../min.cpp:168)
Memory usage per processor = 5.28939 Mbytes
Step Temp PotEng Lx Ly Lz 
     126            0   -17366.162    7.7766452    82.512632    4.4898482 
     127            0   -17366.162    7.7766452    82.512632    4.4898482 
     128            0   -17366.163    7.7766452    82.512632    4.4898482 
     129            0   -17366.163    7.7766452    82.512632    4.4898482 
     130            0   -17366.163    7.7766452    82.512632    4.4898482 
Loop time of 1.13147 on 1 procs for 3 steps with 2912 atoms

Minimization stats:
  Stopping criterion = force tolerance
  Energy initial, next-to-last, final = 
        -17366.1620617     -17366.1630806     -17366.1630972
  Force two-norm initial, final = 0.965722 1.26885e-11
  Force max component initial, final = 0.120715 1.5444e-12
  Final line search alpha, max atom move = 0 0
  Iterations, force evaluations = 3 509

Pair  time (%) = 1.03201 (91.2096)
Neigh time (%) = 0 (0)
Comm  time (%) = 0.0236341 (2.08879)
Outpt time (%) = 0.000277074 (0.0244879)
Other time (%) = 0.07555 (6.67714)

Nlocal:    2912 ave 2912 max 2912 min
Histogram: 1 0 0 0 0 0 0 0 0 0
Nghost:    7009 ave 7009 max 7009 min
Histogram: 1 0 0 0 0 0 0 0 0 0
Neighs:    77792 ave 77792 max 77792 min
Histogram: 1 0 0 0 0 0 0 0 0 0

Total # of neighbors = 77792
Ave neighs/atom = 26.7143
Neighbor list builds = 0
Dangerous builds = 0
        next i
jump SELF loop1
        displace_atoms upper move ${xstep1} 0.0 ${zstep1} units lattice
        displace_atoms upper move 0.00166666666666667 0.0 ${zstep1} units lattice
        displace_atoms upper move 0.00166666666666667 0.0 0 units lattice
        min_style ${style}
        min_style hftn
        minimize ${etol} ${ftol} ${maxiter} ${maxeval}
        minimize 1e-12 ${ftol} ${maxiter} ${maxeval}
        minimize 1e-12 1e-08 ${maxiter} ${maxeval}
        minimize 1e-12 1e-08 10000 ${maxeval}
        minimize 1e-12 1e-08 10000 20000
WARNING: Resetting reneighboring criteria during minimization (../min.cpp:168)
Memory usage per processor = 5.28939 Mbytes
Step Temp PotEng Lx Ly Lz 
     130            0   -17365.314    7.7766452    82.513222    4.4898482 
     131            0   -17365.314    7.7766452    82.513222    4.4898482 
     132            0   -17365.315    7.7766452    82.513222    4.4898482 
     133            0   -17365.315    7.7766452    82.513222    4.4898482 
     134            0   -17365.315    7.7766452    82.513222    4.4898482 
Loop time of 1.06728 on 1 procs for 3 steps with 2912 atoms

Minimization stats:
  Stopping criterion = force tolerance
  Energy initial, next-to-last, final = 
         -17365.313769     -17365.3149143      -17365.314937
  Force two-norm initial, final = 1.02174 6.09416e-11
  Force max component initial, final = 0.127718 3.67911e-12
  Final line search alpha, max atom move = 0 0
  Iterations, force evaluations = 3 479

Pair  time (%) = 0.97596 (91.4437)
Neigh time (%) = 0 (0)
Comm  time (%) = 0.0175439 (1.64379)
Outpt time (%) = 0.000252868 (0.0236927)
Other time (%) = 0.0735228 (6.8888)

Nlocal:    2912 ave 2912 max 2912 min
Histogram: 1 0 0 0 0 0 0 0 0 0
Nghost:    7009 ave 7009 max 7009 min
Histogram: 1 0 0 0 0 0 0 0 0 0
Neighs:    77792 ave 77792 max 77792 min
Histogram: 1 0 0 0 0 0 0 0 0 0

Total # of neighbors = 77792
Ave neighs/atom = 26.7143
Neighbor list builds = 0
Dangerous builds = 0
        next i
jump SELF loop1
        displace_atoms upper move ${xstep1} 0.0 ${zstep1} units lattice
        displace_atoms upper move 0.00166666666666667 0.0 ${zstep1} units lattice
        displace_atoms upper move 0.00166666666666667 0.0 0 units lattice
        min_style ${style}
        min_style hftn
        minimize ${etol} ${ftol} ${maxiter} ${maxeval}
        minimize 1e-12 ${ftol} ${maxiter} ${maxeval}
        minimize 1e-12 1e-08 ${maxiter} ${maxeval}
        minimize 1e-12 1e-08 10000 ${maxeval}
        minimize 1e-12 1e-08 10000 20000
WARNING: Resetting reneighboring criteria during minimization (../min.cpp:168)
Memory usage per processor = 5.28939 Mbytes
Step Temp PotEng Lx Ly Lz 
     134            0   -17364.442    7.7766452    82.513847    4.4898482 
     135            0   -17364.442    7.7766452    82.513847    4.4898482 
     136            0   -17364.444    7.7766452    82.513847    4.4898482 
     137            0   -17364.444    7.7766452    82.513847    4.4898482 
     138            0   -17364.444    7.7766452    82.513847    4.4898482 
Loop time of 1.06993 on 1 procs for 3 steps with 2912 atoms

Minimization stats:
  Stopping criterion = force tolerance
  Energy initial, next-to-last, final = 
        -17364.4421887     -17364.4436014     -17364.4436256
  Force two-norm initial, final = 1.07531 1.84377e-10
  Force max component initial, final = 0.134414 1.08863e-11
  Final line search alpha, max atom move = 0 0
  Iterations, force evaluations = 3 479

Pair  time (%) = 0.974749 (91.1042)
Neigh time (%) = 0 (0)
Comm  time (%) = 0.0245584 (2.29533)
Outpt time (%) = 0.000503081 (0.04702)
Other time (%) = 0.0701177 (6.5535)

Nlocal:    2912 ave 2912 max 2912 min
Histogram: 1 0 0 0 0 0 0 0 0 0
Nghost:    7009 ave 7009 max 7009 min
Histogram: 1 0 0 0 0 0 0 0 0 0
Neighs:    77792 ave 77792 max 77792 min
Histogram: 1 0 0 0 0 0 0 0 0 0

Total # of neighbors = 77792
Ave neighs/atom = 26.7143
Neighbor list builds = 0
Dangerous builds = 0
        next i
jump SELF loop1
        displace_atoms upper move ${xstep1} 0.0 ${zstep1} units lattice
        displace_atoms upper move 0.00166666666666667 0.0 ${zstep1} units lattice
        displace_atoms upper move 0.00166666666666667 0.0 0 units lattice
        min_style ${style}
        min_style hftn
        minimize ${etol} ${ftol} ${maxiter} ${maxeval}
        minimize 1e-12 ${ftol} ${maxiter} ${maxeval}
        minimize 1e-12 1e-08 ${maxiter} ${maxeval}
        minimize 1e-12 1e-08 10000 ${maxeval}
        minimize 1e-12 1e-08 10000 20000
WARNING: Resetting reneighboring criteria during minimization (../min.cpp:168)
Memory usage per processor = 5.28939 Mbytes
Step Temp PotEng Lx Ly Lz 
     138            0    -17363.55    7.7766452    82.514505    4.4898482 
     139            0    -17363.55    7.7766452    82.514505    4.4898482 
     140            0   -17363.551    7.7766452    82.514505    4.4898482 
     141            0   -17363.551    7.7766452    82.514505    4.4898482 
     142            0   -17363.551    7.7766452    82.514505    4.4898482 
Loop time of 1.07334 on 1 procs for 3 steps with 2912 atoms

Minimization stats:
  Stopping criterion = force tolerance
  Energy initial, next-to-last, final = 
        -17363.5498827     -17363.5514267     -17363.5514521
  Force two-norm initial, final = 1.1285 1.66378e-10
  Force max component initial, final = 0.141063 9.28014e-12
  Final line search alpha, max atom move = 0 0
  Iterations, force evaluations = 3 479

Pair  time (%) = 0.983595 (91.6383)
Neigh time (%) = 0 (0)
Comm  time (%) = 0.0180003 (1.67703)
Outpt time (%) = 0.000258994 (0.0241296)
Other time (%) = 0.071491 (6.66058)

Nlocal:    2912 ave 2912 max 2912 min
Histogram: 1 0 0 0 0 0 0 0 0 0
Nghost:    7009 ave 7009 max 7009 min
Histogram: 1 0 0 0 0 0 0 0 0 0
Neighs:    77792 ave 77792 max 77792 min
Histogram: 1 0 0 0 0 0 0 0 0 0

Total # of neighbors = 77792
Ave neighs/atom = 26.7143
Neighbor list builds = 0
Dangerous builds = 0
        next i
jump SELF loop1
        displace_atoms upper move ${xstep1} 0.0 ${zstep1} units lattice
        displace_atoms upper move 0.00166666666666667 0.0 ${zstep1} units lattice
        displace_atoms upper move 0.00166666666666667 0.0 0 units lattice
        min_style ${style}
        min_style hftn
        minimize ${etol} ${ftol} ${maxiter} ${maxeval}
        minimize 1e-12 ${ftol} ${maxiter} ${maxeval}
        minimize 1e-12 1e-08 ${maxiter} ${maxeval}
        minimize 1e-12 1e-08 10000 ${maxeval}
        minimize 1e-12 1e-08 10000 20000
WARNING: Resetting reneighboring criteria during minimization (../min.cpp:168)
Memory usage per processor = 5.28939 Mbytes
Step Temp PotEng Lx Ly Lz 
     142            0   -17362.641    7.7766452    82.515198    4.4898482 
     143            0   -17362.641    7.7766452    82.515198    4.4898482 
     144            0   -17362.642    7.7766452    82.515198    4.4898482 
     145            0   -17362.642    7.7766452    82.515198    4.4898482 
     146            0   -17362.642    7.7766452    82.515198    4.4898482 
Loop time of 1.0714 on 1 procs for 3 steps with 2912 atoms

Minimization stats:
  Stopping criterion = force tolerance
  Energy initial, next-to-last, final = 
         -17362.640733     -17362.6424086     -17362.6424347
  Force two-norm initial, final = 1.17486 1.64391e-10
  Force max component initial, final = 0.146858 1.08177e-11
  Final line search alpha, max atom move = 0 0
  Iterations, force evaluations = 3 477

Pair  time (%) = 0.980663 (91.5314)
Neigh time (%) = 0 (0)
Comm  time (%) = 0.0178704 (1.66796)
Outpt time (%) = 0.000397861 (0.0371349)
Other time (%) = 0.0724645 (6.76355)

Nlocal:    2912 ave 2912 max 2912 min
Histogram: 1 0 0 0 0 0 0 0 0 0
Nghost:    7009 ave 7009 max 7009 min
Histogram: 1 0 0 0 0 0 0 0 0 0
Neighs:    77792 ave 77792 max 77792 min
Histogram: 1 0 0 0 0 0 0 0 0 0

Total # of neighbors = 77792
Ave neighs/atom = 26.7143
Neighbor list builds = 0
Dangerous builds = 0
        next i
jump SELF loop1
        displace_atoms upper move ${xstep1} 0.0 ${zstep1} units lattice
        displace_atoms upper move 0.00166666666666667 0.0 ${zstep1} units lattice
        displace_atoms upper move 0.00166666666666667 0.0 0 units lattice
        min_style ${style}
        min_style hftn
        minimize ${etol} ${ftol} ${maxiter} ${maxeval}
        minimize 1e-12 ${ftol} ${maxiter} ${maxeval}
        minimize 1e-12 1e-08 ${maxiter} ${maxeval}
        minimize 1e-12 1e-08 10000 ${maxeval}
        minimize 1e-12 1e-08 10000 20000
WARNING: Resetting reneighboring criteria during minimization (../min.cpp:168)
Memory usage per processor = 5.28939 Mbytes
Step Temp PotEng Lx Ly Lz 
     146            0   -17361.717    7.7766452    82.515922    4.4898482 
     147            0   -17361.718    7.7766452    82.515922    4.4898482 
     148            0   -17361.719    7.7766452    82.515922    4.4898482 
     149            0   -17361.719    7.7766452    82.515922    4.4898482 
     150            0   -17361.719    7.7766452    82.515922    4.4898482 
Loop time of 1.07726 on 1 procs for 3 steps with 2912 atoms

Minimization stats:
  Stopping criterion = force tolerance
  Energy initial, next-to-last, final = 
        -17361.7172486     -17361.7190284     -17361.7190562
  Force two-norm initial, final = 1.22129 1.47458e-10
  Force max component initial, final = 0.152661 8.06521e-12
  Final line search alpha, max atom move = 0 0
  Iterations, force evaluations = 3 479

Pair  time (%) = 0.982034 (91.16)
Neigh time (%) = 0 (0)
Comm  time (%) = 0.0196482 (1.8239)
Outpt time (%) = 0.000247046 (0.0229327)
Other time (%) = 0.0753345 (6.99313)

Nlocal:    2912 ave 2912 max 2912 min
Histogram: 1 0 0 0 0 0 0 0 0 0
Nghost:    7009 ave 7009 max 7009 min
Histogram: 1 0 0 0 0 0 0 0 0 0
Neighs:    77792 ave 77792 max 77792 min
Histogram: 1 0 0 0 0 0 0 0 0 0

Total # of neighbors = 77792
Ave neighs/atom = 26.7143
Neighbor list builds = 0
Dangerous builds = 0
        next i
jump SELF loop1
        displace_atoms upper move ${xstep1} 0.0 ${zstep1} units lattice
        displace_atoms upper move 0.00166666666666667 0.0 ${zstep1} units lattice
        displace_atoms upper move 0.00166666666666667 0.0 0 units lattice
        min_style ${style}
        min_style hftn
        minimize ${etol} ${ftol} ${maxiter} ${maxeval}
        minimize 1e-12 ${ftol} ${maxiter} ${maxeval}
        minimize 1e-12 1e-08 ${maxiter} ${maxeval}
        minimize 1e-12 1e-08 10000 ${maxeval}
        minimize 1e-12 1e-08 10000 20000
WARNING: Resetting reneighboring criteria during minimization (../min.cpp:168)
Memory usage per processor = 5.28939 Mbytes
Step Temp PotEng Lx Ly Lz 
     150            0   -17360.783    7.7766452    82.516678    4.4898482 
     151            0   -17360.784    7.7766452    82.516678    4.4898482 
     152            0   -17360.785    7.7766452    82.516678    4.4898482 
     153            0   -17360.785    7.7766452    82.516678    4.4898482 
     154            0   -17360.785    7.7766452    82.516678    4.4898482 
Loop time of 1.08903 on 1 procs for 3 steps with 2912 atoms

Minimization stats:
  Stopping criterion = force tolerance
  Energy initial, next-to-last, final = 
        -17360.7831337       -17360.78505     -17360.7850777
  Force two-norm initial, final = 1.26291 2.92104e-10
  Force max component initial, final = 0.157864 2.01459e-11
  Final line search alpha, max atom move = 0 0
  Iterations, force evaluations = 3 477

Pair  time (%) = 0.993486 (91.2264)
Neigh time (%) = 0 (0)
Comm  time (%) = 0.022644 (2.07927)
Outpt time (%) = 0.00029796 (0.02736)
Other time (%) = 0.0726057 (6.66699)

Nlocal:    2912 ave 2912 max 2912 min
Histogram: 1 0 0 0 0 0 0 0 0 0
Nghost:    7009 ave 7009 max 7009 min
Histogram: 1 0 0 0 0 0 0 0 0 0
Neighs:    77792 ave 77792 max 77792 min
Histogram: 1 0 0 0 0 0 0 0 0 0

Total # of neighbors = 77792
Ave neighs/atom = 26.7143
Neighbor list builds = 0
Dangerous builds = 0
        next i
jump SELF loop1
        displace_atoms upper move ${xstep1} 0.0 ${zstep1} units lattice
        displace_atoms upper move 0.00166666666666667 0.0 ${zstep1} units lattice
        displace_atoms upper move 0.00166666666666667 0.0 0 units lattice
        min_style ${style}
        min_style hftn
        minimize ${etol} ${ftol} ${maxiter} ${maxeval}
        minimize 1e-12 ${ftol} ${maxiter} ${maxeval}
        minimize 1e-12 1e-08 ${maxiter} ${maxeval}
        minimize 1e-12 1e-08 10000 ${maxeval}
        minimize 1e-12 1e-08 10000 20000
WARNING: Resetting reneighboring criteria during minimization (../min.cpp:168)
Memory usage per processor = 5.28939 Mbytes
Step Temp PotEng Lx Ly Lz 
     154            0   -17359.841    7.7766452    82.517464    4.4898482 
     155            0   -17359.841    7.7766452    82.517464    4.4898482 
     156            0   -17359.843    7.7766452    82.517464    4.4898482 
     157            0   -17359.843    7.7766452    82.517464    4.4898482 
     158            0   -17359.843    7.7766452    82.517464    4.4898482 
Loop time of 1.0627 on 1 procs for 3 steps with 2912 atoms

Minimization stats:
  Stopping criterion = force tolerance
  Energy initial, next-to-last, final = 
        -17359.8406388     -17359.8428713     -17359.8429005
  Force two-norm initial, final = 1.30655 3.09494e-11
  Force max component initial, final = 0.163319 2.45731e-12
  Final line search alpha, max atom move = 0 0
  Iterations, force evaluations = 3 474

Pair  time (%) = 0.975326 (91.7783)
Neigh time (%) = 0 (0)
Comm  time (%) = 0.0185266 (1.74335)
Outpt time (%) = 0.000275031 (0.0258804)
Other time (%) = 0.0685701 (6.45246)

Nlocal:    2912 ave 2912 max 2912 min
Histogram: 1 0 0 0 0 0 0 0 0 0
Nghost:    7009 ave 7009 max 7009 min
Histogram: 1 0 0 0 0 0 0 0 0 0
Neighs:    77792 ave 77792 max 77792 min
Histogram: 1 0 0 0 0 0 0 0 0 0

Total # of neighbors = 77792
Ave neighs/atom = 26.7143
Neighbor list builds = 0
Dangerous builds = 0
        next i
jump SELF loop1
        displace_atoms upper move ${xstep1} 0.0 ${zstep1} units lattice
        displace_atoms upper move 0.00166666666666667 0.0 ${zstep1} units lattice
        displace_atoms upper move 0.00166666666666667 0.0 0 units lattice
        min_style ${style}
        min_style hftn
        minimize ${etol} ${ftol} ${maxiter} ${maxeval}
        minimize 1e-12 ${ftol} ${maxiter} ${maxeval}
        minimize 1e-12 1e-08 ${maxiter} ${maxeval}
        minimize 1e-12 1e-08 10000 ${maxeval}
        minimize 1e-12 1e-08 10000 20000
WARNING: Resetting reneighboring criteria during minimization (../min.cpp:168)
Memory usage per processor = 5.28939 Mbytes
Step Temp PotEng Lx Ly Lz 
     158            0   -17358.894    7.7766452    82.518284    4.4898482 
     159            0   -17358.895    7.7766452    82.518284    4.4898482 
     160            0   -17358.896    7.7766452    82.518284    4.4898482 
     161            0   -17358.896    7.7766452    82.518284    4.4898482 
     162            0   -17358.896    7.7766452    82.518284    4.4898482 
Loop time of 1.06 on 1 procs for 3 steps with 2912 atoms

Minimization stats:
  Stopping criterion = force tolerance
  Energy initial, next-to-last, final = 
        -17358.8937662     -17358.8961103     -17358.8961407
  Force two-norm initial, final = 1.34576 3.52075e-11
  Force max component initial, final = 0.16822 3.14371e-12
  Final line search alpha, max atom move = 0 0
  Iterations, force evaluations = 3 474

Pair  time (%) = 0.971611 (91.6614)
Neigh time (%) = 0 (0)
Comm  time (%) = 0.0178758 (1.68639)
Outpt time (%) = 0.00028208 (0.0266113)
Other time (%) = 0.0702312 (6.62558)

Nlocal:    2912 ave 2912 max 2912 min
Histogram: 1 0 0 0 0 0 0 0 0 0
Nghost:    7009 ave 7009 max 7009 min
Histogram: 1 0 0 0 0 0 0 0 0 0
Neighs:    77792 ave 77792 max 77792 min
Histogram: 1 0 0 0 0 0 0 0 0 0

Total # of neighbors = 77792
Ave neighs/atom = 26.7143
Neighbor list builds = 0
Dangerous builds = 0
        next i
jump SELF loop1
        displace_atoms upper move ${xstep1} 0.0 ${zstep1} units lattice
        displace_atoms upper move 0.00166666666666667 0.0 ${zstep1} units lattice
        displace_atoms upper move 0.00166666666666667 0.0 0 units lattice
        min_style ${style}
        min_style hftn
        minimize ${etol} ${ftol} ${maxiter} ${maxeval}
        minimize 1e-12 ${ftol} ${maxiter} ${maxeval}
        minimize 1e-12 1e-08 ${maxiter} ${maxeval}
        minimize 1e-12 1e-08 10000 ${maxeval}
        minimize 1e-12 1e-08 10000 20000
WARNING: Resetting reneighboring criteria during minimization (../min.cpp:168)
Memory usage per processor = 5.28939 Mbytes
Step Temp PotEng Lx Ly Lz 
     162            0   -17357.946    7.7766452    82.519135    4.4898482 
     163            0   -17357.947    7.7766452    82.519135    4.4898482 
     164            0   -17357.948    7.7766452    82.519135    4.4898482 
     165            0   -17357.948    7.7766452    82.519135    4.4898482 
     166            0   -17357.948    7.7766452    82.519135    4.4898482 
Loop time of 1.06477 on 1 procs for 3 steps with 2912 atoms

Minimization stats:
  Stopping criterion = force tolerance
  Energy initial, next-to-last, final = 
        -17357.9456221     -17357.9481305     -17357.9481615
  Force two-norm initial, final = 1.38321 1.33372e-10
  Force max component initial, final = 0.172901 8.68984e-12
  Final line search alpha, max atom move = 0 0
  Iterations, force evaluations = 3 477

Pair  time (%) = 0.969464 (91.0489)
Neigh time (%) = 0 (0)
Comm  time (%) = 0.0181444 (1.70406)
Outpt time (%) = 0.000251078 (0.0235804)
Other time (%) = 0.0769133 (7.22345)

Nlocal:    2912 ave 2912 max 2912 min
Histogram: 1 0 0 0 0 0 0 0 0 0
Nghost:    7009 ave 7009 max 7009 min
Histogram: 1 0 0 0 0 0 0 0 0 0
Neighs:    77792 ave 77792 max 77792 min
Histogram: 1 0 0 0 0 0 0 0 0 0

Total # of neighbors = 77792
Ave neighs/atom = 26.7143
Neighbor list builds = 0
Dangerous builds = 0
        next i
jump SELF loop1
        displace_atoms upper move ${xstep1} 0.0 ${zstep1} units lattice
        displace_atoms upper move 0.00166666666666667 0.0 ${zstep1} units lattice
        displace_atoms upper move 0.00166666666666667 0.0 0 units lattice
        min_style ${style}
        min_style hftn
        minimize ${etol} ${ftol} ${maxiter} ${maxeval}
        minimize 1e-12 ${ftol} ${maxiter} ${maxeval}
        minimize 1e-12 1e-08 ${maxiter} ${maxeval}
        minimize 1e-12 1e-08 10000 ${maxeval}
        minimize 1e-12 1e-08 10000 20000
WARNING: Resetting reneighboring criteria during minimization (../min.cpp:168)
Memory usage per processor = 5.28939 Mbytes
Step Temp PotEng Lx Ly Lz 
     166            0   -17356.999    7.7766452    82.520017    4.4898482 
     167            0   -17357.001    7.7766452    82.520017    4.4898482 
     168            0   -17357.002    7.7766452    82.520017    4.4898482 
     169            0   -17357.002    7.7766452    82.520017    4.4898482 
     170            0   -17357.002    7.7766452    82.520017    4.4898482 
Loop time of 1.05541 on 1 procs for 3 steps with 2912 atoms

Minimization stats:
  Stopping criterion = force tolerance
  Energy initial, next-to-last, final = 
        -17356.9994641     -17357.0022445     -17357.0022758
  Force two-norm initial, final = 1.41933 2.77944e-11
  Force max component initial, final = 0.177416 2.39553e-12
  Final line search alpha, max atom move = 0 0
  Iterations, force evaluations = 3 472

Pair  time (%) = 0.967359 (91.6569)
Neigh time (%) = 0 (0)
Comm  time (%) = 0.017567 (1.66446)
Outpt time (%) = 0.000410808 (0.0389239)
Other time (%) = 0.0700761 (6.63968)

Nlocal:    2912 ave 2912 max 2912 min
Histogram: 1 0 0 0 0 0 0 0 0 0
Nghost:    7009 ave 7009 max 7009 min
Histogram: 1 0 0 0 0 0 0 0 0 0
Neighs:    77792 ave 77792 max 77792 min
Histogram: 1 0 0 0 0 0 0 0 0 0

Total # of neighbors = 77792
Ave neighs/atom = 26.7143
Neighbor list builds = 0
Dangerous builds = 0
        next i
jump SELF loop1
        displace_atoms upper move ${xstep1} 0.0 ${zstep1} units lattice
        displace_atoms upper move 0.00166666666666667 0.0 ${zstep1} units lattice
        displace_atoms upper move 0.00166666666666667 0.0 0 units lattice
        min_style ${style}
        min_style hftn
        minimize ${etol} ${ftol} ${maxiter} ${maxeval}
        minimize 1e-12 ${ftol} ${maxiter} ${maxeval}
        minimize 1e-12 1e-08 ${maxiter} ${maxeval}
        minimize 1e-12 1e-08 10000 ${maxeval}
        minimize 1e-12 1e-08 10000 20000
WARNING: Resetting reneighboring criteria during minimization (../min.cpp:168)
Memory usage per processor = 5.28939 Mbytes
Step Temp PotEng Lx Ly Lz 
     170            0   -17356.059    7.7766452    82.520933    4.4898482 
     171            0    -17356.06    7.7766452    82.520933    4.4898482 
     172            0   -17356.062    7.7766452    82.520933    4.4898482 
     173            0   -17356.062    7.7766452    82.520933    4.4898482 
     174            0   -17356.062    7.7766452    82.520933    4.4898482 
Loop time of 1.08992 on 1 procs for 3 steps with 2912 atoms

Minimization stats:
  Stopping criterion = force tolerance
  Energy initial, next-to-last, final = 
        -17356.0587201     -17356.0615269     -17356.0615581
  Force two-norm initial, final = 1.45468 4.24651e-11
  Force max component initial, final = 0.181834 3.62419e-12
  Final line search alpha, max atom move = 0 0
  Iterations, force evaluations = 3 487

Pair  time (%) = 0.996883 (91.4641)
Neigh time (%) = 0 (0)
Comm  time (%) = 0.0208147 (1.90975)
Outpt time (%) = 0.000278938 (0.0255926)
Other time (%) = 0.0719407 (6.60057)

Nlocal:    2912 ave 2912 max 2912 min
Histogram: 1 0 0 0 0 0 0 0 0 0
Nghost:    7009 ave 7009 max 7009 min
Histogram: 1 0 0 0 0 0 0 0 0 0
Neighs:    77792 ave 77792 max 77792 min
Histogram: 1 0 0 0 0 0 0 0 0 0

Total # of neighbors = 77792
Ave neighs/atom = 26.7143
Neighbor list builds = 0
Dangerous builds = 0
        next i
jump SELF loop1
        displace_atoms upper move ${xstep1} 0.0 ${zstep1} units lattice
        displace_atoms upper move 0.00166666666666667 0.0 ${zstep1} units lattice
        displace_atoms upper move 0.00166666666666667 0.0 0 units lattice
        min_style ${style}
        min_style hftn
        minimize ${etol} ${ftol} ${maxiter} ${maxeval}
        minimize 1e-12 ${ftol} ${maxiter} ${maxeval}
        minimize 1e-12 1e-08 ${maxiter} ${maxeval}
        minimize 1e-12 1e-08 10000 ${maxeval}
        minimize 1e-12 1e-08 10000 20000
WARNING: Resetting reneighboring criteria during minimization (../min.cpp:168)
Memory usage per processor = 5.28939 Mbytes
Step Temp PotEng Lx Ly Lz 
     174            0   -17355.127    7.7766452    82.521883    4.4898482 
     175            0   -17355.128    7.7766452    82.521883    4.4898482 
     176            0   -17355.129    7.7766452    82.521883    4.4898482 
     177            0   -17355.129    7.7766452    82.521883    4.4898482 
     178            0   -17355.129    7.7766452    82.521883    4.4898482 
Loop time of 1.08262 on 1 procs for 3 steps with 2912 atoms

Minimization stats:
  Stopping criterion = force tolerance
  Energy initial, next-to-last, final = 
        -17355.1266866     -17355.1292986     -17355.1293252
  Force two-norm initial, final = 1.48828 5.2076e-11
  Force max component initial, final = 0.186035 3.06821e-12
  Final line search alpha, max atom move = 0 0
  Iterations, force evaluations = 3 485

Pair  time (%) = 0.987581 (91.2217)
Neigh time (%) = 0 (0)
Comm  time (%) = 0.0183984 (1.69944)
Outpt time (%) = 0.000768178 (0.0709557)
Other time (%) = 0.0758691 (7.00793)

Nlocal:    2912 ave 2912 max 2912 min
Histogram: 1 0 0 0 0 0 0 0 0 0
Nghost:    7009 ave 7009 max 7009 min
Histogram: 1 0 0 0 0 0 0 0 0 0
Neighs:    77792 ave 77792 max 77792 min
Histogram: 1 0 0 0 0 0 0 0 0 0

Total # of neighbors = 77792
Ave neighs/atom = 26.7143
Neighbor list builds = 0
Dangerous builds = 0
        next i
jump SELF loop1
        displace_atoms upper move ${xstep1} 0.0 ${zstep1} units lattice
        displace_atoms upper move 0.00166666666666667 0.0 ${zstep1} units lattice
        displace_atoms upper move 0.00166666666666667 0.0 0 units lattice
        min_style ${style}
        min_style hftn
        minimize ${etol} ${ftol} ${maxiter} ${maxeval}
        minimize 1e-12 ${ftol} ${maxiter} ${maxeval}
        minimize 1e-12 1e-08 ${maxiter} ${maxeval}
        minimize 1e-12 1e-08 10000 ${maxeval}
        minimize 1e-12 1e-08 10000 20000
WARNING: Resetting reneighboring criteria during minimization (../min.cpp:168)
Memory usage per processor = 5.28939 Mbytes
Step Temp PotEng Lx Ly Lz 
     178            0   -17354.206    7.7766452     82.52287    4.4898482 
     179            0   -17354.208    7.7766452     82.52287    4.4898482 
[...]
Neighs:    77856 ave 77856 max 77856 min
Histogram: 1 0 0 0 0 0 0 0 0 0

Total # of neighbors = 77856
Ave neighs/atom = 26.7363
Neighbor list builds = 0
Dangerous builds = 0
        next j
jump SELF loop2
        displace_atoms upper move ${xstep2} 0.0 ${zstep2} units lattice
        displace_atoms upper move 0.000833333333333329 0.0 ${zstep2} units lattice
        displace_atoms upper move 0.000833333333333329 0.0 0.00249999999999999 units lattice
        min_style ${style}
        min_style hftn
        minimize ${etol} ${ftol} ${maxiter} ${maxeval}
        minimize 1e-12 ${ftol} ${maxiter} ${maxeval}
        minimize 1e-12 1e-08 ${maxiter} ${maxeval}
        minimize 1e-12 1e-08 10000 ${maxeval}
        minimize 1e-12 1e-08 10000 20000
WARNING: Resetting reneighboring criteria during minimization (../min.cpp:168)
Memory usage per processor = 5.28939 Mbytes
Step Temp PotEng Lx Ly Lz 
    2071            0   -17375.065    7.7766452    82.505864    4.4898482 
    2072            0   -17375.066    7.7766452    82.505864    4.4898482 
    2073            0   -17375.066    7.7766452    82.505864    4.4898482 
    2074            0   -17375.066    7.7766452    82.505864    4.4898482 
    2075            0   -17375.066    7.7766452    82.505864    4.4898482 
    2076            0   -17375.067    7.7766452    82.505864    4.4898482 
    2077            0   -17375.067    7.7766452    82.505864    4.4898482 
    2078            0   -17375.067    7.7766452    82.505864    4.4898482 
    2079            0   -17375.067    7.7766452    82.505864    4.4898482 
    2080            0   -17375.067    7.7766452    82.505864    4.4898482 
    2081            0   -17375.067    7.7766452    82.505864    4.4898482 
    2082            0   -17375.067    7.7766452    82.505864    4.4898482 
    2083            0   -17375.067    7.7766452    82.505864    4.4898482 
    2084            0   -17375.067    7.7766452    82.505864    4.4898482 
    2085            0   -17375.067    7.7766452    82.505864    4.4898482 
    2086            0   -17375.067    7.7766452    82.505864    4.4898482 
    2087            0   -17375.067    7.7766452    82.505864    4.4898482 
    2088            0   -17375.067    7.7766452    82.505864    4.4898482 
Loop time of 0.848362 on 1 procs for 16 steps with 2912 atoms

Minimization stats:
  Stopping criterion = energy tolerance
  Energy initial, next-to-last, final = 
        -17375.0653841     -17375.0672168     -17375.0672226
  Force two-norm initial, final = 1.02301 0.0169822
  Force max component initial, final = 0.127748 0.00080679
  Final line search alpha, max atom move = 0 0
  Iterations, force evaluations = 16 357

Pair  time (%) = 0.767104 (90.4218)
Neigh time (%) = 0 (0)
Comm  time (%) = 0.01593 (1.87773)
Outpt time (%) = 0.00633198 (0.746377)
Other time (%) = 0.0589963 (6.95414)

Nlocal:    2912 ave 2912 max 2912 min
Histogram: 1 0 0 0 0 0 0 0 0 0
Nghost:    7129 ave 7129 max 7129 min
Histogram: 1 0 0 0 0 0 0 0 0 0
Neighs:    77856 ave 77856 max 77856 min
Histogram: 1 0 0 0 0 0 0 0 0 0

Total # of neighbors = 77856
Ave neighs/atom = 26.7363
Neighbor list builds = 0
Dangerous builds = 0
        next j
jump SELF loop2
        displace_atoms upper move ${xstep2} 0.0 ${zstep2} units lattice
        displace_atoms upper move 0.000833333333333329 0.0 ${zstep2} units lattice
        displace_atoms upper move 0.000833333333333329 0.0 0.00249999999999999 units lattice
        min_style ${style}
        min_style hftn
        minimize ${etol} ${ftol} ${maxiter} ${maxeval}
        minimize 1e-12 ${ftol} ${maxiter} ${maxeval}
        minimize 1e-12 1e-08 ${maxiter} ${maxeval}
        minimize 1e-12 1e-08 10000 ${maxeval}
        minimize 1e-12 1e-08 10000 20000
WARNING: Resetting reneighboring criteria during minimization (../min.cpp:168)
Memory usage per processor = 5.28939 Mbytes
Step Temp PotEng Lx Ly Lz 
    2088            0   -17375.335    7.7766452    82.505268    4.4898482 
    2089            0   -17375.335    7.7766452    82.505268    4.4898482 
    2090            0   -17375.335    7.7766452    82.505268    4.4898482 
    2091            0   -17375.335    7.7766452    82.505268    4.4898482 
    2092            0   -17375.335    7.7766452    82.505268    4.4898482 
    2093            0   -17375.335    7.7766452    82.505268    4.4898482 
    2094            0   -17375.335    7.7766452    82.505268    4.4898482 
    2095            0   -17375.335    7.7766452    82.505268    4.4898482 
    2096            0   -17375.335    7.7766452    82.505268    4.4898482 
    2097            0   -17375.335    7.7766452    82.505268    4.4898482 
    2098            0   -17375.335    7.7766452    82.505268    4.4898482 
Loop time of 0.204519 on 1 procs for 9 steps with 2912 atoms

Minimization stats:
  Stopping criterion = energy tolerance
  Energy initial, next-to-last, final = 
        -17375.3350362     -17375.3350362     -17375.3354684
  Force two-norm initial, final = 0.911954 0.464887
  Force max component initial, final = 0.113977 0.0543342
  Final line search alpha, max atom move = 0 0
  Iterations, force evaluations = 9 74

Pair  time (%) = 0.19253 (94.1381)
Neigh time (%) = 0 (0)
Comm  time (%) = 0.00356011 (1.74072)
Outpt time (%) = 0.000799959 (0.391142)
Other time (%) = 0.00762863 (3.73004)

Nlocal:    2912 ave 2912 max 2912 min
Histogram: 1 0 0 0 0 0 0 0 0 0
Nghost:    7129 ave 7129 max 7129 min
Histogram: 1 0 0 0 0 0 0 0 0 0
Neighs:    77856 ave 77856 max 77856 min
Histogram: 1 0 0 0 0 0 0 0 0 0

Total # of neighbors = 77856
Ave neighs/atom = 26.7363
Neighbor list builds = 0
Dangerous builds = 0
        next j
jump SELF loop2
        displace_atoms upper move ${xstep2} 0.0 ${zstep2} units lattice
        displace_atoms upper move 0.000833333333333329 0.0 ${zstep2} units lattice
        displace_atoms upper move 0.000833333333333329 0.0 0.00249999999999999 units lattice
        min_style ${style}
        min_style hftn
        minimize ${etol} ${ftol} ${maxiter} ${maxeval}
        minimize 1e-12 ${ftol} ${maxiter} ${maxeval}
        minimize 1e-12 1e-08 ${maxiter} ${maxeval}
        minimize 1e-12 1e-08 10000 ${maxeval}
        minimize 1e-12 1e-08 10000 20000
WARNING: Resetting reneighboring criteria during minimization (../min.cpp:168)
Memory usage per processor = 5.28939 Mbytes
Step Temp PotEng Lx Ly Lz 
    2098            0    -17375.56    7.7766452    82.505267    4.4898482 
    2099            0   -17375.561    7.7766452    82.505267    4.4898482 
    2100            0   -17375.561    7.7766452    82.505267    4.4898482 
    2101            0   -17375.562    7.7766452    82.505267    4.4898482 
    2102            0   -17375.563    7.7766452    82.505267    4.4898482 
    2103            0   -17375.563    7.7766452    82.505267    4.4898482 
    2104            0   -17375.563    7.7766452    82.505267    4.4898482 
    2105            0   -17375.563    7.7766452    82.505267    4.4898482 
    2106            0   -17375.563    7.7766452    82.505267    4.4898482 
    2107            0   -17375.563    7.7766452    82.505267    4.4898482 
    2108            0   -17375.563    7.7766452    82.505267    4.4898482 
    2109            0   -17375.563    7.7766452    82.505267    4.4898482 
    2110            0   -17375.563    7.7766452    82.505267    4.4898482 
    2111            0   -17375.563    7.7766452    82.505267    4.4898482 
    2112            0   -17375.563    7.7766452    82.505267    4.4898482 
    2113            0   -17375.563    7.7766452    82.505267    4.4898482 
    2114            0   -17375.563    7.7766452    82.505267    4.4898482 
    2115            0   -17375.563    7.7766452    82.505267    4.4898482 
    2116            0   -17375.563    7.7766452    82.505267    4.4898482 
Loop time of 1.06316 on 1 procs for 17 steps with 2912 atoms

Minimization stats:
  Stopping criterion = energy tolerance
  Energy initial, next-to-last, final = 
        -17375.5602377     -17375.5631849     -17375.5631864
  Force two-norm initial, final = 1.21051 0.0706134
  Force max component initial, final = 0.149906 0.00686729
  Final line search alpha, max atom move = 0 0
  Iterations, force evaluations = 17 458

Pair  time (%) = 0.964923 (90.7596)
Neigh time (%) = 0 (0)
Comm  time (%) = 0.0220101 (2.07025)
Outpt time (%) = 0.00827984 (0.778793)
Other time (%) = 0.0679508 (6.39137)

Nlocal:    2912 ave 2912 max 2912 min
Histogram: 1 0 0 0 0 0 0 0 0 0
Nghost:    7129 ave 7129 max 7129 min
Histogram: 1 0 0 0 0 0 0 0 0 0
Neighs:    77856 ave 77856 max 77856 min
Histogram: 1 0 0 0 0 0 0 0 0 0

Total # of neighbors = 77856
Ave neighs/atom = 26.7363
Neighbor list builds = 0
Dangerous builds = 0
        next j
jump SELF loop2
        displace_atoms upper move ${xstep2} 0.0 ${zstep2} units lattice
        displace_atoms upper move 0.000833333333333329 0.0 ${zstep2} units lattice
        displace_atoms upper move 0.000833333333333329 0.0 0.00249999999999999 units lattice
        min_style ${style}
        min_style hftn
        minimize ${etol} ${ftol} ${maxiter} ${maxeval}
        minimize 1e-12 ${ftol} ${maxiter} ${maxeval}
        minimize 1e-12 1e-08 ${maxiter} ${maxeval}
        minimize 1e-12 1e-08 10000 ${maxeval}
        minimize 1e-12 1e-08 10000 20000
WARNING: Resetting reneighboring criteria during minimization (../min.cpp:168)
Memory usage per processor = 5.28939 Mbytes
Step Temp PotEng Lx Ly Lz 
    2116            0   -17375.744    7.7766452    82.503849    4.4898482 
    2117            0   -17375.745    7.7766452    82.503849    4.4898482 
    2118            0   -17375.745    7.7766452    82.503849    4.4898482 
    2119            0   -17375.745    7.7766452    82.503849    4.4898482 
    2120            0   -17375.745    7.7766452    82.503849    4.4898482 
    2121            0   -17375.745    7.7766452    82.503849    4.4898482 
    2122            0   -17375.745    7.7766452    82.503849    4.4898482 
    2123            0   -17375.745    7.7766452    82.503849    4.4898482 
    2124            0   -17375.745    7.7766452    82.503849    4.4898482 
    2125            0   -17375.745    7.7766452    82.503849    4.4898482 
    2126            0   -17375.745    7.7766452    82.503849    4.4898482 
    2127            0   -17375.745    7.7766452    82.503849    4.4898482 
    2128            0   -17375.745    7.7766452    82.503849    4.4898482 
    2129            0   -17375.745    7.7766452    82.503849    4.4898482 
    2130            0   -17375.745    7.7766452    82.503849    4.4898482 
Loop time of 0.858973 on 1 procs for 13 steps with 2912 atoms

Minimization stats:
  Stopping criterion = energy tolerance
  Energy initial, next-to-last, final = 
        -17375.7444922     -17375.7450775     -17375.7450793
  Force two-norm initial, final = 0.641802 0.0180077
  Force max component initial, final = 0.0797808 0.000833494
  Final line search alpha, max atom move = 0 0
  Iterations, force evaluations = 13 364

Pair  time (%) = 0.776192 (90.3628)
Neigh time (%) = 0 (0)
Comm  time (%) = 0.0283247 (3.29751)
Outpt time (%) = 0.00107119 (0.124706)
Other time (%) = 0.0533854 (6.21503)

Nlocal:    2912 ave 2912 max 2912 min
Histogram: 1 0 0 0 0 0 0 0 0 0
Nghost:    7129 ave 7129 max 7129 min
Histogram: 1 0 0 0 0 0 0 0 0 0
Neighs:    77856 ave 77856 max 77856 min
Histogram: 1 0 0 0 0 0 0 0 0 0

Total # of neighbors = 77856
Ave neighs/atom = 26.7363
Neighbor list builds = 0
Dangerous builds = 0
        next j
jump SELF loop2
        displace_atoms upper move ${xstep2} 0.0 ${zstep2} units lattice
        displace_atoms upper move 0.000833333333333329 0.0 ${zstep2} units lattice
        displace_atoms upper move 0.000833333333333329 0.0 0.00249999999999999 units lattice
        min_style ${style}
        min_style hftn
        minimize ${etol} ${ftol} ${maxiter} ${maxeval}
        minimize 1e-12 ${ftol} ${maxiter} ${maxeval}
        minimize 1e-12 1e-08 ${maxiter} ${maxeval}
        minimize 1e-12 1e-08 10000 ${maxeval}
        minimize 1e-12 1e-08 10000 20000
WARNING: Resetting reneighboring criteria during minimization (../min.cpp:168)
Memory usage per processor = 5.28939 Mbytes
Step Temp PotEng Lx Ly Lz 
    2130            0   -17375.878    7.7766452    82.502983    4.4898482 
    2131            0   -17375.878    7.7766452    82.502983    4.4898482 
    2132            0   -17375.878    7.7766452    82.502983    4.4898482 
    2133            0   -17375.879    7.7766452    82.502983    4.4898482 
    2134            0   -17375.879    7.7766452    82.502983    4.4898482 
    2135            0   -17375.879    7.7766452    82.502983    4.4898482 
    2136            0   -17375.879    7.7766452    82.502983    4.4898482 
    2137            0   -17375.879    7.7766452    82.502983    4.4898482 
    2138            0   -17375.879    7.7766452    82.502983    4.4898482 
    2139            0   -17375.879    7.7766452    82.502983    4.4898482 
    2140            0   -17375.879    7.7766452    82.502983    4.4898482 
    2141            0   -17375.879    7.7766452    82.502983    4.4898482 
    2142            0   -17375.879    7.7766452    82.502983    4.4898482 
    2143            0   -17375.879    7.7766452    82.502983    4.4898482 
    2144            0   -17375.879    7.7766452    82.502983    4.4898482 
Loop time of 0.759448 on 1 procs for 13 steps with 2912 atoms

Minimization stats:
  Stopping criterion = energy tolerance
  Energy initial, next-to-last, final = 
         -17375.878282     -17375.8787031      -17375.878713
  Force two-norm initial, final = 0.454147 0.0151955
  Force max component initial, final = 0.0567263 0.000708856
  Final line search alpha, max atom move = 0 0
  Iterations, force evaluations = 13 330

Pair  time (%) = 0.699135 (92.0583)
Neigh time (%) = 0 (0)
Comm  time (%) = 0.0153631 (2.02293)
Outpt time (%) = 0.00137742 (0.181371)
Other time (%) = 0.0435729 (5.73744)

Nlocal:    2912 ave 2912 max 2912 min
Histogram: 1 0 0 0 0 0 0 0 0 0
Nghost:    7129 ave 7129 max 7129 min
Histogram: 1 0 0 0 0 0 0 0 0 0
Neighs:    77856 ave 77856 max 77856 min
Histogram: 1 0 0 0 0 0 0 0 0 0

Total # of neighbors = 77856
Ave neighs/atom = 26.7363
Neighbor list builds = 0
Dangerous builds = 0
        next j
jump SELF loop2
        displace_atoms upper move ${xstep2} 0.0 ${zstep2} units lattice
        displace_atoms upper move 0.000833333333333329 0.0 ${zstep2} units lattice
        displace_atoms upper move 0.000833333333333329 0.0 0.00249999999999999 units lattice
        min_style ${style}
        min_style hftn
        minimize ${etol} ${ftol} ${maxiter} ${maxeval}
        minimize 1e-12 ${ftol} ${maxiter} ${maxeval}
        minimize 1e-12 1e-08 ${maxiter} ${maxeval}
        minimize 1e-12 1e-08 10000 ${maxeval}
        minimize 1e-12 1e-08 10000 20000
WARNING: Resetting reneighboring criteria during minimization (../min.cpp:168)
Memory usage per processor = 5.28939 Mbytes
Step Temp PotEng Lx Ly Lz 
    2144            0   -17375.961    7.7766452    82.502575    4.4898482 
    2145            0   -17375.961    7.7766452    82.502575    4.4898482 
    2146            0   -17375.961    7.7766452    82.502575    4.4898482 
    2147            0   -17375.961    7.7766452    82.502575    4.4898482 
    2148            0   -17375.961    7.7766452    82.502575    4.4898482 
    2149            0   -17375.961    7.7766452    82.502575    4.4898482 
    2150            0   -17375.961    7.7766452    82.502575    4.4898482 
    2151            0   -17375.961    7.7766452    82.502575    4.4898482 
    2152            0   -17375.961    7.7766452    82.502575    4.4898482 
    2153            0   -17375.961    7.7766452    82.502575    4.4898482 
    2154            0   -17375.961    7.7766452    82.502575    4.4898482 
    2155            0   -17375.961    7.7766452    82.502575    4.4898482 
    2156            0   -17375.961    7.7766452    82.502575    4.4898482 
    2157            0   -17375.961    7.7766452    82.502575    4.4898482 
    2158            0   -17375.961    7.7766452    82.502575    4.4898482 
    2159            0   -17375.961    7.7766452    82.502575    4.4898482 
    2160            0   -17375.961    7.7766452    82.502575    4.4898482 
Loop time of 0.643648 on 1 procs for 15 steps with 2912 atoms

Minimization stats:
  Stopping criterion = energy tolerance
  Energy initial, next-to-last, final = 
        -17375.9607044     -17375.9612895     -17375.9612897
  Force two-norm initial, final = 0.280465 0.00994426
  Force max component initial, final = 0.0350085 0.000341463
  Final line search alpha, max atom move = 0 0
  Iterations, force evaluations = 15 268

Pair  time (%) = 0.583798 (90.7014)
Neigh time (%) = 0 (0)
Comm  time (%) = 0.0166797 (2.59143)
Outpt time (%) = 0.00177502 (0.275774)
Other time (%) = 0.0413955 (6.43139)

Nlocal:    2912 ave 2912 max 2912 min
Histogram: 1 0 0 0 0 0 0 0 0 0
Nghost:    7129 ave 7129 max 7129 min
Histogram: 1 0 0 0 0 0 0 0 0 0
Neighs:    77856 ave 77856 max 77856 min
Histogram: 1 0 0 0 0 0 0 0 0 0

Total # of neighbors = 77856
Ave neighs/atom = 26.7363
Neighbor list builds = 0
Dangerous builds = 0
        next j
jump SELF loop2
        displace_atoms upper move ${xstep2} 0.0 ${zstep2} units lattice
        displace_atoms upper move 0.000833333333333329 0.0 ${zstep2} units lattice
        displace_atoms upper move 0.000833333333333329 0.0 0.00249999999999999 units lattice
        min_style ${style}
        min_style hftn
        minimize ${etol} ${ftol} ${maxiter} ${maxeval}
        minimize 1e-12 ${ftol} ${maxiter} ${maxeval}
        minimize 1e-12 1e-08 ${maxiter} ${maxeval}
        minimize 1e-12 1e-08 10000 ${maxeval}
        minimize 1e-12 1e-08 10000 20000
WARNING: Resetting reneighboring criteria during minimization (../min.cpp:168)
Memory usage per processor = 5.28939 Mbytes
Step Temp PotEng Lx Ly Lz 
    2160            0   -17375.989    7.7766452    82.502557    4.4898482 
    2161            0   -17375.989    7.7766452    82.502557    4.4898482 
    2162            0   -17375.989    7.7766452    82.502557    4.4898482 
    2163            0   -17375.989    7.7766452    82.502557    4.4898482 
    2164            0   -17375.989    7.7766452    82.502557    4.4898482 
    2165            0   -17375.989    7.7766452    82.502557    4.4898482 
    2166            0   -17375.989    7.7766452    82.502557    4.4898482 
    2167            0   -17375.989    7.7766452    82.502557    4.4898482 
    2168            0   -17375.989    7.7766452    82.502557    4.4898482 
    2169            0   -17375.989    7.7766452    82.502557    4.4898482 
    2170            0   -17375.989    7.7766452    82.502557    4.4898482 
    2171            0   -17375.989    7.7766452    82.502557    4.4898482 
    2172            0   -17375.989    7.7766452    82.502557    4.4898482 
    2173            0   -17375.989    7.7766452    82.502557    4.4898482 
    2174            0   -17375.989    7.7766452    82.502557    4.4898482 
    2175            0   -17375.989    7.7766452    82.502557    4.4898482 
Loop time of 0.654189 on 1 procs for 14 steps with 2912 atoms

Minimization stats:
  Stopping criterion = energy tolerance
  Energy initial, next-to-last, final = 
        -17375.9892404     -17375.9894098     -17375.9894146
  Force two-norm initial, final = 0.0980594 0.0109853
  Force max component initial, final = 0.0121967 0.000458968
  Final line search alpha, max atom move = 0 0
  Iterations, force evaluations = 14 259

Pair  time (%) = 0.604393 (92.3882)
Neigh time (%) = 0 (0)
Comm  time (%) = 0.0127235 (1.94492)
Outpt time (%) = 0.0013479 (0.206042)
Other time (%) = 0.0357242 (5.46084)

Nlocal:    2912 ave 2912 max 2912 min
Histogram: 1 0 0 0 0 0 0 0 0 0
Nghost:    7129 ave 7129 max 7129 min
Histogram: 1 0 0 0 0 0 0 0 0 0
Neighs:    77856 ave 77856 max 77856 min
Histogram: 1 0 0 0 0 0 0 0 0 0

Total # of neighbors = 77856
Ave neighs/atom = 26.7363
Neighbor list builds = 0
Dangerous builds = 0
        next j
jump SELF loop2


