LAMMPS (28 Jun 2014)
# attempt at getting generalized stacking fault (GSF) energy curve

#file prefix
variable prefix string gsf_V_inter1
variable dumpfile string ${prefix}.*.dump
variable dumpfile string gsf_V_inter1.*.dump
variable restartfile string ${prefix}.*.equil
variable restartfile string gsf_V_inter1.*.equil

#Mass (g/mol)
variable m equal 1

# lattice constant (in Angstroms) and orientation of axes (given by lattice vectors)
variable rho equal 0.9165
variable x1 equal 1
variable x2 equal 0
variable x3 equal 0
variable y1 equal 0
variable y2 equal 1
variable y3 equal 0
# length of lattice in different directions (using orientation of lattice vectors)
variable ax equal sqrt(${x1}*${x1}+${x2}*${x2}+${x3}*${x3})
variable ax equal sqrt(1*${x1}+${x2}*${x2}+${x3}*${x3})
variable ax equal sqrt(1*1+${x2}*${x2}+${x3}*${x3})
variable ax equal sqrt(1*1+0*${x2}+${x3}*${x3})
variable ax equal sqrt(1*1+0*0+${x3}*${x3})
variable ax equal sqrt(1*1+0*0+0*${x3})
variable ax equal sqrt(1*1+0*0+0*0)
variable ay equal sqrt(${y1}*${y1}+${y2}*${y2}+${y3}*${y3})
variable ay equal sqrt(0*${y1}+${y2}*${y2}+${y3}*${y3})
variable ay equal sqrt(0*0+${y2}*${y2}+${y3}*${y3})
variable ay equal sqrt(0*0+1*${y2}+${y3}*${y3})
variable ay equal sqrt(0*0+1*1+${y3}*${y3})
variable ay equal sqrt(0*0+1*1+0*${y3})
variable ay equal sqrt(0*0+1*1+0*0)
variable az equal 1

# size of box in lattice units
variable lxpos equal 1
variable lxneg equal -1*${lxpos}
variable lxneg equal -1*1
variable lypos equal 10
variable lyneg equal -1*${lypos}
variable lyneg equal -1*10
variable lzpos equal 0
variable lzneg equal -1

# Define minimization parameters and damping
variable etol equal 1.0e-12
variable ftol equal 1.0e-8
variable maxiter equal 10000
variable maxeval equal 20000
variable style string hftn

# boundary conditions
dimension	2
boundary	p s p
atom_style	atomic

# create geometry
units		lj
lattice         hex ${rho}
lattice         hex 0.9165
Lattice spacing in x,y,z = 1.12245 1.94415 1.12245
region		myregion block ${lxneg} ${lxpos} ${lyneg} ${lypos} ${lzneg} ${lzpos} units lattice
region		myregion block -1 ${lxpos} ${lyneg} ${lypos} ${lzneg} ${lzpos} units lattice
region		myregion block -1 1 ${lyneg} ${lypos} ${lzneg} ${lzpos} units lattice
region		myregion block -1 1 -10 ${lypos} ${lzneg} ${lzpos} units lattice
region		myregion block -1 1 -10 10 ${lzneg} ${lzpos} units lattice
region		myregion block -1 1 -10 10 -1 ${lzpos} units lattice
region		myregion block -1 1 -10 10 -1 0 units lattice
create_box	3 myregion
Created orthogonal box = (-1.12245 -19.4415 -1.12245) to (1.12245 19.4415 0)
  1 by 1 by 1 MPI processor grid
create_atoms	1 box
Created 82 atoms

# define masses
mass * $m
mass * 1

# my fake/morse potential
pair_style      table linear 3001
pair_coeff      * * vpotential_inter1 dummy
neighbor	0.3 bin
neigh_modify	delay 5

# define groups
region	    upper block INF INF 0.01 ${lypos} INF INF units lattice
region	    upper block INF INF 0.01 10 INF INF units lattice
group		upper region upper
40 atoms in group upper

# Setup output
thermo 1
thermo_style custom step temp pe lx ly lz
thermo_modify norm no

# Compute initial state by relaxing box
min_style ${style}
min_style hftn
minimize ${etol} ${ftol} ${maxiter} ${maxeval}
minimize 1e-12 ${ftol} ${maxiter} ${maxeval}
minimize 1e-12 1e-08 ${maxiter} ${maxeval}
minimize 1e-12 1e-08 10000 ${maxeval}
minimize 1e-12 1e-08 10000 20000
WARNING: Resetting reneighboring criteria during minimization (../min.cpp:168)
Memory usage per processor = 4.85169 Mbytes
Step Temp PotEng Lx Ly Lz 
       0            0   -241.99993    2.2449075    38.890715    1.1224537 
       1            0   -241.99994    2.2449075    38.890715    1.1224537 
       2            0   -241.99994    2.2449075    38.890715    1.1224537 
       3            0   -241.99994    2.2449075    38.890715    1.1224537 
       4            0   -241.99994    2.2449075    38.890715    1.1224537 
       5            0   -241.99994    2.2449075    38.890715    1.1224537 
Loop time of 0.00248895 on 1 procs for 4 steps with 82 atoms

Minimization stats:
  Stopping criterion = force tolerance
  Energy initial, next-to-last, final = 
        -241.999927696     -241.999927696     -241.999937101
  Force two-norm initial, final = 0.000778805 9.93468e-09
  Force max component initial, final = 0.000389403 4.78693e-09
  Final line search alpha, max atom move = 0 0
  Iterations, force evaluations = 4 103

Pair  time (%) = 0.0017258 (69.3384)
Neigh time (%) = 0 (0)
Comm  time (%) = 0.000149701 (6.01463)
Outpt time (%) = 0.000142039 (5.70678)
Other time (%) = 0.00047141 (18.9401)

Nlocal:    82 ave 82 max 82 min
Histogram: 1 0 0 0 0 0 0 0 0 0
Nghost:    185 ave 185 max 185 min
Histogram: 1 0 0 0 0 0 0 0 0 0
Neighs:    718 ave 718 max 718 min
Histogram: 1 0 0 0 0 0 0 0 0 0

Total # of neighbors = 718
Ave neighs/atom = 8.7561
Neighbor list builds = 0
Dangerous builds = 0

# don't allow atoms to relax in x-direction
fix 2 all setforce 0.0 NULL 0.0

# GSF energy curve will have 100*2 steps
variable nsteps equal 500
variable sstep1 equal 1.
variable xstep1 equal ${sstep1}/(${ax}*${nsteps})
variable xstep1 equal 1/(${ax}*${nsteps})
variable xstep1 equal 1/(1*${nsteps})
variable xstep1 equal 1/(1*500)

variable i loop ${nsteps}
variable i loop 500
label loop1
        displace_atoms upper move ${xstep1} 0.0 0.0 units lattice
        displace_atoms upper move 0.002 0.0 0.0 units lattice
        min_style ${style}
        min_style hftn
        minimize ${etol} ${ftol} ${maxiter} ${maxeval}
        minimize 1e-12 ${ftol} ${maxiter} ${maxeval}
        minimize 1e-12 1e-08 ${maxiter} ${maxeval}
        minimize 1e-12 1e-08 10000 ${maxeval}
        minimize 1e-12 1e-08 10000 20000
WARNING: Resetting reneighboring criteria during minimization (../min.cpp:168)
Memory usage per processor = 4.85169 Mbytes
Step Temp PotEng Lx Ly Lz 
       5            0   -241.99987    2.2449075    38.891137    1.1224537 
       6            0   -241.99987    2.2449075    38.891137    1.1224537 
Loop time of 0.00200509 on 1 procs for 0 steps with 82 atoms

Minimization stats:
  Stopping criterion = force tolerance
  Energy initial, next-to-last, final = 
        -241.999874687     -241.999874687     -241.999874668
  Force two-norm initial, final = 0.000521569 5.58661e-09
  Force max component initial, final = 0.000260785 1.92063e-09
  Final line search alpha, max atom move = 0 0
  Iterations, force evaluations = 0 83

Pair  time (%) = 0.00139745 (69.6951)
Neigh time (%) = 0 (0)
Comm  time (%) = 0.000115887 (5.77965)
Outpt time (%) = 0 (0)
Other time (%) = 0.000491753 (24.5252)

Nlocal:    82 ave 82 max 82 min
Histogram: 1 0 0 0 0 0 0 0 0 0
Nghost:    185 ave 185 max 185 min
Histogram: 1 0 0 0 0 0 0 0 0 0
Neighs:    718 ave 718 max 718 min
Histogram: 1 0 0 0 0 0 0 0 0 0

Total # of neighbors = 718
Ave neighs/atom = 8.7561
Neighbor list builds = 0
Dangerous builds = 0
        # write_dump all atom ${dumpfile}
        next i
jump SELF loop1
        displace_atoms upper move ${xstep1} 0.0 0.0 units lattice
        displace_atoms upper move 0.002 0.0 0.0 units lattice
        min_style ${style}
        min_style hftn
        minimize ${etol} ${ftol} ${maxiter} ${maxeval}
        minimize 1e-12 ${ftol} ${maxiter} ${maxeval}
        minimize 1e-12 1e-08 ${maxiter} ${maxeval}
        minimize 1e-12 1e-08 10000 ${maxeval}
        minimize 1e-12 1e-08 10000 20000
WARNING: Resetting reneighboring criteria during minimization (../min.cpp:168)
Memory usage per processor = 4.85169 Mbytes
Step Temp PotEng Lx Ly Lz 
       6            0   -241.99969    2.2449075    38.891144    1.1224537 
       7            0   -241.99969    2.2449075    38.891144    1.1224537 
       8            0   -241.99969    2.2449075    38.891144    1.1224537 
       9            0   -241.99969    2.2449075    38.891144    1.1224537 
      10            0   -241.99969    2.2449075    38.891144    1.1224537 
      11            0   -241.99969    2.2449075    38.891144    1.1224537 
      12            0   -241.99969    2.2449075    38.891144    1.1224537 
      13            0   -241.99969    2.2449075    38.891144    1.1224537 
Loop time of 0.00409006 on 1 procs for 6 steps with 82 atoms

Minimization stats:
  Stopping criterion = energy tolerance
  Energy initial, next-to-last, final = 
        -241.999688201     -241.999688201     -241.999688201
  Force two-norm initial, final = 0.00155568 0.00155483
  Force max component initial, final = 0.000777838 0.000777415
  Final line search alpha, max atom move = 0 0
  Iterations, force evaluations = 6 131

Pair  time (%) = 0.0024675 (60.329)
Neigh time (%) = 0 (0)
Comm  time (%) = 0.00024075 (5.88623)
Outpt time (%) = 0.000369829 (9.04213)
Other time (%) = 0.00101199 (24.7426)

Nlocal:    82 ave 82 max 82 min
Histogram: 1 0 0 0 0 0 0 0 0 0
Nghost:    185 ave 185 max 185 min
Histogram: 1 0 0 0 0 0 0 0 0 0
Neighs:    718 ave 718 max 718 min
Histogram: 1 0 0 0 0 0 0 0 0 0

Total # of neighbors = 718
Ave neighs/atom = 8.7561
Neighbor list builds = 0
Dangerous builds = 0
        # write_dump all atom ${dumpfile}
        next i
jump SELF loop1
        displace_atoms upper move ${xstep1} 0.0 0.0 units lattice
        displace_atoms upper move 0.002 0.0 0.0 units lattice
        min_style ${style}
        min_style hftn
        minimize ${etol} ${ftol} ${maxiter} ${maxeval}
        minimize 1e-12 ${ftol} ${maxiter} ${maxeval}
        minimize 1e-12 1e-08 ${maxiter} ${maxeval}
        minimize 1e-12 1e-08 10000 ${maxeval}
        minimize 1e-12 1e-08 10000 20000
WARNING: Resetting reneighboring criteria during minimization (../min.cpp:168)
Memory usage per processor = 4.85169 Mbytes
Step Temp PotEng Lx Ly Lz 
      13            0   -241.99938    2.2449075    38.891144    1.1224537 
      14            0   -241.99938    2.2449075    38.891144    1.1224537 
      15            0   -241.99938    2.2449075    38.891144    1.1224537 
Loop time of 0.00714794 on 1 procs for 1 steps with 82 atoms

Minimization stats:
  Stopping criterion = force tolerance
  Energy initial, next-to-last, final = 
        -241.999378717     -241.999378717     -241.999378885
  Force two-norm initial, final = 0.00413165 6.12497e-09
  Force max component initial, final = 0.00206582 2.2865e-09
  Final line search alpha, max atom move = 0 0
  Iterations, force evaluations = 1 183

Pair  time (%) = 0.00583668 (81.6554)
Neigh time (%) = 0 (0)
Comm  time (%) = 0.000273732 (3.82953)
Outpt time (%) = 4.68977e-05 (0.656101)
Other time (%) = 0.000990628 (13.8589)

Nlocal:    82 ave 82 max 82 min
Histogram: 1 0 0 0 0 0 0 0 0 0
Nghost:    185 ave 185 max 185 min
Histogram: 1 0 0 0 0 0 0 0 0 0
Neighs:    718 ave 718 max 718 min
Histogram: 1 0 0 0 0 0 0 0 0 0

Total # of neighbors = 718
Ave neighs/atom = 8.7561
Neighbor list builds = 0
Dangerous builds = 0
        # write_dump all atom ${dumpfile}
        next i
jump SELF loop1
        displace_atoms upper move ${xstep1} 0.0 0.0 units lattice
        displace_atoms upper move 0.002 0.0 0.0 units lattice
        min_style ${style}
        min_style hftn
        minimize ${etol} ${ftol} ${maxiter} ${maxeval}
        minimize 1e-12 ${ftol} ${maxiter} ${maxeval}
        minimize 1e-12 1e-08 ${maxiter} ${maxeval}
        minimize 1e-12 1e-08 10000 ${maxeval}
        minimize 1e-12 1e-08 10000 20000
WARNING: Resetting reneighboring criteria during minimization (../min.cpp:168)
Memory usage per processor = 4.85169 Mbytes
Step Temp PotEng Lx Ly Lz 
      15            0   -241.99895    2.2449075      38.8912    1.1224537 
      16            0   -241.99895    2.2449075      38.8912    1.1224537 
      17            0   -241.99895    2.2449075      38.8912    1.1224537 
      18            0   -241.99895    2.2449075      38.8912    1.1224537 
      19            0   -241.99895    2.2449075      38.8912    1.1224537 
Loop time of 0.00531498 on 1 procs for 3 steps with 82 atoms

Minimization stats:
  Stopping criterion = force tolerance
  Energy initial, next-to-last, final = 
        -241.998949844      -241.99895012     -241.998949771
  Force two-norm initial, final = 0.00131312 8.74173e-11
  Force max component initial, final = 0.00065656 2.56138e-11
  Final line search alpha, max atom move = 0 0
  Iterations, force evaluations = 3 204

Pair  time (%) = 0.00374231 (70.4107)
Neigh time (%) = 0 (0)
Comm  time (%) = 0.000367538 (6.91513)
Outpt time (%) = 0.000129177 (2.43042)
Other time (%) = 0.00107595 (20.2437)

Nlocal:    82 ave 82 max 82 min
Histogram: 1 0 0 0 0 0 0 0 0 0
Nghost:    185 ave 185 max 185 min
Histogram: 1 0 0 0 0 0 0 0 0 0
Neighs:    718 ave 718 max 718 min
Histogram: 1 0 0 0 0 0 0 0 0 0

Total # of neighbors = 718
Ave neighs/atom = 8.7561
Neighbor list builds = 0
Dangerous builds = 0
        # write_dump all atom ${dumpfile}
        next i
jump SELF loop1
        displace_atoms upper move ${xstep1} 0.0 0.0 units lattice
        displace_atoms upper move 0.002 0.0 0.0 units lattice
        min_style ${style}
        min_style hftn
        minimize ${etol} ${ftol} ${maxiter} ${maxeval}
        minimize 1e-12 ${ftol} ${maxiter} ${maxeval}
        minimize 1e-12 1e-08 ${maxiter} ${maxeval}
        minimize 1e-12 1e-08 10000 ${maxeval}
        minimize 1e-12 1e-08 10000 20000
WARNING: Resetting reneighboring criteria during minimization (../min.cpp:168)
Memory usage per processor = 4.85169 Mbytes
Step Temp PotEng Lx Ly Lz 
      19            0   -241.99844    2.2449075    38.891181    1.1224537 
      20            0   -241.99844    2.2449075    38.891181    1.1224537 
      21            0   -241.99844    2.2449075    38.891181    1.1224537 
Loop time of 0.00417108 on 1 procs for 1 steps with 82 atoms

Minimization stats:
  Stopping criterion = force tolerance
  Energy initial, next-to-last, final = 
        -241.998443668     -241.998443668     -241.998444565
  Force two-norm initial, final = 0.0107515 5.38987e-11
  Force max component initial, final = 0.00537573 2.43335e-11
  Final line search alpha, max atom move = 0 0
  Iterations, force evaluations = 1 150

Pair  time (%) = 0.00245487 (58.8546)
Neigh time (%) = 0 (0)
Comm  time (%) = 0.000202152 (4.84651)
Outpt time (%) = 5.80049e-05 (1.39064)
Other time (%) = 0.00145605 (34.9083)

Nlocal:    82 ave 82 max 82 min
Histogram: 1 0 0 0 0 0 0 0 0 0
Nghost:    185 ave 185 max 185 min
Histogram: 1 0 0 0 0 0 0 0 0 0
Neighs:    718 ave 718 max 718 min
Histogram: 1 0 0 0 0 0 0 0 0 0

Total # of neighbors = 718
Ave neighs/atom = 8.7561
Neighbor list builds = 0
Dangerous builds = 0
        # write_dump all atom ${dumpfile}
        next i
jump SELF loop1
        displace_atoms upper move ${xstep1} 0.0 0.0 units lattice
        displace_atoms upper move 0.002 0.0 0.0 units lattice
        min_style ${style}
        min_style hftn
        minimize ${etol} ${ftol} ${maxiter} ${maxeval}
        minimize 1e-12 ${ftol} ${maxiter} ${maxeval}
        minimize 1e-12 1e-08 ${maxiter} ${maxeval}
        minimize 1e-12 1e-08 10000 ${maxeval}
        minimize 1e-12 1e-08 10000 20000
WARNING: Resetting reneighboring criteria during minimization (../min.cpp:168)
Memory usage per processor = 4.85169 Mbytes
Step Temp PotEng Lx Ly Lz 
      21            0   -241.99788    2.2449075    38.891027    1.1224537 
      22            0   -241.99788    2.2449075    38.891027    1.1224537 
      23            0   -241.99788    2.2449075    38.891027    1.1224537 
Loop time of 0.00327391 on 1 procs for 1 steps with 82 atoms

Minimization stats:
  Stopping criterion = force tolerance
  Energy initial, next-to-last, final = 
        -241.997875999     -241.997875999      -241.99787793
  Force two-norm initial, final = 0.00969981 4.42929e-11
  Force max component initial, final = 0.00484991 1.9949e-11
  Final line search alpha, max atom move = 0 0
  Iterations, force evaluations = 1 150

Pair  time (%) = 0.00235876 (72.047)
Neigh time (%) = 0 (0)
Comm  time (%) = 0.000198349 (6.05847)
Outpt time (%) = 9.98343e-06 (0.304939)
Other time (%) = 0.000706823 (21.5895)

Nlocal:    82 ave 82 max 82 min
Histogram: 1 0 0 0 0 0 0 0 0 0
Nghost:    185 ave 185 max 185 min
Histogram: 1 0 0 0 0 0 0 0 0 0
Neighs:    718 ave 718 max 718 min
Histogram: 1 0 0 0 0 0 0 0 0 0

Total # of neighbors = 718
Ave neighs/atom = 8.7561
Neighbor list builds = 0
Dangerous builds = 0
        # write_dump all atom ${dumpfile}
        next i
jump SELF loop1
        displace_atoms upper move ${xstep1} 0.0 0.0 units lattice
        displace_atoms upper move 0.002 0.0 0.0 units lattice
        min_style ${style}
        min_style hftn
        minimize ${etol} ${ftol} ${maxiter} ${maxeval}
        minimize 1e-12 ${ftol} ${maxiter} ${maxeval}
        minimize 1e-12 1e-08 ${maxiter} ${maxeval}
        minimize 1e-12 1e-08 10000 ${maxeval}
        minimize 1e-12 1e-08 10000 20000
WARNING: Resetting reneighboring criteria during minimization (../min.cpp:168)
Memory usage per processor = 4.85169 Mbytes
Step Temp PotEng Lx Ly Lz 
      23            0   -241.99725    2.2449075    38.890888    1.1224537 
      24            0   -241.99725    2.2449075    38.890888    1.1224537 
      25            0   -241.99725    2.2449075    38.890888    1.1224537 
      26            0   -241.99725    2.2449075    38.890888    1.1224537 
      27            0   -241.99725    2.2449075    38.890888    1.1224537 
      28            0   -241.99725    2.2449075    38.890888    1.1224537 
      29            0   -241.99725    2.2449075    38.890888    1.1224537 
      30            0   -241.99725    2.2449075    38.890888    1.1224537 
      31            0   -241.99725    2.2449075    38.890888    1.1224537 
      32            0   -241.99725    2.2449075    38.890888    1.1224537 
      33            0   -241.99725    2.2449075    38.890888    1.1224537 
      34            0   -241.99725    2.2449075    38.890888    1.1224537 
      35            0   -241.99725    2.2449075    38.890888    1.1224537 
      36            0   -241.99725    2.2449075    38.890888    1.1224537 
Loop time of 0.00528001 on 1 procs for 12 steps with 82 atoms

Minimization stats:
  Stopping criterion = energy tolerance
  Energy initial, next-to-last, final = 
        -241.997246029     -241.997248319     -241.997248415
  Force two-norm initial, final = 0.00861717 0.000180954
  Force max component initial, final = 0.00430858 6.47067e-05
  Final line search alpha, max atom move = 0 0
  Iterations, force evaluations = 12 247

Pair  time (%) = 0.00385415 (72.9951)
Neigh time (%) = 0 (0)
Comm  time (%) = 0.00032059 (6.07176)
Outpt time (%) = 8.38555e-05 (1.58817)
Other time (%) = 0.00102142 (19.345)

Nlocal:    82 ave 82 max 82 min
Histogram: 1 0 0 0 0 0 0 0 0 0
Nghost:    185 ave 185 max 185 min
Histogram: 1 0 0 0 0 0 0 0 0 0
Neighs:    718 ave 718 max 718 min
Histogram: 1 0 0 0 0 0 0 0 0 0

Total # of neighbors = 718
Ave neighs/atom = 8.7561
Neighbor list builds = 0
Dangerous builds = 0
        # write_dump all atom ${dumpfile}
        next i
jump SELF loop1
        displace_atoms upper move ${xstep1} 0.0 0.0 units lattice
        displace_atoms upper move 0.002 0.0 0.0 units lattice
        min_style ${style}
        min_style hftn
        minimize ${etol} ${ftol} ${maxiter} ${maxeval}
        minimize 1e-12 ${ftol} ${maxiter} ${maxeval}
        minimize 1e-12 1e-08 ${maxiter} ${maxeval}
        minimize 1e-12 1e-08 10000 ${maxeval}
        minimize 1e-12 1e-08 10000 20000
WARNING: Resetting reneighboring criteria during minimization (../min.cpp:168)
Memory usage per processor = 4.85169 Mbytes
Step Temp PotEng Lx Ly Lz 
      36            0   -241.99655    2.2449075    38.890888    1.1224537 
      37            0   -241.99655    2.2449075    38.890888    1.1224537 
      38            0   -241.99655    2.2449075    38.890888    1.1224537 
      39            0   -241.99655    2.2449075    38.890888    1.1224537 
      40            0   -241.99655    2.2449075    38.890888    1.1224537 
      41            0   -241.99655    2.2449075    38.890888    1.1224537 
      42            0   -241.99655    2.2449075    38.890888    1.1224537 
      43            0   -241.99655    2.2449075    38.890888    1.1224537 
      44            0   -241.99655    2.2449075    38.890888    1.1224537 
Loop time of 0.003768 on 1 procs for 7 steps with 82 atoms

Minimization stats:
  Stopping criterion = energy tolerance
  Energy initial, next-to-last, final = 
        -241.996552081     -241.996552081     -241.996554018
  Force two-norm initial, final = 0.00750968 0.000453149
  Force max component initial, final = 0.00375376 0.000203387
  Final line search alpha, max atom move = 0 0
  Iterations, force evaluations = 7 160

Pair  time (%) = 0.00277699 (73.6992)
Neigh time (%) = 0 (0)
Comm  time (%) = 0.000237472 (6.30232)
Outpt time (%) = 4.39539e-05 (1.1665)
Other time (%) = 0.000709589 (18.832)

Nlocal:    82 ave 82 max 82 min
Histogram: 1 0 0 0 0 0 0 0 0 0
Nghost:    185 ave 185 max 185 min
Histogram: 1 0 0 0 0 0 0 0 0 0
Neighs:    718 ave 718 max 718 min
Histogram: 1 0 0 0 0 0 0 0 0 0

Total # of neighbors = 718
Ave neighs/atom = 8.7561
Neighbor list builds = 0
Dangerous builds = 0
        # write_dump all atom ${dumpfile}
        next i
jump SELF loop1
        displace_atoms upper move ${xstep1} 0.0 0.0 units lattice
        displace_atoms upper move 0.002 0.0 0.0 units lattice
        min_style ${style}
        min_style hftn
        minimize ${etol} ${ftol} ${maxiter} ${maxeval}
        minimize 1e-12 ${ftol} ${maxiter} ${maxeval}
        minimize 1e-12 1e-08 ${maxiter} ${maxeval}
        minimize 1e-12 1e-08 10000 ${maxeval}
        minimize 1e-12 1e-08 10000 20000
WARNING: Resetting reneighboring criteria during minimization (../min.cpp:168)
Memory usage per processor = 4.85169 Mbytes
Step Temp PotEng Lx Ly Lz 
      44            0   -241.99579    2.2449075    38.890876    1.1224537 
      45            0   -241.99579    2.2449075    38.890876    1.1224537 
      46            0    -241.9958    2.2449075    38.890876    1.1224537 
      47            0    -241.9958    2.2449075    38.890876    1.1224537 
      48            0    -241.9958    2.2449075    38.890876    1.1224537 
      49            0    -241.9958    2.2449075    38.890876    1.1224537 
      50            0    -241.9958    2.2449075    38.890876    1.1224537 
      51            0    -241.9958    2.2449075    38.890876    1.1224537 
      52            0    -241.9958    2.2449075    38.890876    1.1224537 
Loop time of 0.0081249 on 1 procs for 7 steps with 82 atoms

Minimization stats:
  Stopping criterion = energy tolerance
  Energy initial, next-to-last, final = 
        -241.995793755     -241.995793755     -241.995795814
  Force two-norm initial, final = 0.00646376 0.000551354
  Force max component initial, final = 0.00322393 0.000204075
  Final line search alpha, max atom move = 0 0
  Iterations, force evaluations = 7 170

Pair  time (%) = 0.00610266 (75.1106)
Neigh time (%) = 0 (0)
Comm  time (%) = 0.000233547 (2.87446)
Outpt time (%) = 0.00110222 (13.566)
Other time (%) = 0.00068647 (8.44897)

Nlocal:    82 ave 82 max 82 min
Histogram: 1 0 0 0 0 0 0 0 0 0
Nghost:    185 ave 185 max 185 min
Histogram: 1 0 0 0 0 0 0 0 0 0
Neighs:    718 ave 718 max 718 min
Histogram: 1 0 0 0 0 0 0 0 0 0

Total # of neighbors = 718
Ave neighs/atom = 8.7561
Neighbor list builds = 0
Dangerous builds = 0
        # write_dump all atom ${dumpfile}
        next i
jump SELF loop1
        displace_atoms upper move ${xstep1} 0.0 0.0 units lattice
        displace_atoms upper move 0.002 0.0 0.0 units lattice
        min_style ${style}
        min_style hftn
        minimize ${etol} ${ftol} ${maxiter} ${maxeval}
        minimize 1e-12 ${ftol} ${maxiter} ${maxeval}
        minimize 1e-12 1e-08 ${maxiter} ${maxeval}
        minimize 1e-12 1e-08 10000 ${maxeval}
        minimize 1e-12 1e-08 10000 20000
WARNING: Resetting reneighboring criteria during minimization (../min.cpp:168)
Memory usage per processor = 4.85169 Mbytes
Step Temp PotEng Lx Ly Lz 
      52            0   -241.99497    2.2449075    38.890862    1.1224537 
      53            0   -241.99497    2.2449075    38.890862    1.1224537 
      54            0   -241.99497    2.2449075    38.890862    1.1224537 
      55            0   -241.99497    2.2449075    38.890862    1.1224537 
      56            0   -241.99497    2.2449075    38.890862    1.1224537 
      57            0   -241.99497    2.2449075    38.890862    1.1224537 
      58            0   -241.99497    2.2449075    38.890862    1.1224537 
      59            0   -241.99497    2.2449075    38.890862    1.1224537 
      60            0   -241.99497    2.2449075    38.890862    1.1224537 
      61            0   -241.99497    2.2449075    38.890862    1.1224537 
Loop time of 0.00402401 on 1 procs for 8 steps with 82 atoms

Minimization stats:
  Stopping criterion = energy tolerance
  Energy initial, next-to-last, final = 
        -241.994970645     -241.994970645     -241.994972499
  Force two-norm initial, final = 0.00539125 0.000749101
  Force max component initial, final = 0.00268149 0.000274918
  Final line search alpha, max atom move = 0 0
  Iterations, force evaluations = 8 179

Pair  time (%) = 0.00271473 (67.4632)
Neigh time (%) = 0 (0)
Comm  time (%) = 0.000261043 (6.48714)
Outpt time (%) = 0.000297948 (7.40425)
Other time (%) = 0.000750294 (18.6454)

Nlocal:    82 ave 82 max 82 min
Histogram: 1 0 0 0 0 0 0 0 0 0
Nghost:    185 ave 185 max 185 min
Histogram: 1 0 0 0 0 0 0 0 0 0
Neighs:    718 ave 718 max 718 min
Histogram: 1 0 0 0 0 0 0 0 0 0

Total # of neighbors = 718
Ave neighs/atom = 8.7561
Neighbor list builds = 0
Dangerous builds = 0
        # write_dump all atom ${dumpfile}
        next i
jump SELF loop1
        displace_atoms upper move ${xstep1} 0.0 0.0 units lattice
        displace_atoms upper move 0.002 0.0 0.0 units lattice
        min_style ${style}
        min_style hftn
        minimize ${etol} ${ftol} ${maxiter} ${maxeval}
        minimize 1e-12 ${ftol} ${maxiter} ${maxeval}
        minimize 1e-12 1e-08 ${maxiter} ${maxeval}
        minimize 1e-12 1e-08 10000 ${maxeval}
        minimize 1e-12 1e-08 10000 20000
WARNING: Resetting reneighboring criteria during minimization (../min.cpp:168)
Memory usage per processor = 4.85169 Mbytes
Step Temp PotEng Lx Ly Lz 
      61            0   -241.99408    2.2449075    38.890846    1.1224537 
      62            0   -241.99408    2.2449075    38.890846    1.1224537 
      63            0   -241.99408    2.2449075    38.890846    1.1224537 
      64            0   -241.99408    2.2449075    38.890846    1.1224537 
      65            0   -241.99408    2.2449075    38.890846    1.1224537 
      66            0   -241.99408    2.2449075    38.890846    1.1224537 
      67            0   -241.99408    2.2449075    38.890846    1.1224537 
      68            0   -241.99408    2.2449075    38.890846    1.1224537 
      69            0   -241.99408    2.2449075    38.890846    1.1224537 
      70            0   -241.99408    2.2449075    38.890846    1.1224537 
Loop time of 0.00478906 on 1 procs for 8 steps with 82 atoms

Minimization stats:
  Stopping criterion = energy tolerance
  Energy initial, next-to-last, final = 
        -241.994082014     -241.994082014     -241.994082743
  Force two-norm initial, final = 0.00428778 0.000957274
  Force max component initial, final = 0.00211143 0.00028642
  Final line search alpha, max atom move = 0 0
  Iterations, force evaluations = 8 177

Pair  time (%) = 0.00281524 (58.7848)
Neigh time (%) = 0 (0)
Comm  time (%) = 0.000571243 (11.9281)
Outpt time (%) = 5.60442e-05 (1.17026)
Other time (%) = 0.00134653 (28.1169)

Nlocal:    82 ave 82 max 82 min
Histogram: 1 0 0 0 0 0 0 0 0 0
Nghost:    185 ave 185 max 185 min
Histogram: 1 0 0 0 0 0 0 0 0 0
Neighs:    718 ave 718 max 718 min
Histogram: 1 0 0 0 0 0 0 0 0 0

Total # of neighbors = 718
Ave neighs/atom = 8.7561
Neighbor list builds = 0
Dangerous builds = 0
        # write_dump all atom ${dumpfile}
        next i
jump SELF loop1
        displace_atoms upper move ${xstep1} 0.0 0.0 units lattice
        displace_atoms upper move 0.002 0.0 0.0 units lattice
        min_style ${style}
        min_style hftn
        minimize ${etol} ${ftol} ${maxiter} ${maxeval}
        minimize 1e-12 ${ftol} ${maxiter} ${maxeval}
        minimize 1e-12 1e-08 ${maxiter} ${maxeval}
        minimize 1e-12 1e-08 10000 ${maxeval}
        minimize 1e-12 1e-08 10000 20000
WARNING: Resetting reneighboring criteria during minimization (../min.cpp:168)
Memory usage per processor = 4.85169 Mbytes
Step Temp PotEng Lx Ly Lz 
      70            0   -241.99313    2.2449075    38.890798    1.1224537 
      71            0   -241.99313    2.2449075    38.890798    1.1224537 
      72            0   -241.99313    2.2449075    38.890798    1.1224537 
      73            0   -241.99313    2.2449075    38.890798    1.1224537 
      74            0   -241.99313    2.2449075    38.890798    1.1224537 
      75            0   -241.99313    2.2449075    38.890798    1.1224537 
      76            0   -241.99313    2.2449075    38.890798    1.1224537 
      77            0   -241.99313    2.2449075    38.890798    1.1224537 
      78            0   -241.99313    2.2449075    38.890798    1.1224537 
      79            0   -241.99313    2.2449075    38.890798    1.1224537 
Loop time of 0.00351999 on 1 procs for 8 steps with 82 atoms

Minimization stats:
  Stopping criterion = energy tolerance
  Energy initial, next-to-last, final = 
        -241.993127149     -241.993127149     -241.993127774
  Force two-norm initial, final = 0.00327216 0.000490043
  Force max component initial, final = 0.0015654 0.000191654
  Final line search alpha, max atom move = 0 0
  Iterations, force evaluations = 8 157

Pair  time (%) = 0.00256701 (72.9266)
Neigh time (%) = 0 (0)
Comm  time (%) = 0.000199576 (5.6698)
Outpt time (%) = 5.9135e-05 (1.67998)
Other time (%) = 0.00069427 (19.7237)

Nlocal:    82 ave 82 max 82 min
Histogram: 1 0 0 0 0 0 0 0 0 0
Nghost:    185 ave 185 max 185 min
Histogram: 1 0 0 0 0 0 0 0 0 0
Neighs:    718 ave 718 max 718 min
Histogram: 1 0 0 0 0 0 0 0 0 0

Total # of neighbors = 718
Ave neighs/atom = 8.7561
Neighbor list builds = 0
Dangerous builds = 0
        # write_dump all atom ${dumpfile}
        next i
jump SELF loop1
        displace_atoms upper move ${xstep1} 0.0 0.0 units lattice
        displace_atoms upper move 0.002 0.0 0.0 units lattice
        min_style ${style}
        min_style hftn
        minimize ${etol} ${ftol} ${maxiter} ${maxeval}
        minimize 1e-12 ${ftol} ${maxiter} ${maxeval}
        minimize 1e-12 1e-08 ${maxiter} ${maxeval}
        minimize 1e-12 1e-08 10000 ${maxeval}
        minimize 1e-12 1e-08 10000 20000
WARNING: Resetting reneighboring criteria during minimization (../min.cpp:168)
Memory usage per processor = 4.85169 Mbytes
Step Temp PotEng Lx Ly Lz 
      79            0   -241.99211    2.2449075    38.890788    1.1224537 
      80            0   -241.99211    2.2449075    38.890788    1.1224537 
      81            0   -241.99211    2.2449075    38.890788    1.1224537 
      82            0   -241.99211    2.2449075    38.890788    1.1224537 
      83            0   -241.99211    2.2449075    38.890788    1.1224537 
      84            0   -241.99211    2.2449075    38.890788    1.1224537 
      85            0   -241.99211    2.2449075    38.890788    1.1224537 
      86            0   -241.99211    2.2449075    38.890788    1.1224537 
      87            0   -241.99211    2.2449075    38.890788    1.1224537 
      88            0   -241.99211    2.2449075    38.890788    1.1224537 
Loop time of 0.003977 on 1 procs for 8 steps with 82 atoms

Minimization stats:
  Stopping criterion = energy tolerance
  Energy initial, next-to-last, final = 
        -241.992106615     -241.992106615     -241.992107092
  Force two-norm initial, final = 0.00220516 0.000613629
  Force max component initial, final = 0.00107517 0.000213867
  Final line search alpha, max atom move = 0 0
  Iterations, force evaluations = 8 163

Pair  time (%) = 0.00249993 (62.8596)
Neigh time (%) = 0 (0)
Comm  time (%) = 0.000304567 (7.6582)
Outpt time (%) = 4.51069e-05 (1.13419)
Other time (%) = 0.0011274 (28.3481)

Nlocal:    82 ave 82 max 82 min
Histogram: 1 0 0 0 0 0 0 0 0 0
Nghost:    185 ave 185 max 185 min
Histogram: 1 0 0 0 0 0 0 0 0 0
Neighs:    718 ave 718 max 718 min
Histogram: 1 0 0 0 0 0 0 0 0 0

Total # of neighbors = 718
Ave neighs/atom = 8.7561
Neighbor list builds = 0
Dangerous builds = 0
        # write_dump all atom ${dumpfile}
        next i
jump SELF loop1
        displace_atoms upper move ${xstep1} 0.0 0.0 units lattice
        displace_atoms upper move 0.002 0.0 0.0 units lattice
        min_style ${style}
        min_style hftn
        minimize ${etol} ${ftol} ${maxiter} ${maxeval}
        minimize 1e-12 ${ftol} ${maxiter} ${maxeval}
        minimize 1e-12 1e-08 ${maxiter} ${maxeval}
        minimize 1e-12 1e-08 10000 ${maxeval}
        minimize 1e-12 1e-08 10000 20000
WARNING: Resetting reneighboring criteria during minimization (../min.cpp:168)
Memory usage per processor = 4.85169 Mbytes
Step Temp PotEng Lx Ly Lz 
      88            0   -241.99102    2.2449075    38.890781    1.1224537 
      89            0   -241.99102    2.2449075    38.890781    1.1224537 
      90            0   -241.99102    2.2449075    38.890781    1.1224537 
      91            0   -241.99102    2.2449075    38.890781    1.1224537 
      92            0   -241.99102    2.2449075    38.890781    1.1224537 
      93            0   -241.99102    2.2449075    38.890781    1.1224537 
      94            0   -241.99102    2.2449075    38.890781    1.1224537 
      95            0   -241.99102    2.2449075    38.890781    1.1224537 
      96            0   -241.99102    2.2449075    38.890781    1.1224537 
      97            0   -241.99102    2.2449075    38.890781    1.1224537 
Loop time of 0.00447389 on 1 procs for 8 steps with 82 atoms

Minimization stats:
  Stopping criterion = energy tolerance
  Energy initial, next-to-last, final = 
        -241.991017746     -241.991017746     -241.991018126
  Force two-norm initial, final = 0.00117252 0.000729934
  Force max component initial, final = 0.000500564 0.000192554
  Final line search alpha, max atom move = 0 0
  Iterations, force evaluations = 8 153

Pair  time (%) = 0.00352031 (78.6856)
Neigh time (%) = 0 (0)
Comm  time (%) = 0.000222015 (4.96245)
Outpt time (%) = 8.23652e-05 (1.84102)
Other time (%) = 0.000649205 (14.511)

Nlocal:    82 ave 82 max 82 min
Histogram: 1 0 0 0 0 0 0 0 0 0
Nghost:    185 ave 185 max 185 min
Histogram: 1 0 0 0 0 0 0 0 0 0
Neighs:    718 ave 718 max 718 min
Histogram: 1 0 0 0 0 0 0 0 0 0

Total # of neighbors = 718
Ave neighs/atom = 8.7561
Neighbor list builds = 0
Dangerous builds = 0
        # write_dump all atom ${dumpfile}
        next i
jump SELF loop1
        displace_atoms upper move ${xstep1} 0.0 0.0 units lattice
        displace_atoms upper move 0.002 0.0 0.0 units lattice
        min_style ${style}
        min_style hftn
        minimize ${etol} ${ftol} ${maxiter} ${maxeval}
        minimize 1e-12 ${ftol} ${maxiter} ${maxeval}
        minimize 1e-12 1e-08 ${maxiter} ${maxeval}
        minimize 1e-12 1e-08 10000 ${maxeval}
        minimize 1e-12 1e-08 10000 20000
WARNING: Resetting reneighboring criteria during minimization (../min.cpp:168)
Memory usage per processor = 4.85169 Mbytes
Step Temp PotEng Lx Ly Lz 
      97            0   -241.98986    2.2449075    38.890768    1.1224537 
      98            0   -241.98986    2.2449075    38.890768    1.1224537 
      99            0   -241.98986    2.2449075    38.890768    1.1224537 
     100            0   -241.98986    2.2449075    38.890768    1.1224537 
     101            0   -241.98986    2.2449075    38.890768    1.1224537 
     102            0   -241.98986    2.2449075    38.890768    1.1224537 
     103            0   -241.98986    2.2449075    38.890768    1.1224537 
     104            0   -241.98986    2.2449075    38.890768    1.1224537 
     105            0   -241.98986    2.2449075    38.890768    1.1224537 
Loop time of 0.00656801 on 1 procs for 7 steps with 82 atoms

Minimization stats:
  Stopping criterion = energy tolerance
  Energy initial, next-to-last, final = 
        -241.989861066     -241.989861066     -241.989861066
  Force two-norm initial, final = 0.000733032 0.000731971
  Force max component initial, final = 0.000192554 0.000192207
  Final line search alpha, max atom move = 0 0
  Iterations, force evaluations = 7 84

Pair  time (%) = 0.00570363 (86.8396)
Neigh time (%) = 0 (0)
Comm  time (%) = 8.46622e-05 (1.28901)
Outpt time (%) = 5.29119e-05 (0.805601)
Other time (%) = 0.000726803 (11.0658)

Nlocal:    82 ave 82 max 82 min
Histogram: 1 0 0 0 0 0 0 0 0 0
Nghost:    185 ave 185 max 185 min
Histogram: 1 0 0 0 0 0 0 0 0 0
Neighs:    718 ave 718 max 718 min
Histogram: 1 0 0 0 0 0 0 0 0 0

Total # of neighbors = 718
Ave neighs/atom = 8.7561
Neighbor list builds = 0
Dangerous builds = 0
        # write_dump all atom ${dumpfile}
        next i
jump SELF loop1
        displace_atoms upper move ${xstep1} 0.0 0.0 units lattice
        displace_atoms upper move 0.002 0.0 0.0 units lattice
        min_style ${style}
        min_style hftn
        minimize ${etol} ${ftol} ${maxiter} ${maxeval}
        minimize 1e-12 ${ftol} ${maxiter} ${maxeval}
        minimize 1e-12 1e-08 ${maxiter} ${maxeval}
        minimize 1e-12 1e-08 10000 ${maxeval}
        minimize 1e-12 1e-08 10000 20000
WARNING: Resetting reneighboring criteria during minimization (../min.cpp:168)
Memory usage per processor = 4.85169 Mbytes
Step Temp PotEng Lx Ly Lz 
     105            0   -241.98864    2.2449075    38.890768    1.1224537 
     106            0   -241.98864    2.2449075    38.890768    1.1224537 
     107            0   -241.98864    2.2449075    38.890768    1.1224537 
     108            0   -241.98864    2.2449075    38.890768    1.1224537 
     109            0   -241.98864    2.2449075    38.890768    1.1224537 
     110            0   -241.98864    2.2449075    38.890768    1.1224537 
     111            0   -241.98864    2.2449075    38.890768    1.1224537 
     112            0   -241.98864    2.2449075    38.890768    1.1224537 
     113            0   -241.98864    2.2449075    38.890768    1.1224537 
     114            0   -241.98864    2.2449075    38.890768    1.1224537 
Loop time of 0.00321204 on 1 procs for 8 steps with 82 atoms

Minimization stats:
  Stopping criterion = energy tolerance
  Energy initial, next-to-last, final = 
        -241.988637828     -241.988637828     -241.988637828
  Force two-norm initial, final = 0.00138279 0.0013825
  Force max component initial, final = 0.000588605 0.00058846
  Final line search alpha, max atom move = 0 0
  Iterations, force evaluations = 8 155

Pair  time (%) = 0.00234119 (72.888)
Neigh time (%) = 0 (0)
Comm  time (%) = 0.000195642 (6.09091)
Outpt time (%) = 5.98741e-05 (1.86406)
Other time (%) = 0.00061533 (19.157)

Nlocal:    82 ave 82 max 82 min
Histogram: 1 0 0 0 0 0 0 0 0 0
Nghost:    185 ave 185 max 185 min
Histogram: 1 0 0 0 0 0 0 0 0 0
Neighs:    718 ave 718 max 718 min
Histogram: 1 0 0 0 0 0 0 0 0 0

Total # of neighbors = 718
Ave neighs/atom = 8.7561
Neighbor list builds = 0
Dangerous builds = 0
        # write_dump all atom ${dumpfile}
        next i
jump SELF loop1
        displace_atoms upper move ${xstep1} 0.0 0.0 units lattice
        displace_atoms upper move 0.002 0.0 0.0 units lattice
        min_style ${style}
        min_style hftn
        minimize ${etol} ${ftol} ${maxiter} ${maxeval}
        minimize 1e-12 ${ftol} ${maxiter} ${maxeval}
        minimize 1e-12 1e-08 ${maxiter} ${maxeval}
        minimize 1e-12 1e-08 10000 ${maxeval}
        minimize 1e-12 1e-08 10000 20000
WARNING: Resetting reneighboring criteria during minimization (../min.cpp:168)
Memory usage per processor = 4.85169 Mbytes
Step Temp PotEng Lx Ly Lz 
     114            0   -241.98735    2.2449075    38.890768    1.1224537 
     115            0   -241.98735    2.2449075    38.890768    1.1224537 
     116            0   -241.98735    2.2449075    38.890768    1.1224537 
     117            0   -241.98735    2.2449075    38.890768    1.1224537 
     118            0   -241.98735    2.2449075    38.890768    1.1224537 
     119            0   -241.98735    2.2449075    38.890768    1.1224537 
     120            0   -241.98735    2.2449075    38.890768    1.1224537 
     121            0   -241.98735    2.2449075    38.890768    1.1224537 
     122            0   -241.98735    2.2449075    38.890768    1.1224537 
     123            0   -241.98735    2.2449075    38.890768    1.1224537 
Loop time of 0.00333308 on 1 procs for 8 steps with 82 atoms

Minimization stats:
  Stopping criterion = energy tolerance
  Energy initial, next-to-last, final = 
        -241.987349137     -241.987349137     -241.987349137
  Force two-norm initial, final = 0.00339326 0.00339295
  Force max component initial, final = 0.00165758 0.00165742
  Final line search alpha, max atom move = 0 0
  Iterations, force evaluations = 8 155

Pair  time (%) = 0.00243368 (73.0159)
Neigh time (%) = 0 (0)
Comm  time (%) = 0.000203204 (6.09658)
Outpt time (%) = 5.84611e-05 (1.75396)
Other time (%) = 0.000637736 (19.1335)

Nlocal:    82 ave 82 max 82 min
Histogram: 1 0 0 0 0 0 0 0 0 0
Nghost:    185 ave 185 max 185 min
Histogram: 1 0 0 0 0 0 0 0 0 0
Neighs:    718 ave 718 max 718 min
Histogram: 1 0 0 0 0 0 0 0 0 0

Total # of neighbors = 718
Ave neighs/atom = 8.7561
Neighbor list builds = 0
Dangerous builds = 0
        # write_dump all atom ${dumpfile}
        next i
jump SELF loop1
        displace_atoms upper move ${xstep1} 0.0 0.0 units lattice
        displace_atoms upper move 0.002 0.0 0.0 units lattice
        min_style ${style}
        min_style hftn
        minimize ${etol} ${ftol} ${maxiter} ${maxeval}
        minimize 1e-12 ${ftol} ${maxiter} ${maxeval}
        minimize 1e-12 1e-08 ${maxiter} ${maxeval}
        minimize 1e-12 1e-08 10000 ${maxeval}
        minimize 1e-12 1e-08 10000 20000
WARNING: Resetting reneighboring criteria during minimization (../min.cpp:168)
Memory usage per processor = 4.85169 Mbytes
Step Temp PotEng Lx Ly Lz 
     123            0   -241.98599    2.2449075    38.890768    1.1224537 
     124            0   -241.98599    2.2449075    38.890768    1.1224537 
     125            0   -241.98599    2.2449075    38.890768    1.1224537 
     126            0   -241.98599    2.2449075    38.890768    1.1224537 
     127            0   -241.98599    2.2449075    38.890768    1.1224537 
     128            0   -241.98599    2.2449075    38.890768    1.1224537 
     129            0   -241.98599    2.2449075    38.890768    1.1224537 
     130            0   -241.98599    2.2449075    38.890768    1.1224537 
     131            0   -241.98599    2.2449075    38.890768    1.1224537 
     132            0   -241.98599    2.2449075    38.890768    1.1224537 
Loop time of 0.00279496 on 1 procs for 8 steps with 82 atoms

Minimization stats:
  Stopping criterion = energy tolerance
  Energy initial, next-to-last, final = 
        -241.985994257     -241.985994257     -241.985994256
  Force two-norm initial, final = 0.00654422 0.00654394
  Force max component initial, final = 0.00325216 0.00325202
  Final line search alpha, max atom move = 0 0
  Iterations, force evaluations = 8 141

Pair  time (%) = 0.00203281 (72.7311)
Neigh time (%) = 0 (0)
Comm  time (%) = 0.000193199 (6.91241)
Outpt time (%) = 5.10029e-05 (1.82482)
Other time (%) = 0.000517954 (18.5317)

Nlocal:    82 ave 82 max 82 min
Histogram: 1 0 0 0 0 0 0 0 0 0
Nghost:    185 ave 185 max 185 min
Histogram: 1 0 0 0 0 0 0 0 0 0
Neighs:    718 ave 718 max 718 min
Histogram: 1 0 0 0 0 0 0 0 0 0

Total # of neighbors = 718
Ave neighs/atom = 8.7561
Neighbor list builds = 0
Dangerous builds = 0
        # write_dump all atom ${dumpfile}
        next i
jump SELF loop1
        displace_atoms upper move ${xstep1} 0.0 0.0 units lattice
        displace_atoms upper move 0.002 0.0 0.0 units lattice
        min_style ${style}
        min_style hftn
        minimize ${etol} ${ftol} ${maxiter} ${maxeval}
        minimize 1e-12 ${ftol} ${maxiter} ${maxeval}
        minimize 1e-12 1e-08 ${maxiter} ${maxeval}
        minimize 1e-12 1e-08 10000 ${maxeval}
        minimize 1e-12 1e-08 10000 20000
WARNING: Resetting reneighboring criteria during minimization (../min.cpp:168)
Memory usage per processor = 4.85169 Mbytes
Step Temp PotEng Lx Ly Lz 
     132            0   -241.98457    2.2449075    38.890768    1.1224537 
     133            0   -241.98457    2.2449075    38.890768    1.1224537 
     134            0   -241.98457    2.2449075    38.890768    1.1224537 
     135            0   -241.98457    2.2449075    38.890768    1.1224537 
     136            0   -241.98457    2.2449075    38.890768    1.1224537 
     137            0   -241.98457    2.2449075    38.890768    1.1224537 
     138            0   -241.98457    2.2449075    38.890768    1.1224537 
     139            0   -241.98457    2.2449075    38.890768    1.1224537 
     140            0   -241.98457    2.2449075    38.890768    1.1224537 
     141            0   -241.98457    2.2449075    38.890768    1.1224537 
Loop time of 0.00336705 on 1 procs for 8 steps with 82 atoms

Minimization stats:
  Stopping criterion = energy tolerance
  Energy initial, next-to-last, final = 
        -241.984568519     -241.984568519     -241.984568519
  Force two-norm initial, final = 0.0108221 0.0108219
  Force max component initial, final = 0.00539913 0.00539901
  Final line search alpha, max atom move = 0 0
  Iterations, force evaluations = 8 125

Pair  time (%) = 0.00203451 (60.424)
Neigh time (%) = 0 (0)
Comm  time (%) = 0.000772774 (22.951)
Outpt time (%) = 5.56643e-05 (1.65321)
Other time (%) = 0.000504108 (14.9718)

Nlocal:    82 ave 82 max 82 min
Histogram: 1 0 0 0 0 0 0 0 0 0
Nghost:    185 ave 185 max 185 min
Histogram: 1 0 0 0 0 0 0 0 0 0
Neighs:    718 ave 718 max 718 min
Histogram: 1 0 0 0 0 0 0 0 0 0

Total # of neighbors = 718
Ave neighs/atom = 8.7561
Neighbor list builds = 0
Dangerous builds = 0
        # write_dump all atom ${dumpfile}
        next i
jump SELF loop1
        displace_atoms upper move ${xstep1} 0.0 0.0 units lattice
        displace_atoms upper move 0.002 0.0 0.0 units lattice
        min_style ${style}
        min_style hftn
        minimize ${etol} ${ftol} ${maxiter} ${maxeval}
        minimize 1e-12 ${ftol} ${maxiter} ${maxeval}
        minimize 1e-12 1e-08 ${maxiter} ${maxeval}
        minimize 1e-12 1e-08 10000 ${maxeval}
        minimize 1e-12 1e-08 10000 20000
WARNING: Resetting reneighboring criteria during minimization (../min.cpp:168)
Memory usage per processor = 4.85169 Mbytes
Step Temp PotEng Lx Ly Lz 
     141            0   -241.98308    2.2449075    38.890768    1.1224537 
     142            0   -241.98308    2.2449075    38.890768    1.1224537 
     143            0   -241.98308    2.2449075    38.890768    1.1224537 
     144            0   -241.98308    2.2449075    38.890768    1.1224537 
     145            0   -241.98308    2.2449075    38.890768    1.1224537 
     146            0   -241.98308    2.2449075    38.890768    1.1224537 
     147            0   -241.98308    2.2449075    38.890768    1.1224537 
     148            0   -241.98308    2.2449075    38.890768    1.1224537 
     149            0   -241.98308    2.2449075    38.890768    1.1224537 
     150            0   -241.98308    2.2449075    38.890768    1.1224537 
Loop time of 0.00272399 on 1 procs for 8 steps with 82 atoms

Minimization stats:
  Stopping criterion = energy tolerance
  Energy initial, next-to-last, final = 
        -241.983076875     -241.983076875     -241.983076875
  Force two-norm initial, final = 0.0161513 0.0161507
  Force max component initial, final = 0.00806773 0.00806745
  Final line search alpha, max atom move = 0 0
  Iterations, force evaluations = 8 117

Pair  time (%) = 0.00198657 (72.9285)
Neigh time (%) = 0 (0)
Comm  time (%) = 0.000193888 (7.11777)
Outpt time (%) = 5.17544e-05 (1.89995)
Other time (%) = 0.000491784 (18.0538)

Nlocal:    82 ave 82 max 82 min
Histogram: 1 0 0 0 0 0 0 0 0 0
Nghost:    185 ave 185 max 185 min
Histogram: 1 0 0 0 0 0 0 0 0 0
Neighs:    718 ave 718 max 718 min
Histogram: 1 0 0 0 0 0 0 0 0 0

Total # of neighbors = 718
Ave neighs/atom = 8.7561
Neighbor list builds = 0
Dangerous builds = 0
        # write_dump all atom ${dumpfile}
        next i
jump SELF loop1
        displace_atoms upper move ${xstep1} 0.0 0.0 units lattice
        displace_atoms upper move 0.002 0.0 0.0 units lattice
        min_style ${style}
        min_style hftn
        minimize ${etol} ${ftol} ${maxiter} ${maxeval}
        minimize 1e-12 ${ftol} ${maxiter} ${maxeval}
        minimize 1e-12 1e-08 ${maxiter} ${maxeval}
        minimize 1e-12 1e-08 10000 ${maxeval}
        minimize 1e-12 1e-08 10000 20000
WARNING: Resetting reneighboring criteria during minimization (../min.cpp:168)
Memory usage per processor = 4.85169 Mbytes
Step Temp PotEng Lx Ly Lz 
     150            0   -241.98152    2.2449075    38.890768    1.1224537 
     151            0   -241.98152    2.2449075    38.890768    1.1224537 
     152            0   -241.98152    2.2449075    38.890768    1.1224537 
     153            0   -241.98152    2.2449075    38.890768    1.1224537 
     154            0   -241.98152    2.2449075    38.890768    1.1224537 
     155            0   -241.98152    2.2449075    38.890768    1.1224537 
     156            0   -241.98152    2.2449075    38.890768    1.1224537 
     157            0   -241.98152    2.2449075    38.890768    1.1224537 
     158            0   -241.98152    2.2449075    38.890768    1.1224537 
     159            0   -241.98152    2.2449075    38.890768    1.1224537 
     160            0   -241.98152    2.2449075    38.890768    1.1224537 
     161            0   -241.98152    2.2449075    38.890768    1.1224537 
     162            0   -241.98152    2.2449075    38.890768    1.1224537 
     163            0   -241.98152    2.2449075    38.890768    1.1224537 
Loop time of 0.0112919 on 1 procs for 12 steps with 82 atoms

Minimization stats:
  Stopping criterion = energy tolerance
  Energy initial, next-to-last, final = 
        -241.981519628     -241.981520054     -241.981520054
  Force two-norm initial, final = 0.0225227 0.00829113
  Force max component initial, final = 0.0112558 0.00350675
  Final line search alpha, max atom move = 0 0
  Iterations, force evaluations = 12 109

Pair  time (%) = 0.00174006 (15.4097)
Neigh time (%) = 0 (0)
Comm  time (%) = 0.000158235 (1.40131)
Outpt time (%) = 0.00895753 (79.3269)
Other time (%) = 0.000436102 (3.86207)

Nlocal:    82 ave 82 max 82 min
Histogram: 1 0 0 0 0 0 0 0 0 0
Nghost:    185 ave 185 max 185 min
Histogram: 1 0 0 0 0 0 0 0 0 0
Neighs:    718 ave 718 max 718 min
Histogram: 1 0 0 0 0 0 0 0 0 0

Total # of neighbors = 718
Ave neighs/atom = 8.7561
Neighbor list builds = 0
Dangerous builds = 0
        # write_dump all atom ${dumpfile}
        next i
jump SELF loop1
        displace_atoms upper move ${xstep1} 0.0 0.0 units lattice
        displace_atoms upper move 0.002 0.0 0.0 units lattice
        min_style ${style}
        min_style hftn
        minimize ${etol} ${ftol} ${maxiter} ${maxeval}
        minimize 1e-12 ${ftol} ${maxiter} ${maxeval}
        minimize 1e-12 1e-08 ${maxiter} ${maxeval}
        minimize 1e-12 1e-08 10000 ${maxeval}
        minimize 1e-12 1e-08 10000 20000
WARNING: Resetting reneighboring criteria during minimization (../min.cpp:168)
Memory usage per processor = 4.85169 Mbytes
Step Temp PotEng Lx Ly Lz 
     163            0   -241.97989    2.2449075    38.890768    1.1224537 
     164            0   -241.97989    2.2449075    38.890768    1.1224537 
     165            0   -241.97989    2.2449075    38.890768    1.1224537 
     166            0   -241.97989    2.2449075    38.890768    1.1224537 
     167            0   -241.97989    2.2449075    38.890768    1.1224537 
     168            0   -241.97989    2.2449075    38.890768    1.1224537 
     169            0   -241.97989    2.2449075    38.890768    1.1224537 
     170            0   -241.97989    2.2449075    38.890768    1.1224537 
     171            0   -241.97989    2.2449075    38.890768    1.1224537 
     172            0   -241.97989    2.2449075    38.890768    1.1224537 
Loop time of 0.00192791 on 1 procs for 8 steps with 82 atoms

Minimization stats:
  Stopping criterion = energy tolerance
  Energy initial, next-to-last, final = 
        -241.979893355     -241.979893355     -241.979893355
  Force two-norm initial, final = 0.0151079 0.0151073
  Force max component initial, final = 0.00722326 0.00722294
  Final line search alpha, max atom move = 0 0
  Iterations, force evaluations = 8 97

Pair  time (%) = 0.00140785 (73.0246)
Neigh time (%) = 0 (0)
Comm  time (%) = 0.000118666 (6.15519)
Outpt time (%) = 5.52101e-05 (2.86373)
Other time (%) = 0.000346184 (17.9565)

Nlocal:    82 ave 82 max 82 min
Histogram: 1 0 0 0 0 0 0 0 0 0
Nghost:    185 ave 185 max 185 min
Histogram: 1 0 0 0 0 0 0 0 0 0
Neighs:    718 ave 718 max 718 min
Histogram: 1 0 0 0 0 0 0 0 0 0

Total # of neighbors = 718
Ave neighs/atom = 8.7561
Neighbor list builds = 0
Dangerous builds = 0
        # write_dump all atom ${dumpfile}
        next i
jump SELF loop1
        displace_atoms upper move ${xstep1} 0.0 0.0 units lattice
        displace_atoms upper move 0.002 0.0 0.0 units lattice
        min_style ${style}
        min_style hftn
        minimize ${etol} ${ftol} ${maxiter} ${maxeval}
        minimize 1e-12 ${ftol} ${maxiter} ${maxeval}
        minimize 1e-12 1e-08 ${maxiter} ${maxeval}
        minimize 1e-12 1e-08 10000 ${maxeval}
        minimize 1e-12 1e-08 10000 20000
WARNING: Resetting reneighboring criteria during minimization (../min.cpp:168)
Memory usage per processor = 4.85169 Mbytes
Step Temp PotEng Lx Ly Lz 
     172            0    -241.9782    2.2449075    38.890768    1.1224537 
     173            0    -241.9782    2.2449075    38.890768    1.1224537 
     174            0    -241.9782    2.2449075    38.890768    1.1224537 
     175            0    -241.9782    2.2449075    38.890768    1.1224537 
     176            0    -241.9782    2.2449075    38.890768    1.1224537 
     177            0    -241.9782    2.2449075    38.890768    1.1224537 
     178            0    -241.9782    2.2449075    38.890768    1.1224537 
     179            0    -241.9782    2.2449075    38.890768    1.1224537 
     180            0    -241.9782    2.2449075    38.890768    1.1224537 
     181            0    -241.9782    2.2449075    38.890768    1.1224537 
     182            0    -241.9782    2.2449075    38.890768    1.1224537 
     183            0    -241.9782    2.2449075    38.890768    1.1224537 
     184            0    -241.9782    2.2449075    38.890768    1.1224537 
     185            0    -241.9782    2.2449075    38.890768    1.1224537 
Loop time of 0.00261897 on 1 procs for 12 steps with 82 atoms

Minimization stats:
  Stopping criterion = energy tolerance
  Energy initial, next-to-last, final = 
        -241.978201669     -241.978203227     -241.978203231
  Force two-norm initial, final = 0.0233321 0.0030777
  Force max component initial, final = 0.0114548 0.000912581
  Final line search alpha, max atom move = 0 0
  Iterations, force evaluations = 12 123

Pair  time (%) = 0.00190391 (72.6969)
Neigh time (%) = 0 (0)
Comm  time (%) = 0.000157071 (5.99744)
Outpt time (%) = 7.19643e-05 (2.74781)
Other time (%) = 0.000486024 (18.5578)

Nlocal:    82 ave 82 max 82 min
Histogram: 1 0 0 0 0 0 0 0 0 0
Nghost:    185 ave 185 max 185 min
Histogram: 1 0 0 0 0 0 0 0 0 0
Neighs:    718 ave 718 max 718 min
Histogram: 1 0 0 0 0 0 0 0 0 0

Total # of neighbors = 718
Ave neighs/atom = 8.7561
Neighbor list builds = 0
Dangerous builds = 0
        # write_dump all atom ${dumpfile}
        next i
jump SELF loop1
        displace_atoms upper move ${xstep1} 0.0 0.0 units lattice
        displace_atoms upper move 0.002 0.0 0.0 units lattice
        min_style ${style}
        min_style hftn
        minimize ${etol} ${ftol} ${maxiter} ${maxeval}
        minimize 1e-12 ${ftol} ${maxiter} ${maxeval}
        minimize 1e-12 1e-08 ${maxiter} ${maxeval}
        minimize 1e-12 1e-08 10000 ${maxeval}
        minimize 1e-12 1e-08 10000 20000
WARNING: Resetting reneighboring criteria during minimization (../min.cpp:168)
Memory usage per processor = 4.85169 Mbytes
Step Temp PotEng Lx Ly Lz 
     185            0   -241.97645    2.2449075    38.890759    1.1224537 
     186            0   -241.97645    2.2449075    38.890759    1.1224537 
     187            0   -241.97645    2.2449075    38.890759    1.1224537 
Loop time of 0.0055121 on 1 procs for 1 steps with 82 atoms

Minimization stats:
  Stopping criterion = force tolerance
  Energy initial, next-to-last, final = 
        -241.976445786     -241.976445786     -241.976446484
  Force two-norm initial, final = 0.0110909 1.75637e-09
  Force max component initial, final = 0.00536603 7.49039e-10
  Final line search alpha, max atom move = 0 0
  Iterations, force evaluations = 1 193

Pair  time (%) = 0.00433358 (78.6193)
Neigh time (%) = 0 (0)
Comm  time (%) = 0.000250395 (4.54264)
Outpt time (%) = 9.92918e-06 (0.180134)
Other time (%) = 0.000918199 (16.6579)

Nlocal:    82 ave 82 max 82 min
Histogram: 1 0 0 0 0 0 0 0 0 0
Nghost:    185 ave 185 max 185 min
Histogram: 1 0 0 0 0 0 0 0 0 0
Neighs:    718 ave 718 max 718 min
Histogram: 1 0 0 0 0 0 0 0 0 0

Total # of neighbors = 718
Ave neighs/atom = 8.7561
Neighbor list builds = 0
Dangerous builds = 0
        # write_dump all atom ${dumpfile}
        next i
jump SELF loop1
        displace_atoms upper move ${xstep1} 0.0 0.0 units lattice
        displace_atoms upper move 0.002 0.0 0.0 units lattice
        min_style ${style}
        min_style hftn
        minimize ${etol} ${ftol} ${maxiter} ${maxeval}
        minimize 1e-12 ${ftol} ${maxiter} ${maxeval}
        minimize 1e-12 1e-08 ${maxiter} ${maxeval}
        minimize 1e-12 1e-08 10000 ${maxeval}
        minimize 1e-12 1e-08 10000 20000
WARNING: Resetting reneighboring criteria during minimization (../min.cpp:168)
Memory usage per processor = 4.85169 Mbytes
Step Temp PotEng Lx Ly Lz 
     187            0   -241.97463    2.2449075    38.890998    1.1224537 
     188            0   -241.97463    2.2449075    38.890998    1.1224537 
     189            0   -241.97463    2.2449075    38.890998    1.1224537 
Loop time of 0.00398801 on 1 procs for 1 steps with 82 atoms

Minimization stats:
  Stopping criterion = force tolerance
  Energy initial, next-to-last, final = 
        -241.974627385     -241.974627385     -241.974628864
  Force two-norm initial, final = 0.0104165 5.70481e-11
  Force max component initial, final = 0.00520825 1.81801e-11
  Final line search alpha, max atom move = 0 0
  Iterations, force evaluations = 1 150

Pair  time (%) = 0.00307631 (77.1389)
Neigh time (%) = 0 (0)
Comm  time (%) = 0.000203273 (5.09709)
Outpt time (%) = 9.98937e-06 (0.250485)
Other time (%) = 0.000698441 (17.5135)

Nlocal:    82 ave 82 max 82 min
Histogram: 1 0 0 0 0 0 0 0 0 0
Nghost:    175 ave 175 max 175 min
Histogram: 1 0 0 0 0 0 0 0 0 0
Neighs:    718 ave 718 max 718 min
Histogram: 1 0 0 0 0 0 0 0 0 0

Total # of neighbors = 718
Ave neighs/atom = 8.7561
Neighbor list builds = 0
Dangerous builds = 0
        # write_dump all atom ${dumpfile}
        next i
jump SELF loop1
        displace_atoms upper move ${xstep1} 0.0 0.0 units lattice
        displace_atoms upper move 0.002 0.0 0.0 units lattice
        min_style ${style}
        min_style hftn
        minimize ${etol} ${ftol} ${maxiter} ${maxeval}
        minimize 1e-12 ${ftol} ${maxiter} ${maxeval}
        minimize 1e-12 1e-08 ${maxiter} ${maxeval}
        minimize 1e-12 1e-08 10000 ${maxeval}
        minimize 1e-12 1e-08 10000 20000
WARNING: Resetting reneighboring criteria during minimization (../min.cpp:168)
Memory usage per processor = 4.85169 Mbytes
Step Temp PotEng Lx Ly Lz 
     189            0   -241.97274    2.2449075    38.891141    1.1224537 
     190            0   -241.97274    2.2449075    38.891141    1.1224537 
     191            0   -241.97274    2.2449075    38.891141    1.1224537 
Loop time of 0.00324599 on 1 procs for 1 steps with 82 atoms

Minimization stats:
  Stopping criterion = force tolerance
  Energy initial, next-to-last, final = 
        -241.972741299     -241.972741299     -241.972742819
  Force two-norm initial, final = 0.0114555 7.50365e-11
  Force max component initial, final = 0.00572775 3.17483e-11
  Final line search alpha, max atom move = 0 0
  Iterations, force evaluations = 1 148

Pair  time (%) = 0.00232216 (71.5392)
Neigh time (%) = 0 (0)
Comm  time (%) = 0.00019356 (5.96306)
Outpt time (%) = 1.09695e-05 (0.337939)
Other time (%) = 0.000719306 (22.1598)

Nlocal:    82 ave 82 max 82 min
Histogram: 1 0 0 0 0 0 0 0 0 0
Nghost:    175 ave 175 max 175 min
Histogram: 1 0 0 0 0 0 0 0 0 0
Neighs:    718 ave 718 max 718 min
Histogram: 1 0 0 0 0 0 0 0 0 0

Total # of neighbors = 718
Ave neighs/atom = 8.7561
Neighbor list builds = 0
Dangerous builds = 0
        # write_dump all atom ${dumpfile}
        next i
jump SELF loop1
        displace_atoms upper move ${xstep1} 0.0 0.0 units lattice
        displace_atoms upper move 0.002 0.0 0.0 units lattice
        min_style ${style}
        min_style hftn
        minimize ${etol} ${ftol} ${maxiter} ${maxeval}
        minimize 1e-12 ${ftol} ${maxiter} ${maxeval}
        minimize 1e-12 1e-08 ${maxiter} ${maxeval}
        minimize 1e-12 1e-08 10000 ${maxeval}
        minimize 1e-12 1e-08 10000 20000
WARNING: Resetting reneighboring criteria during minimization (../min.cpp:168)
Memory usage per processor = 4.85169 Mbytes
Step Temp PotEng Lx Ly Lz 
     191            0    -241.9708    2.2449075    38.891298    1.1224537 
     192            0    -241.9708    2.2449075    38.891298    1.1224537 
     193            0    -241.9708    2.2449075    38.891298    1.1224537 
     194            0    -241.9708    2.2449075    38.891298    1.1224537 
     195            0    -241.9708    2.2449075    38.891298    1.1224537 
     196            0    -241.9708    2.2449075    38.891298    1.1224537 
     197            0    -241.9708    2.2449075    38.891298    1.1224537 
     198            0    -241.9708    2.2449075    38.891298    1.1224537 
     199            0    -241.9708    2.2449075    38.891298    1.1224537 
     200            0    -241.9708    2.2449075    38.891298    1.1224537 
     201            0    -241.9708    2.2449075    38.891298    1.1224537 
Loop time of 0.00354898 on 1 procs for 9 steps with 82 atoms

Minimization stats:
  Stopping criterion = energy tolerance
  Energy initial, next-to-last, final = 
        -241.970795358     -241.970795358     -241.970795656
  Force two-norm initial, final = 0.0124001 0.00832935
  Force max component initial, final = 0.00620004 0.00410529
  Final line search alpha, max atom move = 0 0
  Iterations, force evaluations = 9 130

Pair  time (%) = 0.00276981 (78.0452)
Neigh time (%) = 0 (0)
Comm  time (%) = 0.000190999 (5.38181)
Outpt time (%) = 6.61061e-05 (1.86268)
Other time (%) = 0.000522066 (14.7103)

Nlocal:    82 ave 82 max 82 min
Histogram: 1 0 0 0 0 0 0 0 0 0
Nghost:    175 ave 175 max 175 min
Histogram: 1 0 0 0 0 0 0 0 0 0
Neighs:    718 ave 718 max 718 min
Histogram: 1 0 0 0 0 0 0 0 0 0

Total # of neighbors = 718
Ave neighs/atom = 8.7561
Neighbor list builds = 0
Dangerous builds = 0
        # write_dump all atom ${dumpfile}
        next i
jump SELF loop1
        displace_atoms upper move ${xstep1} 0.0 0.0 units lattice
        displace_atoms upper move 0.002 0.0 0.0 units lattice
        min_style ${style}
        min_style hftn
        minimize ${etol} ${ftol} ${maxiter} ${maxeval}
        minimize 1e-12 ${ftol} ${maxiter} ${maxeval}
        minimize 1e-12 1e-08 ${maxiter} ${maxeval}
        minimize 1e-12 1e-08 10000 ${maxeval}
        minimize 1e-12 1e-08 10000 20000
WARNING: Resetting reneighboring criteria during minimization (../min.cpp:168)
Memory usage per processor = 4.85169 Mbytes
Step Temp PotEng Lx Ly Lz 
     201            0   -241.96878    2.2449075    38.891298    1.1224537 
     202            0   -241.96878    2.2449075    38.891298    1.1224537 
     203            0   -241.96878    2.2449075    38.891298    1.1224537 
Loop time of 0.00353606 on 1 procs for 1 steps with 82 atoms

Minimization stats:
  Stopping criterion = force tolerance
  Energy initial, next-to-last, final = 
        -241.968777552     -241.968777552     -241.968781292
  Force two-norm initial, final = 0.021729 1.15195e-09
  Force max component initial, final = 0.0108419 5.81295e-10
  Final line search alpha, max atom move = 0 0
  Iterations, force evaluations = 1 142

Pair  time (%) = 0.00209968 (59.3789)
Neigh time (%) = 0 (0)
Comm  time (%) = 0.000629207 (17.794)
Outpt time (%) = 4.40591e-05 (1.24599)
Other time (%) = 0.000763122 (21.5811)

Nlocal:    82 ave 82 max 82 min
Histogram: 1 0 0 0 0 0 0 0 0 0
Nghost:    175 ave 175 max 175 min
Histogram: 1 0 0 0 0 0 0 0 0 0
Neighs:    718 ave 718 max 718 min
Histogram: 1 0 0 0 0 0 0 0 0 0

Total # of neighbors = 718
Ave neighs/atom = 8.7561
Neighbor list builds = 0
Dangerous builds = 0
        # write_dump all atom ${dumpfile}
        next i
jump SELF loop1
        displace_atoms upper move ${xstep1} 0.0 0.0 units lattice
        displace_atoms upper move 0.002 0.0 0.0 units lattice
        min_style ${style}
        min_style hftn
        minimize ${etol} ${ftol} ${maxiter} ${maxeval}
        minimize 1e-12 ${ftol} ${maxiter} ${maxeval}
        minimize 1e-12 1e-08 ${maxiter} ${maxeval}
        minimize 1e-12 1e-08 10000 ${maxeval}
        minimize 1e-12 1e-08 10000 20000
WARNING: Resetting reneighboring criteria during minimization (../min.cpp:168)
Memory usage per processor = 4.85169 Mbytes
Step Temp PotEng Lx Ly Lz 
     203            0   -241.96671    2.2449075    38.891651    1.1224537 
     204            0   -241.96671    2.2449075    38.891651    1.1224537 
     205            0   -241.96671    2.2449075    38.891651    1.1224537 
Loop time of 0.00329089 on 1 procs for 1 steps with 82 atoms

Minimization stats:
  Stopping criterion = force tolerance
  Energy initial, next-to-last, final = 
        -241.966705933     -241.966705933     -241.966706205
  Force two-norm initial, final = 0.0143644 1.5386e-10
  Force max component initial, final = 0.00718218 7.57043e-11
  Final line search alpha, max atom move = 0 0
  Iterations, force evaluations = 1 146

Pair  time (%) = 0.00239259 (72.7035)
Neigh time (%) = 0 (0)
Comm  time (%) = 0.000190942 (5.80216)
Outpt time (%) = 1.20554e-05 (0.366327)
Other time (%) = 0.0006953 (21.128)

Nlocal:    82 ave 82 max 82 min
Histogram: 1 0 0 0 0 0 0 0 0 0
Nghost:    175 ave 175 max 175 min
Histogram: 1 0 0 0 0 0 0 0 0 0
Neighs:    718 ave 718 max 718 min
Histogram: 1 0 0 0 0 0 0 0 0 0

Total # of neighbors = 718
Ave neighs/atom = 8.7561
Neighbor list builds = 0
Dangerous builds = 0
        # write_dump all atom ${dumpfile}
        next i
jump SELF loop1
        displace_atoms upper move ${xstep1} 0.0 0.0 units lattice
        displace_atoms upper move 0.002 0.0 0.0 units lattice
        min_style ${style}
        min_style hftn
        minimize ${etol} ${ftol} ${maxiter} ${maxeval}
        minimize 1e-12 ${ftol} ${maxiter} ${maxeval}
        minimize 1e-12 1e-08 ${maxiter} ${maxeval}
        minimize 1e-12 1e-08 10000 ${maxeval}
        minimize 1e-12 1e-08 10000 20000
WARNING: Resetting reneighboring criteria during minimization (../min.cpp:168)
Memory usage per processor = 4.85169 Mbytes
Step Temp PotEng Lx Ly Lz 
     205            0   -241.96457    2.2449075    38.891847    1.1224537 
     206            0   -241.96457    2.2449075    38.891847    1.1224537 
     207            0   -241.96457    2.2449075    38.891847    1.1224537 
Loop time of 0.0038309 on 1 procs for 1 steps with 82 atoms

Minimization stats:
  Stopping criterion = force tolerance
  Energy initial, next-to-last, final = 
         -241.96456607      -241.96456607     -241.964569532
  Force two-norm initial, final = 0.0153492 2.53923e-10
  Force max component initial, final = 0.0076746 1.13343e-10
  Final line search alpha, max atom move = 0 0
  Iterations, force evaluations = 1 144

Pair  time (%) = 0.00287122 (74.9488)
Neigh time (%) = 0 (0)
Comm  time (%) = 0.000212216 (5.53959)
Outpt time (%) = 1.29732e-05 (0.338646)
Other time (%) = 0.000734495 (19.1729)

Nlocal:    82 ave 82 max 82 min
Histogram: 1 0 0 0 0 0 0 0 0 0
Nghost:    175 ave 175 max 175 min
Histogram: 1 0 0 0 0 0 0 0 0 0
Neighs:    718 ave 718 max 718 min
Histogram: 1 0 0 0 0 0 0 0 0 0

Total # of neighbors = 718
Ave neighs/atom = 8.7561
Neighbor list builds = 0
Dangerous builds = 0
        # write_dump all atom ${dumpfile}
        next i
jump SELF loop1
        displace_atoms upper move ${xstep1} 0.0 0.0 units lattice
        displace_atoms upper move 0.002 0.0 0.0 units lattice
        min_style ${style}
        min_style hftn
        minimize ${etol} ${ftol} ${maxiter} ${maxeval}
        minimize 1e-12 ${ftol} ${maxiter} ${maxeval}
        minimize 1e-12 1e-08 ${maxiter} ${maxeval}
        minimize 1e-12 1e-08 10000 ${maxeval}
        minimize 1e-12 1e-08 10000 20000
WARNING: Resetting reneighboring criteria during minimization (../min.cpp:168)
Memory usage per processor = 4.85169 Mbytes
Step Temp PotEng Lx Ly Lz 
     207            0   -241.96236    2.2449075    38.892055    1.1224537 
     208            0   -241.96237    2.2449075    38.892055    1.1224537 
     209            0   -241.96237    2.2449075    38.892055    1.1224537 
Loop time of 0.00285097 on 1 procs for 1 steps with 82 atoms

Minimization stats:
  Stopping criterion = force tolerance
  Energy initial, next-to-last, final = 
        -241.962364519     -241.962364519     -241.962366954
  Force two-norm initial, final = 0.0163329 2.90124e-10
  Force max component initial, final = 0.00816643 1.27458e-10
  Final line search alpha, max atom move = 0 0
  Iterations, force evaluations = 1 144

Pair  time (%) = 0.00207013 (72.6115)
Neigh time (%) = 0 (0)
Comm  time (%) = 0.000155121 (5.44098)
Outpt time (%) = 9.07341e-07 (0.0318257)
Other time (%) = 0.000624808 (21.9157)

Nlocal:    82 ave 82 max 82 min
Histogram: 1 0 0 0 0 0 0 0 0 0
Nghost:    175 ave 175 max 175 min
Histogram: 1 0 0 0 0 0 0 0 0 0
Neighs:    718 ave 718 max 718 min
Histogram: 1 0 0 0 0 0 0 0 0 0

Total # of neighbors = 718
Ave neighs/atom = 8.7561
Neighbor list builds = 0
Dangerous builds = 0
        # write_dump all atom ${dumpfile}
        next i
jump SELF loop1
        displace_atoms upper move ${xstep1} 0.0 0.0 units lattice
        displace_atoms upper move 0.002 0.0 0.0 units lattice
        min_style ${style}
        min_style hftn
        minimize ${etol} ${ftol} ${maxiter} ${maxeval}
        minimize 1e-12 ${ftol} ${maxiter} ${maxeval}
        minimize 1e-12 1e-08 ${maxiter} ${maxeval}
        minimize 1e-12 1e-08 10000 ${maxeval}
        minimize 1e-12 1e-08 10000 20000
WARNING: Resetting reneighboring criteria during minimization (../min.cpp:168)
Memory usage per processor = 4.85169 Mbytes
Step Temp PotEng Lx Ly Lz 
     209            0   -241.96011    2.2449075    38.892277    1.1224537 
     210            0   -241.96011    2.2449075    38.892277    1.1224537 
     211            0   -241.96011    2.2449075    38.892277    1.1224537 
     212            0   -241.96011    2.2449075    38.892277    1.1224537 
     213            0   -241.96011    2.2449075    38.892277    1.1224537 
     214            0   -241.96011    2.2449075    38.892277    1.1224537 
     215            0   -241.96011    2.2449075    38.892277    1.1224537 
     216            0   -241.96011    2.2449075    38.892277    1.1224537 
     217            0   -241.96011    2.2449075    38.892277    1.1224537 
     218            0   -241.96011    2.2449075    38.892277    1.1224537 
Loop time of 0.00430296 on 1 procs for 8 steps with 82 atoms

Minimization stats:
  Stopping criterion = energy tolerance
  Energy initial, next-to-last, final = 
        -241.960106904     -241.960106904     -241.960106904
  Force two-norm initial, final = 0.0172064 0.017206
  Force max component initial, final = 0.00860318 0.00860299
  Final line search alpha, max atom move = 0 0
  Iterations, force evaluations = 8 123

Pair  time (%) = 0.00291349 (67.709)
Neigh time (%) = 0 (0)
Comm  time (%) = 0.00021805 (5.06743)
Outpt time (%) = 7.30543e-05 (1.69777)
Other time (%) = 0.00109837 (25.5258)

Nlocal:    82 ave 82 max 82 min
Histogram: 1 0 0 0 0 0 0 0 0 0
Nghost:    175 ave 175 max 175 min
Histogram: 1 0 0 0 0 0 0 0 0 0
Neighs:    718 ave 718 max 718 min
Histogram: 1 0 0 0 0 0 0 0 0 0

Total # of neighbors = 718
Ave neighs/atom = 8.7561
Neighbor list builds = 0
Dangerous builds = 0
        # write_dump all atom ${dumpfile}
        next i
jump SELF loop1
        displace_atoms upper move ${xstep1} 0.0 0.0 units lattice
        displace_atoms upper move 0.002 0.0 0.0 units lattice
        min_style ${style}
        min_style hftn
        minimize ${etol} ${ftol} ${maxiter} ${maxeval}
        minimize 1e-12 ${ftol} ${maxiter} ${maxeval}
        minimize 1e-12 1e-08 ${maxiter} ${maxeval}
        minimize 1e-12 1e-08 10000 ${maxeval}
        minimize 1e-12 1e-08 10000 20000
WARNING: Resetting reneighboring criteria during minimization (../min.cpp:168)
Memory usage per processor = 4.85169 Mbytes
Step Temp PotEng Lx Ly Lz 
     218            0   -241.95778    2.2449075    38.892277    1.1224537 
     219            0   -241.95779    2.2449075    38.892277    1.1224537 
     220            0   -241.95779    2.2449075    38.892277    1.1224537 
Loop time of 0.0030391 on 1 procs for 1 steps with 82 atoms

Minimization stats:
  Stopping criterion = force tolerance
  Energy initial, next-to-last, final = 
          -241.9577756       -241.9577756     -241.957785879
  Force two-norm initial, final = 0.035489 5.35186e-09
  Force max component initial, final = 0.0177445 2.79686e-09
  Final line search alpha, max atom move = 0 0
  Iterations, force evaluations = 1 138

Pair  time (%) = 0.00218496 (71.8951)
Neigh time (%) = 0 (0)
Comm  time (%) = 0.000178817 (5.88388)
Outpt time (%) = 9.05024e-06 (0.297794)
Other time (%) = 0.000666267 (21.9232)

Nlocal:    82 ave 82 max 82 min
Histogram: 1 0 0 0 0 0 0 0 0 0
Nghost:    175 ave 175 max 175 min
Histogram: 1 0 0 0 0 0 0 0 0 0
Neighs:    718 ave 718 max 718 min
Histogram: 1 0 0 0 0 0 0 0 0 0

Total # of neighbors = 718
Ave neighs/atom = 8.7561
Neighbor list builds = 0
Dangerous builds = 0
        # write_dump all atom ${dumpfile}
        next i
jump SELF loop1
        displace_atoms upper move ${xstep1} 0.0 0.0 units lattice
        displace_atoms upper move 0.002 0.0 0.0 units lattice
        min_style ${style}
        min_style hftn
        minimize ${etol} ${ftol} ${maxiter} ${maxeval}
        minimize 1e-12 ${ftol} ${maxiter} ${maxeval}
        minimize 1e-12 1e-08 ${maxiter} ${maxeval}
        minimize 1e-12 1e-08 10000 ${maxeval}
        minimize 1e-12 1e-08 10000 20000
WARNING: Resetting reneighboring criteria during minimization (../min.cpp:168)
Memory usage per processor = 4.85169 Mbytes
Step Temp PotEng Lx Ly Lz 
     220            0    -241.9554    2.2449075    38.892756    1.1224537 
     221            0    -241.9554    2.2449075    38.892756    1.1224537 
     222            0    -241.9554    2.2449075    38.892756    1.1224537 
Loop time of 0.00694602 on 1 procs for 1 steps with 82 atoms

Minimization stats:
  Stopping criterion = force tolerance
  Energy initial, next-to-last, final = 
         -241.95540005      -241.95540005     -241.955402831
  Force two-norm initial, final = 0.0191195 6.56808e-10
  Force max component initial, final = 0.00955977 2.39346e-10
  Final line search alpha, max atom move = 0 0
  Iterations, force evaluations = 1 142

Pair  time (%) = 0.00219049 (31.5359)
Neigh time (%) = 0 (0)
Comm  time (%) = 0.00407881 (58.7216)
Outpt time (%) = 1.0052e-05 (0.144716)
Other time (%) = 0.000666666 (9.59781)

Nlocal:    82 ave 82 max 82 min
Histogram: 1 0 0 0 0 0 0 0 0 0
Nghost:    175 ave 175 max 175 min
Histogram: 1 0 0 0 0 0 0 0 0 0
Neighs:    718 ave 718 max 718 min
Histogram: 1 0 0 0 0 0 0 0 0 0

Total # of neighbors = 718
Ave neighs/atom = 8.7561
Neighbor list builds = 0
Dangerous builds = 0
        # write_dump all atom ${dumpfile}
        next i
jump SELF loop1
        displace_atoms upper move ${xstep1} 0.0 0.0 units lattice
        displace_atoms upper move 0.002 0.0 0.0 units lattice
        min_style ${style}
        min_style hftn
        minimize ${etol} ${ftol} ${maxiter} ${maxeval}
        minimize 1e-12 ${ftol} ${maxiter} ${maxeval}
        minimize 1e-12 1e-08 ${maxiter} ${maxeval}
        minimize 1e-12 1e-08 10000 ${maxeval}
        minimize 1e-12 1e-08 10000 20000
WARNING: Resetting reneighboring criteria during minimization (../min.cpp:168)
Memory usage per processor = 4.85169 Mbytes
Step Temp PotEng Lx Ly Lz 
     222            0   -241.95296    2.2449075    38.893014    1.1224537 
     223            0   -241.95296    2.2449075    38.893014    1.1224537 
     224            0   -241.95296    2.2449075    38.893014    1.1224537 
Loop time of 0.00405389 on 1 procs for 1 steps with 82 atoms

Minimization stats:
  Stopping criterion = force tolerance
  Energy initial, next-to-last, final = 
        -241.952960265     -241.952960265     -241.952961992
  Force two-norm initial, final = 0.0200055 6.4074e-10
  Force max component initial, final = 0.0100028 3.27288e-10
  Final line search alpha, max atom move = 0 0
  Iterations, force evaluations = 1 142

Pair  time (%) = 0.00310994 (76.715)
Neigh time (%) = 0 (0)
Comm  time (%) = 0.00021556 (5.31738)
Outpt time (%) = 9.9882e-06 (0.246386)
Other time (%) = 0.000718398 (17.7212)

Nlocal:    82 ave 82 max 82 min
Histogram: 1 0 0 0 0 0 0 0 0 0
Nghost:    175 ave 175 max 175 min
Histogram: 1 0 0 0 0 0 0 0 0 0
Neighs:    718 ave 718 max 718 min
Histogram: 1 0 0 0 0 0 0 0 0 0

Total # of neighbors = 718
Ave neighs/atom = 8.7561
Neighbor list builds = 0
Dangerous builds = 0
        # write_dump all atom ${dumpfile}
        next i
jump SELF loop1
        displace_atoms upper move ${xstep1} 0.0 0.0 units lattice
        displace_atoms upper move 0.002 0.0 0.0 units lattice
        min_style ${style}
        min_style hftn
        minimize ${etol} ${ftol} ${maxiter} ${maxeval}
        minimize 1e-12 ${ftol} ${maxiter} ${maxeval}
        minimize 1e-12 1e-08 ${maxiter} ${maxeval}
        minimize 1e-12 1e-08 10000 ${maxeval}
        minimize 1e-12 1e-08 10000 20000
WARNING: Resetting reneighboring criteria during minimization (../min.cpp:168)
Memory usage per processor = 4.85169 Mbytes
Step Temp PotEng Lx Ly Lz 
     224            0   -241.95046    2.2449075    38.893284    1.1224537 
     225            0   -241.95046    2.2449075    38.893284    1.1224537 
     226            0   -241.95046    2.2449075    38.893284    1.1224537 
     227            0   -241.95046    2.2449075    38.893284    1.1224537 
     228            0   -241.95046    2.2449075    38.893284    1.1224537 
     229            0   -241.95046    2.2449075    38.893284    1.1224537 
     230            0   -241.95046    2.2449075    38.893284    1.1224537 
     231            0   -241.95046    2.2449075    38.893284    1.1224537 
     232            0   -241.95046    2.2449075    38.893284    1.1224537 
     233            0   -241.95046    2.2449075    38.893284    1.1224537 
     234            0   -241.95046    2.2449075    38.893284    1.1224537 
     235            0   -241.95046    2.2449075    38.893284    1.1224537 
[...]
        displace_atoms upper move 0.002 0.0 0.0 units lattice
        min_style ${style}
        min_style hftn
        minimize ${etol} ${ftol} ${maxiter} ${maxeval}
        minimize 1e-12 ${ftol} ${maxiter} ${maxeval}
        minimize 1e-12 1e-08 ${maxiter} ${maxeval}
        minimize 1e-12 1e-08 10000 ${maxeval}
        minimize 1e-12 1e-08 10000 20000
WARNING: Resetting reneighboring criteria during minimization (../min.cpp:168)
Memory usage per processor = 4.85169 Mbytes
Step Temp PotEng Lx Ly Lz 
    2961            0   -241.99726    2.2449075    38.891261    1.1224537 
    2962            0   -241.99726    2.2449075    38.891261    1.1224537 
    2963            0   -241.99726    2.2449075    38.891261    1.1224537 
    2964            0   -241.99726    2.2449075    38.891261    1.1224537 
    2965            0   -241.99726    2.2449075    38.891261    1.1224537 
    2966            0   -241.99726    2.2449075    38.891261    1.1224537 
    2967            0   -241.99726    2.2449075    38.891261    1.1224537 
    2968            0   -241.99726    2.2449075    38.891261    1.1224537 
    2969            0   -241.99726    2.2449075    38.891261    1.1224537 
    2970            0   -241.99726    2.2449075    38.891261    1.1224537 
    2971            0   -241.99726    2.2449075    38.891261    1.1224537 
    2972            0   -241.99726    2.2449075    38.891261    1.1224537 
    2973            0   -241.99726    2.2449075    38.891261    1.1224537 
    2974            0   -241.99726    2.2449075    38.891261    1.1224537 
    2975            0   -241.99726    2.2449075    38.891261    1.1224537 
Loop time of 0.00714791 on 1 procs for 13 steps with 82 atoms

Minimization stats:
  Stopping criterion = energy tolerance
  Energy initial, next-to-last, final = 
        -241.997260698     -241.997261612     -241.997261612
  Force two-norm initial, final = 0.0276978 0.016179
  Force max component initial, final = 0.0138463 0.00784822
  Final line search alpha, max atom move = 0 0
  Iterations, force evaluations = 13 140

Pair  time (%) = 0.00604269 (84.5379)
Neigh time (%) = 0 (0)
Comm  time (%) = 0.000182011 (2.54636)
Outpt time (%) = 0.000281162 (3.93348)
Other time (%) = 0.000642045 (8.98228)

Nlocal:    82 ave 82 max 82 min
Histogram: 1 0 0 0 0 0 0 0 0 0
Nghost:    185 ave 185 max 185 min
Histogram: 1 0 0 0 0 0 0 0 0 0
Neighs:    718 ave 718 max 718 min
Histogram: 1 0 0 0 0 0 0 0 0 0

Total # of neighbors = 718
Ave neighs/atom = 8.7561
Neighbor list builds = 0
Dangerous builds = 0
        # write_dump all atom ${dumpfile}
        next i
jump SELF loop1
        displace_atoms upper move ${xstep1} 0.0 0.0 units lattice
        displace_atoms upper move 0.002 0.0 0.0 units lattice
        min_style ${style}
        min_style hftn
        minimize ${etol} ${ftol} ${maxiter} ${maxeval}
        minimize 1e-12 ${ftol} ${maxiter} ${maxeval}
        minimize 1e-12 1e-08 ${maxiter} ${maxeval}
        minimize 1e-12 1e-08 10000 ${maxeval}
        minimize 1e-12 1e-08 10000 20000
WARNING: Resetting reneighboring criteria during minimization (../min.cpp:168)
Memory usage per processor = 4.85169 Mbytes
Step Temp PotEng Lx Ly Lz 
    2975            0   -241.99789    2.2449075     38.89126    1.1224537 
    2976            0   -241.99789    2.2449075     38.89126    1.1224537 
    2977            0   -241.99789    2.2449075     38.89126    1.1224537 
    2978            0   -241.99789    2.2449075     38.89126    1.1224537 
    2979            0   -241.99789    2.2449075     38.89126    1.1224537 
    2980            0   -241.99789    2.2449075     38.89126    1.1224537 
    2981            0   -241.99789    2.2449075     38.89126    1.1224537 
    2982            0   -241.99789    2.2449075     38.89126    1.1224537 
    2983            0   -241.99789    2.2449075     38.89126    1.1224537 
    2984            0   -241.99789    2.2449075     38.89126    1.1224537 
    2985            0   -241.99789    2.2449075     38.89126    1.1224537 
Loop time of 0.00288399 on 1 procs for 9 steps with 82 atoms

Minimization stats:
  Stopping criterion = energy tolerance
  Energy initial, next-to-last, final = 
        -241.997888866     -241.997888866     -241.997889353
  Force two-norm initial, final = 0.0246097 0.0101284
  Force max component initial, final = 0.0121482 0.00436204
  Final line search alpha, max atom move = 0 0
  Iterations, force evaluations = 9 102

Pair  time (%) = 0.00205268 (71.175)
Neigh time (%) = 0 (0)
Comm  time (%) = 0.000243916 (8.45757)
Outpt time (%) = 7.57334e-05 (2.62599)
Other time (%) = 0.000511662 (17.7414)

Nlocal:    82 ave 82 max 82 min
Histogram: 1 0 0 0 0 0 0 0 0 0
Nghost:    185 ave 185 max 185 min
Histogram: 1 0 0 0 0 0 0 0 0 0
Neighs:    718 ave 718 max 718 min
Histogram: 1 0 0 0 0 0 0 0 0 0

Total # of neighbors = 718
Ave neighs/atom = 8.7561
Neighbor list builds = 0
Dangerous builds = 0
        # write_dump all atom ${dumpfile}
        next i
jump SELF loop1
        displace_atoms upper move ${xstep1} 0.0 0.0 units lattice
        displace_atoms upper move 0.002 0.0 0.0 units lattice
        min_style ${style}
        min_style hftn
        minimize ${etol} ${ftol} ${maxiter} ${maxeval}
        minimize 1e-12 ${ftol} ${maxiter} ${maxeval}
        minimize 1e-12 1e-08 ${maxiter} ${maxeval}
        minimize 1e-12 1e-08 10000 ${maxeval}
        minimize 1e-12 1e-08 10000 20000
WARNING: Resetting reneighboring criteria during minimization (../min.cpp:168)
Memory usage per processor = 4.85169 Mbytes
Step Temp PotEng Lx Ly Lz 
    2985            0   -241.99846    2.2449075    38.891259    1.1224537 
    2986            0   -241.99846    2.2449075    38.891259    1.1224537 
    2987            0   -241.99846    2.2449075    38.891259    1.1224537 
    2988            0   -241.99846    2.2449075    38.891259    1.1224537 
    2989            0   -241.99846    2.2449075    38.891259    1.1224537 
    2990            0   -241.99846    2.2449075    38.891259    1.1224537 
    2991            0   -241.99846    2.2449075    38.891259    1.1224537 
    2992            0   -241.99846    2.2449075    38.891259    1.1224537 
    2993            0   -241.99846    2.2449075    38.891259    1.1224537 
    2994            0   -241.99846    2.2449075    38.891259    1.1224537 
    2995            0   -241.99846    2.2449075    38.891259    1.1224537 
Loop time of 0.00236493 on 1 procs for 9 steps with 82 atoms

Minimization stats:
  Stopping criterion = energy tolerance
  Energy initial, next-to-last, final = 
        -241.998455972     -241.998455972     -241.998456278
  Force two-norm initial, final = 0.0170943 0.0143553
  Force max component initial, final = 0.00732372 0.00568604
  Final line search alpha, max atom move = 0 0
  Iterations, force evaluations = 9 102

Pair  time (%) = 0.00175904 (74.3804)
Neigh time (%) = 0 (0)
Comm  time (%) = 0.000105413 (4.45735)
Outpt time (%) = 6.16626e-05 (2.60738)
Other time (%) = 0.00043881 (18.5549)

Nlocal:    82 ave 82 max 82 min
Histogram: 1 0 0 0 0 0 0 0 0 0
Nghost:    185 ave 185 max 185 min
Histogram: 1 0 0 0 0 0 0 0 0 0
Neighs:    718 ave 718 max 718 min
Histogram: 1 0 0 0 0 0 0 0 0 0

Total # of neighbors = 718
Ave neighs/atom = 8.7561
Neighbor list builds = 0
Dangerous builds = 0
        # write_dump all atom ${dumpfile}
        next i
jump SELF loop1
        displace_atoms upper move ${xstep1} 0.0 0.0 units lattice
        displace_atoms upper move 0.002 0.0 0.0 units lattice
        min_style ${style}
        min_style hftn
        minimize ${etol} ${ftol} ${maxiter} ${maxeval}
        minimize 1e-12 ${ftol} ${maxiter} ${maxeval}
        minimize 1e-12 1e-08 ${maxiter} ${maxeval}
        minimize 1e-12 1e-08 10000 ${maxeval}
        minimize 1e-12 1e-08 10000 20000
WARNING: Resetting reneighboring criteria during minimization (../min.cpp:168)
Memory usage per processor = 4.85169 Mbytes
Step Temp PotEng Lx Ly Lz 
    2995            0   -241.99896    2.2449075    38.891259    1.1224537 
    2996            0   -241.99896    2.2449075    38.891259    1.1224537 
    2997            0   -241.99896    2.2449075    38.891259    1.1224537 
    2998            0   -241.99896    2.2449075    38.891259    1.1224537 
    2999            0   -241.99896    2.2449075    38.891259    1.1224537 
    3000            0   -241.99896    2.2449075    38.891259    1.1224537 
    3001            0   -241.99896    2.2449075    38.891259    1.1224537 
    3002            0   -241.99896    2.2449075    38.891259    1.1224537 
    3003            0   -241.99896    2.2449075    38.891259    1.1224537 
    3004            0   -241.99896    2.2449075    38.891259    1.1224537 
    3005            0   -241.99896    2.2449075    38.891259    1.1224537 
    3006            0   -241.99896    2.2449075    38.891259    1.1224537 
    3007            0   -241.99896    2.2449075    38.891259    1.1224537 
    3008            0   -241.99896    2.2449075    38.891259    1.1224537 
    3009            0   -241.99896    2.2449075    38.891259    1.1224537 
    3010            0   -241.99896    2.2449075    38.891259    1.1224537 
    3011            0   -241.99896    2.2449075    38.891259    1.1224537 
Loop time of 0.00315793 on 1 procs for 15 steps with 82 atoms

Minimization stats:
  Stopping criterion = energy tolerance
  Energy initial, next-to-last, final = 
        -241.998957919     -241.998958386     -241.998958386
  Force two-norm initial, final = 0.0238147 0.0175452
  Force max component initial, final = 0.0110733 0.00732961
  Final line search alpha, max atom move = 0 0
  Iterations, force evaluations = 15 130

Pair  time (%) = 0.00223342 (70.7243)
Neigh time (%) = 0 (0)
Comm  time (%) = 0.000157049 (4.97317)
Outpt time (%) = 9.73899e-05 (3.08398)
Other time (%) = 0.000670065 (21.2185)

Nlocal:    82 ave 82 max 82 min
Histogram: 1 0 0 0 0 0 0 0 0 0
Nghost:    185 ave 185 max 185 min
Histogram: 1 0 0 0 0 0 0 0 0 0
Neighs:    718 ave 718 max 718 min
Histogram: 1 0 0 0 0 0 0 0 0 0

Total # of neighbors = 718
Ave neighs/atom = 8.7561
Neighbor list builds = 0
Dangerous builds = 0
        # write_dump all atom ${dumpfile}
        next i
jump SELF loop1
        displace_atoms upper move ${xstep1} 0.0 0.0 units lattice
        displace_atoms upper move 0.002 0.0 0.0 units lattice
        min_style ${style}
        min_style hftn
        minimize ${etol} ${ftol} ${maxiter} ${maxeval}
        minimize 1e-12 ${ftol} ${maxiter} ${maxeval}
        minimize 1e-12 1e-08 ${maxiter} ${maxeval}
        minimize 1e-12 1e-08 10000 ${maxeval}
        minimize 1e-12 1e-08 10000 20000
WARNING: Resetting reneighboring criteria during minimization (../min.cpp:168)
Memory usage per processor = 4.85169 Mbytes
Step Temp PotEng Lx Ly Lz 
    3011            0   -241.99938    2.2449075    38.891258    1.1224537 
    3012            0   -241.99938    2.2449075    38.891258    1.1224537 
    3013            0   -241.99938    2.2449075    38.891258    1.1224537 
    3014            0   -241.99939    2.2449075    38.891258    1.1224537 
    3015            0   -241.99939    2.2449075    38.891258    1.1224537 
    3016            0   -241.99939    2.2449075    38.891258    1.1224537 
    3017            0   -241.99939    2.2449075    38.891258    1.1224537 
    3018            0   -241.99939    2.2449075    38.891258    1.1224537 
    3019            0   -241.99939    2.2449075    38.891258    1.1224537 
    3020            0   -241.99939    2.2449075    38.891258    1.1224537 
    3021            0   -241.99939    2.2449075    38.891258    1.1224537 
    3022            0   -241.99939    2.2449075    38.891258    1.1224537 
    3023            0   -241.99939    2.2449075    38.891258    1.1224537 
    3024            0   -241.99939    2.2449075    38.891258    1.1224537 
    3025            0   -241.99939    2.2449075    38.891258    1.1224537 
    3026            0   -241.99939    2.2449075    38.891258    1.1224537 
Loop time of 0.00286104 on 1 procs for 14 steps with 82 atoms

Minimization stats:
  Stopping criterion = energy tolerance
  Energy initial, next-to-last, final = 
        -241.999384774     -241.999385418     -241.999385418
  Force two-norm initial, final = 0.0198777 0.0133772
  Force max component initial, final = 0.00869198 0.00462309
  Final line search alpha, max atom move = 0 0
  Iterations, force evaluations = 14 127

Pair  time (%) = 0.00210448 (73.5566)
Neigh time (%) = 0 (0)
Comm  time (%) = 0.000194626 (6.80264)
Outpt time (%) = 8.70459e-05 (3.04246)
Other time (%) = 0.000474883 (16.5983)

Nlocal:    82 ave 82 max 82 min
Histogram: 1 0 0 0 0 0 0 0 0 0
Nghost:    185 ave 185 max 185 min
Histogram: 1 0 0 0 0 0 0 0 0 0
Neighs:    718 ave 718 max 718 min
Histogram: 1 0 0 0 0 0 0 0 0 0

Total # of neighbors = 718
Ave neighs/atom = 8.7561
Neighbor list builds = 0
Dangerous builds = 0
        # write_dump all atom ${dumpfile}
        next i
jump SELF loop1
        displace_atoms upper move ${xstep1} 0.0 0.0 units lattice
        displace_atoms upper move 0.002 0.0 0.0 units lattice
        min_style ${style}
        min_style hftn
        minimize ${etol} ${ftol} ${maxiter} ${maxeval}
        minimize 1e-12 ${ftol} ${maxiter} ${maxeval}
        minimize 1e-12 1e-08 ${maxiter} ${maxeval}
        minimize 1e-12 1e-08 10000 ${maxeval}
        minimize 1e-12 1e-08 10000 20000
WARNING: Resetting reneighboring criteria during minimization (../min.cpp:168)
Memory usage per processor = 4.85169 Mbytes
Step Temp PotEng Lx Ly Lz 
    3026            0   -241.99969    2.2449075    38.891257    1.1224537 
    3027            0   -241.99969    2.2449075    38.891257    1.1224537 
    3028            0   -241.99969    2.2449075    38.891257    1.1224537 
    3029            0   -241.99969    2.2449075    38.891257    1.1224537 
    3030            0   -241.99969    2.2449075    38.891257    1.1224537 
    3031            0   -241.99969    2.2449075    38.891257    1.1224537 
    3032            0   -241.99969    2.2449075    38.891257    1.1224537 
    3033            0   -241.99969    2.2449075    38.891257    1.1224537 
    3034            0   -241.99969    2.2449075    38.891257    1.1224537 
    3035            0   -241.99969    2.2449075    38.891257    1.1224537 
    3036            0   -241.99969    2.2449075    38.891257    1.1224537 
    3037            0   -241.99969    2.2449075    38.891257    1.1224537 
    3038            0   -241.99969    2.2449075    38.891257    1.1224537 
    3039            0   -241.99969    2.2449075    38.891257    1.1224537 
    3040            0   -241.99969    2.2449075    38.891257    1.1224537 
    3041            0   -241.99969    2.2449075    38.891257    1.1224537 
Loop time of 0.003591 on 1 procs for 14 steps with 82 atoms

Minimization stats:
  Stopping criterion = energy tolerance
  Energy initial, next-to-last, final = 
        -241.999693373     -241.999693574     -241.999693575
  Force two-norm initial, final = 0.0117563 0.00673556
  Force max component initial, final = 0.00448524 0.00230887
  Final line search alpha, max atom move = 0 0
  Iterations, force evaluations = 14 165

Pair  time (%) = 0.00263393 (73.3481)
Neigh time (%) = 0 (0)
Comm  time (%) = 0.000148833 (4.14463)
Outpt time (%) = 8.10436e-05 (2.25685)
Other time (%) = 0.000727192 (20.2504)

Nlocal:    82 ave 82 max 82 min
Histogram: 1 0 0 0 0 0 0 0 0 0
Nghost:    185 ave 185 max 185 min
Histogram: 1 0 0 0 0 0 0 0 0 0
Neighs:    718 ave 718 max 718 min
Histogram: 1 0 0 0 0 0 0 0 0 0

Total # of neighbors = 718
Ave neighs/atom = 8.7561
Neighbor list builds = 0
Dangerous builds = 0
        # write_dump all atom ${dumpfile}
        next i
jump SELF loop1
        displace_atoms upper move ${xstep1} 0.0 0.0 units lattice
        displace_atoms upper move 0.002 0.0 0.0 units lattice
        min_style ${style}
        min_style hftn
        minimize ${etol} ${ftol} ${maxiter} ${maxeval}
        minimize 1e-12 ${ftol} ${maxiter} ${maxeval}
        minimize 1e-12 1e-08 ${maxiter} ${maxeval}
        minimize 1e-12 1e-08 10000 ${maxeval}
        minimize 1e-12 1e-08 10000 20000
WARNING: Resetting reneighboring criteria during minimization (../min.cpp:168)
Memory usage per processor = 4.85169 Mbytes
Step Temp PotEng Lx Ly Lz 
    3041            0   -241.99988    2.2449075    38.891253    1.1224537 
    3042            0   -241.99988    2.2449075    38.891253    1.1224537 
    3043            0   -241.99988    2.2449075    38.891253    1.1224537 
    3044            0   -241.99988    2.2449075    38.891253    1.1224537 
    3045            0   -241.99988    2.2449075    38.891253    1.1224537 
    3046            0   -241.99988    2.2449075    38.891253    1.1224537 
    3047            0   -241.99988    2.2449075    38.891253    1.1224537 
    3048            0   -241.99988    2.2449075    38.891253    1.1224537 
Loop time of 0.00248612 on 1 procs for 6 steps with 82 atoms

Minimization stats:
  Stopping criterion = energy tolerance
  Energy initial, next-to-last, final = 
        -241.999878166     -241.999878166     -241.999878166
  Force two-norm initial, final = 0.00640706 0.00640243
  Force max component initial, final = 0.00230887 0.00230581
  Final line search alpha, max atom move = 0 0
  Iterations, force evaluations = 6 123

Pair  time (%) = 0.00183842 (73.9473)
Neigh time (%) = 0 (0)
Comm  time (%) = 0.000145267 (5.84315)
Outpt time (%) = 4.02617e-05 (1.61946)
Other time (%) = 0.000462171 (18.5901)

Nlocal:    82 ave 82 max 82 min
Histogram: 1 0 0 0 0 0 0 0 0 0
Nghost:    185 ave 185 max 185 min
Histogram: 1 0 0 0 0 0 0 0 0 0
Neighs:    718 ave 718 max 718 min
Histogram: 1 0 0 0 0 0 0 0 0 0

Total # of neighbors = 718
Ave neighs/atom = 8.7561
Neighbor list builds = 0
Dangerous builds = 0
        # write_dump all atom ${dumpfile}
        next i
jump SELF loop1
        displace_atoms upper move ${xstep1} 0.0 0.0 units lattice
        displace_atoms upper move 0.002 0.0 0.0 units lattice
        min_style ${style}
        min_style hftn
        minimize ${etol} ${ftol} ${maxiter} ${maxeval}
        minimize 1e-12 ${ftol} ${maxiter} ${maxeval}
        minimize 1e-12 1e-08 ${maxiter} ${maxeval}
        minimize 1e-12 1e-08 10000 ${maxeval}
        minimize 1e-12 1e-08 10000 20000
WARNING: Resetting reneighboring criteria during minimization (../min.cpp:168)
Memory usage per processor = 4.85169 Mbytes
Step Temp PotEng Lx Ly Lz 
    3048            0   -241.99994    2.2449075    38.891253    1.1224537 
    3049            0   -241.99994    2.2449075    38.891253    1.1224537 
    3050            0   -241.99994    2.2449075    38.891253    1.1224537 
    3051            0   -241.99994    2.2449075    38.891253    1.1224537 
    3052            0   -241.99994    2.2449075    38.891253    1.1224537 
    3053            0   -241.99994    2.2449075    38.891253    1.1224537 
    3054            0   -241.99994    2.2449075    38.891253    1.1224537 
    3055            0   -241.99994    2.2449075    38.891253    1.1224537 
Loop time of 0.00248688 on 1 procs for 6 steps with 82 atoms

Minimization stats:
  Stopping criterion = energy tolerance
  Energy initial, next-to-last, final = 
        -241.999939691     -241.999939691     -241.999939691
  Force two-norm initial, final = 0.00637134 0.00636605
  Force max component initial, final = 0.00230581 0.00230247
  Final line search alpha, max atom move = 0 0
  Iterations, force evaluations = 6 123

Pair  time (%) = 0.00183303 (73.7078)
Neigh time (%) = 0 (0)
Comm  time (%) = 0.00015883 (6.38673)
Outpt time (%) = 3.50672e-05 (1.41009)
Other time (%) = 0.000459957 (18.4953)

Nlocal:    82 ave 82 max 82 min
Histogram: 1 0 0 0 0 0 0 0 0 0
Nghost:    185 ave 185 max 185 min
Histogram: 1 0 0 0 0 0 0 0 0 0
Neighs:    718 ave 718 max 718 min
Histogram: 1 0 0 0 0 0 0 0 0 0

Total # of neighbors = 718
Ave neighs/atom = 8.7561
Neighbor list builds = 0
Dangerous builds = 0
        # write_dump all atom ${dumpfile}
        next i
jump SELF loop1


