LAMMPS (28 Jun 2014)
# attempt at getting generalized stacking fault (GSF) energy curve

#file prefix
variable prefix string gsf_V_ductilenewnorm
variable dumpfile string ${prefix}.*.dump
variable dumpfile string gsf_V_ductilenewnorm.*.dump
variable restartfile string ${prefix}.*.equil
variable restartfile string gsf_V_ductilenewnorm.*.equil

#Mass (g/mol)
variable m equal 1

# lattice constant (in Angstroms) and orientation of axes (given by lattice vectors)
variable rho equal 1.1547
variable x1 equal 1
variable x2 equal 0
variable x3 equal 0
variable y1 equal 0
variable y2 equal 1
variable y3 equal 0
# length of lattice in different directions (using orientation of lattice vectors)
variable ax equal sqrt(${x1}*${x1}+${x2}*${x2}+${x3}*${x3})
variable ax equal sqrt(1*${x1}+${x2}*${x2}+${x3}*${x3})
variable ax equal sqrt(1*1+${x2}*${x2}+${x3}*${x3})
variable ax equal sqrt(1*1+0*${x2}+${x3}*${x3})
variable ax equal sqrt(1*1+0*0+${x3}*${x3})
variable ax equal sqrt(1*1+0*0+0*${x3})
variable ax equal sqrt(1*1+0*0+0*0)
variable ay equal sqrt(${y1}*${y1}+${y2}*${y2}+${y3}*${y3})
variable ay equal sqrt(0*${y1}+${y2}*${y2}+${y3}*${y3})
variable ay equal sqrt(0*0+${y2}*${y2}+${y3}*${y3})
variable ay equal sqrt(0*0+1*${y2}+${y3}*${y3})
variable ay equal sqrt(0*0+1*1+${y3}*${y3})
variable ay equal sqrt(0*0+1*1+0*${y3})
variable ay equal sqrt(0*0+1*1+0*0)
variable az equal 1

# size of box in lattice units
variable lxpos equal 1
variable lxneg equal -1*${lxpos}
variable lxneg equal -1*1
variable lypos equal 10
variable lyneg equal -1*${lypos}
variable lyneg equal -1*10
variable lzpos equal 0
variable lzneg equal -1

# Define minimization parameters and damping
variable etol equal 1.0e-12
variable ftol equal 1.0e-8
variable maxiter equal 10000
variable maxeval equal 20000
variable style string cg

# boundary conditions
dimension	2
boundary	p s p
atom_style	atomic

# create geometry
units		lj
lattice         hex ${rho}
lattice         hex 1.1547
Lattice spacing in x,y,z = 1 1.73205 1
region		myregion block ${lxneg} ${lxpos} ${lyneg} ${lypos} ${lzneg} ${lzpos} units lattice
region		myregion block -1 ${lxpos} ${lyneg} ${lypos} ${lzneg} ${lzpos} units lattice
region		myregion block -1 1 ${lyneg} ${lypos} ${lzneg} ${lzpos} units lattice
region		myregion block -1 1 -10 ${lypos} ${lzneg} ${lzpos} units lattice
region		myregion block -1 1 -10 10 ${lzneg} ${lzpos} units lattice
region		myregion block -1 1 -10 10 -1 ${lzpos} units lattice
region		myregion block -1 1 -10 10 -1 0 units lattice
create_box	3 myregion
Created orthogonal box = (-1 -17.3205 -1) to (1 17.3205 0)
  1 by 1 by 1 MPI processor grid
create_atoms	1 box
Created 82 atoms

# define masses
mass * $m
mass * 1

# my fake/morse potential
pair_style      table linear 3001
pair_coeff      * * vpotential_ductilenewnorm dummy
neighbor	0.3 bin
neigh_modify	delay 5

# define groups
region	    upper block INF INF 0.01 ${lypos} INF INF units lattice
region	    upper block INF INF 0.01 10 INF INF units lattice
group		upper region upper
40 atoms in group upper

# Setup output
thermo 1
thermo_style custom step temp pe lx ly lz
thermo_modify norm no

# Compute initial state by relaxing box
min_style ${style}
min_style cg
minimize ${etol} ${ftol} ${maxiter} ${maxeval}
minimize 1e-12 ${ftol} ${maxiter} ${maxeval}
minimize 1e-12 1e-08 ${maxiter} ${maxeval}
minimize 1e-12 1e-08 10000 ${maxeval}
minimize 1e-12 1e-08 10000 20000
WARNING: Resetting reneighboring criteria during minimization (../min.cpp:168)
Memory usage per processor = 3.35161 Mbytes
Step Temp PotEng Lx Ly Lz 
       0            0   -241.99991    2.0000005    34.647952    1.0000002 
       1            0   -241.99991    2.0000005    34.647952    1.0000002 
Loop time of 9.60468e-05 on 1 procs for 1 steps with 82 atoms

Minimization stats:
  Stopping criterion = linesearch alpha is zero
  Energy initial, next-to-last, final = 
        -241.999911808     -241.999911808     -241.999911808
  Force two-norm initial, final = 6.11446e-06 6.11446e-06
  Force max component initial, final = 3.05723e-06 3.05723e-06
  Final line search alpha, max atom move = 0.5 1.52862e-06
  Iterations, force evaluations = 1 2

Pair  time (%) = 4.78929e-05 (49.8641)
Neigh time (%) = 0 (0)
Comm  time (%) = 3.96324e-06 (4.12637)
Outpt time (%) = 0 (0)
Other time (%) = 4.41907e-05 (46.0095)

Nlocal:    82 ave 82 max 82 min
Histogram: 1 0 0 0 0 0 0 0 0 0
Nghost:    185 ave 185 max 185 min
Histogram: 1 0 0 0 0 0 0 0 0 0
Neighs:    718 ave 718 max 718 min
Histogram: 1 0 0 0 0 0 0 0 0 0

Total # of neighbors = 718
Ave neighs/atom = 8.7561
Neighbor list builds = 0
Dangerous builds = 0

# don't allow atoms to relax in x-direction
fix 2 all setforce 0.0 NULL 0.0

# GSF energy curve will have 100*2 steps
variable nsteps equal 300
variable sstep1 equal 1.
variable xstep1 equal ${sstep1}/(${ax}*${nsteps})
variable xstep1 equal 1/(${ax}*${nsteps})
variable xstep1 equal 1/(1*${nsteps})
variable xstep1 equal 1/(1*300)

variable i loop ${nsteps}
variable i loop 300
label loop1
        displace_atoms upper move ${xstep1} 0.0 0.0 units lattice
        displace_atoms upper move 0.00333333333333333 0.0 0.0 units lattice
        min_style ${style}
        min_style cg
        minimize ${etol} ${ftol} ${maxiter} ${maxeval}
        minimize 1e-12 ${ftol} ${maxiter} ${maxeval}
        minimize 1e-12 1e-08 ${maxiter} ${maxeval}
        minimize 1e-12 1e-08 10000 ${maxeval}
        minimize 1e-12 1e-08 10000 20000
WARNING: Resetting reneighboring criteria during minimization (../min.cpp:168)
Memory usage per processor = 3.35161 Mbytes
Step Temp PotEng Lx Ly Lz 
       1            0   -241.99973    2.0000005    34.647952    1.0000002 
       2            0   -241.99973    2.0000005    34.647952    1.0000002 
Loop time of 0.000301005 on 1 procs for 1 steps with 82 atoms

Minimization stats:
  Stopping criterion = linesearch alpha is zero
  Energy initial, next-to-last, final = 
        -241.999734982     -241.999734982     -241.999734982
  Force two-norm initial, final = 0.00166994 0.00166994
  Force max component initial, final = 0.000834963 0.000834963
  Final line search alpha, max atom move = 0.00390625 3.26157e-06
  Iterations, force evaluations = 1 9

Pair  time (%) = 0.000155345 (51.6088)
Neigh time (%) = 0 (0)
Comm  time (%) = 1.20117e-05 (3.99055)
Outpt time (%) = 0 (0)
Other time (%) = 0.000133648 (44.4006)

Nlocal:    82 ave 82 max 82 min
Histogram: 1 0 0 0 0 0 0 0 0 0
Nghost:    185 ave 185 max 185 min
Histogram: 1 0 0 0 0 0 0 0 0 0
Neighs:    718 ave 718 max 718 min
Histogram: 1 0 0 0 0 0 0 0 0 0

Total # of neighbors = 718
Ave neighs/atom = 8.7561
Neighbor list builds = 0
Dangerous builds = 0
        # write_dump all atom ${dumpfile}
        next i
jump SELF loop1
        displace_atoms upper move ${xstep1} 0.0 0.0 units lattice
        displace_atoms upper move 0.00333333333333333 0.0 0.0 units lattice
        min_style ${style}
        min_style cg
        minimize ${etol} ${ftol} ${maxiter} ${maxeval}
        minimize 1e-12 ${ftol} ${maxiter} ${maxeval}
        minimize 1e-12 1e-08 ${maxiter} ${maxeval}
        minimize 1e-12 1e-08 10000 ${maxeval}
        minimize 1e-12 1e-08 10000 20000
WARNING: Resetting reneighboring criteria during minimization (../min.cpp:168)
Memory usage per processor = 3.35161 Mbytes
Step Temp PotEng Lx Ly Lz 
       2            0   -241.99923    2.0000005    34.647952    1.0000002 
       3            0   -241.99923    2.0000005    34.647952    1.0000002 
       4            0   -241.99923    2.0000005    34.647952    1.0000002 
       5            0   -241.99923    2.0000005    34.647952    1.0000002 
Loop time of 0.000775885 on 1 procs for 3 steps with 82 atoms

Minimization stats:
  Stopping criterion = linesearch alpha is zero
  Energy initial, next-to-last, final = 
         -241.99922677     -241.999226919     -241.999226919
  Force two-norm initial, final = 0.00639572 0.00411107
  Force max component initial, final = 0.00319786 0.00202197
  Final line search alpha, max atom move = 0.000488281 9.87289e-07
  Iterations, force evaluations = 3 33

Pair  time (%) = 0.00056805 (73.2131)
Neigh time (%) = 0 (0)
Comm  time (%) = 4.09961e-05 (5.28379)
Outpt time (%) = 6.79205e-05 (8.75394)
Other time (%) = 9.89186e-05 (12.7491)

Nlocal:    82 ave 82 max 82 min
Histogram: 1 0 0 0 0 0 0 0 0 0
Nghost:    185 ave 185 max 185 min
Histogram: 1 0 0 0 0 0 0 0 0 0
Neighs:    718 ave 718 max 718 min
Histogram: 1 0 0 0 0 0 0 0 0 0

Total # of neighbors = 718
Ave neighs/atom = 8.7561
Neighbor list builds = 0
Dangerous builds = 0
        # write_dump all atom ${dumpfile}
        next i
jump SELF loop1
        displace_atoms upper move ${xstep1} 0.0 0.0 units lattice
        displace_atoms upper move 0.00333333333333333 0.0 0.0 units lattice
        min_style ${style}
        min_style cg
        minimize ${etol} ${ftol} ${maxiter} ${maxeval}
        minimize 1e-12 ${ftol} ${maxiter} ${maxeval}
        minimize 1e-12 1e-08 ${maxiter} ${maxeval}
        minimize 1e-12 1e-08 10000 ${maxeval}
        minimize 1e-12 1e-08 10000 20000
WARNING: Resetting reneighboring criteria during minimization (../min.cpp:168)
Memory usage per processor = 3.35161 Mbytes
Step Temp PotEng Lx Ly Lz 
       5            0   -241.99836    2.0000005    34.647952    1.0000002 
       6            0   -241.99836    2.0000005    34.647952    1.0000002 
Loop time of 0.000306053 on 1 procs for 1 steps with 82 atoms

Minimization stats:
  Stopping criterion = linesearch alpha is zero
  Energy initial, next-to-last, final = 
        -241.998363102     -241.998363102     -241.998363102
  Force two-norm initial, final = 0.0121585 0.0121585
  Force max component initial, final = 0.00606797 0.00606797
  Final line search alpha, max atom move = 6.10352e-05 3.7036e-07
  Iterations, force evaluations = 1 15

Pair  time (%) = 0.000255996 (83.6441)
Neigh time (%) = 0 (0)
Comm  time (%) = 1.76191e-05 (5.75687)
Outpt time (%) = 0 (0)
Other time (%) = 3.24387e-05 (10.599)

Nlocal:    82 ave 82 max 82 min
Histogram: 1 0 0 0 0 0 0 0 0 0
Nghost:    185 ave 185 max 185 min
Histogram: 1 0 0 0 0 0 0 0 0 0
Neighs:    718 ave 718 max 718 min
Histogram: 1 0 0 0 0 0 0 0 0 0

Total # of neighbors = 718
Ave neighs/atom = 8.7561
Neighbor list builds = 0
Dangerous builds = 0
        # write_dump all atom ${dumpfile}
        next i
jump SELF loop1
        displace_atoms upper move ${xstep1} 0.0 0.0 units lattice
        displace_atoms upper move 0.00333333333333333 0.0 0.0 units lattice
        min_style ${style}
        min_style cg
        minimize ${etol} ${ftol} ${maxiter} ${maxeval}
        minimize 1e-12 ${ftol} ${maxiter} ${maxeval}
        minimize 1e-12 1e-08 ${maxiter} ${maxeval}
        minimize 1e-12 1e-08 10000 ${maxeval}
        minimize 1e-12 1e-08 10000 20000
WARNING: Resetting reneighboring criteria during minimization (../min.cpp:168)
Memory usage per processor = 3.35161 Mbytes
Step Temp PotEng Lx Ly Lz 
       6            0   -241.99717    2.0000005    34.647952    1.0000002 
       7            0   -241.99717    2.0000005    34.647952    1.0000002 
Loop time of 0.000341091 on 1 procs for 1 steps with 82 atoms

Minimization stats:
  Stopping criterion = linesearch alpha is zero
  Energy initial, next-to-last, final = 
        -241.997168015     -241.997168015     -241.997168015
  Force two-norm initial, final = 0.0232953 0.0232953
  Force max component initial, final = 0.0116418 0.0116418
  Final line search alpha, max atom move = 1.52588e-05 1.7764e-07
  Iterations, force evaluations = 1 17

Pair  time (%) = 0.000286239 (83.9185)
Neigh time (%) = 0 (0)
Comm  time (%) = 2.20642e-05 (6.46871)
Outpt time (%) = 0 (0)
Other time (%) = 3.27884e-05 (9.61279)

Nlocal:    82 ave 82 max 82 min
Histogram: 1 0 0 0 0 0 0 0 0 0
Nghost:    185 ave 185 max 185 min
Histogram: 1 0 0 0 0 0 0 0 0 0
Neighs:    718 ave 718 max 718 min
Histogram: 1 0 0 0 0 0 0 0 0 0

Total # of neighbors = 718
Ave neighs/atom = 8.7561
Neighbor list builds = 0
Dangerous builds = 0
        # write_dump all atom ${dumpfile}
        next i
jump SELF loop1
        displace_atoms upper move ${xstep1} 0.0 0.0 units lattice
        displace_atoms upper move 0.00333333333333333 0.0 0.0 units lattice
        min_style ${style}
        min_style cg
        minimize ${etol} ${ftol} ${maxiter} ${maxeval}
        minimize 1e-12 ${ftol} ${maxiter} ${maxeval}
        minimize 1e-12 1e-08 ${maxiter} ${maxeval}
        minimize 1e-12 1e-08 10000 ${maxeval}
        minimize 1e-12 1e-08 10000 20000
WARNING: Resetting reneighboring criteria during minimization (../min.cpp:168)
Memory usage per processor = 3.35161 Mbytes
Step Temp PotEng Lx Ly Lz 
       7            0   -241.99562    2.0000005    34.647952    1.0000002 
       8            0   -241.99563    2.0000005    34.647952    1.0000002 
       9            0   -241.99563    2.0000005    34.647952    1.0000002 
      10            0   -241.99563    2.0000005    34.647952    1.0000002 
      11            0   -241.99563    2.0000005    34.647952    1.0000002 
Loop time of 0.00138606 on 1 procs for 4 steps with 82 atoms

Minimization stats:
  Stopping criterion = linesearch alpha is zero
  Energy initial, next-to-last, final = 
        -241.995622928     -241.995627731     -241.995627731
  Force two-norm initial, final = 0.0377342 0.00919951
  Force max component initial, final = 0.0188635 0.00345684
  Final line search alpha, max atom move = 0.00012207 4.21977e-07
  Iterations, force evaluations = 4 41

Pair  time (%) = 0.000996287 (71.879)
Neigh time (%) = 0 (0)
Comm  time (%) = 0.00016575 (11.9584)
Outpt time (%) = 3.09552e-05 (2.23332)
Other time (%) = 0.000193068 (13.9293)

Nlocal:    82 ave 82 max 82 min
Histogram: 1 0 0 0 0 0 0 0 0 0
Nghost:    185 ave 185 max 185 min
Histogram: 1 0 0 0 0 0 0 0 0 0
Neighs:    718 ave 718 max 718 min
Histogram: 1 0 0 0 0 0 0 0 0 0

Total # of neighbors = 718
Ave neighs/atom = 8.7561
Neighbor list builds = 0
Dangerous builds = 0
        # write_dump all atom ${dumpfile}
        next i
jump SELF loop1
        displace_atoms upper move ${xstep1} 0.0 0.0 units lattice
        displace_atoms upper move 0.00333333333333333 0.0 0.0 units lattice
        min_style ${style}
        min_style cg
        minimize ${etol} ${ftol} ${maxiter} ${maxeval}
        minimize 1e-12 ${ftol} ${maxiter} ${maxeval}
        minimize 1e-12 1e-08 ${maxiter} ${maxeval}
        minimize 1e-12 1e-08 10000 ${maxeval}
        minimize 1e-12 1e-08 10000 20000
WARNING: Resetting reneighboring criteria during minimization (../min.cpp:168)
Memory usage per processor = 3.35161 Mbytes
Step Temp PotEng Lx Ly Lz 
      11            0   -241.99374    2.0000005    34.647952    1.0000002 
      12            0   -241.99374    2.0000005    34.647952    1.0000002 
Loop time of 0.000407002 on 1 procs for 1 steps with 82 atoms

Minimization stats:
  Stopping criterion = linesearch alpha is zero
  Energy initial, next-to-last, final = 
         -241.99374242      -241.99374242      -241.99374242
  Force two-norm initial, final = 0.0243447 0.0243447
  Force max component initial, final = 0.0116117 0.0116117
  Final line search alpha, max atom move = 1.52588e-05 1.7718e-07
  Iterations, force evaluations = 1 17

Pair  time (%) = 0.000345965 (85.0031)
Neigh time (%) = 0 (0)
Comm  time (%) = 1.88655e-05 (4.63522)
Outpt time (%) = 0 (0)
Other time (%) = 4.21721e-05 (10.3616)

Nlocal:    82 ave 82 max 82 min
Histogram: 1 0 0 0 0 0 0 0 0 0
Nghost:    185 ave 185 max 185 min
Histogram: 1 0 0 0 0 0 0 0 0 0
Neighs:    718 ave 718 max 718 min
Histogram: 1 0 0 0 0 0 0 0 0 0

Total # of neighbors = 718
Ave neighs/atom = 8.7561
Neighbor list builds = 0
Dangerous builds = 0
        # write_dump all atom ${dumpfile}
        next i
jump SELF loop1
        displace_atoms upper move ${xstep1} 0.0 0.0 units lattice
        displace_atoms upper move 0.00333333333333333 0.0 0.0 units lattice
        min_style ${style}
        min_style cg
        minimize ${etol} ${ftol} ${maxiter} ${maxeval}
        minimize 1e-12 ${ftol} ${maxiter} ${maxeval}
        minimize 1e-12 1e-08 ${maxiter} ${maxeval}
        minimize 1e-12 1e-08 10000 ${maxeval}
        minimize 1e-12 1e-08 10000 20000
WARNING: Resetting reneighboring criteria during minimization (../min.cpp:168)
Memory usage per processor = 3.35161 Mbytes
Step Temp PotEng Lx Ly Lz 
      12            0   -241.99153    2.0000005    34.647952    1.0000002 
      13            0   -241.99153    2.0000005    34.647952    1.0000002 
Loop time of 0.003248 on 1 procs for 1 steps with 82 atoms

Minimization stats:
  Stopping criterion = linesearch alpha is zero
  Energy initial, next-to-last, final = 
        -241.991525808     -241.991525808     -241.991525808
  Force two-norm initial, final = 0.0445182 0.0445182
  Force max component initial, final = 0.0219575 0.0219575
  Final line search alpha, max atom move = 3.8147e-06 8.37612e-08
  Iterations, force evaluations = 1 19

Pair  time (%) = 0.00314575 (96.8519)
Neigh time (%) = 0 (0)
Comm  time (%) = 2.60774e-05 (0.802874)
Outpt time (%) = 0 (0)
Other time (%) = 7.61737e-05 (2.34525)

Nlocal:    82 ave 82 max 82 min
Histogram: 1 0 0 0 0 0 0 0 0 0
Nghost:    185 ave 185 max 185 min
Histogram: 1 0 0 0 0 0 0 0 0 0
Neighs:    718 ave 718 max 718 min
Histogram: 1 0 0 0 0 0 0 0 0 0

Total # of neighbors = 718
Ave neighs/atom = 8.7561
Neighbor list builds = 0
Dangerous builds = 0
        # write_dump all atom ${dumpfile}
        next i
jump SELF loop1
        displace_atoms upper move ${xstep1} 0.0 0.0 units lattice
        displace_atoms upper move 0.00333333333333333 0.0 0.0 units lattice
        min_style ${style}
        min_style cg
        minimize ${etol} ${ftol} ${maxiter} ${maxeval}
        minimize 1e-12 ${ftol} ${maxiter} ${maxeval}
        minimize 1e-12 1e-08 ${maxiter} ${maxeval}
        minimize 1e-12 1e-08 10000 ${maxeval}
        minimize 1e-12 1e-08 10000 20000
WARNING: Resetting reneighboring criteria during minimization (../min.cpp:168)
Memory usage per processor = 3.35161 Mbytes
Step Temp PotEng Lx Ly Lz 
      13            0   -241.98897    2.0000005    34.647952    1.0000002 
      14            0   -241.98898    2.0000005    34.647952    1.0000002 
      15            0   -241.98898    2.0000005    34.647952    1.0000002 
Loop time of 0.000655012 on 1 procs for 2 steps with 82 atoms

Minimization stats:
  Stopping criterion = linesearch alpha is zero
  Energy initial, next-to-last, final = 
        -241.988967902     -241.988976818     -241.988976818
  Force two-norm initial, final = 0.0681916 0.0364549
  Force max component initial, final = 0.0338997 0.0160243
  Final line search alpha, max atom move = 7.62939e-06 1.22256e-07
  Iterations, force evaluations = 2 27

Pair  time (%) = 0.000460156 (70.2516)
Neigh time (%) = 0 (0)
Comm  time (%) = 8.21061e-05 (12.535)
Outpt time (%) = 3.21056e-05 (4.90153)
Other time (%) = 8.0644e-05 (12.3118)

Nlocal:    82 ave 82 max 82 min
Histogram: 1 0 0 0 0 0 0 0 0 0
Nghost:    185 ave 185 max 185 min
Histogram: 1 0 0 0 0 0 0 0 0 0
Neighs:    718 ave 718 max 718 min
Histogram: 1 0 0 0 0 0 0 0 0 0

Total # of neighbors = 718
Ave neighs/atom = 8.7561
Neighbor list builds = 0
Dangerous builds = 0
        # write_dump all atom ${dumpfile}
        next i
jump SELF loop1
        displace_atoms upper move ${xstep1} 0.0 0.0 units lattice
        displace_atoms upper move 0.00333333333333333 0.0 0.0 units lattice
        min_style ${style}
        min_style cg
        minimize ${etol} ${ftol} ${maxiter} ${maxeval}
        minimize 1e-12 ${ftol} ${maxiter} ${maxeval}
        minimize 1e-12 1e-08 ${maxiter} ${maxeval}
        minimize 1e-12 1e-08 10000 ${maxeval}
        minimize 1e-12 1e-08 10000 20000
WARNING: Resetting reneighboring criteria during minimization (../min.cpp:168)
Memory usage per processor = 3.35161 Mbytes
Step Temp PotEng Lx Ly Lz 
      15            0   -241.98609    2.0000005    34.647952    1.0000002 
      16            0    -241.9861    2.0000005    34.647952    1.0000002 
      17            0    -241.9861    2.0000005    34.647952    1.0000002 
Loop time of 0.000671936 on 1 procs for 2 steps with 82 atoms

Minimization stats:
  Stopping criterion = linesearch alpha is zero
  Energy initial, next-to-last, final = 
        -241.986086394     -241.986096501     -241.986096501
  Force two-norm initial, final = 0.0616569 0.0376572
  Force max component initial, final = 0.0295792 0.0150101
  Final line search alpha, max atom move = 7.62939e-06 1.14518e-07
  Iterations, force evaluations = 2 27

Pair  time (%) = 0.000491094 (73.0865)
Neigh time (%) = 0 (0)
Comm  time (%) = 7.35245e-05 (10.9422)
Outpt time (%) = 6.00494e-06 (0.893677)
Other time (%) = 0.000101312 (15.0776)

Nlocal:    82 ave 82 max 82 min
Histogram: 1 0 0 0 0 0 0 0 0 0
Nghost:    185 ave 185 max 185 min
Histogram: 1 0 0 0 0 0 0 0 0 0
Neighs:    718 ave 718 max 718 min
Histogram: 1 0 0 0 0 0 0 0 0 0

Total # of neighbors = 718
Ave neighs/atom = 8.7561
Neighbor list builds = 0
Dangerous builds = 0
        # write_dump all atom ${dumpfile}
        next i
jump SELF loop1
        displace_atoms upper move ${xstep1} 0.0 0.0 units lattice
        displace_atoms upper move 0.00333333333333333 0.0 0.0 units lattice
        min_style ${style}
        min_style cg
        minimize ${etol} ${ftol} ${maxiter} ${maxeval}
        minimize 1e-12 ${ftol} ${maxiter} ${maxeval}
        minimize 1e-12 1e-08 ${maxiter} ${maxeval}
        minimize 1e-12 1e-08 10000 ${maxeval}
        minimize 1e-12 1e-08 10000 20000
WARNING: Resetting reneighboring criteria during minimization (../min.cpp:168)
Memory usage per processor = 3.35161 Mbytes
Step Temp PotEng Lx Ly Lz 
      17            0   -241.98296    2.0000005    34.647952    1.0000002 
      18            0   -241.98296    2.0000005    34.647952    1.0000002 
      19            0   -241.98296    2.0000005    34.647952    1.0000002 
Loop time of 0.000514072 on 1 procs for 2 steps with 82 atoms

Minimization stats:
  Stopping criterion = linesearch alpha is zero
  Energy initial, next-to-last, final = 
        -241.982955617      -241.98296221      -241.98296221
  Force two-norm initial, final = 0.0347935 0.0212746
  Force max component initial, final = 0.0131694 0.00872218
  Final line search alpha, max atom move = 1.52588e-05 1.3309e-07
  Iterations, force evaluations = 2 25

Pair  time (%) = 0.000424838 (82.6418)
Neigh time (%) = 0 (0)
Comm  time (%) = 3.09416e-05 (6.01891)
Outpt time (%) = 5.04707e-06 (0.981782)
Other time (%) = 5.32452e-05 (10.3575)

Nlocal:    82 ave 82 max 82 min
Histogram: 1 0 0 0 0 0 0 0 0 0
Nghost:    185 ave 185 max 185 min
Histogram: 1 0 0 0 0 0 0 0 0 0
Neighs:    718 ave 718 max 718 min
Histogram: 1 0 0 0 0 0 0 0 0 0

Total # of neighbors = 718
Ave neighs/atom = 8.7561
Neighbor list builds = 0
Dangerous builds = 0
        # write_dump all atom ${dumpfile}
        next i
jump SELF loop1
        displace_atoms upper move ${xstep1} 0.0 0.0 units lattice
        displace_atoms upper move 0.00333333333333333 0.0 0.0 units lattice
        min_style ${style}
        min_style cg
        minimize ${etol} ${ftol} ${maxiter} ${maxeval}
        minimize 1e-12 ${ftol} ${maxiter} ${maxeval}
        minimize 1e-12 1e-08 ${maxiter} ${maxeval}
        minimize 1e-12 1e-08 10000 ${maxeval}
        minimize 1e-12 1e-08 10000 20000
WARNING: Resetting reneighboring criteria during minimization (../min.cpp:168)
Memory usage per processor = 3.35161 Mbytes
Step Temp PotEng Lx Ly Lz 
      19            0    -241.9797    2.0000005    34.647952    1.0000002 
      20            0    -241.9797    2.0000005    34.647952    1.0000002 
Loop time of 0.000333035 on 1 procs for 1 steps with 82 atoms

Minimization stats:
  Stopping criterion = linesearch alpha is zero
  Energy initial, next-to-last, final = 
        -241.979701191     -241.979701191     -241.979701191
  Force two-norm initial, final = 0.0201183 0.0201183
  Force max component initial, final = 0.00872218 0.00872218
  Final line search alpha, max atom move = 3.05176e-05 2.6618e-07
  Iterations, force evaluations = 1 16

Pair  time (%) = 0.000276954 (83.1605)
Neigh time (%) = 0 (0)
Comm  time (%) = 2.03162e-05 (6.10032)
Outpt time (%) = 0 (0)
Other time (%) = 3.57652e-05 (10.7392)

Nlocal:    82 ave 82 max 82 min
Histogram: 1 0 0 0 0 0 0 0 0 0
Nghost:    185 ave 185 max 185 min
Histogram: 1 0 0 0 0 0 0 0 0 0
Neighs:    718 ave 718 max 718 min
Histogram: 1 0 0 0 0 0 0 0 0 0

Total # of neighbors = 718
Ave neighs/atom = 8.7561
Neighbor list builds = 0
Dangerous builds = 0
        # write_dump all atom ${dumpfile}
        next i
jump SELF loop1
        displace_atoms upper move ${xstep1} 0.0 0.0 units lattice
        displace_atoms upper move 0.00333333333333333 0.0 0.0 units lattice
        min_style ${style}
        min_style cg
        minimize ${etol} ${ftol} ${maxiter} ${maxeval}
        minimize 1e-12 ${ftol} ${maxiter} ${maxeval}
        minimize 1e-12 1e-08 ${maxiter} ${maxeval}
        minimize 1e-12 1e-08 10000 ${maxeval}
        minimize 1e-12 1e-08 10000 20000
WARNING: Resetting reneighboring criteria during minimization (../min.cpp:168)
Memory usage per processor = 3.35161 Mbytes
Step Temp PotEng Lx Ly Lz 
      20            0   -241.97633    2.0000005    34.647952    1.0000002 
      21            0   -241.97633    2.0000005    34.647952    1.0000002 
Loop time of 0.00041604 on 1 procs for 1 steps with 82 atoms

Minimization stats:
  Stopping criterion = linesearch alpha is zero
  Energy initial, next-to-last, final = 
        -241.976329254     -241.976329254     -241.976329254
  Force two-norm initial, final = 0.0201726 0.0201726
  Force max component initial, final = 0.00872218 0.00872218
  Final line search alpha, max atom move = 3.05176e-05 2.6618e-07
  Iterations, force evaluations = 1 16

Pair  time (%) = 0.000284133 (68.2948)
Neigh time (%) = 0 (0)
Comm  time (%) = 9.7764e-05 (23.4987)
Outpt time (%) = 0 (0)
Other time (%) = 3.41423e-05 (8.2065)

Nlocal:    82 ave 82 max 82 min
Histogram: 1 0 0 0 0 0 0 0 0 0
Nghost:    185 ave 185 max 185 min
Histogram: 1 0 0 0 0 0 0 0 0 0
Neighs:    718 ave 718 max 718 min
Histogram: 1 0 0 0 0 0 0 0 0 0

Total # of neighbors = 718
Ave neighs/atom = 8.7561
Neighbor list builds = 0
Dangerous builds = 0
        # write_dump all atom ${dumpfile}
        next i
jump SELF loop1
        displace_atoms upper move ${xstep1} 0.0 0.0 units lattice
        displace_atoms upper move 0.00333333333333333 0.0 0.0 units lattice
        min_style ${style}
        min_style cg
        minimize ${etol} ${ftol} ${maxiter} ${maxeval}
        minimize 1e-12 ${ftol} ${maxiter} ${maxeval}
        minimize 1e-12 1e-08 ${maxiter} ${maxeval}
        minimize 1e-12 1e-08 10000 ${maxeval}
        minimize 1e-12 1e-08 10000 20000
WARNING: Resetting reneighboring criteria during minimization (../min.cpp:168)
Memory usage per processor = 3.35161 Mbytes
Step Temp PotEng Lx Ly Lz 
      21            0   -241.97285    2.0000005    34.647952    1.0000002 
      22            0   -241.97285    2.0000005    34.647952    1.0000002 
Loop time of 0.000180902 on 1 procs for 1 steps with 82 atoms

Minimization stats:
  Stopping criterion = linesearch alpha is zero
  Energy initial, next-to-last, final = 
        -241.972845939     -241.972845939     -241.972845939
  Force two-norm initial, final = 0.0201272 0.0201272
  Force max component initial, final = 0.00872218 0.00872218
  Final line search alpha, max atom move = 3.05176e-05 2.6618e-07
  Iterations, force evaluations = 1 16

Pair  time (%) = 0.000152054 (84.0528)
Neigh time (%) = 0 (0)
Comm  time (%) = 3.71796e-06 (2.05523)
Outpt time (%) = 0 (0)
Other time (%) = 2.51309e-05 (13.892)

Nlocal:    82 ave 82 max 82 min
Histogram: 1 0 0 0 0 0 0 0 0 0
Nghost:    185 ave 185 max 185 min
Histogram: 1 0 0 0 0 0 0 0 0 0
Neighs:    718 ave 718 max 718 min
Histogram: 1 0 0 0 0 0 0 0 0 0

Total # of neighbors = 718
Ave neighs/atom = 8.7561
Neighbor list builds = 0
Dangerous builds = 0
        # write_dump all atom ${dumpfile}
        next i
jump SELF loop1
        displace_atoms upper move ${xstep1} 0.0 0.0 units lattice
        displace_atoms upper move 0.00333333333333333 0.0 0.0 units lattice
        min_style ${style}
        min_style cg
        minimize ${etol} ${ftol} ${maxiter} ${maxeval}
        minimize 1e-12 ${ftol} ${maxiter} ${maxeval}
        minimize 1e-12 1e-08 ${maxiter} ${maxeval}
        minimize 1e-12 1e-08 10000 ${maxeval}
        minimize 1e-12 1e-08 10000 20000
WARNING: Resetting reneighboring criteria during minimization (../min.cpp:168)
Memory usage per processor = 3.35161 Mbytes
Step Temp PotEng Lx Ly Lz 
      22            0   -241.96924    2.0000005    34.647952    1.0000002 
      23            0   -241.96924    2.0000005    34.647952    1.0000002 
Loop time of 0.00035211 on 1 procs for 1 steps with 82 atoms

Minimization stats:
  Stopping criterion = linesearch alpha is zero
  Energy initial, next-to-last, final = 
        -241.969240618     -241.969240618     -241.969240618
  Force two-norm initial, final = 0.0203144 0.0203144
  Force max component initial, final = 0.00872218 0.00872218
  Final line search alpha, max atom move = 1.52588e-05 1.3309e-07
  Iterations, force evaluations = 1 17

Pair  time (%) = 0.000300138 (85.2397)
Neigh time (%) = 0 (0)
Comm  time (%) = 2.07961e-05 (5.90613)
Outpt time (%) = 0 (0)
Other time (%) = 3.11764e-05 (8.85415)

Nlocal:    82 ave 82 max 82 min
Histogram: 1 0 0 0 0 0 0 0 0 0
Nghost:    185 ave 185 max 185 min
Histogram: 1 0 0 0 0 0 0 0 0 0
Neighs:    718 ave 718 max 718 min
Histogram: 1 0 0 0 0 0 0 0 0 0

Total # of neighbors = 718
Ave neighs/atom = 8.7561
Neighbor list builds = 0
Dangerous builds = 0
        # write_dump all atom ${dumpfile}
        next i
jump SELF loop1
        displace_atoms upper move ${xstep1} 0.0 0.0 units lattice
        displace_atoms upper move 0.00333333333333333 0.0 0.0 units lattice
        min_style ${style}
        min_style cg
        minimize ${etol} ${ftol} ${maxiter} ${maxeval}
        minimize 1e-12 ${ftol} ${maxiter} ${maxeval}
        minimize 1e-12 1e-08 ${maxiter} ${maxeval}
        minimize 1e-12 1e-08 10000 ${maxeval}
        minimize 1e-12 1e-08 10000 20000
WARNING: Resetting reneighboring criteria during minimization (../min.cpp:168)
Memory usage per processor = 3.35161 Mbytes
Step Temp PotEng Lx Ly Lz 
      23            0   -241.96552    2.0000005    34.647952    1.0000002 
      24            0   -241.96552    2.0000005    34.647952    1.0000002 
Loop time of 0.000351926 on 1 procs for 1 steps with 82 atoms

Minimization stats:
  Stopping criterion = linesearch alpha is zero
  Energy initial, next-to-last, final = 
        -241.965515121     -241.965515121     -241.965515121
  Force two-norm initial, final = 0.0226493 0.0226493
  Force max component initial, final = 0.00872218 0.00872218
  Final line search alpha, max atom move = 1.52588e-05 1.3309e-07
  Iterations, force evaluations = 1 17

Pair  time (%) = 0.000295814 (84.0558)
Neigh time (%) = 0 (0)
Comm  time (%) = 1.47708e-05 (4.19713)
Outpt time (%) = 0 (0)
Other time (%) = 4.13409e-05 (11.7471)

Nlocal:    82 ave 82 max 82 min
Histogram: 1 0 0 0 0 0 0 0 0 0
Nghost:    185 ave 185 max 185 min
Histogram: 1 0 0 0 0 0 0 0 0 0
Neighs:    718 ave 718 max 718 min
Histogram: 1 0 0 0 0 0 0 0 0 0

Total # of neighbors = 718
Ave neighs/atom = 8.7561
Neighbor list builds = 0
Dangerous builds = 0
        # write_dump all atom ${dumpfile}
        next i
jump SELF loop1
        displace_atoms upper move ${xstep1} 0.0 0.0 units lattice
        displace_atoms upper move 0.00333333333333333 0.0 0.0 units lattice
        min_style ${style}
        min_style cg
        minimize ${etol} ${ftol} ${maxiter} ${maxeval}
        minimize 1e-12 ${ftol} ${maxiter} ${maxeval}
        minimize 1e-12 1e-08 ${maxiter} ${maxeval}
        minimize 1e-12 1e-08 10000 ${maxeval}
        minimize 1e-12 1e-08 10000 20000
WARNING: Resetting reneighboring criteria during minimization (../min.cpp:168)
Memory usage per processor = 3.35161 Mbytes
Step Temp PotEng Lx Ly Lz 
      24            0   -241.96167    2.0000005    34.647952    1.0000002 
      25            0   -241.96167    2.0000005    34.647952    1.0000002 
Loop time of 0.000430102 on 1 procs for 1 steps with 82 atoms

Minimization stats:
  Stopping criterion = linesearch alpha is zero
  Energy initial, next-to-last, final = 
        -241.961673346     -241.961673346     -241.961673346
  Force two-norm initial, final = 0.0292338 0.0292338
  Force max component initial, final = 0.0106155 0.0106155
  Final line search alpha, max atom move = 7.62939e-06 8.09897e-08
  Iterations, force evaluations = 1 18

Pair  time (%) = 0.000368109 (85.5865)
Neigh time (%) = 0 (0)
Comm  time (%) = 2.39811e-05 (5.57568)
Outpt time (%) = 0 (0)
Other time (%) = 3.80116e-05 (8.83781)

Nlocal:    82 ave 82 max 82 min
Histogram: 1 0 0 0 0 0 0 0 0 0
Nghost:    185 ave 185 max 185 min
Histogram: 1 0 0 0 0 0 0 0 0 0
Neighs:    718 ave 718 max 718 min
Histogram: 1 0 0 0 0 0 0 0 0 0

Total # of neighbors = 718
Ave neighs/atom = 8.7561
Neighbor list builds = 0
Dangerous builds = 0
        # write_dump all atom ${dumpfile}
        next i
jump SELF loop1
        displace_atoms upper move ${xstep1} 0.0 0.0 units lattice
        displace_atoms upper move 0.00333333333333333 0.0 0.0 units lattice
        min_style ${style}
        min_style cg
        minimize ${etol} ${ftol} ${maxiter} ${maxeval}
        minimize 1e-12 ${ftol} ${maxiter} ${maxeval}
        minimize 1e-12 1e-08 ${maxiter} ${maxeval}
        minimize 1e-12 1e-08 10000 ${maxeval}
        minimize 1e-12 1e-08 10000 20000
WARNING: Resetting reneighboring criteria during minimization (../min.cpp:168)
Memory usage per processor = 3.35161 Mbytes
Step Temp PotEng Lx Ly Lz 
      25            0   -241.95771    2.0000005    34.647952    1.0000002 
      26            0   -241.95771    2.0000005    34.647952    1.0000002 
Loop time of 0.00101598 on 1 procs for 1 steps with 82 atoms

Minimization stats:
  Stopping criterion = linesearch alpha is zero
  Energy initial, next-to-last, final = 
        -241.957713734     -241.957713734     -241.957713734
  Force two-norm initial, final = 0.0406338 0.0406338
  Force max component initial, final = 0.0176582 0.0176582
  Final line search alpha, max atom move = 3.8147e-06 6.73607e-08
  Iterations, force evaluations = 1 19

Pair  time (%) = 0.000327761 (32.2606)
Neigh time (%) = 0 (0)
Comm  time (%) = 2.69165e-05 (2.64931)
Outpt time (%) = 0 (0)
Other time (%) = 0.000661304 (65.0901)

Nlocal:    82 ave 82 max 82 min
Histogram: 1 0 0 0 0 0 0 0 0 0
Nghost:    185 ave 185 max 185 min
Histogram: 1 0 0 0 0 0 0 0 0 0
Neighs:    718 ave 718 max 718 min
Histogram: 1 0 0 0 0 0 0 0 0 0

Total # of neighbors = 718
Ave neighs/atom = 8.7561
Neighbor list builds = 0
Dangerous builds = 0
        # write_dump all atom ${dumpfile}
        next i
jump SELF loop1
        displace_atoms upper move ${xstep1} 0.0 0.0 units lattice
        displace_atoms upper move 0.00333333333333333 0.0 0.0 units lattice
        min_style ${style}
        min_style cg
        minimize ${etol} ${ftol} ${maxiter} ${maxeval}
        minimize 1e-12 ${ftol} ${maxiter} ${maxeval}
        minimize 1e-12 1e-08 ${maxiter} ${maxeval}
        minimize 1e-12 1e-08 10000 ${maxeval}
        minimize 1e-12 1e-08 10000 20000
WARNING: Resetting reneighboring criteria during minimization (../min.cpp:168)
Memory usage per processor = 3.35161 Mbytes
Step Temp PotEng Lx Ly Lz 
      26            0   -241.95363    2.0000005    34.647952    1.0000002 
      27            0   -241.95364    2.0000005    34.647952    1.0000002 
      28            0   -241.95364    2.0000005    34.647952    1.0000002 
Loop time of 0.000446054 on 1 procs for 2 steps with 82 atoms

Minimization stats:
  Stopping criterion = linesearch alpha is zero
  Energy initial, next-to-last, final = 
        -241.953629545     -241.953636734     -241.953636734
  Force two-norm initial, final = 0.0564607 0.0371581
  Force max component initial, final = 0.0263815 0.0138816
  Final line search alpha, max atom move = 7.62939e-06 1.05908e-07
  Iterations, force evaluations = 2 27

Pair  time (%) = 0.000337713 (75.7113)
Neigh time (%) = 0 (0)
Comm  time (%) = 2.98066e-05 (6.68229)
Outpt time (%) = 6.09411e-06 (1.36623)
Other time (%) = 7.24398e-05 (16.2401)

Nlocal:    82 ave 82 max 82 min
Histogram: 1 0 0 0 0 0 0 0 0 0
Nghost:    185 ave 185 max 185 min
Histogram: 1 0 0 0 0 0 0 0 0 0
Neighs:    718 ave 718 max 718 min
Histogram: 1 0 0 0 0 0 0 0 0 0

Total # of neighbors = 718
Ave neighs/atom = 8.7561
Neighbor list builds = 0
Dangerous builds = 0
        # write_dump all atom ${dumpfile}
        next i
jump SELF loop1
        displace_atoms upper move ${xstep1} 0.0 0.0 units lattice
        displace_atoms upper move 0.00333333333333333 0.0 0.0 units lattice
        min_style ${style}
        min_style cg
        minimize ${etol} ${ftol} ${maxiter} ${maxeval}
        minimize 1e-12 ${ftol} ${maxiter} ${maxeval}
        minimize 1e-12 1e-08 ${maxiter} ${maxeval}
        minimize 1e-12 1e-08 10000 ${maxeval}
        minimize 1e-12 1e-08 10000 20000
WARNING: Resetting reneighboring criteria during minimization (../min.cpp:168)
Memory usage per processor = 3.35161 Mbytes
Step Temp PotEng Lx Ly Lz 
      28            0   -241.94944    2.0000005    34.647952    1.0000002 
      29            0   -241.94944    2.0000005    34.647952    1.0000002 
      30            0   -241.94944    2.0000005    34.647952    1.0000002 
Loop time of 0.00059208 on 1 procs for 2 steps with 82 atoms

Minimization stats:
  Stopping criterion = linesearch alpha is zero
  Energy initial, next-to-last, final = 
        -241.949437573      -241.94944026      -241.94944026
  Force two-norm initial, final = 0.0542841 0.0456201
  Force max component initial, final = 0.0241704 0.0187234
  Final line search alpha, max atom move = 3.8147e-06 7.14242e-08
  Iterations, force evaluations = 2 29

Pair  time (%) = 0.000490278 (82.806)
Neigh time (%) = 0 (0)
Comm  time (%) = 3.67858e-05 (6.21298)
Outpt time (%) = 5.90819e-06 (0.99787)
Other time (%) = 5.91081e-05 (9.98313)

Nlocal:    82 ave 82 max 82 min
Histogram: 1 0 0 0 0 0 0 0 0 0
Nghost:    185 ave 185 max 185 min
Histogram: 1 0 0 0 0 0 0 0 0 0
Neighs:    718 ave 718 max 718 min
Histogram: 1 0 0 0 0 0 0 0 0 0

Total # of neighbors = 718
Ave neighs/atom = 8.7561
Neighbor list builds = 0
Dangerous builds = 0
        # write_dump all atom ${dumpfile}
        next i
jump SELF loop1
        displace_atoms upper move ${xstep1} 0.0 0.0 units lattice
        displace_atoms upper move 0.00333333333333333 0.0 0.0 units lattice
        min_style ${style}
        min_style cg
        minimize ${etol} ${ftol} ${maxiter} ${maxeval}
        minimize 1e-12 ${ftol} ${maxiter} ${maxeval}
        minimize 1e-12 1e-08 ${maxiter} ${maxeval}
        minimize 1e-12 1e-08 10000 ${maxeval}
        minimize 1e-12 1e-08 10000 20000
WARNING: Resetting reneighboring criteria during minimization (../min.cpp:168)
Memory usage per processor = 3.35161 Mbytes
Step Temp PotEng Lx Ly Lz 
      30            0   -241.94512    2.0000005    34.647952    1.0000002 
      31            0   -241.94514    2.0000005    34.647952    1.0000002 
      32            0   -241.94514    2.0000005    34.647952    1.0000002 
Loop time of 0.000711106 on 1 procs for 2 steps with 82 atoms

Minimization stats:
  Stopping criterion = linesearch alpha is zero
  Energy initial, next-to-last, final = 
        -241.945118432     -241.945135754     -241.945135754
  Force two-norm initial, final = 0.0665864 0.035476
  Force max component initial, final = 0.0306383 0.0162273
  Final line search alpha, max atom move = 7.62939e-06 1.23804e-07
  Iterations, force evaluations = 2 26

Pair  time (%) = 0.0006126 (86.1475)
Neigh time (%) = 0 (0)
Comm  time (%) = 3.18298e-05 (4.4761)
Outpt time (%) = 4.88921e-06 (0.68755)
Other time (%) = 6.17873e-05 (8.6889)

Nlocal:    82 ave 82 max 82 min
Histogram: 1 0 0 0 0 0 0 0 0 0
Nghost:    185 ave 185 max 185 min
Histogram: 1 0 0 0 0 0 0 0 0 0
Neighs:    718 ave 718 max 718 min
Histogram: 1 0 0 0 0 0 0 0 0 0

Total # of neighbors = 718
Ave neighs/atom = 8.7561
Neighbor list builds = 0
Dangerous builds = 0
        # write_dump all atom ${dumpfile}
        next i
jump SELF loop1
        displace_atoms upper move ${xstep1} 0.0 0.0 units lattice
        displace_atoms upper move 0.00333333333333333 0.0 0.0 units lattice
        min_style ${style}
        min_style cg
        minimize ${etol} ${ftol} ${maxiter} ${maxeval}
        minimize 1e-12 ${ftol} ${maxiter} ${maxeval}
        minimize 1e-12 1e-08 ${maxiter} ${maxeval}
        minimize 1e-12 1e-08 10000 ${maxeval}
        minimize 1e-12 1e-08 10000 20000
WARNING: Resetting reneighboring criteria during minimization (../min.cpp:168)
Memory usage per processor = 3.35161 Mbytes
Step Temp PotEng Lx Ly Lz 
      32            0    -241.9407    2.0000005    34.647952    1.0000002 
      33            0   -241.94072    2.0000005    34.647952    1.0000002 
      34            0   -241.94072    2.0000005    34.647952    1.0000002 
Loop time of 0.000512058 on 1 procs for 2 steps with 82 atoms

Minimization stats:
  Stopping criterion = linesearch alpha is zero
  Energy initial, next-to-last, final = 
        -241.940703974     -241.940723974     -241.940723974
  Force two-norm initial, final = 0.0468062 0.0311308
  Force max component initial, final = 0.0162273 0.0107284
  Final line search alpha, max atom move = 7.62939e-06 8.18515e-08
  Iterations, force evaluations = 2 25

Pair  time (%) = 0.000422176 (82.4469)
Neigh time (%) = 0 (0)
Comm  time (%) = 2.94778e-05 (5.75672)
Outpt time (%) = 5.91413e-06 (1.15497)
Other time (%) = 5.44899e-05 (10.6414)

Nlocal:    82 ave 82 max 82 min
Histogram: 1 0 0 0 0 0 0 0 0 0
Nghost:    185 ave 185 max 185 min
Histogram: 1 0 0 0 0 0 0 0 0 0
Neighs:    718 ave 718 max 718 min
Histogram: 1 0 0 0 0 0 0 0 0 0

Total # of neighbors = 718
Ave neighs/atom = 8.7561
Neighbor list builds = 0
Dangerous builds = 0
        # write_dump all atom ${dumpfile}
        next i
jump SELF loop1
        displace_atoms upper move ${xstep1} 0.0 0.0 units lattice
        displace_atoms upper move 0.00333333333333333 0.0 0.0 units lattice
        min_style ${style}
        min_style cg
        minimize ${etol} ${ftol} ${maxiter} ${maxeval}
        minimize 1e-12 ${ftol} ${maxiter} ${maxeval}
        minimize 1e-12 1e-08 ${maxiter} ${maxeval}
        minimize 1e-12 1e-08 10000 ${maxeval}
        minimize 1e-12 1e-08 10000 20000
WARNING: Resetting reneighboring criteria during minimization (../min.cpp:168)
Memory usage per processor = 3.35161 Mbytes
Step Temp PotEng Lx Ly Lz 
      34            0   -241.93618    2.0000005    34.647952    1.0000002 
      35            0   -241.93619    2.0000005    34.647952    1.0000002 
      36            0   -241.93619    2.0000005    34.647952    1.0000002 
Loop time of 0.000544957 on 1 procs for 2 steps with 82 atoms

Minimization stats:
  Stopping criterion = linesearch alpha is zero
  Energy initial, next-to-last, final = 
        -241.936182369      -241.93618815      -241.93618815
  Force two-norm initial, final = 0.0336522 0.0272759
  Force max component initial, final = 0.0107284 0.00940339
  Final line search alpha, max atom move = 1.52588e-05 1.43484e-07
  Iterations, force evaluations = 2 25

Pair  time (%) = 0.000454719 (83.4412)
Neigh time (%) = 0 (0)
Comm  time (%) = 2.77079e-05 (5.08442)
Outpt time (%) = 5.02425e-06 (0.921954)
Other time (%) = 5.75059e-05 (10.5524)

Nlocal:    82 ave 82 max 82 min
Histogram: 1 0 0 0 0 0 0 0 0 0
Nghost:    185 ave 185 max 185 min
Histogram: 1 0 0 0 0 0 0 0 0 0
Neighs:    718 ave 718 max 718 min
Histogram: 1 0 0 0 0 0 0 0 0 0

Total # of neighbors = 718
Ave neighs/atom = 8.7561
Neighbor list builds = 0
Dangerous builds = 0
        # write_dump all atom ${dumpfile}
        next i
jump SELF loop1
        displace_atoms upper move ${xstep1} 0.0 0.0 units lattice
        displace_atoms upper move 0.00333333333333333 0.0 0.0 units lattice
        min_style ${style}
        min_style cg
        minimize ${etol} ${ftol} ${maxiter} ${maxeval}
        minimize 1e-12 ${ftol} ${maxiter} ${maxeval}
        minimize 1e-12 1e-08 ${maxiter} ${maxeval}
        minimize 1e-12 1e-08 10000 ${maxeval}
        minimize 1e-12 1e-08 10000 20000
WARNING: Resetting reneighboring criteria during minimization (../min.cpp:168)
Memory usage per processor = 3.35161 Mbytes
Step Temp PotEng Lx Ly Lz 
      36            0   -241.93153    2.0000005    34.647952    1.0000002 
      37            0   -241.93155    2.0000005    34.647952    1.0000002 
      38            0   -241.93155    2.0000005    34.647952    1.0000002 
Loop time of 0.000560907 on 1 procs for 2 steps with 82 atoms

Minimization stats:
  Stopping criterion = linesearch alpha is zero
  Energy initial, next-to-last, final = 
        -241.931532901     -241.931546363     -241.931546363
  Force two-norm initial, final = 0.0460733 0.0461969
  Force max component initial, final = 0.0187141 0.014986
  Final line search alpha, max atom move = 3.8147e-06 5.71671e-08
  Iterations, force evaluations = 2 26

Pair  time (%) = 0.000468461 (83.5184)
Neigh time (%) = 0 (0)
Comm  time (%) = 3.2033e-05 (5.71092)
Outpt time (%) = 6.04836e-06 (1.07832)
Other time (%) = 5.43651e-05 (9.69236)

Nlocal:    82 ave 82 max 82 min
Histogram: 1 0 0 0 0 0 0 0 0 0
Nghost:    185 ave 185 max 185 min
Histogram: 1 0 0 0 0 0 0 0 0 0
Neighs:    718 ave 718 max 718 min
Histogram: 1 0 0 0 0 0 0 0 0 0

Total # of neighbors = 718
Ave neighs/atom = 8.7561
Neighbor list builds = 0
Dangerous builds = 0
        # write_dump all atom ${dumpfile}
        next i
jump SELF loop1
        displace_atoms upper move ${xstep1} 0.0 0.0 units lattice
        displace_atoms upper move 0.00333333333333333 0.0 0.0 units lattice
        min_style ${style}
        min_style cg
        minimize ${etol} ${ftol} ${maxiter} ${maxeval}
        minimize 1e-12 ${ftol} ${maxiter} ${maxeval}
        minimize 1e-12 1e-08 ${maxiter} ${maxeval}
        minimize 1e-12 1e-08 10000 ${maxeval}
        minimize 1e-12 1e-08 10000 20000
WARNING: Resetting reneighboring criteria during minimization (../min.cpp:168)
Memory usage per processor = 3.35161 Mbytes
Step Temp PotEng Lx Ly Lz 
      38            0   -241.92679    2.0000005    34.647952    1.0000002 
      39            0   -241.92679    2.0000005    34.647952    1.0000002 
Loop time of 0.000380082 on 1 procs for 1 steps with 82 atoms

Minimization stats:
  Stopping criterion = linesearch alpha is zero
  Energy initial, next-to-last, final = 
        -241.926791445     -241.926791445     -241.926791445
  Force two-norm initial, final = 0.0355778 0.0355778
  Force max component initial, final = 0.0147564 0.0147564
  Final line search alpha, max atom move = 7.62939e-06 1.12582e-07
  Iterations, force evaluations = 1 18

Pair  time (%) = 0.000322074 (84.7381)
Neigh time (%) = 0 (0)
Comm  time (%) = 2.51652e-05 (6.62098)
Outpt time (%) = 0 (0)
Other time (%) = 3.28424e-05 (8.64087)

Nlocal:    82 ave 82 max 82 min
Histogram: 1 0 0 0 0 0 0 0 0 0
Nghost:    185 ave 185 max 185 min
Histogram: 1 0 0 0 0 0 0 0 0 0
Neighs:    718 ave 718 max 718 min
Histogram: 1 0 0 0 0 0 0 0 0 0

Total # of neighbors = 718
Ave neighs/atom = 8.7561
Neighbor list builds = 0
Dangerous builds = 0
        # write_dump all atom ${dumpfile}
        next i
jump SELF loop1
        displace_atoms upper move ${xstep1} 0.0 0.0 units lattice
        displace_atoms upper move 0.00333333333333333 0.0 0.0 units lattice
        min_style ${style}
        min_style cg
        minimize ${etol} ${ftol} ${maxiter} ${maxeval}
        minimize 1e-12 ${ftol} ${maxiter} ${maxeval}
        minimize 1e-12 1e-08 ${maxiter} ${maxeval}
        minimize 1e-12 1e-08 10000 ${maxeval}
        minimize 1e-12 1e-08 10000 20000
WARNING: Resetting reneighboring criteria during minimization (../min.cpp:168)
Memory usage per processor = 3.35161 Mbytes
Step Temp PotEng Lx Ly Lz 
      39            0   -241.92192    2.0000005    34.647952    1.0000002 
      40            0   -241.92194    2.0000005    34.647952    1.0000002 
      41            0   -241.92195    2.0000005    34.647952    1.0000002 
      42            0   -241.92195    2.0000005    34.647952    1.0000002 
Loop time of 0.000705985 on 1 procs for 3 steps with 82 atoms

Minimization stats:
  Stopping criterion = linesearch alpha is zero
  Energy initial, next-to-last, final = 
        -241.921918762      -241.92194856      -241.92194856
  Force two-norm initial, final = 0.056341 0.0311858
  Force max component initial, final = 0.0220141 0.00973824
  Final line search alpha, max atom move = 7.62939e-06 7.42968e-08
  Iterations, force evaluations = 3 34

Pair  time (%) = 0.000585044 (82.8691)
Neigh time (%) = 0 (0)
Comm  time (%) = 4.16718e-05 (5.90264)
Outpt time (%) = 9.92126e-06 (1.40531)
Other time (%) = 6.93485e-05 (9.82294)

Nlocal:    82 ave 82 max 82 min
Histogram: 1 0 0 0 0 0 0 0 0 0
Nghost:    185 ave 185 max 185 min
Histogram: 1 0 0 0 0 0 0 0 0 0
Neighs:    718 ave 718 max 718 min
Histogram: 1 0 0 0 0 0 0 0 0 0

Total # of neighbors = 718
Ave neighs/atom = 8.7561
Neighbor list builds = 0
Dangerous builds = 0
        # write_dump all atom ${dumpfile}
        next i
jump SELF loop1
        displace_atoms upper move ${xstep1} 0.0 0.0 units lattice
        displace_atoms upper move 0.00333333333333333 0.0 0.0 units lattice
        min_style ${style}
        min_style cg
        minimize ${etol} ${ftol} ${maxiter} ${maxeval}
        minimize 1e-12 ${ftol} ${maxiter} ${maxeval}
        minimize 1e-12 1e-08 ${maxiter} ${maxeval}
        minimize 1e-12 1e-08 10000 ${maxeval}
        minimize 1e-12 1e-08 10000 20000
WARNING: Resetting reneighboring criteria during minimization (../min.cpp:168)
Memory usage per processor = 3.35161 Mbytes
Step Temp PotEng Lx Ly Lz 
      42            0   -241.91697    2.0000005    34.647952    1.0000002 
      43            0   -241.91698    2.0000005    34.647952    1.0000002 
      44            0     -241.917    2.0000005    34.647952    1.0000002 
      45            0     -241.917    2.0000005    34.647952    1.0000002 
      46            0     -241.917    2.0000005    34.647952    1.0000002 
Loop time of 0.00137898 on 1 procs for 4 steps with 82 atoms

Minimization stats:
  Stopping criterion = linesearch alpha is zero
  Energy initial, next-to-last, final = 
         -241.91697239     -241.917000077     -241.917000077
  Force two-norm initial, final = 0.0594051 0.0286095
  Force max component initial, final = 0.0257816 0.00884931
  Final line search alpha, max atom move = 1.52588e-05 1.3503e-07
  Iterations, force evaluations = 4 42

Pair  time (%) = 0.000985163 (71.4412)
Neigh time (%) = 0 (0)
Comm  time (%) = 0.000101057 (7.32836)
Outpt time (%) = 0.000151013 (10.951)
Other time (%) = 0.000141751 (10.2794)

Nlocal:    82 ave 82 max 82 min
Histogram: 1 0 0 0 0 0 0 0 0 0
Nghost:    185 ave 185 max 185 min
Histogram: 1 0 0 0 0 0 0 0 0 0
Neighs:    718 ave 718 max 718 min
Histogram: 1 0 0 0 0 0 0 0 0 0

Total # of neighbors = 718
Ave neighs/atom = 8.7561
Neighbor list builds = 0
Dangerous builds = 0
        # write_dump all atom ${dumpfile}
        next i
jump SELF loop1
        displace_atoms upper move ${xstep1} 0.0 0.0 units lattice
        displace_atoms upper move 0.00333333333333333 0.0 0.0 units lattice
        min_style ${style}
        min_style cg
        minimize ${etol} ${ftol} ${maxiter} ${maxeval}
        minimize 1e-12 ${ftol} ${maxiter} ${maxeval}
        minimize 1e-12 1e-08 ${maxiter} ${maxeval}
        minimize 1e-12 1e-08 10000 ${maxeval}
        minimize 1e-12 1e-08 10000 20000
WARNING: Resetting reneighboring criteria during minimization (../min.cpp:168)
Memory usage per processor = 3.35161 Mbytes
Step Temp PotEng Lx Ly Lz 
      46            0   -241.91195    2.0000005    34.647952    1.0000002 
      47            0   -241.91197    2.0000005    34.647952    1.0000002 
      48            0   -241.91199    2.0000005    34.647952    1.0000002 
      49            0   -241.91201    2.0000005    34.647952    1.0000002 
      50            0   -241.91201    2.0000005    34.647952    1.0000002 
Loop time of 0.000873118 on 1 procs for 4 steps with 82 atoms

Minimization stats:
  Stopping criterion = linesearch alpha is zero
  Energy initial, next-to-last, final = 
        -241.911951773     -241.912012928     -241.912012928
  Force two-norm initial, final = 0.0684372 0.0306287
  Force max component initial, final = 0.0312196 0.00930294
  Final line search alpha, max atom move = 7.62939e-06 7.09758e-08
  Iterations, force evaluations = 4 40

Pair  time (%) = 0.000719606 (82.418)
Neigh time (%) = 0 (0)
Comm  time (%) = 5.2051e-05 (5.96151)
Outpt time (%) = 1.5991e-05 (1.83149)
Other time (%) = 8.54693e-05 (9.78898)

Nlocal:    82 ave 82 max 82 min
Histogram: 1 0 0 0 0 0 0 0 0 0
Nghost:    185 ave 185 max 185 min
Histogram: 1 0 0 0 0 0 0 0 0 0
Neighs:    718 ave 718 max 718 min
Histogram: 1 0 0 0 0 0 0 0 0 0

Total # of neighbors = 718
Ave neighs/atom = 8.7561
Neighbor list builds = 0
Dangerous builds = 0
        # write_dump all atom ${dumpfile}
        next i
jump SELF loop1
        displace_atoms upper move ${xstep1} 0.0 0.0 units lattice
        displace_atoms upper move 0.00333333333333333 0.0 0.0 units lattice
        min_style ${style}
        min_style cg
        minimize ${etol} ${ftol} ${maxiter} ${maxeval}
        minimize 1e-12 ${ftol} ${maxiter} ${maxeval}
        minimize 1e-12 1e-08 ${maxiter} ${maxeval}
        minimize 1e-12 1e-08 10000 ${maxeval}
        minimize 1e-12 1e-08 10000 20000
WARNING: Resetting reneighboring criteria during minimization (../min.cpp:168)
Memory usage per processor = 3.35161 Mbytes
Step Temp PotEng Lx Ly Lz 
      50            0   -241.90702    2.0000005    34.647952    1.0000002 
      51            0   -241.90704    2.0000005    34.647952    1.0000002 
      52            0   -241.90705    2.0000005    34.647952    1.0000002 
      53            0   -241.90706    2.0000005    34.647952    1.0000002 
      54            0   -241.90707    2.0000005    34.647952    1.0000002 
      55            0   -241.90707    2.0000005    34.647952    1.0000002 
      56            0   -241.90707    2.0000005    34.647952    1.0000002 
Loop time of 0.00127795 on 1 procs for 6 steps with 82 atoms

Minimization stats:
  Stopping criterion = linesearch alpha is zero
  Energy initial, next-to-last, final = 
        -241.907020714     -241.907071027     -241.907071027
  Force two-norm initial, final = 0.0841067 0.0233014
  Force max component initial, final = 0.0392396 0.00636036
  Final line search alpha, max atom move = 1.52588e-05 9.70514e-08
  Iterations, force evaluations = 6 58

Pair  time (%) = 0.001063 (83.1797)
Neigh time (%) = 0 (0)
Comm  time (%) = 7.03405e-05 (5.50416)
Outpt time (%) = 2.96666e-05 (2.32142)
Other time (%) = 0.000114949 (8.99476)

Nlocal:    82 ave 82 max 82 min
Histogram: 1 0 0 0 0 0 0 0 0 0
Nghost:    185 ave 185 max 185 min
Histogram: 1 0 0 0 0 0 0 0 0 0
Neighs:    718 ave 718 max 718 min
Histogram: 1 0 0 0 0 0 0 0 0 0

Total # of neighbors = 718
Ave neighs/atom = 8.7561
Neighbor list builds = 0
Dangerous builds = 0
        # write_dump all atom ${dumpfile}
        next i
jump SELF loop1
        displace_atoms upper move ${xstep1} 0.0 0.0 units lattice
        displace_atoms upper move 0.00333333333333333 0.0 0.0 units lattice
        min_style ${style}
        min_style cg
        minimize ${etol} ${ftol} ${maxiter} ${maxeval}
        minimize 1e-12 ${ftol} ${maxiter} ${maxeval}
        minimize 1e-12 1e-08 ${maxiter} ${maxeval}
        minimize 1e-12 1e-08 10000 ${maxeval}
        minimize 1e-12 1e-08 10000 20000
WARNING: Resetting reneighboring criteria during minimization (../min.cpp:168)
Memory usage per processor = 3.35161 Mbytes
Step Temp PotEng Lx Ly Lz 
      56            0   -241.90212    2.0000005    34.647952    1.0000002 
      57            0   -241.90214    2.0000005    34.647952    1.0000002 
      58            0   -241.90215    2.0000005    34.647952    1.0000002 
      59            0   -241.90218    2.0000005    34.647952    1.0000002 
      60            0    -241.9022    2.0000005    34.647952    1.0000002 
      61            0    -241.9022    2.0000005    34.647952    1.0000002 
      62            0    -241.9022    2.0000005    34.647952    1.0000002 
Loop time of 0.00128202 on 1 procs for 6 steps with 82 atoms

Minimization stats:
  Stopping criterion = linesearch alpha is zero
  Energy initial, next-to-last, final = 
        -241.902116781     -241.902200627     -241.902200627
  Force two-norm initial, final = 0.0936373 0.0346981
  Force max component initial, final = 0.045484 0.00975394
  Final line search alpha, max atom move = 7.62939e-06 7.44167e-08
  Iterations, force evaluations = 6 57

Pair  time (%) = 0.00106565 (83.1228)
Neigh time (%) = 0 (0)
Comm  time (%) = 6.82623e-05 (5.3246)
Outpt time (%) = 2.97665e-05 (2.32185)
Other time (%) = 0.00011834 (9.23078)

Nlocal:    82 ave 82 max 82 min
Histogram: 1 0 0 0 0 0 0 0 0 0
Nghost:    185 ave 185 max 185 min
Histogram: 1 0 0 0 0 0 0 0 0 0
Neighs:    718 ave 718 max 718 min
Histogram: 1 0 0 0 0 0 0 0 0 0

Total # of neighbors = 718
Ave neighs/atom = 8.7561
Neighbor list builds = 0
Dangerous builds = 0
        # write_dump all atom ${dumpfile}
        next i
jump SELF loop1
        displace_atoms upper move ${xstep1} 0.0 0.0 units lattice
        displace_atoms upper move 0.00333333333333333 0.0 0.0 units lattice
        min_style ${style}
        min_style cg
        minimize ${etol} ${ftol} ${maxiter} ${maxeval}
        minimize 1e-12 ${ftol} ${maxiter} ${maxeval}
        minimize 1e-12 1e-08 ${maxiter} ${maxeval}
        minimize 1e-12 1e-08 10000 ${maxeval}
        minimize 1e-12 1e-08 10000 20000
WARNING: Resetting reneighboring criteria during minimization (../min.cpp:168)
Memory usage per processor = 3.35161 Mbytes
Step Temp PotEng Lx Ly Lz 
      62            0   -241.89733    2.0000005    34.647952    1.0000002 
      63            0   -241.89734    2.0000005    34.647952    1.0000002 
      64            0   -241.89734    2.0000005    34.647952    1.0000002 
Loop time of 0.000617009 on 1 procs for 2 steps with 82 atoms

Minimization stats:
  Stopping criterion = linesearch alpha is zero
  Energy initial, next-to-last, final = 
        -241.897330186     -241.897343972     -241.897343972
  Force two-norm initial, final = 0.0702871 0.0452858
  Force max component initial, final = 0.0320814 0.0175709
  Final line search alpha, max atom move = 3.8147e-06 6.70278e-08
  Iterations, force evaluations = 2 28

Pair  time (%) = 0.00051898 (84.1122)
Neigh time (%) = 0 (0)
Comm  time (%) = 3.53877e-05 (5.73536)
Outpt time (%) = 7.94989e-06 (1.28846)
Other time (%) = 5.46913e-05 (8.86394)

Nlocal:    82 ave 82 max 82 min
Histogram: 1 0 0 0 0 0 0 0 0 0
Nghost:    185 ave 185 max 185 min
Histogram: 1 0 0 0 0 0 0 0 0 0
Neighs:    718 ave 718 max 718 min
Histogram: 1 0 0 0 0 0 0 0 0 0

Total # of neighbors = 718
Ave neighs/atom = 8.7561
Neighbor list builds = 0
Dangerous builds = 0
        # write_dump all atom ${dumpfile}
        next i
jump SELF loop1
        displace_atoms upper move ${xstep1} 0.0 0.0 units lattice
        displace_atoms upper move 0.00333333333333333 0.0 0.0 units lattice
        min_style ${style}
        min_style cg
        minimize ${etol} ${ftol} ${maxiter} ${maxeval}
        minimize 1e-12 ${ftol} ${maxiter} ${maxeval}
        minimize 1e-12 1e-08 ${maxiter} ${maxeval}
        minimize 1e-12 1e-08 10000 ${maxeval}
        minimize 1e-12 1e-08 10000 20000
WARNING: Resetting reneighboring criteria during minimization (../min.cpp:168)
Memory usage per processor = 3.35161 Mbytes
Step Temp PotEng Lx Ly Lz 
      64            0   -241.89247    2.0000005    34.647952    1.0000002 
      65            0   -241.89253    2.0000005    34.647952    1.0000002 
      66            0   -241.89255    2.0000005    34.647952    1.0000002 
      67            0   -241.89258    2.0000005    34.647952    1.0000002 
      68            0   -241.89262    2.0000005    34.647952    1.0000002 
      69            0   -241.89263    2.0000005    34.647952    1.0000002 
      70            0   -241.89264    2.0000005    34.647952    1.0000002 
      71            0   -241.89264    2.0000005    34.647952    1.0000002 
      72            0   -241.89264    2.0000005    34.647952    1.0000002 
      73            0   -241.89264    2.0000005    34.647952    1.0000002 
Loop time of 0.00198302 on 1 procs for 9 steps with 82 atoms

Minimization stats:
  Stopping criterion = linesearch alpha is zero
  Energy initial, next-to-last, final = 
        -241.892467886     -241.892644193     -241.892644193
  Force two-norm initial, final = 0.123479 0.052966
  Force max component initial, final = 0.0600652 0.0154227
  Final line search alpha, max atom move = 3.8147e-06 5.88329e-08
  Iterations, force evaluations = 9 87

Pair  time (%) = 0.00166709 (84.0683)
Neigh time (%) = 0 (0)
Comm  time (%) = 0.000100833 (5.08482)
Outpt time (%) = 4.69773e-05 (2.36898)
Other time (%) = 0.000168117 (8.47786)

Nlocal:    82 ave 82 max 82 min
Histogram: 1 0 0 0 0 0 0 0 0 0
Nghost:    185 ave 185 max 185 min
Histogram: 1 0 0 0 0 0 0 0 0 0
Neighs:    718 ave 718 max 718 min
Histogram: 1 0 0 0 0 0 0 0 0 0

Total # of neighbors = 718
Ave neighs/atom = 8.7561
Neighbor list builds = 0
Dangerous builds = 0
        # write_dump all atom ${dumpfile}
        next i
jump SELF loop1
        displace_atoms upper move ${xstep1} 0.0 0.0 units lattice
        displace_atoms upper move 0.00333333333333333 0.0 0.0 units lattice
        min_style ${style}
        min_style cg
        minimize ${etol} ${ftol} ${maxiter} ${maxeval}
        minimize 1e-12 ${ftol} ${maxiter} ${maxeval}
        minimize 1e-12 1e-08 ${maxiter} ${maxeval}
        minimize 1e-12 1e-08 10000 ${maxeval}
        minimize 1e-12 1e-08 10000 20000
WARNING: Resetting reneighboring criteria during minimization (../min.cpp:168)
Memory usage per processor = 3.35161 Mbytes
Step Temp PotEng Lx Ly Lz 
      73            0   -241.88791    2.0000005    34.647956    1.0000002 
      74            0   -241.88792    2.0000005    34.647956    1.0000002 
      75            0   -241.88792    2.0000005    34.647956    1.0000002 
      76            0   -241.88792    2.0000005    34.647956    1.0000002 
Loop time of 0.0027001 on 1 procs for 3 steps with 82 atoms

Minimization stats:
  Stopping criterion = linesearch alpha is zero
  Energy initial, next-to-last, final = 
        -241.887911026     -241.887924572     -241.887924572
  Force two-norm initial, final = 0.0681886 0.0356242
  Force max component initial, final = 0.0264373 0.0120592
  Final line search alpha, max atom move = 7.62939e-06 9.20046e-08
  Iterations, force evaluations = 3 37

Pair  time (%) = 0.001608 (59.5534)
Neigh time (%) = 0 (0)
Comm  time (%) = 6.43641e-05 (2.38376)
Outpt time (%) = 2.11237e-05 (0.782328)
Other time (%) = 0.00100661 (37.2805)

Nlocal:    82 ave 82 max 82 min
Histogram: 1 0 0 0 0 0 0 0 0 0
Nghost:    185 ave 185 max 185 min
Histogram: 1 0 0 0 0 0 0 0 0 0
Neighs:    718 ave 718 max 718 min
Histogram: 1 0 0 0 0 0 0 0 0 0

Total # of neighbors = 718
Ave neighs/atom = 8.7561
Neighbor list builds = 0
Dangerous builds = 0
        # write_dump all atom ${dumpfile}
        next i
jump SELF loop1
        displace_atoms upper move ${xstep1} 0.0 0.0 units lattice
        displace_atoms upper move 0.00333333333333333 0.0 0.0 units lattice
        min_style ${style}
        min_style cg
        minimize ${etol} ${ftol} ${maxiter} ${maxeval}
        minimize 1e-12 ${ftol} ${maxiter} ${maxeval}
        minimize 1e-12 1e-08 ${maxiter} ${maxeval}
        minimize 1e-12 1e-08 10000 ${maxeval}
        minimize 1e-12 1e-08 10000 20000
WARNING: Resetting reneighboring criteria during minimization (../min.cpp:168)
Memory usage per processor = 3.35161 Mbytes
Step Temp PotEng Lx Ly Lz 
      76            0   -241.88319    2.0000005    34.647956    1.0000002 
      77            0   -241.88323    2.0000005    34.647956    1.0000002 
      78            0   -241.88324    2.0000005    34.647956    1.0000002 
      79            0   -241.88327    2.0000005    34.647956    1.0000002 
      80            0   -241.88329    2.0000005    34.647956    1.0000002 
      81            0   -241.88333    2.0000005    34.647956    1.0000002 
      82            0   -241.88334    2.0000005    34.647956    1.0000002 
      83            0   -241.88334    2.0000005    34.647956    1.0000002 
Loop time of 0.018357 on 1 procs for 7 steps with 82 atoms

Minimization stats:
  Stopping criterion = linesearch alpha is zero
  Energy initial, next-to-last, final = 
        -241.883186909     -241.883336034     -241.883336034
  Force two-norm initial, final = 0.112194 0.0252884
  Force max component initial, final = 0.054544 0.00722021
  Final line search alpha, max atom move = 1.52588e-05 1.10172e-07
  Iterations, force evaluations = 7 60

Pair  time (%) = 0.00179217 (9.76286)
Neigh time (%) = 0 (0)
Comm  time (%) = 0.000118088 (0.643284)
Outpt time (%) = 0.0162273 (88.3984)
Other time (%) = 0.000219457 (1.19549)

Nlocal:    82 ave 82 max 82 min
Histogram: 1 0 0 0 0 0 0 0 0 0
Nghost:    185 ave 185 max 185 min
Histogram: 1 0 0 0 0 0 0 0 0 0
Neighs:    718 ave 718 max 718 min
Histogram: 1 0 0 0 0 0 0 0 0 0

Total # of neighbors = 718
Ave neighs/atom = 8.7561
Neighbor list builds = 0
Dangerous builds = 0
        # write_dump all atom ${dumpfile}
        next i
jump SELF loop1
        displace_atoms upper move ${xstep1} 0.0 0.0 units lattice
        displace_atoms upper move 0.00333333333333333 0.0 0.0 units lattice
        min_style ${style}
        min_style cg
        minimize ${etol} ${ftol} ${maxiter} ${maxeval}
        minimize 1e-12 ${ftol} ${maxiter} ${maxeval}
        minimize 1e-12 1e-08 ${maxiter} ${maxeval}
        minimize 1e-12 1e-08 10000 ${maxeval}
        minimize 1e-12 1e-08 10000 20000
WARNING: Resetting reneighboring criteria during minimization (../min.cpp:168)
Memory usage per processor = 3.35161 Mbytes
Step Temp PotEng Lx Ly Lz 
      83            0    -241.8787    2.0000005       34.648    1.0000002 
      84            0   -241.87873    2.0000005       34.648    1.0000002 
      85            0   -241.87874    2.0000005       34.648    1.0000002 
      86            0   -241.87875    2.0000005       34.648    1.0000002 
      87            0   -241.87876    2.0000005       34.648    1.0000002 
      88            0   -241.87876    2.0000005       34.648    1.0000002 
      89            0   -241.87877    2.0000005       34.648    1.0000002 
      90            0   -241.87877    2.0000005       34.648    1.0000002 
      91            0   -241.87877    2.0000005       34.648    1.0000002 
      92            0   -241.87877    2.0000005       34.648    1.0000002 
Loop time of 0.00204992 on 1 procs for 9 steps with 82 atoms

Minimization stats:
  Stopping criterion = linesearch alpha is zero
  Energy initial, next-to-last, final = 
         -241.87870139     -241.878766868     -241.878766868
  Force two-norm initial, final = 0.0875317 0.0184524
  Force max component initial, final = 0.0419005 0.00393224
  Final line search alpha, max atom move = 3.05176e-05 1.20002e-07
  Iterations, force evaluations = 9 85

Pair  time (%) = 0.00171849 (83.8319)
Neigh time (%) = 0 (0)
Comm  time (%) = 0.00010623 (5.18217)
Outpt time (%) = 5.67214e-05 (2.76701)
Other time (%) = 0.00016848 (8.21887)

Nlocal:    82 ave 82 max 82 min
Histogram: 1 0 0 0 0 0 0 0 0 0
Nghost:    185 ave 185 max 185 min
Histogram: 1 0 0 0 0 0 0 0 0 0
Neighs:    718 ave 718 max 718 min
Histogram: 1 0 0 0 0 0 0 0 0 0

Total # of neighbors = 718
Ave neighs/atom = 8.7561
Neighbor list builds = 0
Dangerous builds = 0
        # write_dump all atom ${dumpfile}
        next i
jump SELF loop1
        displace_atoms upper move ${xstep1} 0.0 0.0 units lattice
        displace_atoms upper move 0.00333333333333333 0.0 0.0 units lattice
        min_style ${style}
        min_style cg
        minimize ${etol} ${ftol} ${maxiter} ${maxeval}
        minimize 1e-12 ${ftol} ${maxiter} ${maxeval}
        minimize 1e-12 1e-08 ${maxiter} ${maxeval}
        minimize 1e-12 1e-08 10000 ${maxeval}
        minimize 1e-12 1e-08 10000 20000
WARNING: Resetting reneighboring criteria during minimization (../min.cpp:168)
Memory usage per processor = 3.35161 Mbytes
Step Temp PotEng Lx Ly Lz 
      92            0   -241.87418    2.0000005    34.648058    1.0000002 
      93            0    -241.8742    2.0000005    34.648058    1.0000002 
      94            0   -241.87421    2.0000005    34.648058    1.0000002 
      95            0   -241.87421    2.0000005    34.648058    1.0000002 
Loop time of 0.000859943 on 1 procs for 3 steps with 82 atoms

Minimization stats:
  Stopping criterion = linesearch alpha is zero
  Energy initial, next-to-last, final = 
        -241.874181595     -241.874205812     -241.874205812
  Force two-norm initial, final = 0.090932 0.0372818
  Force max component initial, final = 0.0445775 0.0126462
  Final line search alpha, max atom move = 7.62939e-06 9.64831e-08
  Iterations, force evaluations = 3 36

Pair  time (%) = 0.00073448 (85.4104)
Neigh time (%) = 0 (0)
Comm  time (%) = 3.6295e-05 (4.22063)
Outpt time (%) = 1.18465e-05 (1.3776)
Other time (%) = 7.73211e-05 (8.99142)

Nlocal:    82 ave 82 max 82 min
Histogram: 1 0 0 0 0 0 0 0 0 0
Nghost:    185 ave 185 max 185 min
Histogram: 1 0 0 0 0 0 0 0 0 0
Neighs:    718 ave 718 max 718 min
Histogram: 1 0 0 0 0 0 0 0 0 0

Total # of neighbors = 718
Ave neighs/atom = 8.7561
Neighbor list builds = 0
Dangerous builds = 0
        # write_dump all atom ${dumpfile}
        next i
jump SELF loop1
        displace_atoms upper move ${xstep1} 0.0 0.0 units lattice
        displace_atoms upper move 0.00333333333333333 0.0 0.0 units lattice
        min_style ${style}
        min_style cg
        minimize ${etol} ${ftol} ${maxiter} ${maxeval}
        minimize 1e-12 ${ftol} ${maxiter} ${maxeval}
        minimize 1e-12 1e-08 ${maxiter} ${maxeval}
        minimize 1e-12 1e-08 10000 ${maxeval}
        minimize 1e-12 1e-08 10000 20000
WARNING: Resetting reneighboring criteria during minimization (../min.cpp:168)
Memory usage per processor = 3.35161 Mbytes
Step Temp PotEng Lx Ly Lz 
      95            0   -241.86964    2.0000005    34.648065    1.0000002 
      96            0   -241.86969    2.0000005    34.648065    1.0000002 
      97            0   -241.86969    2.0000005    34.648065    1.0000002 
Loop time of 0.000661029 on 1 procs for 2 steps with 82 atoms

Minimization stats:
  Stopping criterion = linesearch alpha is zero
  Energy initial, next-to-last, final = 
        -241.869638775     -241.869693725     -241.869693725
  Force two-norm initial, final = 0.114052 0.0528965
  Force max component initial, final = 0.055357 0.0242493
  Final line search alpha, max atom move = 3.8147e-06 9.25038e-08
  Iterations, force evaluations = 2 27

Pair  time (%) = 0.00055982 (84.6892)
Neigh time (%) = 0 (0)
Comm  time (%) = 3.5251e-05 (5.33275)
Outpt time (%) = 6.0295e-06 (0.912139)
Other time (%) = 5.99283e-05 (9.06591)

Nlocal:    82 ave 82 max 82 min
Histogram: 1 0 0 0 0 0 0 0 0 0
Nghost:    185 ave 185 max 185 min
Histogram: 1 0 0 0 0 0 0 0 0 0
Neighs:    718 ave 718 max 718 min
Histogram: 1 0 0 0 0 0 0 0 0 0

Total # of neighbors = 718
Ave neighs/atom = 8.7561
Neighbor list builds = 0
Dangerous builds = 0
        # write_dump all atom ${dumpfile}
        next i
jump SELF loop1
        displace_atoms upper move ${xstep1} 0.0 0.0 units lattice
        displace_atoms upper move 0.00333333333333333 0.0 0.0 units lattice
        min_style ${style}
        min_style cg
        minimize ${etol} ${ftol} ${maxiter} ${maxeval}
        minimize 1e-12 ${ftol} ${maxiter} ${maxeval}
        minimize 1e-12 1e-08 ${maxiter} ${maxeval}
        minimize 1e-12 1e-08 10000 ${maxeval}
        minimize 1e-12 1e-08 10000 20000
WARNING: Resetting reneighboring criteria during minimization (../min.cpp:168)
Memory usage per processor = 3.35161 Mbytes
Step Temp PotEng Lx Ly Lz 
      97            0   -241.86518    2.0000005    34.648072    1.0000002 
      98            0   -241.86524    2.0000005    34.648072    1.0000002 
      99            0   -241.86526    2.0000005    34.648072    1.0000002 
     100            0    -241.8653    2.0000005    34.648072    1.0000002 
     101            0   -241.86531    2.0000005    34.648072    1.0000002 
     102            0   -241.86531    2.0000005    34.648072    1.0000002 
Loop time of 0.00117002 on 1 procs for 5 steps with 82 atoms

Minimization stats:
  Stopping criterion = linesearch alpha is zero
  Energy initial, next-to-last, final = 
        -241.865176488     -241.865308842     -241.865308842
  Force two-norm initial, final = 0.105433 0.0951364
  Force max component initial, final = 0.0456916 0.0298274
  Final line search alpha, max atom move = 9.53674e-07 2.84456e-08
  Iterations, force evaluations = 5 51

Pair  time (%) = 0.00097572 (83.3938)
Neigh time (%) = 0 (0)
Comm  time (%) = 5.88992e-05 (5.03405)
Outpt time (%) = 2.40974e-05 (2.05958)
Other time (%) = 0.000111299 (9.51257)

Nlocal:    82 ave 82 max 82 min
Histogram: 1 0 0 0 0 0 0 0 0 0
Nghost:    185 ave 185 max 185 min
Histogram: 1 0 0 0 0 0 0 0 0 0
Neighs:    718 ave 718 max 718 min
Histogram: 1 0 0 0 0 0 0 0 0 0

Total # of neighbors = 718
Ave neighs/atom = 8.7561
Neighbor list builds = 0
Dangerous builds = 0
        # write_dump all atom ${dumpfile}
        next i
jump SELF loop1
        displace_atoms upper move ${xstep1} 0.0 0.0 units lattice
        displace_atoms upper move 0.00333333333333333 0.0 0.0 units lattice
        min_style ${style}
        min_style cg
        minimize ${etol} ${ftol} ${maxiter} ${maxeval}
        minimize 1e-12 ${ftol} ${maxiter} ${maxeval}
        minimize 1e-12 1e-08 ${maxiter} ${maxeval}
        minimize 1e-12 1e-08 10000 ${maxeval}
        minimize 1e-12 1e-08 10000 20000
WARNING: Resetting reneighboring criteria during minimization (../min.cpp:168)
Memory usage per processor = 3.35161 Mbytes
Step Temp PotEng Lx Ly Lz 
     102            0   -241.86093    2.0000005    34.648155    1.0000002 
     103            0   -241.86094    2.0000005    34.648155    1.0000002 
     104            0   -241.86097    2.0000005    34.648155    1.0000002 
     105            0     -241.861    2.0000005    34.648155    1.0000002 
     106            0   -241.86107    2.0000005    34.648155    1.0000002 
     107            0   -241.86109    2.0000005    34.648155    1.0000002 
     108            0   -241.86113    2.0000005    34.648155    1.0000002 
     109            0   -241.86116    2.0000005    34.648155    1.0000002 
     110            0   -241.86118    2.0000005    34.648155    1.0000002 
     111            0   -241.86118    2.0000005    34.648155    1.0000002 
     112            0   -241.86118    2.0000005    34.648155    1.0000002 
Loop time of 0.00202205 on 1 procs for 10 steps with 82 atoms

Minimization stats:
  Stopping criterion = linesearch alpha is zero
  Energy initial, next-to-last, final = 
        -241.860926374      -241.86118114      -241.86118114
  Force two-norm initial, final = 0.0781399 0.0451249
  Force max component initial, final = 0.0265759 0.0101972
  Final line search alpha, max atom move = 3.8147e-06 3.88993e-08
  Iterations, force evaluations = 10 88

Pair  time (%) = 0.00168519 (83.3403)
Neigh time (%) = 0 (0)
Comm  time (%) = 0.000108013 (5.34174)
Outpt time (%) = 4.85894e-05 (2.40297)
Other time (%) = 0.000180266 (8.915)

Nlocal:    82 ave 82 max 82 min
Histogram: 1 0 0 0 0 0 0 0 0 0
Nghost:    185 ave 185 max 185 min
Histogram: 1 0 0 0 0 0 0 0 0 0
Neighs:    718 ave 718 max 718 min
Histogram: 1 0 0 0 0 0 0 0 0 0

Total # of neighbors = 718
Ave neighs/atom = 8.7561
Neighbor list builds = 0
Dangerous builds = 0
        # write_dump all atom ${dumpfile}
        next i
jump SELF loop1
        displace_atoms upper move ${xstep1} 0.0 0.0 units lattice
        displace_atoms upper move 0.00333333333333333 0.0 0.0 units lattice
        min_style ${style}
        min_style cg
        minimize ${etol} ${ftol} ${maxiter} ${maxeval}
        minimize 1e-12 ${ftol} ${maxiter} ${maxeval}
        minimize 1e-12 1e-08 ${maxiter} ${maxeval}
        minimize 1e-12 1e-08 10000 ${maxeval}
        minimize 1e-12 1e-08 10000 20000
WARNING: Resetting reneighboring criteria during minimization (../min.cpp:168)
Memory usage per processor = 3.35161 Mbytes
Step Temp PotEng Lx Ly Lz 
     112            0   -241.85684    2.0000005    34.649044    1.0000002 
     113            0   -241.85686    2.0000005    34.649044    1.0000002 
     114            0   -241.85689    2.0000005    34.649044    1.0000002 
     115            0   -241.85692    2.0000005    34.649044    1.0000002 
     116            0   -241.85692    2.0000005    34.649044    1.0000002 
     117            0   -241.85694    2.0000005    34.649044    1.0000002 
     118            0   -241.85695    2.0000005    34.649044    1.0000002 
     119            0   -241.85695    2.0000005    34.649044    1.0000002 
Loop time of 0.00275097 on 1 procs for 7 steps with 82 atoms

Minimization stats:
  Stopping criterion = linesearch alpha is zero
  Energy initial, next-to-last, final = 
        -241.856841686     -241.856945658     -241.856945658
  Force two-norm initial, final = 0.103956 0.0174817
  Force max component initial, final = 0.0470623 0.00421635
  Final line search alpha, max atom move = 3.05176e-05 1.28673e-07
  Iterations, force evaluations = 7 61

Pair  time (%) = 0.00246158 (89.4804)
Neigh time (%) = 0 (0)
Comm  time (%) = 0.000103069 (3.74665)
Outpt time (%) = 4.49417e-05 (1.63367)
Other time (%) = 0.00014138 (5.13927)

Nlocal:    82 ave 82 max 82 min
Histogram: 1 0 0 0 0 0 0 0 0 0
Nghost:    185 ave 185 max 185 min
Histogram: 1 0 0 0 0 0 0 0 0 0
Neighs:    718 ave 718 max 718 min
Histogram: 1 0 0 0 0 0 0 0 0 0

Total # of neighbors = 718
Ave neighs/atom = 8.7561
Neighbor list builds = 0
Dangerous builds = 0
        # write_dump all atom ${dumpfile}
        next i
jump SELF loop1
        displace_atoms upper move ${xstep1} 0.0 0.0 units lattice
        displace_atoms upper move 0.00333333333333333 0.0 0.0 units lattice
        min_style ${style}
        min_style cg
        minimize ${etol} ${ftol} ${maxiter} ${maxeval}
        minimize 1e-12 ${ftol} ${maxiter} ${maxeval}
        minimize 1e-12 1e-08 ${maxiter} ${maxeval}
        minimize 1e-12 1e-08 10000 ${maxeval}
        minimize 1e-12 1e-08 10000 20000
WARNING: Resetting reneighboring criteria during minimization (../min.cpp:168)
Memory usage per processor = 3.35161 Mbytes
Step Temp PotEng Lx Ly Lz 
     119            0   -241.85269    2.0000005    34.649397    1.0000002 
     120            0   -241.85271    2.0000005    34.649397    1.0000002 
     121            0   -241.85272    2.0000005    34.649397    1.0000002 
     122            0   -241.85272    2.0000005    34.649397    1.0000002 
     123            0   -241.85273    2.0000005    34.649397    1.0000002 
     124            0   -241.85274    2.0000005    34.649397    1.0000002 
     125            0   -241.85275    2.0000005    34.649397    1.0000002 
     126            0   -241.85276    2.0000005    34.649397    1.0000002 
     127            0   -241.85277    2.0000005    34.649397    1.0000002 
     128            0   -241.85278    2.0000005    34.649397    1.0000002 
     129            0   -241.85278    2.0000005    34.649397    1.0000002 
     130            0   -241.85282    2.0000005    34.649397    1.0000002 
     131            0   -241.85296    2.0000005    34.649397    1.0000002 
[...]
Outpt time (%) = 0 (0)
Other time (%) = 0.000220415 (12.6104)

Nlocal:    82 ave 82 max 82 min
Histogram: 1 0 0 0 0 0 0 0 0 0
Nghost:    185 ave 185 max 185 min
Histogram: 1 0 0 0 0 0 0 0 0 0
Neighs:    718 ave 718 max 718 min
Histogram: 1 0 0 0 0 0 0 0 0 0

Total # of neighbors = 718
Ave neighs/atom = 8.7561
Neighbor list builds = 0
Dangerous builds = 0
        # write_dump all atom ${dumpfile}
        next i
jump SELF loop1
        displace_atoms upper move ${xstep1} 0.0 0.0 units lattice
        displace_atoms upper move 0.00333333333333333 0.0 0.0 units lattice
        min_style ${style}
        min_style cg
        minimize ${etol} ${ftol} ${maxiter} ${maxeval}
        minimize 1e-12 ${ftol} ${maxiter} ${maxeval}
        minimize 1e-12 1e-08 ${maxiter} ${maxeval}
        minimize 1e-12 1e-08 10000 ${maxeval}
        minimize 1e-12 1e-08 10000 20000
WARNING: Resetting reneighboring criteria during minimization (../min.cpp:168)
Memory usage per processor = 3.35161 Mbytes
Step Temp PotEng Lx Ly Lz 
    1124            0    -241.9825    2.0000005    34.665087    1.0000002 
    1125            0    -241.9825    2.0000005    34.665087    1.0000002 
Loop time of 0.000422 on 1 procs for 1 steps with 82 atoms

Minimization stats:
  Stopping criterion = linesearch alpha is zero
  Energy initial, next-to-last, final = 
        -241.982504351     -241.982504351     -241.982504351
  Force two-norm initial, final = 0.0646777 0.0646777
  Force max component initial, final = 0.0212654 0.0212654
  Final line search alpha, max atom move = 1.90735e-06 4.05606e-08
  Iterations, force evaluations = 1 20

Pair  time (%) = 0.00035561 (84.2677)
Neigh time (%) = 0 (0)
Comm  time (%) = 2.52416e-05 (5.98143)
Outpt time (%) = 0 (0)
Other time (%) = 4.11486e-05 (9.75085)

Nlocal:    82 ave 82 max 82 min
Histogram: 1 0 0 0 0 0 0 0 0 0
Nghost:    185 ave 185 max 185 min
Histogram: 1 0 0 0 0 0 0 0 0 0
Neighs:    718 ave 718 max 718 min
Histogram: 1 0 0 0 0 0 0 0 0 0

Total # of neighbors = 718
Ave neighs/atom = 8.7561
Neighbor list builds = 0
Dangerous builds = 0
        # write_dump all atom ${dumpfile}
        next i
jump SELF loop1
        displace_atoms upper move ${xstep1} 0.0 0.0 units lattice
        displace_atoms upper move 0.00333333333333333 0.0 0.0 units lattice
        min_style ${style}
        min_style cg
        minimize ${etol} ${ftol} ${maxiter} ${maxeval}
        minimize 1e-12 ${ftol} ${maxiter} ${maxeval}
        minimize 1e-12 1e-08 ${maxiter} ${maxeval}
        minimize 1e-12 1e-08 10000 ${maxeval}
        minimize 1e-12 1e-08 10000 20000
WARNING: Resetting reneighboring criteria during minimization (../min.cpp:168)
Memory usage per processor = 3.35161 Mbytes
Step Temp PotEng Lx Ly Lz 
    1125            0   -241.98564    2.0000005    34.665087    1.0000002 
    1126            0   -241.98564    2.0000005    34.665087    1.0000002 
Loop time of 0.000392014 on 1 procs for 1 steps with 82 atoms

Minimization stats:
  Stopping criterion = linesearch alpha is zero
  Energy initial, next-to-last, final = 
        -241.985640323     -241.985640323     -241.985640323
  Force two-norm initial, final = 0.0630002 0.0630002
  Force max component initial, final = 0.0212654 0.0212654
  Final line search alpha, max atom move = 1.90735e-06 4.05606e-08
  Iterations, force evaluations = 1 20

Pair  time (%) = 0.000327613 (83.5717)
Neigh time (%) = 0 (0)
Comm  time (%) = 2.2951e-05 (5.85464)
Outpt time (%) = 0 (0)
Other time (%) = 4.14503e-05 (10.5737)

Nlocal:    82 ave 82 max 82 min
Histogram: 1 0 0 0 0 0 0 0 0 0
Nghost:    185 ave 185 max 185 min
Histogram: 1 0 0 0 0 0 0 0 0 0
Neighs:    718 ave 718 max 718 min
Histogram: 1 0 0 0 0 0 0 0 0 0

Total # of neighbors = 718
Ave neighs/atom = 8.7561
Neighbor list builds = 0
Dangerous builds = 0
        # write_dump all atom ${dumpfile}
        next i
jump SELF loop1
        displace_atoms upper move ${xstep1} 0.0 0.0 units lattice
        displace_atoms upper move 0.00333333333333333 0.0 0.0 units lattice
        min_style ${style}
        min_style cg
        minimize ${etol} ${ftol} ${maxiter} ${maxeval}
        minimize 1e-12 ${ftol} ${maxiter} ${maxeval}
        minimize 1e-12 1e-08 ${maxiter} ${maxeval}
        minimize 1e-12 1e-08 10000 ${maxeval}
        minimize 1e-12 1e-08 10000 20000
WARNING: Resetting reneighboring criteria during minimization (../min.cpp:168)
Memory usage per processor = 3.35161 Mbytes
Step Temp PotEng Lx Ly Lz 
    1126            0    -241.9885    2.0000005    34.665087    1.0000002 
    1127            0    -241.9885    2.0000005    34.665087    1.0000002 
Loop time of 0.000374936 on 1 procs for 1 steps with 82 atoms

Minimization stats:
  Stopping criterion = linesearch alpha is zero
  Energy initial, next-to-last, final = 
        -241.988498784     -241.988498784     -241.988498784
  Force two-norm initial, final = 0.0569771 0.0569771
  Force max component initial, final = 0.0212654 0.0212654
  Final line search alpha, max atom move = 3.8147e-06 8.11211e-08
  Iterations, force evaluations = 1 19

Pair  time (%) = 0.000311857 (83.176)
Neigh time (%) = 0 (0)
Comm  time (%) = 2.78894e-05 (7.43844)
Outpt time (%) = 0 (0)
Other time (%) = 3.51897e-05 (9.38551)

Nlocal:    82 ave 82 max 82 min
Histogram: 1 0 0 0 0 0 0 0 0 0
Nghost:    185 ave 185 max 185 min
Histogram: 1 0 0 0 0 0 0 0 0 0
Neighs:    718 ave 718 max 718 min
Histogram: 1 0 0 0 0 0 0 0 0 0

Total # of neighbors = 718
Ave neighs/atom = 8.7561
Neighbor list builds = 0
Dangerous builds = 0
        # write_dump all atom ${dumpfile}
        next i
jump SELF loop1
        displace_atoms upper move ${xstep1} 0.0 0.0 units lattice
        displace_atoms upper move 0.00333333333333333 0.0 0.0 units lattice
        min_style ${style}
        min_style cg
        minimize ${etol} ${ftol} ${maxiter} ${maxeval}
        minimize 1e-12 ${ftol} ${maxiter} ${maxeval}
        minimize 1e-12 1e-08 ${maxiter} ${maxeval}
        minimize 1e-12 1e-08 10000 ${maxeval}
        minimize 1e-12 1e-08 10000 20000
WARNING: Resetting reneighboring criteria during minimization (../min.cpp:168)
Memory usage per processor = 3.35161 Mbytes
Step Temp PotEng Lx Ly Lz 
    1127            0   -241.99102    2.0000005    34.665087    1.0000002 
    1128            0   -241.99103    2.0000005    34.665087    1.0000002 
    1129            0   -241.99104    2.0000005    34.665087    1.0000002 
    1130            0   -241.99105    2.0000005    34.665087    1.0000002 
    1131            0   -241.99108    2.0000005    34.665087    1.0000002 
    1132            0   -241.99109    2.0000005    34.665087    1.0000002 
    1133            0   -241.99109    2.0000005    34.665087    1.0000002 
Loop time of 0.00124508 on 1 procs for 6 steps with 82 atoms

Minimization stats:
  Stopping criterion = linesearch alpha is zero
  Energy initial, next-to-last, final = 
        -241.991017588     -241.991088183     -241.991088183
  Force two-norm initial, final = 0.061538 0.0561486
  Force max component initial, final = 0.0212654 0.0166116
  Final line search alpha, max atom move = 3.8147e-06 6.33681e-08
  Iterations, force evaluations = 6 57

Pair  time (%) = 0.00100745 (80.9142)
Neigh time (%) = 0 (0)
Comm  time (%) = 7.76516e-05 (6.23666)
Outpt time (%) = 3.5118e-05 (2.82053)
Other time (%) = 0.000124865 (10.0287)

Nlocal:    82 ave 82 max 82 min
Histogram: 1 0 0 0 0 0 0 0 0 0
Nghost:    185 ave 185 max 185 min
Histogram: 1 0 0 0 0 0 0 0 0 0
Neighs:    718 ave 718 max 718 min
Histogram: 1 0 0 0 0 0 0 0 0 0

Total # of neighbors = 718
Ave neighs/atom = 8.7561
Neighbor list builds = 0
Dangerous builds = 0
        # write_dump all atom ${dumpfile}
        next i
jump SELF loop1
        displace_atoms upper move ${xstep1} 0.0 0.0 units lattice
        displace_atoms upper move 0.00333333333333333 0.0 0.0 units lattice
        min_style ${style}
        min_style cg
        minimize ${etol} ${ftol} ${maxiter} ${maxeval}
        minimize 1e-12 ${ftol} ${maxiter} ${maxeval}
        minimize 1e-12 1e-08 ${maxiter} ${maxeval}
        minimize 1e-12 1e-08 10000 ${maxeval}
        minimize 1e-12 1e-08 10000 20000
WARNING: Resetting reneighboring criteria during minimization (../min.cpp:168)
Memory usage per processor = 3.35161 Mbytes
Step Temp PotEng Lx Ly Lz 
    1133            0   -241.99329    2.0000005    34.663639    1.0000002 
    1134            0   -241.99329    2.0000005    34.663639    1.0000002 
Loop time of 0.00043094 on 1 procs for 1 steps with 82 atoms

Minimization stats:
  Stopping criterion = linesearch alpha is zero
  Energy initial, next-to-last, final = 
        -241.993287911     -241.993287911     -241.993287911
  Force two-norm initial, final = 0.0470662 0.0470662
  Force max component initial, final = 0.0149539 0.0149539
  Final line search alpha, max atom move = 3.8147e-06 5.70447e-08
  Iterations, force evaluations = 1 19

Pair  time (%) = 0.000368417 (85.4914)
Neigh time (%) = 0 (0)
Comm  time (%) = 2.40266e-05 (5.5754)
Outpt time (%) = 0 (0)
Other time (%) = 3.84967e-05 (8.93319)

Nlocal:    82 ave 82 max 82 min
Histogram: 1 0 0 0 0 0 0 0 0 0
Nghost:    185 ave 185 max 185 min
Histogram: 1 0 0 0 0 0 0 0 0 0
Neighs:    718 ave 718 max 718 min
Histogram: 1 0 0 0 0 0 0 0 0 0

Total # of neighbors = 718
Ave neighs/atom = 8.7561
Neighbor list builds = 0
Dangerous builds = 0
        # write_dump all atom ${dumpfile}
        next i
jump SELF loop1
        displace_atoms upper move ${xstep1} 0.0 0.0 units lattice
        displace_atoms upper move 0.00333333333333333 0.0 0.0 units lattice
        min_style ${style}
        min_style cg
        minimize ${etol} ${ftol} ${maxiter} ${maxeval}
        minimize 1e-12 ${ftol} ${maxiter} ${maxeval}
        minimize 1e-12 1e-08 ${maxiter} ${maxeval}
        minimize 1e-12 1e-08 10000 ${maxeval}
        minimize 1e-12 1e-08 10000 20000
WARNING: Resetting reneighboring criteria during minimization (../min.cpp:168)
Memory usage per processor = 3.35161 Mbytes
Step Temp PotEng Lx Ly Lz 
    1134            0   -241.99516    2.0000005    34.663639    1.0000002 
    1135            0   -241.99516    2.0000005    34.663639    1.0000002 
Loop time of 0.000453908 on 1 procs for 1 steps with 82 atoms

Minimization stats:
  Stopping criterion = linesearch alpha is zero
  Energy initial, next-to-last, final = 
        -241.995158086     -241.995158086     -241.995158086
  Force two-norm initial, final = 0.0456138 0.0456138
  Force max component initial, final = 0.0149539 0.0149539
  Final line search alpha, max atom move = 3.8147e-06 5.70447e-08
  Iterations, force evaluations = 1 19

Pair  time (%) = 0.000334022 (73.588)
Neigh time (%) = 0 (0)
Comm  time (%) = 8.01672e-05 (17.6616)
Outpt time (%) = 0 (0)
Other time (%) = 3.97188e-05 (8.75041)

Nlocal:    82 ave 82 max 82 min
Histogram: 1 0 0 0 0 0 0 0 0 0
Nghost:    185 ave 185 max 185 min
Histogram: 1 0 0 0 0 0 0 0 0 0
Neighs:    718 ave 718 max 718 min
Histogram: 1 0 0 0 0 0 0 0 0 0

Total # of neighbors = 718
Ave neighs/atom = 8.7561
Neighbor list builds = 0
Dangerous builds = 0
        # write_dump all atom ${dumpfile}
        next i
jump SELF loop1
        displace_atoms upper move ${xstep1} 0.0 0.0 units lattice
        displace_atoms upper move 0.00333333333333333 0.0 0.0 units lattice
        min_style ${style}
        min_style cg
        minimize ${etol} ${ftol} ${maxiter} ${maxeval}
        minimize 1e-12 ${ftol} ${maxiter} ${maxeval}
        minimize 1e-12 1e-08 ${maxiter} ${maxeval}
        minimize 1e-12 1e-08 10000 ${maxeval}
        minimize 1e-12 1e-08 10000 20000
WARNING: Resetting reneighboring criteria during minimization (../min.cpp:168)
Memory usage per processor = 3.35161 Mbytes
Step Temp PotEng Lx Ly Lz 
    1135            0   -241.99669    2.0000005    34.663639    1.0000002 
    1136            0   -241.99669    2.0000005    34.663639    1.0000002 
Loop time of 0.000377934 on 1 procs for 1 steps with 82 atoms

Minimization stats:
  Stopping criterion = linesearch alpha is zero
  Energy initial, next-to-last, final = 
        -241.996686103     -241.996686103     -241.996686103
  Force two-norm initial, final = 0.0492279 0.0492279
  Force max component initial, final = 0.0149539 0.0149539
  Final line search alpha, max atom move = 3.8147e-06 5.70447e-08
  Iterations, force evaluations = 1 19

Pair  time (%) = 0.000317539 (84.0195)
Neigh time (%) = 0 (0)
Comm  time (%) = 2.23387e-05 (5.91074)
Outpt time (%) = 0 (0)
Other time (%) = 3.80572e-05 (10.0698)

Nlocal:    82 ave 82 max 82 min
Histogram: 1 0 0 0 0 0 0 0 0 0
Nghost:    185 ave 185 max 185 min
Histogram: 1 0 0 0 0 0 0 0 0 0
Neighs:    718 ave 718 max 718 min
Histogram: 1 0 0 0 0 0 0 0 0 0

Total # of neighbors = 718
Ave neighs/atom = 8.7561
Neighbor list builds = 0
Dangerous builds = 0
        # write_dump all atom ${dumpfile}
        next i
jump SELF loop1
        displace_atoms upper move ${xstep1} 0.0 0.0 units lattice
        displace_atoms upper move 0.00333333333333333 0.0 0.0 units lattice
        min_style ${style}
        min_style cg
        minimize ${etol} ${ftol} ${maxiter} ${maxeval}
        minimize 1e-12 ${ftol} ${maxiter} ${maxeval}
        minimize 1e-12 1e-08 ${maxiter} ${maxeval}
        minimize 1e-12 1e-08 10000 ${maxeval}
        minimize 1e-12 1e-08 10000 20000
WARNING: Resetting reneighboring criteria during minimization (../min.cpp:168)
Memory usage per processor = 3.35161 Mbytes
Step Temp PotEng Lx Ly Lz 
    1136            0   -241.99787    2.0000005    34.663639    1.0000002 
    1137            0   -241.99787    2.0000005    34.663639    1.0000002 
Loop time of 0.0010481 on 1 procs for 1 steps with 82 atoms

Minimization stats:
  Stopping criterion = linesearch alpha is zero
  Energy initial, next-to-last, final = 
        -241.997874835     -241.997874835     -241.997874835
  Force two-norm initial, final = 0.0545113 0.0545113
  Force max component initial, final = 0.0151815 0.0151815
  Final line search alpha, max atom move = 3.8147e-06 5.79127e-08
  Iterations, force evaluations = 1 19

Pair  time (%) = 0.000916647 (87.4577)
Neigh time (%) = 0 (0)
Comm  time (%) = 5.30926e-05 (5.06559)
Outpt time (%) = 0 (0)
Other time (%) = 7.83639e-05 (7.47673)

Nlocal:    82 ave 82 max 82 min
Histogram: 1 0 0 0 0 0 0 0 0 0
Nghost:    185 ave 185 max 185 min
Histogram: 1 0 0 0 0 0 0 0 0 0
Neighs:    718 ave 718 max 718 min
Histogram: 1 0 0 0 0 0 0 0 0 0

Total # of neighbors = 718
Ave neighs/atom = 8.7561
Neighbor list builds = 0
Dangerous builds = 0
        # write_dump all atom ${dumpfile}
        next i
jump SELF loop1
        displace_atoms upper move ${xstep1} 0.0 0.0 units lattice
        displace_atoms upper move 0.00333333333333333 0.0 0.0 units lattice
        min_style ${style}
        min_style cg
        minimize ${etol} ${ftol} ${maxiter} ${maxeval}
        minimize 1e-12 ${ftol} ${maxiter} ${maxeval}
        minimize 1e-12 1e-08 ${maxiter} ${maxeval}
        minimize 1e-12 1e-08 10000 ${maxeval}
        minimize 1e-12 1e-08 10000 20000
WARNING: Resetting reneighboring criteria during minimization (../min.cpp:168)
Memory usage per processor = 3.35161 Mbytes
Step Temp PotEng Lx Ly Lz 
    1137            0   -241.99873    2.0000005    34.663639    1.0000002 
    1138            0   -241.99873    2.0000005    34.663639    1.0000002 
    1139            0   -241.99873    2.0000005    34.663639    1.0000002 
Loop time of 0.000569912 on 1 procs for 2 steps with 82 atoms

Minimization stats:
  Stopping criterion = linesearch alpha is zero
  Energy initial, next-to-last, final = 
        -241.998727429     -241.998734538     -241.998734538
  Force two-norm initial, final = 0.0593055 0.0359069
  Force max component initial, final = 0.0191668 0.0100629
  Final line search alpha, max atom move = 7.62939e-06 7.67742e-08
  Iterations, force evaluations = 2 27

Pair  time (%) = 0.000472797 (82.9595)
Neigh time (%) = 0 (0)
Comm  time (%) = 3.69428e-05 (6.48218)
Outpt time (%) = 4.91308e-06 (0.862076)
Other time (%) = 5.52598e-05 (9.69619)

Nlocal:    82 ave 82 max 82 min
Histogram: 1 0 0 0 0 0 0 0 0 0
Nghost:    185 ave 185 max 185 min
Histogram: 1 0 0 0 0 0 0 0 0 0
Neighs:    718 ave 718 max 718 min
Histogram: 1 0 0 0 0 0 0 0 0 0

Total # of neighbors = 718
Ave neighs/atom = 8.7561
Neighbor list builds = 0
Dangerous builds = 0
        # write_dump all atom ${dumpfile}
        next i
jump SELF loop1
        displace_atoms upper move ${xstep1} 0.0 0.0 units lattice
        displace_atoms upper move 0.00333333333333333 0.0 0.0 units lattice
        min_style ${style}
        min_style cg
        minimize ${etol} ${ftol} ${maxiter} ${maxeval}
        minimize 1e-12 ${ftol} ${maxiter} ${maxeval}
        minimize 1e-12 1e-08 ${maxiter} ${maxeval}
        minimize 1e-12 1e-08 10000 ${maxeval}
        minimize 1e-12 1e-08 10000 20000
WARNING: Resetting reneighboring criteria during minimization (../min.cpp:168)
Memory usage per processor = 3.35161 Mbytes
Step Temp PotEng Lx Ly Lz 
    1139            0   -241.99924    2.0000005    34.663621    1.0000002 
    1140            0   -241.99925    2.0000005    34.663621    1.0000002 
    1141            0   -241.99926    2.0000005    34.663621    1.0000002 
    1142            0   -241.99926    2.0000005    34.663621    1.0000002 
Loop time of 0.000650915 on 1 procs for 3 steps with 82 atoms

Minimization stats:
  Stopping criterion = linesearch alpha is zero
  Energy initial, next-to-last, final = 
        -241.999240081      -241.99925944      -241.99925944
  Force two-norm initial, final = 0.038409 0.0389678
  Force max component initial, final = 0.0111096 0.0102175
  Final line search alpha, max atom move = 7.62939e-06 7.79535e-08
  Iterations, force evaluations = 3 32

Pair  time (%) = 0.000531024 (81.5811)
Neigh time (%) = 0 (0)
Comm  time (%) = 3.76073e-05 (5.7776)
Outpt time (%) = 1.09352e-05 (1.67998)
Other time (%) = 7.13486e-05 (10.9613)

Nlocal:    82 ave 82 max 82 min
Histogram: 1 0 0 0 0 0 0 0 0 0
Nghost:    185 ave 185 max 185 min
Histogram: 1 0 0 0 0 0 0 0 0 0
Neighs:    718 ave 718 max 718 min
Histogram: 1 0 0 0 0 0 0 0 0 0

Total # of neighbors = 718
Ave neighs/atom = 8.7561
Neighbor list builds = 0
Dangerous builds = 0
        # write_dump all atom ${dumpfile}
        next i
jump SELF loop1
        displace_atoms upper move ${xstep1} 0.0 0.0 units lattice
        displace_atoms upper move 0.00333333333333333 0.0 0.0 units lattice
        min_style ${style}
        min_style cg
        minimize ${etol} ${ftol} ${maxiter} ${maxeval}
        minimize 1e-12 ${ftol} ${maxiter} ${maxeval}
        minimize 1e-12 1e-08 ${maxiter} ${maxeval}
        minimize 1e-12 1e-08 10000 ${maxeval}
        minimize 1e-12 1e-08 10000 20000
WARNING: Resetting reneighboring criteria during minimization (../min.cpp:168)
Memory usage per processor = 3.35161 Mbytes
Step Temp PotEng Lx Ly Lz 
    1142            0   -241.99942    2.0000005      34.6634    1.0000002 
    1143            0   -241.99942    2.0000005      34.6634    1.0000002 
Loop time of 0.000371908 on 1 procs for 1 steps with 82 atoms

Minimization stats:
  Stopping criterion = linesearch alpha is zero
  Energy initial, next-to-last, final = 
        -241.999423611     -241.999423611     -241.999423611
  Force two-norm initial, final = 0.0382148 0.0382148
  Force max component initial, final = 0.0102175 0.0102175
  Final line search alpha, max atom move = 7.62939e-06 7.79535e-08
  Iterations, force evaluations = 1 18

Pair  time (%) = 0.000310704 (83.5433)
Neigh time (%) = 0 (0)
Comm  time (%) = 2.52997e-05 (6.80268)
Outpt time (%) = 0 (0)
Other time (%) = 3.59042e-05 (9.65405)

Nlocal:    82 ave 82 max 82 min
Histogram: 1 0 0 0 0 0 0 0 0 0
Nghost:    185 ave 185 max 185 min
Histogram: 1 0 0 0 0 0 0 0 0 0
Neighs:    718 ave 718 max 718 min
Histogram: 1 0 0 0 0 0 0 0 0 0

Total # of neighbors = 718
Ave neighs/atom = 8.7561
Neighbor list builds = 0
Dangerous builds = 0
        # write_dump all atom ${dumpfile}
        next i
jump SELF loop1


