LAMMPS (28 Jun 2014)
# attempt at getting GSF energy

#file prefix
variable prefix string gsf_V_brittle_3d
variable dumpfile string ${prefix}.*.dump
variable dumpfile string gsf_V_brittle_3d.*.dump
variable restartfile string ${prefix}.*.equil
variable restartfile string gsf_V_brittle_3d.*.equil

#Mass (g/mol)
variable m equal 1.0

# lattice constant (in Angstroms) and orientation of axes (given by lattice vectors)
variable rho equal 1.0
variable x1 equal 1
variable x2 equal -2
variable x3 equal 1
variable y1 equal 1
variable y2 equal 1
variable y3 equal 1
variable z1 equal -1
variable z2 equal 0
variable z3 equal 1
# length of lattice in different directions (using orientation of lattice vectors)
variable ax equal sqrt(${x1}*${x1}+${x2}*${x2}+${x3}*${x3})
variable ax equal sqrt(1*${x1}+${x2}*${x2}+${x3}*${x3})
variable ax equal sqrt(1*1+${x2}*${x2}+${x3}*${x3})
variable ax equal sqrt(1*1+-2*${x2}+${x3}*${x3})
variable ax equal sqrt(1*1+-2*-2+${x3}*${x3})
variable ax equal sqrt(1*1+-2*-2+1*${x3})
variable ax equal sqrt(1*1+-2*-2+1*1)
variable ay equal sqrt(${y1}*${y1}+${y2}*${y2}+${y3}*${y3})
variable ay equal sqrt(1*${y1}+${y2}*${y2}+${y3}*${y3})
variable ay equal sqrt(1*1+${y2}*${y2}+${y3}*${y3})
variable ay equal sqrt(1*1+1*${y2}+${y3}*${y3})
variable ay equal sqrt(1*1+1*1+${y3}*${y3})
variable ay equal sqrt(1*1+1*1+1*${y3})
variable ay equal sqrt(1*1+1*1+1*1)
variable az equal sqrt(${z1}*${z1}+${z2}*${z2}+${z3}*${z3})
variable az equal sqrt(-1*${z1}+${z2}*${z2}+${z3}*${z3})
variable az equal sqrt(-1*-1+${z2}*${z2}+${z3}*${z3})
variable az equal sqrt(-1*-1+0*${z2}+${z3}*${z3})
variable az equal sqrt(-1*-1+0*0+${z3}*${z3})
variable az equal sqrt(-1*-1+0*0+1*${z3})
variable az equal sqrt(-1*-1+0*0+1*1)

# size of box in lattice units
variable lxpos equal 2
variable lxneg equal 0
variable lypos equal 15
variable lyneg equal -1*${lypos}
variable lyneg equal -1*15
variable lzpos equal 2
variable lzneg equal 0

# Define minimization parameters and damping
variable etol equal 1.0e-12
variable ftol equal 1.0e-8
variable maxiter equal 10000
variable maxeval equal 20000
variable style string hftn

# boundary conditions
dimension	3
boundary	p s p
atom_style	atomic

# create geometry
units		lj
lattice         fcc ${rho} orient x ${x1} ${x2} ${x3} orient y ${y1} ${y2} ${y3} orient z ${z1} ${z2} ${z3} spacing ${ax} ${ay} ${az}
lattice         fcc 1 orient x ${x1} ${x2} ${x3} orient y ${y1} ${y2} ${y3} orient z ${z1} ${z2} ${z3} spacing ${ax} ${ay} ${az}
lattice         fcc 1 orient x 1 ${x2} ${x3} orient y ${y1} ${y2} ${y3} orient z ${z1} ${z2} ${z3} spacing ${ax} ${ay} ${az}
lattice         fcc 1 orient x 1 -2 ${x3} orient y ${y1} ${y2} ${y3} orient z ${z1} ${z2} ${z3} spacing ${ax} ${ay} ${az}
lattice         fcc 1 orient x 1 -2 1 orient y ${y1} ${y2} ${y3} orient z ${z1} ${z2} ${z3} spacing ${ax} ${ay} ${az}
lattice         fcc 1 orient x 1 -2 1 orient y 1 ${y2} ${y3} orient z ${z1} ${z2} ${z3} spacing ${ax} ${ay} ${az}
lattice         fcc 1 orient x 1 -2 1 orient y 1 1 ${y3} orient z ${z1} ${z2} ${z3} spacing ${ax} ${ay} ${az}
lattice         fcc 1 orient x 1 -2 1 orient y 1 1 1 orient z ${z1} ${z2} ${z3} spacing ${ax} ${ay} ${az}
lattice         fcc 1 orient x 1 -2 1 orient y 1 1 1 orient z -1 ${z2} ${z3} spacing ${ax} ${ay} ${az}
lattice         fcc 1 orient x 1 -2 1 orient y 1 1 1 orient z -1 0 ${z3} spacing ${ax} ${ay} ${az}
lattice         fcc 1 orient x 1 -2 1 orient y 1 1 1 orient z -1 0 1 spacing ${ax} ${ay} ${az}
lattice         fcc 1 orient x 1 -2 1 orient y 1 1 1 orient z -1 0 1 spacing 2.44948974278318 ${ay} ${az}
lattice         fcc 1 orient x 1 -2 1 orient y 1 1 1 orient z -1 0 1 spacing 2.44948974278318 1.73205080756888 ${az}
lattice         fcc 1 orient x 1 -2 1 orient y 1 1 1 orient z -1 0 1 spacing 2.44948974278318 1.73205080756888 1.4142135623731
Lattice spacing in x,y,z = 3.88832 2.74946 2.24492
region		myregion block ${lxneg} ${lxpos} ${lyneg} ${lypos} ${lzneg} ${lzpos} units lattice
region		myregion block 0 ${lxpos} ${lyneg} ${lypos} ${lzneg} ${lzpos} units lattice
region		myregion block 0 2 ${lyneg} ${lypos} ${lzneg} ${lzpos} units lattice
region		myregion block 0 2 -15 ${lypos} ${lzneg} ${lzpos} units lattice
region		myregion block 0 2 -15 15 ${lzneg} ${lzpos} units lattice
region		myregion block 0 2 -15 15 0 ${lzpos} units lattice
region		myregion block 0 2 -15 15 0 2 units lattice
create_box	1 myregion
Created orthogonal box = (0 -41.2419 0) to (7.77665 41.2419 4.48985)
  1 by 1 by 1 MPI processor grid
create_atoms	1 box
Created 2912 atoms

# define masses
mass * $m
mass * 1

# my fake/morse potential
pair_style      table linear 3001
pair_coeff      * * vpotential_inter23d dummy
neighbor	0.3 bin
neigh_modify	delay 5

# define groups. Nudge to separate planes cleanly
region	    upper block INF INF 0.01 ${lypos} INF INF units lattice
region	    upper block INF INF 0.01 15 INF INF units lattice
group		upper region upper
1440 atoms in group upper

# Setup output
thermo 1
thermo_style custom step temp pe lx ly lz
thermo_modify norm no

# Compute initial state by relaxing box
min_style ${style}
min_style hftn
minimize ${etol} ${ftol} ${maxiter} ${maxeval}
minimize 1e-12 ${ftol} ${maxiter} ${maxeval}
minimize 1e-12 1e-08 ${maxiter} ${maxeval}
minimize 1e-12 1e-08 10000 ${maxeval}
minimize 1e-12 1e-08 10000 20000
WARNING: Resetting reneighboring criteria during minimization (../min.cpp:168)
Memory usage per processor = 5.28939 Mbytes
Step Temp PotEng Lx Ly Lz 
       0            0   -17375.986    7.7766452    82.500275    4.4898482 
       1            0   -17375.986    7.7766452    82.500275    4.4898482 
       2            0   -17375.986    7.7766452    82.500275    4.4898482 
Loop time of 1.52788 on 1 procs for 1 steps with 2912 atoms

Minimization stats:
  Stopping criterion = force tolerance
  Energy initial, next-to-last, final = 
        -17375.9855515     -17375.9855515     -17375.9858427
  Force two-norm initial, final = 0.00252636 4.78485e-12
  Force max component initial, final = 0.000315795 3.56737e-13
  Final line search alpha, max atom move = 0 0
  Iterations, force evaluations = 1 629

Pair  time (%) = 1.40704 (92.0913)
Neigh time (%) = 0 (0)
Comm  time (%) = 0.026785 (1.75309)
Outpt time (%) = 0.000125049 (0.00818452)
Other time (%) = 0.0939246 (6.1474)

Nlocal:    2912 ave 2912 max 2912 min
Histogram: 1 0 0 0 0 0 0 0 0 0
Nghost:    7129 ave 7129 max 7129 min
Histogram: 1 0 0 0 0 0 0 0 0 0
Neighs:    77856 ave 77856 max 77856 min
Histogram: 1 0 0 0 0 0 0 0 0 0

Total # of neighbors = 77856
Ave neighs/atom = 26.7363
Neighbor list builds = 0
Dangerous builds = 0

# don't allow atoms to relax in x- and y-directions
fix 2 all setforce 0.0 NULL 0.0

# GSF energy curve will have 100*2 steps
variable nsteps equal 100
# first partial is parallel to x-axis
variable angle1 equal 0
# second partial is at 60 degrees to first partial
variable angle2 equal PI/180*60
# partial dislocations have length a*sqrt(6)/6
variable sstep1 equal sqrt(6)/6
variable sstep2 equal sqrt(6)/6
variable xstep1 equal cos(${angle1})*${sstep1}/(${ax}*${nsteps})
variable xstep1 equal cos(0)*${sstep1}/(${ax}*${nsteps})
variable xstep1 equal cos(0)*0.408248290463863/(${ax}*${nsteps})
variable xstep1 equal cos(0)*0.408248290463863/(2.44948974278318*${nsteps})
variable xstep1 equal cos(0)*0.408248290463863/(2.44948974278318*100)
variable zstep1 equal sin(${angle1})*${sstep1}/(${az}*${nsteps})
variable zstep1 equal sin(0)*${sstep1}/(${az}*${nsteps})
variable zstep1 equal sin(0)*0.408248290463863/(${az}*${nsteps})
variable zstep1 equal sin(0)*0.408248290463863/(1.4142135623731*${nsteps})
variable zstep1 equal sin(0)*0.408248290463863/(1.4142135623731*100)
variable xstep2 equal cos(${angle2})*${sstep2}/(${ax}*${nsteps})
variable xstep2 equal cos(1.0471975511966)*${sstep2}/(${ax}*${nsteps})
variable xstep2 equal cos(1.0471975511966)*0.408248290463863/(${ax}*${nsteps})
variable xstep2 equal cos(1.0471975511966)*0.408248290463863/(2.44948974278318*${nsteps})
variable xstep2 equal cos(1.0471975511966)*0.408248290463863/(2.44948974278318*100)
variable zstep2 equal sin(${angle2})*${sstep2}/(${az}*${nsteps})
variable zstep2 equal sin(1.0471975511966)*${sstep2}/(${az}*${nsteps})
variable zstep2 equal sin(1.0471975511966)*0.408248290463863/(${az}*${nsteps})
variable zstep2 equal sin(1.0471975511966)*0.408248290463863/(1.4142135623731*${nsteps})
variable zstep2 equal sin(1.0471975511966)*0.408248290463863/(1.4142135623731*100)

variable i loop ${nsteps}
variable i loop 100
label loop1
        displace_atoms upper move ${xstep1} 0.0 ${zstep1} units lattice
        displace_atoms upper move 0.00166666666666667 0.0 ${zstep1} units lattice
        displace_atoms upper move 0.00166666666666667 0.0 0 units lattice
        min_style ${style}
        min_style hftn
        minimize ${etol} ${ftol} ${maxiter} ${maxeval}
        minimize 1e-12 ${ftol} ${maxiter} ${maxeval}
        minimize 1e-12 1e-08 ${maxiter} ${maxeval}
        minimize 1e-12 1e-08 10000 ${maxeval}
        minimize 1e-12 1e-08 10000 20000
WARNING: Resetting reneighboring criteria during minimization (../min.cpp:168)
Memory usage per processor = 5.28939 Mbytes
Step Temp PotEng Lx Ly Lz 
       2            0   -17375.958    7.7766452    82.500442    4.4898482 
       3            0   -17375.958    7.7766452    82.500442    4.4898482 
       4            0   -17375.958    7.7766452    82.500442    4.4898482 
       5            0   -17375.958    7.7766452    82.500442    4.4898482 
       6            0   -17375.958    7.7766452    82.500442    4.4898482 
       7            0   -17375.958    7.7766452    82.500442    4.4898482 
       8            0   -17375.958    7.7766452    82.500442    4.4898482 
       9            0   -17375.958    7.7766452    82.500442    4.4898482 
Loop time of 0.162681 on 1 procs for 6 steps with 2912 atoms

Minimization stats:
  Stopping criterion = energy tolerance
  Energy initial, next-to-last, final = 
        -17375.9576916     -17375.9576916     -17375.9576916
  Force two-norm initial, final = 0.0967175 0.0967002
  Force max component initial, final = 0.0120897 0.0120875
  Final line search alpha, max atom move = 0 0
  Iterations, force evaluations = 6 65

Pair  time (%) = 0.150958 (92.7936)
Neigh time (%) = 0 (0)
Comm  time (%) = 0.00299777 (1.84273)
Outpt time (%) = 0.000435187 (0.267509)
Other time (%) = 0.00829046 (5.09614)

Nlocal:    2912 ave 2912 max 2912 min
Histogram: 1 0 0 0 0 0 0 0 0 0
Nghost:    7129 ave 7129 max 7129 min
Histogram: 1 0 0 0 0 0 0 0 0 0
Neighs:    77856 ave 77856 max 77856 min
Histogram: 1 0 0 0 0 0 0 0 0 0

Total # of neighbors = 77856
Ave neighs/atom = 26.7363
Neighbor list builds = 0
Dangerous builds = 0
        next i
jump SELF loop1
        displace_atoms upper move ${xstep1} 0.0 ${zstep1} units lattice
        displace_atoms upper move 0.00166666666666667 0.0 ${zstep1} units lattice
        displace_atoms upper move 0.00166666666666667 0.0 0 units lattice
        min_style ${style}
        min_style hftn
        minimize ${etol} ${ftol} ${maxiter} ${maxeval}
        minimize 1e-12 ${ftol} ${maxiter} ${maxeval}
        minimize 1e-12 1e-08 ${maxiter} ${maxeval}
        minimize 1e-12 1e-08 10000 ${maxeval}
        minimize 1e-12 1e-08 10000 20000
WARNING: Resetting reneighboring criteria during minimization (../min.cpp:168)
Memory usage per processor = 5.28939 Mbytes
Step Temp PotEng Lx Ly Lz 
       9            0   -17375.875    7.7766452    82.500442    4.4898482 
      10            0   -17375.875    7.7766452    82.500442    4.4898482 
      11            0   -17375.875    7.7766452    82.500442    4.4898482 
      12            0   -17375.875    7.7766452    82.500442    4.4898482 
      13            0   -17375.875    7.7766452    82.500442    4.4898482 
      14            0   -17375.875    7.7766452    82.500442    4.4898482 
      15            0   -17375.875    7.7766452    82.500442    4.4898482 
      16            0   -17375.875    7.7766452    82.500442    4.4898482 
      17            0   -17375.875    7.7766452    82.500442    4.4898482 
      18            0   -17375.875    7.7766452    82.500442    4.4898482 
      19            0   -17375.875    7.7766452    82.500442    4.4898482 
Loop time of 0.199652 on 1 procs for 9 steps with 2912 atoms

Minimization stats:
  Stopping criterion = energy tolerance
  Energy initial, next-to-last, final = 
        -17375.8752298     -17375.8752972     -17375.8753178
  Force two-norm initial, final = 0.379021 0.0896676
  Force max component initial, final = 0.0473777 0.0103845
  Final line search alpha, max atom move = 0 0
  Iterations, force evaluations = 9 72

Pair  time (%) = 0.179035 (89.6735)
Neigh time (%) = 0 (0)
Comm  time (%) = 0.00911802 (4.56696)
Outpt time (%) = 0.00360148 (1.80388)
Other time (%) = 0.00789751 (3.95564)

Nlocal:    2912 ave 2912 max 2912 min
Histogram: 1 0 0 0 0 0 0 0 0 0
Nghost:    7129 ave 7129 max 7129 min
Histogram: 1 0 0 0 0 0 0 0 0 0
Neighs:    77856 ave 77856 max 77856 min
Histogram: 1 0 0 0 0 0 0 0 0 0

Total # of neighbors = 77856
Ave neighs/atom = 26.7363
Neighbor list builds = 0
Dangerous builds = 0
        next i
jump SELF loop1
        displace_atoms upper move ${xstep1} 0.0 ${zstep1} units lattice
        displace_atoms upper move 0.00166666666666667 0.0 ${zstep1} units lattice
        displace_atoms upper move 0.00166666666666667 0.0 0 units lattice
        min_style ${style}
        min_style hftn
        minimize ${etol} ${ftol} ${maxiter} ${maxeval}
        minimize 1e-12 ${ftol} ${maxiter} ${maxeval}
        minimize 1e-12 1e-08 ${maxiter} ${maxeval}
        minimize 1e-12 1e-08 10000 ${maxeval}
        minimize 1e-12 1e-08 10000 20000
WARNING: Resetting reneighboring criteria during minimization (../min.cpp:168)
Memory usage per processor = 5.28939 Mbytes
Step Temp PotEng Lx Ly Lz 
      19            0   -17375.741    7.7766452    82.500442    4.4898482 
      20            0   -17375.741    7.7766452    82.500442    4.4898482 
      21            0   -17375.741    7.7766452    82.500442    4.4898482 
      22            0   -17375.741    7.7766452    82.500442    4.4898482 
      23            0   -17375.741    7.7766452    82.500442    4.4898482 
      24            0   -17375.741    7.7766452    82.500442    4.4898482 
      25            0   -17375.741    7.7766452    82.500442    4.4898482 
      26            0   -17375.741    7.7766452    82.500442    4.4898482 
      27            0   -17375.741    7.7766452    82.500442    4.4898482 
      28            0   -17375.741    7.7766452    82.500442    4.4898482 
Loop time of 0.191021 on 1 procs for 8 steps with 2912 atoms

Minimization stats:
  Stopping criterion = energy tolerance
  Energy initial, next-to-last, final = 
        -17375.7411028     -17375.7411028     -17375.7411027
  Force two-norm initial, final = 0.49275 0.492724
  Force max component initial, final = 0.0606575 0.060654
  Final line search alpha, max atom move = 0 0
  Iterations, force evaluations = 8 75

Pair  time (%) = 0.178749 (93.5758)
Neigh time (%) = 0 (0)
Comm  time (%) = 0.00339352 (1.77652)
Outpt time (%) = 0.000639894 (0.334986)
Other time (%) = 0.00823809 (4.31266)

Nlocal:    2912 ave 2912 max 2912 min
Histogram: 1 0 0 0 0 0 0 0 0 0
Nghost:    7129 ave 7129 max 7129 min
Histogram: 1 0 0 0 0 0 0 0 0 0
Neighs:    77856 ave 77856 max 77856 min
Histogram: 1 0 0 0 0 0 0 0 0 0

Total # of neighbors = 77856
Ave neighs/atom = 26.7363
Neighbor list builds = 0
Dangerous builds = 0
        next i
jump SELF loop1
        displace_atoms upper move ${xstep1} 0.0 ${zstep1} units lattice
        displace_atoms upper move 0.00166666666666667 0.0 ${zstep1} units lattice
        displace_atoms upper move 0.00166666666666667 0.0 0 units lattice
        min_style ${style}
        min_style hftn
        minimize ${etol} ${ftol} ${maxiter} ${maxeval}
        minimize 1e-12 ${ftol} ${maxiter} ${maxeval}
        minimize 1e-12 1e-08 ${maxiter} ${maxeval}
        minimize 1e-12 1e-08 10000 ${maxeval}
        minimize 1e-12 1e-08 10000 20000
WARNING: Resetting reneighboring criteria during minimization (../min.cpp:168)
Memory usage per processor = 5.28939 Mbytes
Step Temp PotEng Lx Ly Lz 
      28            0   -17375.557    7.7766452    82.500442    4.4898482 
      29            0   -17375.558    7.7766452    82.500442    4.4898482 
      30            0    -17375.56    7.7766452    82.500442    4.4898482 
      31            0    -17375.56    7.7766452    82.500442    4.4898482 
      32            0    -17375.56    7.7766452    82.500442    4.4898482 
Loop time of 1.53682 on 1 procs for 3 steps with 2912 atoms

Minimization stats:
  Stopping criterion = force tolerance
  Energy initial, next-to-last, final = 
        -17375.5573507     -17375.5596613     -17375.5596792
  Force two-norm initial, final = 1.11464 6.25077e-12
  Force max component initial, final = 0.138919 9.74688e-13
  Final line search alpha, max atom move = 0 0
  Iterations, force evaluations = 3 621

Pair  time (%) = 1.41223 (91.8931)
Neigh time (%) = 0 (0)
Comm  time (%) = 0.0253943 (1.65239)
Outpt time (%) = 0.000276875 (0.0180161)
Other time (%) = 0.0989172 (6.43649)

Nlocal:    2912 ave 2912 max 2912 min
Histogram: 1 0 0 0 0 0 0 0 0 0
Nghost:    7129 ave 7129 max 7129 min
Histogram: 1 0 0 0 0 0 0 0 0 0
Neighs:    77856 ave 77856 max 77856 min
Histogram: 1 0 0 0 0 0 0 0 0 0

Total # of neighbors = 77856
Ave neighs/atom = 26.7363
Neighbor list builds = 0
Dangerous builds = 0
        next i
jump SELF loop1
        displace_atoms upper move ${xstep1} 0.0 ${zstep1} units lattice
        displace_atoms upper move 0.00166666666666667 0.0 ${zstep1} units lattice
        displace_atoms upper move 0.00166666666666667 0.0 0 units lattice
        min_style ${style}
        min_style hftn
        minimize ${etol} ${ftol} ${maxiter} ${maxeval}
        minimize 1e-12 ${ftol} ${maxiter} ${maxeval}
        minimize 1e-12 1e-08 ${maxiter} ${maxeval}
        minimize 1e-12 1e-08 10000 ${maxeval}
        minimize 1e-12 1e-08 10000 20000
WARNING: Resetting reneighboring criteria during minimization (../min.cpp:168)
Memory usage per processor = 5.28939 Mbytes
Step Temp PotEng Lx Ly Lz 
      32            0   -17375.331    7.7766452     82.50152    4.4898482 
      33            0   -17375.332    7.7766452     82.50152    4.4898482 
      34            0   -17375.332    7.7766452     82.50152    4.4898482 
      35            0   -17375.332    7.7766452     82.50152    4.4898482 
      36            0   -17375.332    7.7766452     82.50152    4.4898482 
Loop time of 1.29624 on 1 procs for 3 steps with 2912 atoms

Minimization stats:
  Stopping criterion = force tolerance
  Energy initial, next-to-last, final = 
        -17375.3314272     -17375.3323554     -17375.3323655
  Force two-norm initial, final = 0.776025 1.06756e-11
  Force max component initial, final = 0.0970031 1.51008e-12
  Final line search alpha, max atom move = 0 0
  Iterations, force evaluations = 3 531

Pair  time (%) = 1.19222 (91.9753)
Neigh time (%) = 0 (0)
Comm  time (%) = 0.0199837 (1.54167)
Outpt time (%) = 0.000300152 (0.0231555)
Other time (%) = 0.0837354 (6.45986)

Nlocal:    2912 ave 2912 max 2912 min
Histogram: 1 0 0 0 0 0 0 0 0 0
Nghost:    7009 ave 7009 max 7009 min
Histogram: 1 0 0 0 0 0 0 0 0 0
Neighs:    77856 ave 77856 max 77856 min
Histogram: 1 0 0 0 0 0 0 0 0 0

Total # of neighbors = 77856
Ave neighs/atom = 26.7363
Neighbor list builds = 0
Dangerous builds = 0
        next i
jump SELF loop1
        displace_atoms upper move ${xstep1} 0.0 ${zstep1} units lattice
        displace_atoms upper move 0.00166666666666667 0.0 ${zstep1} units lattice
        displace_atoms upper move 0.00166666666666667 0.0 0 units lattice
        min_style ${style}
        min_style hftn
        minimize ${etol} ${ftol} ${maxiter} ${maxeval}
        minimize 1e-12 ${ftol} ${maxiter} ${maxeval}
        minimize 1e-12 1e-08 ${maxiter} ${maxeval}
        minimize 1e-12 1e-08 10000 ${maxeval}
        minimize 1e-12 1e-08 10000 20000
WARNING: Resetting reneighboring criteria during minimization (../min.cpp:168)
Memory usage per processor = 5.28939 Mbytes
Step Temp PotEng Lx Ly Lz 
      36            0   -17375.064    7.7766452    82.502093    4.4898482 
      37            0   -17375.064    7.7766452    82.502093    4.4898482 
      38            0   -17375.065    7.7766452    82.502093    4.4898482 
      39            0   -17375.065    7.7766452    82.502093    4.4898482 
Loop time of 0.71766 on 1 procs for 2 steps with 2912 atoms

Minimization stats:
  Stopping criterion = force tolerance
  Energy initial, next-to-last, final = 
        -17375.0637018     -17375.0638083      -17375.064721
  Force two-norm initial, final = 0.793342 7.19306e-09
  Force max component initial, final = 0.0991678 8.58578e-10
  Final line search alpha, max atom move = 0 0
  Iterations, force evaluations = 2 307

Pair  time (%) = 0.658212 (91.7165)
Neigh time (%) = 0 (0)
Comm  time (%) = 0.0119469 (1.6647)
Outpt time (%) = 0.000198955 (0.0277228)
Other time (%) = 0.0473018 (6.59112)

Nlocal:    2912 ave 2912 max 2912 min
Histogram: 1 0 0 0 0 0 0 0 0 0
Nghost:    7009 ave 7009 max 7009 min
Histogram: 1 0 0 0 0 0 0 0 0 0
Neighs:    77856 ave 77856 max 77856 min
Histogram: 1 0 0 0 0 0 0 0 0 0

Total # of neighbors = 77856
Ave neighs/atom = 26.7363
Neighbor list builds = 0
Dangerous builds = 0
        next i
jump SELF loop1
        displace_atoms upper move ${xstep1} 0.0 ${zstep1} units lattice
        displace_atoms upper move 0.00166666666666667 0.0 ${zstep1} units lattice
        displace_atoms upper move 0.00166666666666667 0.0 0 units lattice
        min_style ${style}
        min_style hftn
        minimize ${etol} ${ftol} ${maxiter} ${maxeval}
        minimize 1e-12 ${ftol} ${maxiter} ${maxeval}
        minimize 1e-12 1e-08 ${maxiter} ${maxeval}
        minimize 1e-12 1e-08 10000 ${maxeval}
        minimize 1e-12 1e-08 10000 20000
WARNING: Resetting reneighboring criteria during minimization (../min.cpp:168)
Memory usage per processor = 5.28939 Mbytes
Step Temp PotEng Lx Ly Lz 
      39            0   -17374.762    7.7766452    82.502686    4.4898482 
      40            0   -17374.762    7.7766452    82.502686    4.4898482 
      41            0   -17374.763    7.7766452    82.502686    4.4898482 
      42            0   -17374.763    7.7766452    82.502686    4.4898482 
      43            0   -17374.763    7.7766452    82.502686    4.4898482 
Loop time of 1.58806 on 1 procs for 3 steps with 2912 atoms

Minimization stats:
  Stopping criterion = force tolerance
  Energy initial, next-to-last, final = 
        -17374.7617331     -17374.7628892      -17374.762903
  Force two-norm initial, final = 0.887944 9.74283e-12
  Force max component initial, final = 0.110993 1.50321e-12
  Final line search alpha, max atom move = 0 0
  Iterations, force evaluations = 3 659

Pair  time (%) = 1.45472 (91.6036)
Neigh time (%) = 0 (0)
Comm  time (%) = 0.0275649 (1.73576)
Outpt time (%) = 0.000336972 (0.0212191)
Other time (%) = 0.105439 (6.63945)

Nlocal:    2912 ave 2912 max 2912 min
Histogram: 1 0 0 0 0 0 0 0 0 0
Nghost:    7009 ave 7009 max 7009 min
Histogram: 1 0 0 0 0 0 0 0 0 0
Neighs:    77856 ave 77856 max 77856 min
Histogram: 1 0 0 0 0 0 0 0 0 0

Total # of neighbors = 77856
Ave neighs/atom = 26.7363
Neighbor list builds = 0
Dangerous builds = 0
        next i
jump SELF loop1
        displace_atoms upper move ${xstep1} 0.0 ${zstep1} units lattice
        displace_atoms upper move 0.00166666666666667 0.0 ${zstep1} units lattice
        displace_atoms upper move 0.00166666666666667 0.0 0 units lattice
        min_style ${style}
        min_style hftn
        minimize ${etol} ${ftol} ${maxiter} ${maxeval}
        minimize 1e-12 ${ftol} ${maxiter} ${maxeval}
        minimize 1e-12 1e-08 ${maxiter} ${maxeval}
        minimize 1e-12 1e-08 10000 ${maxeval}
        minimize 1e-12 1e-08 10000 20000
WARNING: Resetting reneighboring criteria during minimization (../min.cpp:168)
Memory usage per processor = 5.28939 Mbytes
Step Temp PotEng Lx Ly Lz 
      43            0   -17374.429    7.7766452    82.503351    4.4898482 
      44            0    -17374.43    7.7766452    82.503351    4.4898482 
      45            0   -17374.431    7.7766452    82.503351    4.4898482 
      46            0   -17374.431    7.7766452    82.503351    4.4898482 
      47            0   -17374.431    7.7766452    82.503351    4.4898482 
Loop time of 1.20372 on 1 procs for 3 steps with 2912 atoms

Minimization stats:
  Stopping criterion = force tolerance
  Energy initial, next-to-last, final = 
        -17374.4294436     -17374.4309126     -17374.4309281
  Force two-norm initial, final = 0.993453 4.22482e-11
  Force max component initial, final = 0.124182 2.80738e-12
  Final line search alpha, max atom move = 0 0
  Iterations, force evaluations = 3 489

Pair  time (%) = 1.10142 (91.5011)
Neigh time (%) = 0 (0)
Comm  time (%) = 0.0202195 (1.67975)
Outpt time (%) = 0.000483687 (0.0401826)
Other time (%) = 0.0816003 (6.77901)

Nlocal:    2912 ave 2912 max 2912 min
Histogram: 1 0 0 0 0 0 0 0 0 0
Nghost:    7009 ave 7009 max 7009 min
Histogram: 1 0 0 0 0 0 0 0 0 0
Neighs:    77856 ave 77856 max 77856 min
Histogram: 1 0 0 0 0 0 0 0 0 0

Total # of neighbors = 77856
Ave neighs/atom = 26.7363
Neighbor list builds = 0
Dangerous builds = 0
        next i
jump SELF loop1
        displace_atoms upper move ${xstep1} 0.0 ${zstep1} units lattice
        displace_atoms upper move 0.00166666666666667 0.0 ${zstep1} units lattice
        displace_atoms upper move 0.00166666666666667 0.0 0 units lattice
        min_style ${style}
        min_style hftn
        minimize ${etol} ${ftol} ${maxiter} ${maxeval}
        minimize 1e-12 ${ftol} ${maxiter} ${maxeval}
        minimize 1e-12 1e-08 ${maxiter} ${maxeval}
        minimize 1e-12 1e-08 10000 ${maxeval}
        minimize 1e-12 1e-08 10000 20000
WARNING: Resetting reneighboring criteria during minimization (../min.cpp:168)
Memory usage per processor = 5.28939 Mbytes
Step Temp PotEng Lx Ly Lz 
      47            0    -17374.07    7.7766452    82.504094    4.4898482 
      48            0   -17374.071    7.7766452    82.504094    4.4898482 
      49            0   -17374.072    7.7766452    82.504094    4.4898482 
      50            0   -17374.072    7.7766452    82.504094    4.4898482 
      51            0   -17374.072    7.7766452    82.504094    4.4898482 
Loop time of 1.18473 on 1 procs for 3 steps with 2912 atoms

Minimization stats:
  Stopping criterion = force tolerance
  Energy initial, next-to-last, final = 
        -17374.0702954     -17374.0719535     -17374.0719706
  Force two-norm initial, final = 1.08832 6.55547e-11
  Force max component initial, final = 0.136041 3.42514e-12
  Final line search alpha, max atom move = 0 0
  Iterations, force evaluations = 3 487

Pair  time (%) = 1.09053 (92.0489)
Neigh time (%) = 0 (0)
Comm  time (%) = 0.0183313 (1.54729)
Outpt time (%) = 0.000431013 (0.0363806)
Other time (%) = 0.0754363 (6.36738)

Nlocal:    2912 ave 2912 max 2912 min
Histogram: 1 0 0 0 0 0 0 0 0 0
Nghost:    7009 ave 7009 max 7009 min
Histogram: 1 0 0 0 0 0 0 0 0 0
Neighs:    77856 ave 77856 max 77856 min
Histogram: 1 0 0 0 0 0 0 0 0 0

Total # of neighbors = 77856
Ave neighs/atom = 26.7363
Neighbor list builds = 0
Dangerous builds = 0
        next i
jump SELF loop1
        displace_atoms upper move ${xstep1} 0.0 ${zstep1} units lattice
        displace_atoms upper move 0.00166666666666667 0.0 ${zstep1} units lattice
        displace_atoms upper move 0.00166666666666667 0.0 0 units lattice
        min_style ${style}
        min_style hftn
        minimize ${etol} ${ftol} ${maxiter} ${maxeval}
        minimize 1e-12 ${ftol} ${maxiter} ${maxeval}
        minimize 1e-12 1e-08 ${maxiter} ${maxeval}
        minimize 1e-12 1e-08 10000 ${maxeval}
        minimize 1e-12 1e-08 10000 20000
WARNING: Resetting reneighboring criteria during minimization (../min.cpp:168)
Memory usage per processor = 5.28939 Mbytes
Step Temp PotEng Lx Ly Lz 
      51            0   -17373.688    7.7766452    82.504909    4.4898482 
      52            0   -17373.688    7.7766452    82.504909    4.4898482 
      53            0    -17373.69    7.7766452    82.504909    4.4898482 
      54            0    -17373.69    7.7766452    82.504909    4.4898482 
      55            0    -17373.69    7.7766452    82.504909    4.4898482 
Loop time of 1.21259 on 1 procs for 3 steps with 2912 atoms

Minimization stats:
  Stopping criterion = force tolerance
  Energy initial, next-to-last, final = 
        -17373.6876909     -17373.6898929     -17373.6899166
  Force two-norm initial, final = 1.17147 1.06249e-10
  Force max component initial, final = 0.146433 8.05148e-12
  Final line search alpha, max atom move = 0 0
  Iterations, force evaluations = 3 485

Pair  time (%) = 1.12111 (92.4562)
Neigh time (%) = 0 (0)
Comm  time (%) = 0.0185009 (1.52573)
Outpt time (%) = 0.000381897 (0.0314943)
Other time (%) = 0.0725931 (5.98662)

Nlocal:    2912 ave 2912 max 2912 min
Histogram: 1 0 0 0 0 0 0 0 0 0
Nghost:    7009 ave 7009 max 7009 min
Histogram: 1 0 0 0 0 0 0 0 0 0
Neighs:    77856 ave 77856 max 77856 min
Histogram: 1 0 0 0 0 0 0 0 0 0

Total # of neighbors = 77856
Ave neighs/atom = 26.7363
Neighbor list builds = 0
Dangerous builds = 0
        next i
jump SELF loop1
        displace_atoms upper move ${xstep1} 0.0 ${zstep1} units lattice
        displace_atoms upper move 0.00166666666666667 0.0 ${zstep1} units lattice
        displace_atoms upper move 0.00166666666666667 0.0 0 units lattice
        min_style ${style}
        min_style hftn
        minimize ${etol} ${ftol} ${maxiter} ${maxeval}
        minimize 1e-12 ${ftol} ${maxiter} ${maxeval}
        minimize 1e-12 1e-08 ${maxiter} ${maxeval}
        minimize 1e-12 1e-08 10000 ${maxeval}
        minimize 1e-12 1e-08 10000 20000
WARNING: Resetting reneighboring criteria during minimization (../min.cpp:168)
Memory usage per processor = 5.28939 Mbytes
Step Temp PotEng Lx Ly Lz 
      55            0   -17373.285    7.7766452    82.505786    4.4898482 
      56            0   -17373.286    7.7766452    82.505786    4.4898482 
      57            0   -17373.287    7.7766452    82.505786    4.4898482 
      58            0   -17373.287    7.7766452    82.505786    4.4898482 
      59            0   -17373.287    7.7766452    82.505786    4.4898482 
Loop time of 1.19956 on 1 procs for 3 steps with 2912 atoms

Minimization stats:
  Stopping criterion = force tolerance
  Energy initial, next-to-last, final = 
        -17373.2850873     -17373.2874683     -17373.2874877
  Force two-norm initial, final = 1.24463 6.186e-11
  Force max component initial, final = 0.155579 4.23509e-12
  Final line search alpha, max atom move = 0 0
  Iterations, force evaluations = 3 489

Pair  time (%) = 1.09954 (91.6616)
Neigh time (%) = 0 (0)
Comm  time (%) = 0.0227789 (1.89894)
Outpt time (%) = 0.00034799 (0.0290097)
Other time (%) = 0.0768969 (6.41041)

Nlocal:    2912 ave 2912 max 2912 min
Histogram: 1 0 0 0 0 0 0 0 0 0
Nghost:    7009 ave 7009 max 7009 min
Histogram: 1 0 0 0 0 0 0 0 0 0
Neighs:    77856 ave 77856 max 77856 min
Histogram: 1 0 0 0 0 0 0 0 0 0

Total # of neighbors = 77856
Ave neighs/atom = 26.7363
Neighbor list builds = 0
Dangerous builds = 0
        next i
jump SELF loop1
        displace_atoms upper move ${xstep1} 0.0 ${zstep1} units lattice
        displace_atoms upper move 0.00166666666666667 0.0 ${zstep1} units lattice
        displace_atoms upper move 0.00166666666666667 0.0 0 units lattice
        min_style ${style}
        min_style hftn
        minimize ${etol} ${ftol} ${maxiter} ${maxeval}
        minimize 1e-12 ${ftol} ${maxiter} ${maxeval}
        minimize 1e-12 1e-08 ${maxiter} ${maxeval}
        minimize 1e-12 1e-08 10000 ${maxeval}
        minimize 1e-12 1e-08 10000 20000
WARNING: Resetting reneighboring criteria during minimization (../min.cpp:168)
Memory usage per processor = 5.28939 Mbytes
Step Temp PotEng Lx Ly Lz 
      59            0   -17372.866    7.7766452    82.506719    4.4898482 
      60            0   -17372.867    7.7766452    82.506719    4.4898482 
      61            0   -17372.868    7.7766452    82.506719    4.4898482 
      62            0   -17372.868    7.7766452    82.506719    4.4898482 
      63            0   -17372.868    7.7766452    82.506719    4.4898482 
Loop time of 1.17408 on 1 procs for 3 steps with 2912 atoms

Minimization stats:
  Stopping criterion = force tolerance
  Energy initial, next-to-last, final = 
        -17372.8659216     -17372.8684705     -17372.8684909
  Force two-norm initial, final = 1.30454 3.94186e-11
  Force max component initial, final = 0.163068 2.41613e-12
  Final line search alpha, max atom move = 0 0
  Iterations, force evaluations = 3 491

Pair  time (%) = 1.07165 (91.2761)
Neigh time (%) = 0 (0)
Comm  time (%) = 0.0190507 (1.62261)
Outpt time (%) = 0.000286 (0.0243595)
Other time (%) = 0.0830887 (7.07693)

Nlocal:    2912 ave 2912 max 2912 min
Histogram: 1 0 0 0 0 0 0 0 0 0
Nghost:    7009 ave 7009 max 7009 min
Histogram: 1 0 0 0 0 0 0 0 0 0
Neighs:    77856 ave 77856 max 77856 min
Histogram: 1 0 0 0 0 0 0 0 0 0

Total # of neighbors = 77856
Ave neighs/atom = 26.7363
Neighbor list builds = 0
Dangerous builds = 0
        next i
jump SELF loop1
        displace_atoms upper move ${xstep1} 0.0 ${zstep1} units lattice
        displace_atoms upper move 0.00166666666666667 0.0 ${zstep1} units lattice
        displace_atoms upper move 0.00166666666666667 0.0 0 units lattice
        min_style ${style}
        min_style hftn
        minimize ${etol} ${ftol} ${maxiter} ${maxeval}
        minimize 1e-12 ${ftol} ${maxiter} ${maxeval}
        minimize 1e-12 1e-08 ${maxiter} ${maxeval}
        minimize 1e-12 1e-08 10000 ${maxeval}
        minimize 1e-12 1e-08 10000 20000
WARNING: Resetting reneighboring criteria during minimization (../min.cpp:168)
Memory usage per processor = 5.28939 Mbytes
Step Temp PotEng Lx Ly Lz 
      63            0   -17372.433    7.7766452    82.507697    4.4898482 
      64            0   -17372.434    7.7766452    82.507697    4.4898482 
      65            0   -17372.436    7.7766452    82.507697    4.4898482 
      66            0   -17372.436    7.7766452    82.507697    4.4898482 
      67            0   -17372.436    7.7766452    82.507697    4.4898482 
Loop time of 1.16504 on 1 procs for 3 steps with 2912 atoms

Minimization stats:
  Stopping criterion = force tolerance
  Energy initial, next-to-last, final = 
        -17372.4331771     -17372.4358861     -17372.4359072
  Force two-norm initial, final = 1.35141 1.00254e-10
  Force max component initial, final = 0.168926 9.44487e-12
  Final line search alpha, max atom move = 0 0
  Iterations, force evaluations = 3 485

Pair  time (%) = 1.06811 (91.6801)
Neigh time (%) = 0 (0)
Comm  time (%) = 0.0196131 (1.68348)
Outpt time (%) = 0.000289924 (0.0248854)
Other time (%) = 0.0770272 (6.61157)

Nlocal:    2912 ave 2912 max 2912 min
Histogram: 1 0 0 0 0 0 0 0 0 0
Nghost:    7009 ave 7009 max 7009 min
Histogram: 1 0 0 0 0 0 0 0 0 0
Neighs:    77792 ave 77792 max 77792 min
Histogram: 1 0 0 0 0 0 0 0 0 0

Total # of neighbors = 77792
Ave neighs/atom = 26.7143
Neighbor list builds = 0
Dangerous builds = 0
        next i
jump SELF loop1
        displace_atoms upper move ${xstep1} 0.0 ${zstep1} units lattice
        displace_atoms upper move 0.00166666666666667 0.0 ${zstep1} units lattice
        displace_atoms upper move 0.00166666666666667 0.0 0 units lattice
        min_style ${style}
        min_style hftn
        minimize ${etol} ${ftol} ${maxiter} ${maxeval}
        minimize 1e-12 ${ftol} ${maxiter} ${maxeval}
        minimize 1e-12 1e-08 ${maxiter} ${maxeval}
        minimize 1e-12 1e-08 10000 ${maxeval}
        minimize 1e-12 1e-08 10000 20000
WARNING: Resetting reneighboring criteria during minimization (../min.cpp:168)
Memory usage per processor = 5.28939 Mbytes
Step Temp PotEng Lx Ly Lz 
      67            0   -17371.989    7.7766452    82.508705    4.4898482 
      68            0    -17371.99    7.7766452    82.508705    4.4898482 
      69            0   -17371.992    7.7766452    82.508705    4.4898482 
      70            0   -17371.992    7.7766452    82.508705    4.4898482 
      71            0   -17371.992    7.7766452    82.508705    4.4898482 
Loop time of 1.1623 on 1 procs for 3 steps with 2912 atoms

Minimization stats:
  Stopping criterion = force tolerance
  Energy initial, next-to-last, final = 
        -17371.9888386     -17371.9915228     -17371.9915433
  Force two-norm initial, final = 1.32362 7.69946e-11
  Force max component initial, final = 0.165452 6.64436e-12
  Final line search alpha, max atom move = 0 0
  Iterations, force evaluations = 3 487

Pair  time (%) = 1.06762 (91.8546)
Neigh time (%) = 0 (0)
Comm  time (%) = 0.0179101 (1.54092)
Outpt time (%) = 0.000459052 (0.0394952)
Other time (%) = 0.0763041 (6.56494)

Nlocal:    2912 ave 2912 max 2912 min
Histogram: 1 0 0 0 0 0 0 0 0 0
Nghost:    7009 ave 7009 max 7009 min
Histogram: 1 0 0 0 0 0 0 0 0 0
Neighs:    77792 ave 77792 max 77792 min
Histogram: 1 0 0 0 0 0 0 0 0 0

Total # of neighbors = 77792
Ave neighs/atom = 26.7143
Neighbor list builds = 0
Dangerous builds = 0
        next i
jump SELF loop1
        displace_atoms upper move ${xstep1} 0.0 ${zstep1} units lattice
        displace_atoms upper move 0.00166666666666667 0.0 ${zstep1} units lattice
        displace_atoms upper move 0.00166666666666667 0.0 0 units lattice
        min_style ${style}
        min_style hftn
        minimize ${etol} ${ftol} ${maxiter} ${maxeval}
        minimize 1e-12 ${ftol} ${maxiter} ${maxeval}
        minimize 1e-12 1e-08 ${maxiter} ${maxeval}
        minimize 1e-12 1e-08 10000 ${maxeval}
        minimize 1e-12 1e-08 10000 20000
WARNING: Resetting reneighboring criteria during minimization (../min.cpp:168)
Memory usage per processor = 5.28939 Mbytes
Step Temp PotEng Lx Ly Lz 
      71            0   -17371.534    7.7766452    82.509685    4.4898482 
      72            0   -17371.535    7.7766452    82.509685    4.4898482 
      73            0   -17371.536    7.7766452    82.509685    4.4898482 
      74            0   -17371.536    7.7766452    82.509685    4.4898482 
      75            0   -17371.536    7.7766452    82.509685    4.4898482 
Loop time of 1.15793 on 1 procs for 3 steps with 2912 atoms

Minimization stats:
  Stopping criterion = force tolerance
  Energy initial, next-to-last, final = 
        -17371.5337864      -17371.536479     -17371.5364991
  Force two-norm initial, final = 1.31079 9.88694e-11
  Force max component initial, final = 0.163848 6.1021e-12
  Final line search alpha, max atom move = 0 0
  Iterations, force evaluations = 3 487

Pair  time (%) = 1.06438 (91.921)
Neigh time (%) = 0 (0)
Comm  time (%) = 0.0189898 (1.63998)
Outpt time (%) = 0.000309077 (0.0266922)
Other time (%) = 0.0742499 (6.4123)

Nlocal:    2912 ave 2912 max 2912 min
Histogram: 1 0 0 0 0 0 0 0 0 0
Nghost:    7009 ave 7009 max 7009 min
Histogram: 1 0 0 0 0 0 0 0 0 0
Neighs:    77792 ave 77792 max 77792 min
Histogram: 1 0 0 0 0 0 0 0 0 0

Total # of neighbors = 77792
Ave neighs/atom = 26.7143
Neighbor list builds = 0
Dangerous builds = 0
        next i
jump SELF loop1
        displace_atoms upper move ${xstep1} 0.0 ${zstep1} units lattice
        displace_atoms upper move 0.00166666666666667 0.0 ${zstep1} units lattice
        displace_atoms upper move 0.00166666666666667 0.0 0 units lattice
        min_style ${style}
        min_style hftn
        minimize ${etol} ${ftol} ${maxiter} ${maxeval}
        minimize 1e-12 ${ftol} ${maxiter} ${maxeval}
        minimize 1e-12 1e-08 ${maxiter} ${maxeval}
        minimize 1e-12 1e-08 10000 ${maxeval}
        minimize 1e-12 1e-08 10000 20000
WARNING: Resetting reneighboring criteria during minimization (../min.cpp:168)
Memory usage per processor = 5.28939 Mbytes
Step Temp PotEng Lx Ly Lz 
      75            0    -17371.07    7.7766452    82.510649    4.4898482 
      76            0   -17371.071    7.7766452    82.510649    4.4898482 
      77            0   -17371.072    7.7766452    82.510649    4.4898482 
      78            0   -17371.072    7.7766452    82.510649    4.4898482 
      79            0   -17371.072    7.7766452    82.510649    4.4898482 
Loop time of 1.1555 on 1 procs for 3 steps with 2912 atoms

Minimization stats:
  Stopping criterion = force tolerance
  Energy initial, next-to-last, final = 
        -17371.0695118     -17371.0721433     -17371.0721672
  Force two-norm initial, final = 1.29545 4.51317e-11
  Force max component initial, final = 0.161931 3.51437e-12
  Final line search alpha, max atom move = 0 0
  Iterations, force evaluations = 3 485

Pair  time (%) = 1.06117 (91.8364)
Neigh time (%) = 0 (0)
Comm  time (%) = 0.0206481 (1.78693)
Outpt time (%) = 0.000145951 (0.012631)
Other time (%) = 0.0735368 (6.36404)

Nlocal:    2912 ave 2912 max 2912 min
Histogram: 1 0 0 0 0 0 0 0 0 0
Nghost:    7009 ave 7009 max 7009 min
Histogram: 1 0 0 0 0 0 0 0 0 0
Neighs:    77792 ave 77792 max 77792 min
Histogram: 1 0 0 0 0 0 0 0 0 0

Total # of neighbors = 77792
Ave neighs/atom = 26.7143
Neighbor list builds = 0
Dangerous builds = 0
        next i
jump SELF loop1
        displace_atoms upper move ${xstep1} 0.0 ${zstep1} units lattice
        displace_atoms upper move 0.00166666666666667 0.0 ${zstep1} units lattice
        displace_atoms upper move 0.00166666666666667 0.0 0 units lattice
        min_style ${style}
        min_style hftn
        minimize ${etol} ${ftol} ${maxiter} ${maxeval}
        minimize 1e-12 ${ftol} ${maxiter} ${maxeval}
        minimize 1e-12 1e-08 ${maxiter} ${maxeval}
        minimize 1e-12 1e-08 10000 ${maxeval}
        minimize 1e-12 1e-08 10000 20000
WARNING: Resetting reneighboring criteria during minimization (../min.cpp:168)
Memory usage per processor = 5.28939 Mbytes
Step Temp PotEng Lx Ly Lz 
      79            0   -17370.597    7.7766452    82.511596    4.4898482 
      80            0   -17370.598    7.7766452    82.511596    4.4898482 
      81            0     -17370.6    7.7766452    82.511596    4.4898482 
      82            0     -17370.6    7.7766452    82.511596    4.4898482 
      83            0     -17370.6    7.7766452    82.511596    4.4898482 
Loop time of 1.15047 on 1 procs for 3 steps with 2912 atoms

Minimization stats:
  Stopping criterion = force tolerance
  Energy initial, next-to-last, final = 
        -17370.5974155     -17370.5996248      -17370.599649
  Force two-norm initial, final = 1.27743 8.9464e-11
  Force max component initial, final = 0.159678 7.6671e-12
  Final line search alpha, max atom move = 0 0
  Iterations, force evaluations = 3 487

Pair  time (%) = 1.05471 (91.6759)
Neigh time (%) = 0 (0)
Comm  time (%) = 0.0176399 (1.53327)
Outpt time (%) = 0.000321973 (0.0279861)
Other time (%) = 0.077805 (6.76286)

Nlocal:    2912 ave 2912 max 2912 min
Histogram: 1 0 0 0 0 0 0 0 0 0
Nghost:    7009 ave 7009 max 7009 min
Histogram: 1 0 0 0 0 0 0 0 0 0
Neighs:    77792 ave 77792 max 77792 min
Histogram: 1 0 0 0 0 0 0 0 0 0

Total # of neighbors = 77792
Ave neighs/atom = 26.7143
Neighbor list builds = 0
Dangerous builds = 0
        next i
jump SELF loop1
        displace_atoms upper move ${xstep1} 0.0 ${zstep1} units lattice
        displace_atoms upper move 0.00166666666666667 0.0 ${zstep1} units lattice
        displace_atoms upper move 0.00166666666666667 0.0 0 units lattice
        min_style ${style}
        min_style hftn
        minimize ${etol} ${ftol} ${maxiter} ${maxeval}
        minimize 1e-12 ${ftol} ${maxiter} ${maxeval}
        minimize 1e-12 1e-08 ${maxiter} ${maxeval}
        minimize 1e-12 1e-08 10000 ${maxeval}
        minimize 1e-12 1e-08 10000 20000
WARNING: Resetting reneighboring criteria during minimization (../min.cpp:168)
Memory usage per processor = 5.28939 Mbytes
Step Temp PotEng Lx Ly Lz 
      83            0   -17370.119    7.7766452    82.512526    4.4898482 
      84            0   -17370.119    7.7766452    82.512526    4.4898482 
      85            0   -17370.121    7.7766452    82.512526    4.4898482 
      86            0   -17370.121    7.7766452    82.512526    4.4898482 
      87            0   -17370.121    7.7766452    82.512526    4.4898482 
Loop time of 1.15329 on 1 procs for 3 steps with 2912 atoms

Minimization stats:
  Stopping criterion = force tolerance
  Energy initial, next-to-last, final = 
        -17370.1185125     -17370.1206242     -17370.1206483
  Force two-norm initial, final = 1.25724 3.37318e-11
  Force max component initial, final = 0.157155 2.44359e-12
  Final line search alpha, max atom move = 0 0
  Iterations, force evaluations = 3 484

Pair  time (%) = 1.04769 (90.844)
Neigh time (%) = 0 (0)
Comm  time (%) = 0.0258275 (2.23947)
Outpt time (%) = 0.000315148 (0.027326)
Other time (%) = 0.0794528 (6.88923)

Nlocal:    2912 ave 2912 max 2912 min
Histogram: 1 0 0 0 0 0 0 0 0 0
Nghost:    7009 ave 7009 max 7009 min
Histogram: 1 0 0 0 0 0 0 0 0 0
Neighs:    77792 ave 77792 max 77792 min
Histogram: 1 0 0 0 0 0 0 0 0 0

Total # of neighbors = 77792
Ave neighs/atom = 26.7143
Neighbor list builds = 0
Dangerous builds = 0
        next i
jump SELF loop1
        displace_atoms upper move ${xstep1} 0.0 ${zstep1} units lattice
        displace_atoms upper move 0.00166666666666667 0.0 ${zstep1} units lattice
        displace_atoms upper move 0.00166666666666667 0.0 0 units lattice
        min_style ${style}
        min_style hftn
        minimize ${etol} ${ftol} ${maxiter} ${maxeval}
        minimize 1e-12 ${ftol} ${maxiter} ${maxeval}
        minimize 1e-12 1e-08 ${maxiter} ${maxeval}
        minimize 1e-12 1e-08 10000 ${maxeval}
        minimize 1e-12 1e-08 10000 20000
WARNING: Resetting reneighboring criteria during minimization (../min.cpp:168)
Memory usage per processor = 5.28939 Mbytes
Step Temp PotEng Lx Ly Lz 
      87            0   -17369.634    7.7766452    82.513436    4.4898482 
      88            0   -17369.635    7.7766452    82.513436    4.4898482 
      89            0   -17369.637    7.7766452    82.513436    4.4898482 
      90            0   -17369.637    7.7766452    82.513436    4.4898482 
      91            0   -17369.637    7.7766452    82.513436    4.4898482 
Loop time of 1.15776 on 1 procs for 3 steps with 2912 atoms

Minimization stats:
  Stopping criterion = force tolerance
  Energy initial, next-to-last, final = 
         -17369.634415      -17369.636616     -17369.6366395
  Force two-norm initial, final = 1.2354 7.95576e-11
  Force max component initial, final = 0.154425 5.84127e-12
  Final line search alpha, max atom move = 0 0
  Iterations, force evaluations = 3 487

Pair  time (%) = 1.06088 (91.6321)
Neigh time (%) = 0 (0)
Comm  time (%) = 0.0183525 (1.58518)
Outpt time (%) = 0.00113007 (0.097609)
Other time (%) = 0.0773971 (6.6851)

Nlocal:    2912 ave 2912 max 2912 min
Histogram: 1 0 0 0 0 0 0 0 0 0
Nghost:    7009 ave 7009 max 7009 min
Histogram: 1 0 0 0 0 0 0 0 0 0
Neighs:    77792 ave 77792 max 77792 min
Histogram: 1 0 0 0 0 0 0 0 0 0

Total # of neighbors = 77792
Ave neighs/atom = 26.7143
Neighbor list builds = 0
Dangerous builds = 0
        next i
jump SELF loop1
        displace_atoms upper move ${xstep1} 0.0 ${zstep1} units lattice
        displace_atoms upper move 0.00166666666666667 0.0 ${zstep1} units lattice
        displace_atoms upper move 0.00166666666666667 0.0 0 units lattice
        min_style ${style}
        min_style hftn
        minimize ${etol} ${ftol} ${maxiter} ${maxeval}
        minimize 1e-12 ${ftol} ${maxiter} ${maxeval}
        minimize 1e-12 1e-08 ${maxiter} ${maxeval}
        minimize 1e-12 1e-08 10000 ${maxeval}
        minimize 1e-12 1e-08 10000 20000
WARNING: Resetting reneighboring criteria during minimization (../min.cpp:168)
Memory usage per processor = 5.28939 Mbytes
Step Temp PotEng Lx Ly Lz 
      91            0   -17369.147    7.7766452    82.514326    4.4898482 
      92            0   -17369.148    7.7766452    82.514326    4.4898482 
      93            0   -17369.149    7.7766452    82.514326    4.4898482 
      94            0   -17369.149    7.7766452    82.514326    4.4898482 
      95            0   -17369.149    7.7766452    82.514326    4.4898482 
Loop time of 1.18963 on 1 procs for 3 steps with 2912 atoms

Minimization stats:
  Stopping criterion = force tolerance
  Energy initial, next-to-last, final = 
        -17369.1467371     -17369.1490364     -17369.1490592
  Force two-norm initial, final = 1.21124 7.90836e-11
  Force max component initial, final = 0.151405 5.20978e-12
  Final line search alpha, max atom move = 0 0
  Iterations, force evaluations = 3 485

Pair  time (%) = 1.09407 (91.9674)
Neigh time (%) = 0 (0)
Comm  time (%) = 0.0199468 (1.67673)
Outpt time (%) = 0.000282906 (0.0237811)
Other time (%) = 0.0753277 (6.33204)

Nlocal:    2912 ave 2912 max 2912 min
Histogram: 1 0 0 0 0 0 0 0 0 0
Nghost:    7009 ave 7009 max 7009 min
Histogram: 1 0 0 0 0 0 0 0 0 0
Neighs:    77792 ave 77792 max 77792 min
Histogram: 1 0 0 0 0 0 0 0 0 0

Total # of neighbors = 77792
Ave neighs/atom = 26.7143
Neighbor list builds = 0
Dangerous builds = 0
        next i
jump SELF loop1
        displace_atoms upper move ${xstep1} 0.0 ${zstep1} units lattice
        displace_atoms upper move 0.00166666666666667 0.0 ${zstep1} units lattice
        displace_atoms upper move 0.00166666666666667 0.0 0 units lattice
        min_style ${style}
        min_style hftn
        minimize ${etol} ${ftol} ${maxiter} ${maxeval}
        minimize 1e-12 ${ftol} ${maxiter} ${maxeval}
        minimize 1e-12 1e-08 ${maxiter} ${maxeval}
        minimize 1e-12 1e-08 10000 ${maxeval}
        minimize 1e-12 1e-08 10000 20000
WARNING: Resetting reneighboring criteria during minimization (../min.cpp:168)
Memory usage per processor = 5.28939 Mbytes
Step Temp PotEng Lx Ly Lz 
      95            0   -17368.657    7.7766452    82.515193    4.4898482 
      96            0   -17368.657    7.7766452    82.515193    4.4898482 
      97            0   -17368.658    7.7766452    82.515193    4.4898482 
      98            0   -17368.658    7.7766452    82.515193    4.4898482 
      99            0   -17368.658    7.7766452    82.515193    4.4898482 
Loop time of 1.22769 on 1 procs for 3 steps with 2912 atoms

Minimization stats:
  Stopping criterion = force tolerance
  Energy initial, next-to-last, final = 
        -17368.6565968      -17368.658427     -17368.6584495
  Force two-norm initial, final = 1.1862 6.03395e-11
  Force max component initial, final = 0.148275 4.79108e-12
  Final line search alpha, max atom move = 0 0
  Iterations, force evaluations = 3 487

Pair  time (%) = 1.12325 (91.4931)
Neigh time (%) = 0 (0)
Comm  time (%) = 0.0260021 (2.11797)
Outpt time (%) = 0.000264154 (0.0215164)
Other time (%) = 0.0781714 (6.36737)

Nlocal:    2912 ave 2912 max 2912 min
Histogram: 1 0 0 0 0 0 0 0 0 0
Nghost:    7009 ave 7009 max 7009 min
Histogram: 1 0 0 0 0 0 0 0 0 0
Neighs:    77792 ave 77792 max 77792 min
Histogram: 1 0 0 0 0 0 0 0 0 0

Total # of neighbors = 77792
Ave neighs/atom = 26.7143
Neighbor list builds = 0
Dangerous builds = 0
        next i
jump SELF loop1
        displace_atoms upper move ${xstep1} 0.0 ${zstep1} units lattice
        displace_atoms upper move 0.00166666666666667 0.0 ${zstep1} units lattice
        displace_atoms upper move 0.00166666666666667 0.0 0 units lattice
        min_style ${style}
        min_style hftn
        minimize ${etol} ${ftol} ${maxiter} ${maxeval}
        minimize 1e-12 ${ftol} ${maxiter} ${maxeval}
        minimize 1e-12 1e-08 ${maxiter} ${maxeval}
        minimize 1e-12 1e-08 10000 ${maxeval}
        minimize 1e-12 1e-08 10000 20000
WARNING: Resetting reneighboring criteria during minimization (../min.cpp:168)
Memory usage per processor = 5.28939 Mbytes
Step Temp PotEng Lx Ly Lz 
      99            0   -17368.165    7.7766452     82.51604    4.4898482 
     100            0   -17368.166    7.7766452     82.51604    4.4898482 
     101            0   -17368.167    7.7766452     82.51604    4.4898482 
     102            0   -17368.167    7.7766452     82.51604    4.4898482 
     103            0   -17368.167    7.7766452     82.51604    4.4898482 
Loop time of 1.22592 on 1 procs for 3 steps with 2912 atoms

Minimization stats:
  Stopping criterion = force tolerance
  Energy initial, next-to-last, final = 
        -17368.1650869     -17368.1669982       -17368.16702
  Force two-norm initial, final = 1.15791 6.44083e-11
  Force max component initial, final = 0.144739 4.51652e-12
  Final line search alpha, max atom move = 0 0
  Iterations, force evaluations = 3 487

Pair  time (%) = 1.11347 (90.8268)
Neigh time (%) = 0 (0)
Comm  time (%) = 0.0339242 (2.76724)
Outpt time (%) = 0.000296122 (0.0241551)
Other time (%) = 0.0782356 (6.38178)

Nlocal:    2912 ave 2912 max 2912 min
Histogram: 1 0 0 0 0 0 0 0 0 0
Nghost:    7009 ave 7009 max 7009 min
Histogram: 1 0 0 0 0 0 0 0 0 0
Neighs:    77792 ave 77792 max 77792 min
Histogram: 1 0 0 0 0 0 0 0 0 0

Total # of neighbors = 77792
Ave neighs/atom = 26.7143
Neighbor list builds = 0
Dangerous builds = 0
        next i
jump SELF loop1
        displace_atoms upper move ${xstep1} 0.0 ${zstep1} units lattice
        displace_atoms upper move 0.00166666666666667 0.0 ${zstep1} units lattice
        displace_atoms upper move 0.00166666666666667 0.0 0 units lattice
        min_style ${style}
        min_style hftn
        minimize ${etol} ${ftol} ${maxiter} ${maxeval}
        minimize 1e-12 ${ftol} ${maxiter} ${maxeval}
        minimize 1e-12 1e-08 ${maxiter} ${maxeval}
        minimize 1e-12 1e-08 10000 ${maxeval}
        minimize 1e-12 1e-08 10000 20000
WARNING: Resetting reneighboring criteria during minimization (../min.cpp:168)
Memory usage per processor = 5.28939 Mbytes
Step Temp PotEng Lx Ly Lz 
     103            0   -17367.674    7.7766452    82.516864    4.4898482 
     104            0   -17367.675    7.7766452    82.516864    4.4898482 
     105            0   -17367.676    7.7766452    82.516864    4.4898482 
     106            0   -17367.676    7.7766452    82.516864    4.4898482 
     107            0   -17367.676    7.7766452    82.516864    4.4898482 
Loop time of 1.21897 on 1 procs for 3 steps with 2912 atoms

Minimization stats:
  Stopping criterion = force tolerance
  Energy initial, next-to-last, final = 
        -17367.6742896     -17367.6760667     -17367.6760866
  Force two-norm initial, final = 1.12697 1.29711e-10
  Force max component initial, final = 0.140871 6.9052e-12
  Final line search alpha, max atom move = 0 0
  Iterations, force evaluations = 3 483

Pair  time (%) = 1.11963 (91.8506)
Neigh time (%) = 0 (0)
Comm  time (%) = 0.0215503 (1.76791)
Outpt time (%) = 0.000286902 (0.0235363)
Other time (%) = 0.077502 (6.35798)

Nlocal:    2912 ave 2912 max 2912 min
Histogram: 1 0 0 0 0 0 0 0 0 0
Nghost:    7009 ave 7009 max 7009 min
Histogram: 1 0 0 0 0 0 0 0 0 0
Neighs:    77792 ave 77792 max 77792 min
Histogram: 1 0 0 0 0 0 0 0 0 0

Total # of neighbors = 77792
Ave neighs/atom = 26.7143
Neighbor list builds = 0
Dangerous builds = 0
        next i
jump SELF loop1
        displace_atoms upper move ${xstep1} 0.0 ${zstep1} units lattice
        displace_atoms upper move 0.00166666666666667 0.0 ${zstep1} units lattice
        displace_atoms upper move 0.00166666666666667 0.0 0 units lattice
        min_style ${style}
        min_style hftn
        minimize ${etol} ${ftol} ${maxiter} ${maxeval}
        minimize 1e-12 ${ftol} ${maxiter} ${maxeval}
        minimize 1e-12 1e-08 ${maxiter} ${maxeval}
        minimize 1e-12 1e-08 10000 ${maxeval}
        minimize 1e-12 1e-08 10000 20000
WARNING: Resetting reneighboring criteria during minimization (../min.cpp:168)
Memory usage per processor = 5.28939 Mbytes
Step Temp PotEng Lx Ly Lz 
     107            0   -17367.185    7.7766452    82.517662    4.4898482 
     108            0   -17367.185    7.7766452    82.517662    4.4898482 
     109            0   -17367.186    7.7766452    82.517662    4.4898482 
     110            0   -17367.186    7.7766452    82.517662    4.4898482 
     111            0   -17367.186    7.7766452    82.517662    4.4898482 
Loop time of 1.2762 on 1 procs for 3 steps with 2912 atoms

Minimization stats:
  Stopping criterion = force tolerance
  Energy initial, next-to-last, final = 
        -17367.1845292     -17367.1861846     -17367.1862009
  Force two-norm initial, final = 1.09771 4.84843e-11
  Force max component initial, final = 0.137214 2.81424e-12
  Final line search alpha, max atom move = 0 0
  Iterations, force evaluations = 3 489

Pair  time (%) = 1.17409 (91.9986)
Neigh time (%) = 0 (0)
Comm  time (%) = 0.0220244 (1.72578)
Outpt time (%) = 0.000255088 (0.0199881)
Other time (%) = 0.0798345 (6.25565)

Nlocal:    2912 ave 2912 max 2912 min
Histogram: 1 0 0 0 0 0 0 0 0 0
Nghost:    7009 ave 7009 max 7009 min
Histogram: 1 0 0 0 0 0 0 0 0 0
Neighs:    77792 ave 77792 max 77792 min
Histogram: 1 0 0 0 0 0 0 0 0 0

Total # of neighbors = 77792
Ave neighs/atom = 26.7143
Neighbor list builds = 0
Dangerous builds = 0
        next i
jump SELF loop1
        displace_atoms upper move ${xstep1} 0.0 ${zstep1} units lattice
        displace_atoms upper move 0.00166666666666667 0.0 ${zstep1} units lattice
        displace_atoms upper move 0.00166666666666667 0.0 0 units lattice
        min_style ${style}
        min_style hftn
        minimize ${etol} ${ftol} ${maxiter} ${maxeval}
        minimize 1e-12 ${ftol} ${maxiter} ${maxeval}
        minimize 1e-12 1e-08 ${maxiter} ${maxeval}
        minimize 1e-12 1e-08 10000 ${maxeval}
        minimize 1e-12 1e-08 10000 20000
WARNING: Resetting reneighboring criteria during minimization (../min.cpp:168)
Memory usage per processor = 5.28939 Mbytes
Step Temp PotEng Lx Ly Lz 
     111            0   -17366.698    7.7766452    82.518437    4.4898482 
     112            0   -17366.698    7.7766452    82.518437    4.4898482 
     113            0     -17366.7    7.7766452    82.518437    4.4898482 
     114            0     -17366.7    7.7766452    82.518437    4.4898482 
     115            0     -17366.7    7.7766452    82.518437    4.4898482 
Loop time of 1.19381 on 1 procs for 3 steps with 2912 atoms

Minimization stats:
  Stopping criterion = force tolerance
  Energy initial, next-to-last, final = 
         -17366.698112     -17366.6997303     -17366.6997459
  Force two-norm initial, final = 1.06254 4.1572e-11
  Force max component initial, final = 0.132818 2.82111e-12
  Final line search alpha, max atom move = 0 0
  Iterations, force evaluations = 3 487

Pair  time (%) = 1.08949 (91.2615)
Neigh time (%) = 0 (0)
Comm  time (%) = 0.0205808 (1.72396)
Outpt time (%) = 0.000404817 (0.0339097)
Other time (%) = 0.0833351 (6.98061)

Nlocal:    2912 ave 2912 max 2912 min
Histogram: 1 0 0 0 0 0 0 0 0 0
Nghost:    7009 ave 7009 max 7009 min
Histogram: 1 0 0 0 0 0 0 0 0 0
Neighs:    77792 ave 77792 max 77792 min
Histogram: 1 0 0 0 0 0 0 0 0 0

Total # of neighbors = 77792
Ave neighs/atom = 26.7143
Neighbor list builds = 0
Dangerous builds = 0
        next i
jump SELF loop1
        displace_atoms upper move ${xstep1} 0.0 ${zstep1} units lattice
        displace_atoms upper move 0.00166666666666667 0.0 ${zstep1} units lattice
        displace_atoms upper move 0.00166666666666667 0.0 0 units lattice
        min_style ${style}
        min_style hftn
        minimize ${etol} ${ftol} ${maxiter} ${maxeval}
        minimize 1e-12 ${ftol} ${maxiter} ${maxeval}
        minimize 1e-12 1e-08 ${maxiter} ${maxeval}
        minimize 1e-12 1e-08 10000 ${maxeval}
        minimize 1e-12 1e-08 10000 20000
WARNING: Resetting reneighboring criteria during minimization (../min.cpp:168)
Memory usage per processor = 5.28939 Mbytes
Step Temp PotEng Lx Ly Lz 
     115            0   -17366.216    7.7766452    82.519185    4.4898482 
     116            0   -17366.216    7.7766452    82.519185    4.4898482 
     117            0   -17366.217    7.7766452    82.519185    4.4898482 
     118            0   -17366.217    7.7766452    82.519185    4.4898482 
     119            0   -17366.217    7.7766452    82.519185    4.4898482 
Loop time of 1.21568 on 1 procs for 3 steps with 2912 atoms

Minimization stats:
  Stopping criterion = force tolerance
  Energy initial, next-to-last, final = 
        -17366.2155554     -17366.2170146     -17366.2170297
  Force two-norm initial, final = 1.02962 3.56304e-11
  Force max component initial, final = 0.128702 2.82797e-12
  Final line search alpha, max atom move = 0 0
  Iterations, force evaluations = 3 489

Pair  time (%) = 1.11723 (91.9012)
Neigh time (%) = 0 (0)
Comm  time (%) = 0.0188808 (1.5531)
Outpt time (%) = 0.000693946 (0.0570828)
Other time (%) = 0.0788811 (6.48862)

Nlocal:    2912 ave 2912 max 2912 min
Histogram: 1 0 0 0 0 0 0 0 0 0
Nghost:    7009 ave 7009 max 7009 min
Histogram: 1 0 0 0 0 0 0 0 0 0
Neighs:    77792 ave 77792 max 77792 min
Histogram: 1 0 0 0 0 0 0 0 0 0

Total # of neighbors = 77792
Ave neighs/atom = 26.7143
Neighbor list builds = 0
Dangerous builds = 0
        next i
jump SELF loop1
        displace_atoms upper move ${xstep1} 0.0 ${zstep1} units lattice
        displace_atoms upper move 0.00166666666666667 0.0 ${zstep1} units lattice
        displace_atoms upper move 0.00166666666666667 0.0 0 units lattice
        min_style ${style}
        min_style hftn
        minimize ${etol} ${ftol} ${maxiter} ${maxeval}
        minimize 1e-12 ${ftol} ${maxiter} ${maxeval}
        minimize 1e-12 1e-08 ${maxiter} ${maxeval}
        minimize 1e-12 1e-08 10000 ${maxeval}
        minimize 1e-12 1e-08 10000 20000
WARNING: Resetting reneighboring criteria during minimization (../min.cpp:168)
Memory usage per processor = 5.28939 Mbytes
Step Temp PotEng Lx Ly Lz 
     119            0   -17365.739    7.7766452    82.519908    4.4898482 
     120            0   -17365.739    7.7766452    82.519908    4.4898482 
     121            0    -17365.74    7.7766452    82.519908    4.4898482 
     122            0    -17365.74    7.7766452    82.519908    4.4898482 
     123            0    -17365.74    7.7766452    82.519908    4.4898482 
Loop time of 1.19097 on 1 procs for 3 steps with 2912 atoms

Minimization stats:
  Stopping criterion = force tolerance
  Energy initial, next-to-last, final = 
        -17365.7389201     -17365.7402468     -17365.7402613
  Force two-norm initial, final = 0.991317 1.77456e-11
  Force max component initial, final = 0.123915 2.18275e-12
  Final line search alpha, max atom move = 0 0
  Iterations, force evaluations = 3 493

Pair  time (%) = 1.0835 (90.9769)
Neigh time (%) = 0 (0)
Comm  time (%) = 0.0224743 (1.88706)
Outpt time (%) = 0.000415986 (0.0349284)
Other time (%) = 0.0845724 (7.10115)

Nlocal:    2912 ave 2912 max 2912 min
Histogram: 1 0 0 0 0 0 0 0 0 0
Nghost:    7009 ave 7009 max 7009 min
Histogram: 1 0 0 0 0 0 0 0 0 0
Neighs:    77792 ave 77792 max 77792 min
Histogram: 1 0 0 0 0 0 0 0 0 0

Total # of neighbors = 77792
Ave neighs/atom = 26.7143
Neighbor list builds = 0
Dangerous builds = 0
        next i
jump SELF loop1
        displace_atoms upper move ${xstep1} 0.0 ${zstep1} units lattice
        displace_atoms upper move 0.00166666666666667 0.0 ${zstep1} units lattice
        displace_atoms upper move 0.00166666666666667 0.0 0 units lattice
        min_style ${style}
        min_style hftn
        minimize ${etol} ${ftol} ${maxiter} ${maxeval}
        minimize 1e-12 ${ftol} ${maxiter} ${maxeval}
        minimize 1e-12 1e-08 ${maxiter} ${maxeval}
        minimize 1e-12 1e-08 10000 ${maxeval}
        minimize 1e-12 1e-08 10000 20000
WARNING: Resetting reneighboring criteria during minimization (../min.cpp:168)
Memory usage per processor = 5.28939 Mbytes
Step Temp PotEng Lx Ly Lz 
     123            0   -17365.269    7.7766452    82.520603    4.4898482 
     124            0   -17365.269    7.7766452    82.520603    4.4898482 
     125            0    -17365.27    7.7766452    82.520603    4.4898482 
     126            0    -17365.27    7.7766452    82.520603    4.4898482 
     127            0    -17365.27    7.7766452    82.520603    4.4898482 
Loop time of 1.2186 on 1 procs for 3 steps with 2912 atoms

Minimization stats:
  Stopping criterion = force tolerance
  Energy initial, next-to-last, final = 
        -17365.2686402     -17365.2699103     -17365.2699243
  Force two-norm initial, final = 0.955392 3.10418e-11
  Force max component initial, final = 0.119424 2.44359e-12
  Final line search alpha, max atom move = 0 0
  Iterations, force evaluations = 3 491

Pair  time (%) = 1.12175 (92.0521)
Neigh time (%) = 0 (0)
Comm  time (%) = 0.0223671 (1.83548)
Outpt time (%) = 0.000341884 (0.0280554)
Other time (%) = 0.0741445 (6.0844)

Nlocal:    2912 ave 2912 max 2912 min
Histogram: 1 0 0 0 0 0 0 0 0 0
Nghost:    7009 ave 7009 max 7009 min
Histogram: 1 0 0 0 0 0 0 0 0 0
Neighs:    77792 ave 77792 max 77792 min
Histogram: 1 0 0 0 0 0 0 0 0 0

Total # of neighbors = 77792
Ave neighs/atom = 26.7143
Neighbor list builds = 0
Dangerous builds = 0
        next i
jump SELF loop1
        displace_atoms upper move ${xstep1} 0.0 ${zstep1} units lattice
        displace_atoms upper move 0.00166666666666667 0.0 ${zstep1} units lattice
        displace_atoms upper move 0.00166666666666667 0.0 0 units lattice
        min_style ${style}
        min_style hftn
        minimize ${etol} ${ftol} ${maxiter} ${maxeval}
        minimize 1e-12 ${ftol} ${maxiter} ${maxeval}
        minimize 1e-12 1e-08 ${maxiter} ${maxeval}
        minimize 1e-12 1e-08 10000 ${maxeval}
        minimize 1e-12 1e-08 10000 20000
WARNING: Resetting reneighboring criteria during minimization (../min.cpp:168)
Memory usage per processor = 5.28939 Mbytes
Step Temp PotEng Lx Ly Lz 
     127            0   -17364.807    7.7766452    82.521271    4.4898482 
     128            0   -17364.807    7.7766452    82.521271    4.4898482 
     129            0   -17364.808    7.7766452    82.521271    4.4898482 
     130            0   -17364.808    7.7766452    82.521271    4.4898482 
     131            0   -17364.808    7.7766452    82.521271    4.4898482 
Loop time of 1.62071 on 1 procs for 3 steps with 2912 atoms

Minimization stats:
  Stopping criterion = force tolerance
  Energy initial, next-to-last, final = 
        -17364.8070288     -17364.8081672     -17364.8081807
  Force two-norm initial, final = 0.913895 1.48435e-11
  Force max component initial, final = 0.114237 1.51008e-12
  Final line search alpha, max atom move = 0 0
  Iterations, force evaluations = 3 657

Pair  time (%) = 1.48504 (91.6286)
Neigh time (%) = 0 (0)
Comm  time (%) = 0.0255501 (1.57647)
Outpt time (%) = 0.000250012 (0.0154261)
Other time (%) = 0.109876 (6.77948)

Nlocal:    2912 ave 2912 max 2912 min
Histogram: 1 0 0 0 0 0 0 0 0 0
Nghost:    7009 ave 7009 max 7009 min
Histogram: 1 0 0 0 0 0 0 0 0 0
Neighs:    77792 ave 77792 max 77792 min
Histogram: 1 0 0 0 0 0 0 0 0 0

Total # of neighbors = 77792
Ave neighs/atom = 26.7143
Neighbor list builds = 0
Dangerous builds = 0
        next i
jump SELF loop1
        displace_atoms upper move ${xstep1} 0.0 ${zstep1} units lattice
        displace_atoms upper move 0.00166666666666667 0.0 ${zstep1} units lattice
        displace_atoms upper move 0.00166666666666667 0.0 0 units lattice
        min_style ${style}
        min_style hftn
        minimize ${etol} ${ftol} ${maxiter} ${maxeval}
        minimize 1e-12 ${ftol} ${maxiter} ${maxeval}
        minimize 1e-12 1e-08 ${maxiter} ${maxeval}
        minimize 1e-12 1e-08 10000 ${maxeval}
        minimize 1e-12 1e-08 10000 20000
WARNING: Resetting reneighboring criteria during minimization (../min.cpp:168)
Memory usage per processor = 5.28939 Mbytes
Step Temp PotEng Lx Ly Lz 
     131            0   -17364.354    7.7766452    82.521908    4.4898482 
     132            0   -17364.354    7.7766452    82.521908    4.4898482 
     133            0   -17364.355    7.7766452    82.521908    4.4898482 
     134            0   -17364.355    7.7766452    82.521908    4.4898482 
     135            0   -17364.355    7.7766452    82.521908    4.4898482 
Loop time of 1.21387 on 1 procs for 3 steps with 2912 atoms

Minimization stats:
  Stopping criterion = force tolerance
  Energy initial, next-to-last, final = 
        -17364.3542398      -17364.355253     -17364.3552634
  Force two-norm initial, final = 0.875642 2.8245e-11
  Force max component initial, final = 0.109455 2.41613e-12
  Final line search alpha, max atom move = 0 0
  Iterations, force evaluations = 3 495

Pair  time (%) = 1.11307 (91.6962)
Neigh time (%) = 0 (0)
Comm  time (%) = 0.025236 (2.07897)
Outpt time (%) = 0.000358951 (0.0295709)
Other time (%) = 0.0752027 (6.1953)

Nlocal:    2912 ave 2912 max 2912 min
Histogram: 1 0 0 0 0 0 0 0 0 0
Nghost:    7009 ave 7009 max 7009 min
Histogram: 1 0 0 0 0 0 0 0 0 0
Neighs:    77792 ave 77792 max 77792 min
Histogram: 1 0 0 0 0 0 0 0 0 0

Total # of neighbors = 77792
Ave neighs/atom = 26.7143
Neighbor list builds = 0
Dangerous builds = 0
        next i
jump SELF loop1
        displace_atoms upper move ${xstep1} 0.0 ${zstep1} units lattice
        displace_atoms upper move 0.00166666666666667 0.0 ${zstep1} units lattice
        displace_atoms upper move 0.00166666666666667 0.0 0 units lattice
        min_style ${style}
        min_style hftn
        minimize ${etol} ${ftol} ${maxiter} ${maxeval}
        minimize 1e-12 ${ftol} ${maxiter} ${maxeval}
        minimize 1e-12 1e-08 ${maxiter} ${maxeval}
        minimize 1e-12 1e-08 10000 ${maxeval}
        minimize 1e-12 1e-08 10000 20000
WARNING: Resetting reneighboring criteria during minimization (../min.cpp:168)
Memory usage per processor = 5.28939 Mbytes
Step Temp PotEng Lx Ly Lz 
     135            0   -17363.912    7.7766452    82.522519    4.4898482 
     136            0   -17363.913    7.7766452    82.522519    4.4898482 
     137            0   -17363.914    7.7766452    82.522519    4.4898482 
     138            0   -17363.914    7.7766452    82.522519    4.4898482 
Loop time of 0.752238 on 1 procs for 2 steps with 2912 atoms

Minimization stats:
  Stopping criterion = force tolerance
  Energy initial, next-to-last, final = 
        -17363.9124442     -17363.9127293      -17363.913567
  Force two-norm initial, final = 0.832196 8.63187e-09
  Force max component initial, final = 0.104024 9.15323e-10
  Final line search alpha, max atom move = 0 0
  Iterations, force evaluations = 2 307

Pair  time (%) = 0.692157 (92.013)
Neigh time (%) = 0 (0)
Comm  time (%) = 0.0116 (1.54206)
Outpt time (%) = 0.000173941 (0.0231231)
Other time (%) = 0.048307 (6.42177)

Nlocal:    2912 ave 2912 max 2912 min
Histogram: 1 0 0 0 0 0 0 0 0 0
Nghost:    7009 ave 7009 max 7009 min
Histogram: 1 0 0 0 0 0 0 0 0 0
Neighs:    77792 ave 77792 max 77792 min
Histogram: 1 0 0 0 0 0 0 0 0 0

Total # of neighbors = 77792
Ave neighs/atom = 26.7143
Neighbor list builds = 0
Dangerous builds = 0
        next i
jump SELF loop1
        displace_atoms upper move ${xstep1} 0.0 ${zstep1} units lattice
        displace_atoms upper move 0.00166666666666667 0.0 ${zstep1} units lattice
        displace_atoms upper move 0.00166666666666667 0.0 0 units lattice
        min_style ${style}
        min_style hftn
        minimize ${etol} ${ftol} ${maxiter} ${maxeval}
        minimize 1e-12 ${ftol} ${maxiter} ${maxeval}
        minimize 1e-12 1e-08 ${maxiter} ${maxeval}
        minimize 1e-12 1e-08 10000 ${maxeval}
        minimize 1e-12 1e-08 10000 20000
WARNING: Resetting reneighboring criteria during minimization (../min.cpp:168)
Memory usage per processor = 5.28939 Mbytes
Step Temp PotEng Lx Ly Lz 
     138            0   -17363.483    7.7766452    82.523097    4.4898482 
     139            0   -17363.483    7.7766452    82.523097    4.4898482 
     140            0   -17363.483    7.7766452    82.523097    4.4898482 
     141            0   -17363.483    7.7766452    82.523097    4.4898482 
     142            0   -17363.483    7.7766452    82.523097    4.4898482 
     143            0   -17363.483    7.7766452    82.523097    4.4898482 
     144            0   -17363.483    7.7766452    82.523097    4.4898482 
     145            0   -17363.483    7.7766452    82.523097    4.4898482 
     146            0   -17363.483    7.7766452    82.523097    4.4898482 
     147            0   -17363.483    7.7766452    82.523097    4.4898482 
     148            0   -17363.483    7.7766452    82.523097    4.4898482 
Loop time of 0.247505 on 1 procs for 9 steps with 2912 atoms

Minimization stats:
  Stopping criterion = energy tolerance
  Energy initial, next-to-last, final = 
        -17363.4827569     -17363.4827569     -17363.4827727
  Force two-norm initial, final = 0.78908 0.417961
  Force max component initial, final = 0.0986349 0.0498446
  Final line search alpha, max atom move = 0 0
  Iterations, force evaluations = 9 74

Pair  time (%) = 0.225977 (91.3018)
Neigh time (%) = 0 (0)
Comm  time (%) = 0.00388327 (1.56896)
Outpt time (%) = 0.00371282 (1.5001)
Other time (%) = 0.0139325 (5.62917)

Nlocal:    2912 ave 2912 max 2912 min
Histogram: 1 0 0 0 0 0 0 0 0 0
Nghost:    7009 ave 7009 max 7009 min
Histogram: 1 0 0 0 0 0 0 0 0 0
Neighs:    77792 ave 77792 max 77792 min
Histogram: 1 0 0 0 0 0 0 0 0 0

Total # of neighbors = 77792
Ave neighs/atom = 26.7143
Neighbor list builds = 0
Dangerous builds = 0
        next i
jump SELF loop1
        displace_atoms upper move ${xstep1} 0.0 ${zstep1} units lattice
        displace_atoms upper move 0.00166666666666667 0.0 ${zstep1} units lattice
        displace_atoms upper move 0.00166666666666667 0.0 0 units lattice
        min_style ${style}
        min_style hftn
        minimize ${etol} ${ftol} ${maxiter} ${maxeval}
        minimize 1e-12 ${ftol} ${maxiter} ${maxeval}
        minimize 1e-12 1e-08 ${maxiter} ${maxeval}
        minimize 1e-12 1e-08 10000 ${maxeval}
        minimize 1e-12 1e-08 10000 20000
WARNING: Resetting reneighboring criteria during minimization (../min.cpp:168)
Memory usage per processor = 5.28939 Mbytes
Step Temp PotEng Lx Ly Lz 
     148            0   -17363.064    7.7766452    82.523097    4.4898482 
     149            0   -17363.065    7.7766452    82.523097    4.4898482 
     150            0   -17363.067    7.7766452    82.523097    4.4898482 
     151            0   -17363.067    7.7766452    82.523097    4.4898482 
     152            0   -17363.067    7.7766452    82.523097    4.4898482 
Loop time of 1.5656 on 1 procs for 3 steps with 2912 atoms

Minimization stats:
  Stopping criterion = force tolerance
  Energy initial, next-to-last, final = 
        -17363.0642266     -17363.0665549     -17363.0665731
  Force two-norm initial, final = 1.15452 1.42213e-11
  Force max component initial, final = 0.143463 1.96997e-12
  Final line search alpha, max atom move = 0 0
  Iterations, force evaluations = 3 621

Pair  time (%) = 1.43869 (91.8937)
Neigh time (%) = 0 (0)
Comm  time (%) = 0.0291065 (1.85913)
Outpt time (%) = 0.000355049 (0.0226782)
Other time (%) = 0.0974504 (6.22449)

Nlocal:    2912 ave 2912 max 2912 min
Histogram: 1 0 0 0 0 0 0 0 0 0
Nghost:    7009 ave 7009 max 7009 min
Histogram: 1 0 0 0 0 0 0 0 0 0
Neighs:    77792 ave 77792 max 77792 min
Histogram: 1 0 0 0 0 0 0 0 0 0

Total # of neighbors = 77792
Ave neighs/atom = 26.7143
Neighbor list builds = 0
Dangerous builds = 0
        next i
jump SELF loop1
        displace_atoms upper move ${xstep1} 0.0 ${zstep1} units lattice
        displace_atoms upper move 0.00166666666666667 0.0 ${zstep1} units lattice
        displace_atoms upper move 0.00166666666666667 0.0 0 units lattice
        min_style ${style}
        min_style hftn
        minimize ${etol} ${ftol} ${maxiter} ${maxeval}
        minimize 1e-12 ${ftol} ${maxiter} ${maxeval}
        minimize 1e-12 1e-08 ${maxiter} ${maxeval}
        minimize 1e-12 1e-08 10000 ${maxeval}
        minimize 1e-12 1e-08 10000 20000
WARNING: Resetting reneighboring criteria during minimization (../min.cpp:168)
Memory usage per processor = 5.28939 Mbytes
Step Temp PotEng Lx Ly Lz 
     152            0   -17362.664    7.7766452    82.524164    4.4898482 
     153            0   -17362.664    7.7766452    82.524164    4.4898482 
     154            0   -17362.665    7.7766452    82.524164    4.4898482 
     155            0   -17362.665    7.7766452    82.524164    4.4898482 
     156            0   -17362.665    7.7766452    82.524164    4.4898482 
Loop time of 1.40098 on 1 procs for 3 steps with 2912 atoms

Minimization stats:
  Stopping criterion = force tolerance
  Energy initial, next-to-last, final = 
        -17362.6635564     -17362.6645223      -17362.664527
  Force two-norm initial, final = 0.699076 1.31129e-11
  Force max component initial, final = 0.0873845 1.51008e-12
  Final line search alpha, max atom move = 0 0
  Iterations, force evaluations = 3 569

Pair  time (%) = 1.29258 (92.2628)
Neigh time (%) = 0 (0)
Comm  time (%) = 0.0235002 (1.67741)
Outpt time (%) = 0.000447225 (0.0319223)
Other time (%) = 0.0844498 (6.02791)

Nlocal:    2912 ave 2912 max 2912 min
Histogram: 1 0 0 0 0 0 0 0 0 0
Nghost:    7009 ave 7009 max 7009 min
Histogram: 1 0 0 0 0 0 0 0 0 0
Neighs:    77792 ave 77792 max 77792 min
Histogram: 1 0 0 0 0 0 0 0 0 0

Total # of neighbors = 77792
Ave neighs/atom = 26.7143
Neighbor list builds = 0
Dangerous builds = 0
        next i
jump SELF loop1
        displace_atoms upper move ${xstep1} 0.0 ${zstep1} units lattice
        displace_atoms upper move 0.00166666666666667 0.0 ${zstep1} units lattice
        displace_atoms upper move 0.00166666666666667 0.0 0 units lattice
        min_style ${style}
        min_style hftn
        minimize ${etol} ${ftol} ${maxiter} ${maxeval}
        minimize 1e-12 ${ftol} ${maxiter} ${maxeval}
        minimize 1e-12 1e-08 ${maxiter} ${maxeval}
        minimize 1e-12 1e-08 10000 ${maxeval}
        minimize 1e-12 1e-08 10000 20000
WARNING: Resetting reneighboring criteria during minimization (../min.cpp:168)
Memory usage per processor = 5.28939 Mbytes
Step Temp PotEng Lx Ly Lz 
     156            0   -17362.277    7.7766452    82.524649    4.4898482 
     157            0   -17362.277    7.7766452    82.524649    4.4898482 
     158            0   -17362.277    7.7766452    82.524649    4.4898482 
     159            0   -17362.277    7.7766452    82.524649    4.4898482 
     160            0   -17362.277    7.7766452    82.524649    4.4898482 
     161            0   -17362.277    7.7766452    82.524649    4.4898482 
     162            0   -17362.277    7.7766452    82.524649    4.4898482 
     163            0   -17362.277    7.7766452    82.524649    4.4898482 
     164            0   -17362.277    7.7766452    82.524649    4.4898482 
     165            0   -17362.277    7.7766452    82.524649    4.4898482 
Loop time of 0.205124 on 1 procs for 8 steps with 2912 atoms

Minimization stats:
  Stopping criterion = energy tolerance
  Energy initial, next-to-last, final = 
         -17362.277305      -17362.277305      -17362.277305
  Force two-norm initial, final = 0.652291 0.652271
  Force max component initial, final = 0.0815364 0.0815339
  Final line search alpha, max atom move = 0 0
  Iterations, force evaluations = 8 69

Pair  time (%) = 0.186241 (90.7944)
Neigh time (%) = 0 (0)
Comm  time (%) = 0.0031801 (1.55033)
Outpt time (%) = 0.00315233 (1.5368)
Other time (%) = 0.0125504 (6.11847)

Nlocal:    2912 ave 2912 max 2912 min
Histogram: 1 0 0 0 0 0 0 0 0 0
Nghost:    7009 ave 7009 max 7009 min
Histogram: 1 0 0 0 0 0 0 0 0 0
Neighs:    77792 ave 77792 max 77792 min
Histogram: 1 0 0 0 0 0 0 0 0 0

Total # of neighbors = 77792
Ave neighs/atom = 26.7143
Neighbor list builds = 0
Dangerous builds = 0
        next i
jump SELF loop1
        displace_atoms upper move ${xstep1} 0.0 ${zstep1} units lattice
[...]
Histogram: 1 0 0 0 0 0 0 0 0 0
Neighs:    77856 ave 77856 max 77856 min
Histogram: 1 0 0 0 0 0 0 0 0 0

Total # of neighbors = 77856
Ave neighs/atom = 26.7363
Neighbor list builds = 0
Dangerous builds = 0
        next j
jump SELF loop2
        displace_atoms upper move ${xstep2} 0.0 ${zstep2} units lattice
        displace_atoms upper move 0.000833333333333329 0.0 ${zstep2} units lattice
        displace_atoms upper move 0.000833333333333329 0.0 0.00249999999999999 units lattice
        min_style ${style}
        min_style hftn
        minimize ${etol} ${ftol} ${maxiter} ${maxeval}
        minimize 1e-12 ${ftol} ${maxiter} ${maxeval}
        minimize 1e-12 1e-08 ${maxiter} ${maxeval}
        minimize 1e-12 1e-08 10000 ${maxeval}
        minimize 1e-12 1e-08 10000 20000
WARNING: Resetting reneighboring criteria during minimization (../min.cpp:168)
Memory usage per processor = 5.28939 Mbytes
Step Temp PotEng Lx Ly Lz 
    1929            0   -17375.068    7.7766452    82.505958    4.4898482 
    1930            0   -17375.068    7.7766452    82.505958    4.4898482 
    1931            0   -17375.068    7.7766452    82.505958    4.4898482 
    1932            0   -17375.068    7.7766452    82.505958    4.4898482 
    1933            0   -17375.068    7.7766452    82.505958    4.4898482 
    1934            0   -17375.068    7.7766452    82.505958    4.4898482 
    1935            0   -17375.068    7.7766452    82.505958    4.4898482 
    1936            0   -17375.068    7.7766452    82.505958    4.4898482 
    1937            0   -17375.068    7.7766452    82.505958    4.4898482 
    1938            0   -17375.068    7.7766452    82.505958    4.4898482 
    1939            0   -17375.068    7.7766452    82.505958    4.4898482 
Loop time of 0.226915 on 1 procs for 9 steps with 2912 atoms

Minimization stats:
  Stopping criterion = energy tolerance
  Energy initial, next-to-last, final = 
         -17375.067665      -17375.067665     -17375.0679685
  Force two-norm initial, final = 0.878837 0.457287
  Force max component initial, final = 0.109846 0.0540187
  Final line search alpha, max atom move = 0 0
  Iterations, force evaluations = 9 74

Pair  time (%) = 0.201766 (88.9169)
Neigh time (%) = 0 (0)
Comm  time (%) = 0.0121762 (5.36599)
Outpt time (%) = 0.00148112 (0.65272)
Other time (%) = 0.0114919 (5.0644)

Nlocal:    2912 ave 2912 max 2912 min
Histogram: 1 0 0 0 0 0 0 0 0 0
Nghost:    7129 ave 7129 max 7129 min
Histogram: 1 0 0 0 0 0 0 0 0 0
Neighs:    77856 ave 77856 max 77856 min
Histogram: 1 0 0 0 0 0 0 0 0 0

Total # of neighbors = 77856
Ave neighs/atom = 26.7363
Neighbor list builds = 0
Dangerous builds = 0
        next j
jump SELF loop2
        displace_atoms upper move ${xstep2} 0.0 ${zstep2} units lattice
        displace_atoms upper move 0.000833333333333329 0.0 ${zstep2} units lattice
        displace_atoms upper move 0.000833333333333329 0.0 0.00249999999999999 units lattice
        min_style ${style}
        min_style hftn
        minimize ${etol} ${ftol} ${maxiter} ${maxeval}
        minimize 1e-12 ${ftol} ${maxiter} ${maxeval}
        minimize 1e-12 1e-08 ${maxiter} ${maxeval}
        minimize 1e-12 1e-08 10000 ${maxeval}
        minimize 1e-12 1e-08 10000 20000
WARNING: Resetting reneighboring criteria during minimization (../min.cpp:168)
Memory usage per processor = 5.28939 Mbytes
Step Temp PotEng Lx Ly Lz 
    1939            0   -17375.333    7.7766452    82.505956    4.4898482 
    1940            0   -17375.334    7.7766452    82.505956    4.4898482 
    1941            0   -17375.334    7.7766452    82.505956    4.4898482 
    1942            0   -17375.335    7.7766452    82.505956    4.4898482 
    1943            0   -17375.336    7.7766452    82.505956    4.4898482 
    1944            0   -17375.336    7.7766452    82.505956    4.4898482 
    1945            0   -17375.336    7.7766452    82.505956    4.4898482 
    1946            0   -17375.336    7.7766452    82.505956    4.4898482 
    1947            0   -17375.336    7.7766452    82.505956    4.4898482 
    1948            0   -17375.336    7.7766452    82.505956    4.4898482 
    1949            0   -17375.336    7.7766452    82.505956    4.4898482 
    1950            0   -17375.336    7.7766452    82.505956    4.4898482 
    1951            0   -17375.336    7.7766452    82.505956    4.4898482 
    1952            0   -17375.336    7.7766452    82.505956    4.4898482 
    1953            0   -17375.336    7.7766452    82.505956    4.4898482 
    1954            0   -17375.336    7.7766452    82.505956    4.4898482 
    1955            0   -17375.336    7.7766452    82.505956    4.4898482 
    1956            0   -17375.336    7.7766452    82.505956    4.4898482 
    1957            0   -17375.336    7.7766452    82.505956    4.4898482 
    1958            0   -17375.336    7.7766452    82.505956    4.4898482 
    1959            0   -17375.336    7.7766452    82.505956    4.4898482 
    1960            0   -17375.336    7.7766452    82.505956    4.4898482 
    1961            0   -17375.336    7.7766452    82.505956    4.4898482 
    1962            0   -17375.336    7.7766452    82.505956    4.4898482 
    1963            0   -17375.336    7.7766452    82.505956    4.4898482 
    1964            0   -17375.336    7.7766452    82.505956    4.4898482 
Loop time of 1.23795 on 1 procs for 24 steps with 2912 atoms

Minimization stats:
  Stopping criterion = energy tolerance
  Energy initial, next-to-last, final = 
        -17375.3330886     -17375.3359609      -17375.335961
  Force two-norm initial, final = 1.2399 0.0411839
  Force max component initial, final = 0.15386 0.00333222
  Final line search alpha, max atom move = 0 0
  Iterations, force evaluations = 24 493

Pair  time (%) = 1.13195 (91.4376)
Neigh time (%) = 0 (0)
Comm  time (%) = 0.0270896 (2.18827)
Outpt time (%) = 0.00226816 (0.183219)
Other time (%) = 0.0766406 (6.19093)

Nlocal:    2912 ave 2912 max 2912 min
Histogram: 1 0 0 0 0 0 0 0 0 0
Nghost:    7129 ave 7129 max 7129 min
Histogram: 1 0 0 0 0 0 0 0 0 0
Neighs:    77856 ave 77856 max 77856 min
Histogram: 1 0 0 0 0 0 0 0 0 0

Total # of neighbors = 77856
Ave neighs/atom = 26.7363
Neighbor list builds = 0
Dangerous builds = 0
        next j
jump SELF loop2
        displace_atoms upper move ${xstep2} 0.0 ${zstep2} units lattice
        displace_atoms upper move 0.000833333333333329 0.0 ${zstep2} units lattice
        displace_atoms upper move 0.000833333333333329 0.0 0.00249999999999999 units lattice
        min_style ${style}
        min_style hftn
        minimize ${etol} ${ftol} ${maxiter} ${maxeval}
        minimize 1e-12 ${ftol} ${maxiter} ${maxeval}
        minimize 1e-12 1e-08 ${maxiter} ${maxeval}
        minimize 1e-12 1e-08 10000 ${maxeval}
        minimize 1e-12 1e-08 10000 20000
WARNING: Resetting reneighboring criteria during minimization (../min.cpp:168)
Memory usage per processor = 5.28939 Mbytes
Step Temp PotEng Lx Ly Lz 
    1964            0   -17375.562    7.7766452    82.504412    4.4898482 
    1965            0   -17375.562    7.7766452    82.504412    4.4898482 
    1966            0   -17375.562    7.7766452    82.504412    4.4898482 
    1967            0   -17375.562    7.7766452    82.504412    4.4898482 
    1968            0   -17375.562    7.7766452    82.504412    4.4898482 
    1969            0   -17375.562    7.7766452    82.504412    4.4898482 
    1970            0   -17375.562    7.7766452    82.504412    4.4898482 
    1971            0   -17375.562    7.7766452    82.504412    4.4898482 
    1972            0   -17375.562    7.7766452    82.504412    4.4898482 
    1973            0   -17375.562    7.7766452    82.504412    4.4898482 
    1974            0   -17375.562    7.7766452    82.504412    4.4898482 
Loop time of 0.208786 on 1 procs for 9 steps with 2912 atoms

Minimization stats:
  Stopping criterion = energy tolerance
  Energy initial, next-to-last, final = 
         -17375.562315      -17375.562315     -17375.5623289
  Force two-norm initial, final = 0.77618 0.258191
  Force max component initial, final = 0.0968996 0.0292233
  Final line search alpha, max atom move = 0 0
  Iterations, force evaluations = 9 82

Pair  time (%) = 0.191943 (91.9329)
Neigh time (%) = 0 (0)
Comm  time (%) = 0.0054424 (2.60669)
Outpt time (%) = 0.000950322 (0.455166)
Other time (%) = 0.0104502 (5.00521)

Nlocal:    2912 ave 2912 max 2912 min
Histogram: 1 0 0 0 0 0 0 0 0 0
Nghost:    7129 ave 7129 max 7129 min
Histogram: 1 0 0 0 0 0 0 0 0 0
Neighs:    77856 ave 77856 max 77856 min
Histogram: 1 0 0 0 0 0 0 0 0 0

Total # of neighbors = 77856
Ave neighs/atom = 26.7363
Neighbor list builds = 0
Dangerous builds = 0
        next j
jump SELF loop2
        displace_atoms upper move ${xstep2} 0.0 ${zstep2} units lattice
        displace_atoms upper move 0.000833333333333329 0.0 ${zstep2} units lattice
        displace_atoms upper move 0.000833333333333329 0.0 0.00249999999999999 units lattice
        min_style ${style}
        min_style hftn
        minimize ${etol} ${ftol} ${maxiter} ${maxeval}
        minimize 1e-12 ${ftol} ${maxiter} ${maxeval}
        minimize 1e-12 1e-08 ${maxiter} ${maxeval}
        minimize 1e-12 1e-08 10000 ${maxeval}
        minimize 1e-12 1e-08 10000 20000
WARNING: Resetting reneighboring criteria during minimization (../min.cpp:168)
Memory usage per processor = 5.28939 Mbytes
Step Temp PotEng Lx Ly Lz 
    1974            0   -17375.743    7.7766452      82.5044    4.4898482 
    1975            0   -17375.744    7.7766452      82.5044    4.4898482 
    1976            0   -17375.744    7.7766452      82.5044    4.4898482 
    1977            0   -17375.746    7.7766452      82.5044    4.4898482 
    1978            0   -17375.746    7.7766452      82.5044    4.4898482 
    1979            0   -17375.746    7.7766452      82.5044    4.4898482 
    1980            0   -17375.746    7.7766452      82.5044    4.4898482 
    1981            0   -17375.746    7.7766452      82.5044    4.4898482 
    1982            0   -17375.746    7.7766452      82.5044    4.4898482 
    1983            0   -17375.746    7.7766452      82.5044    4.4898482 
    1984            0   -17375.746    7.7766452      82.5044    4.4898482 
    1985            0   -17375.746    7.7766452      82.5044    4.4898482 
    1986            0   -17375.746    7.7766452      82.5044    4.4898482 
    1987            0   -17375.746    7.7766452      82.5044    4.4898482 
    1988            0   -17375.746    7.7766452      82.5044    4.4898482 
    1989            0   -17375.746    7.7766452      82.5044    4.4898482 
    1990            0   -17375.746    7.7766452      82.5044    4.4898482 
    1991            0   -17375.746    7.7766452      82.5044    4.4898482 
Loop time of 0.953668 on 1 procs for 16 steps with 2912 atoms

Minimization stats:
  Stopping criterion = energy tolerance
  Energy initial, next-to-last, final = 
        -17375.7431372     -17375.7459488     -17375.7459513
  Force two-norm initial, final = 0.757727 0.0161649
  Force max component initial, final = 0.0899898 0.00112102
  Final line search alpha, max atom move = 0 0
  Iterations, force evaluations = 16 375

Pair  time (%) = 0.871988 (91.4352)
Neigh time (%) = 0 (0)
Comm  time (%) = 0.0214909 (2.2535)
Outpt time (%) = 0.00150405 (0.157712)
Other time (%) = 0.0586849 (6.1536)

Nlocal:    2912 ave 2912 max 2912 min
Histogram: 1 0 0 0 0 0 0 0 0 0
Nghost:    7129 ave 7129 max 7129 min
Histogram: 1 0 0 0 0 0 0 0 0 0
Neighs:    77856 ave 77856 max 77856 min
Histogram: 1 0 0 0 0 0 0 0 0 0

Total # of neighbors = 77856
Ave neighs/atom = 26.7363
Neighbor list builds = 0
Dangerous builds = 0
        next j
jump SELF loop2
        displace_atoms upper move ${xstep2} 0.0 ${zstep2} units lattice
        displace_atoms upper move 0.000833333333333329 0.0 ${zstep2} units lattice
        displace_atoms upper move 0.000833333333333329 0.0 0.00249999999999999 units lattice
        min_style ${style}
        min_style hftn
        minimize ${etol} ${ftol} ${maxiter} ${maxeval}
        minimize 1e-12 ${ftol} ${maxiter} ${maxeval}
        minimize 1e-12 1e-08 ${maxiter} ${maxeval}
        minimize 1e-12 1e-08 10000 ${maxeval}
        minimize 1e-12 1e-08 10000 20000
WARNING: Resetting reneighboring criteria during minimization (../min.cpp:168)
Memory usage per processor = 5.28939 Mbytes
Step Temp PotEng Lx Ly Lz 
    1991            0   -17375.879    7.7766452    82.503497    4.4898482 
    1992            0   -17375.879    7.7766452    82.503497    4.4898482 
    1993            0   -17375.879    7.7766452    82.503497    4.4898482 
    1994            0   -17375.879    7.7766452    82.503497    4.4898482 
    1995            0   -17375.879    7.7766452    82.503497    4.4898482 
    1996            0   -17375.879    7.7766452    82.503497    4.4898482 
    1997            0   -17375.879    7.7766452    82.503497    4.4898482 
    1998            0   -17375.879    7.7766452    82.503497    4.4898482 
    1999            0   -17375.879    7.7766452    82.503497    4.4898482 
    2000            0   -17375.879    7.7766452    82.503497    4.4898482 
    2001            0   -17375.879    7.7766452    82.503497    4.4898482 
Loop time of 0.192896 on 1 procs for 9 steps with 2912 atoms

Minimization stats:
  Stopping criterion = energy tolerance
  Energy initial, next-to-last, final = 
        -17375.8791531     -17375.8791531     -17375.8791591
  Force two-norm initial, final = 0.454963 0.438225
  Force max component initial, final = 0.0568569 0.0547607
  Final line search alpha, max atom move = 0 0
  Iterations, force evaluations = 9 76

Pair  time (%) = 0.180318 (93.4795)
Neigh time (%) = 0 (0)
Comm  time (%) = 0.00329711 (1.70927)
Outpt time (%) = 0.000999848 (0.518335)
Other time (%) = 0.00828092 (4.29295)

Nlocal:    2912 ave 2912 max 2912 min
Histogram: 1 0 0 0 0 0 0 0 0 0
Nghost:    7129 ave 7129 max 7129 min
Histogram: 1 0 0 0 0 0 0 0 0 0
Neighs:    77856 ave 77856 max 77856 min
Histogram: 1 0 0 0 0 0 0 0 0 0

Total # of neighbors = 77856
Ave neighs/atom = 26.7363
Neighbor list builds = 0
Dangerous builds = 0
        next j
jump SELF loop2
        displace_atoms upper move ${xstep2} 0.0 ${zstep2} units lattice
        displace_atoms upper move 0.000833333333333329 0.0 ${zstep2} units lattice
        displace_atoms upper move 0.000833333333333329 0.0 0.00249999999999999 units lattice
        min_style ${style}
        min_style hftn
        minimize ${etol} ${ftol} ${maxiter} ${maxeval}
        minimize 1e-12 ${ftol} ${maxiter} ${maxeval}
        minimize 1e-12 1e-08 ${maxiter} ${maxeval}
        minimize 1e-12 1e-08 10000 ${maxeval}
        minimize 1e-12 1e-08 10000 20000
WARNING: Resetting reneighboring criteria during minimization (../min.cpp:168)
Memory usage per processor = 5.28939 Mbytes
Step Temp PotEng Lx Ly Lz 
    2001            0   -17375.961    7.7766452    82.503497    4.4898482 
    2002            0   -17375.961    7.7766452    82.503497    4.4898482 
    2003            0   -17375.961    7.7766452    82.503497    4.4898482 
    2004            0   -17375.961    7.7766452    82.503497    4.4898482 
    2005            0   -17375.961    7.7766452    82.503497    4.4898482 
    2006            0   -17375.961    7.7766452    82.503497    4.4898482 
    2007            0   -17375.961    7.7766452    82.503497    4.4898482 
    2008            0   -17375.961    7.7766452    82.503497    4.4898482 
    2009            0   -17375.961    7.7766452    82.503497    4.4898482 
    2010            0   -17375.961    7.7766452    82.503497    4.4898482 
    2011            0   -17375.961    7.7766452    82.503497    4.4898482 
    2012            0   -17375.961    7.7766452    82.503497    4.4898482 
Loop time of 0.200113 on 1 procs for 10 steps with 2912 atoms

Minimization stats:
  Stopping criterion = energy tolerance
  Energy initial, next-to-last, final = 
        -17375.9609165     -17375.9609788     -17375.9609789
  Force two-norm initial, final = 0.718141 0.367484
  Force max component initial, final = 0.0897656 0.0430816
  Final line search alpha, max atom move = 0 0
  Iterations, force evaluations = 10 79

Pair  time (%) = 0.187522 (93.7078)
Neigh time (%) = 0 (0)
Comm  time (%) = 0.00296201 (1.48017)
Outpt time (%) = 0.00131502 (0.657138)
Other time (%) = 0.00831449 (4.1549)

Nlocal:    2912 ave 2912 max 2912 min
Histogram: 1 0 0 0 0 0 0 0 0 0
Nghost:    7129 ave 7129 max 7129 min
Histogram: 1 0 0 0 0 0 0 0 0 0
Neighs:    77856 ave 77856 max 77856 min
Histogram: 1 0 0 0 0 0 0 0 0 0

Total # of neighbors = 77856
Ave neighs/atom = 26.7363
Neighbor list builds = 0
Dangerous builds = 0
        next j
jump SELF loop2
        displace_atoms upper move ${xstep2} 0.0 ${zstep2} units lattice
        displace_atoms upper move 0.000833333333333329 0.0 ${zstep2} units lattice
        displace_atoms upper move 0.000833333333333329 0.0 0.00249999999999999 units lattice
        min_style ${style}
        min_style hftn
        minimize ${etol} ${ftol} ${maxiter} ${maxeval}
        minimize 1e-12 ${ftol} ${maxiter} ${maxeval}
        minimize 1e-12 1e-08 ${maxiter} ${maxeval}
        minimize 1e-12 1e-08 10000 ${maxeval}
        minimize 1e-12 1e-08 10000 20000
WARNING: Resetting reneighboring criteria during minimization (../min.cpp:168)
Memory usage per processor = 5.28939 Mbytes
Step Temp PotEng Lx Ly Lz 
    2012            0   -17375.989    7.7766452    82.503495    4.4898482 
    2013            0   -17375.989    7.7766452    82.503495    4.4898482 
    2014            0   -17375.989    7.7766452    82.503495    4.4898482 
    2015            0   -17375.989    7.7766452    82.503495    4.4898482 
    2016            0    -17375.99    7.7766452    82.503495    4.4898482 
    2017            0    -17375.99    7.7766452    82.503495    4.4898482 
    2018            0    -17375.99    7.7766452    82.503495    4.4898482 
    2019            0    -17375.99    7.7766452    82.503495    4.4898482 
    2020            0    -17375.99    7.7766452    82.503495    4.4898482 
    2021            0    -17375.99    7.7766452    82.503495    4.4898482 
    2022            0    -17375.99    7.7766452    82.503495    4.4898482 
    2023            0    -17375.99    7.7766452    82.503495    4.4898482 
    2024            0    -17375.99    7.7766452    82.503495    4.4898482 
    2025            0    -17375.99    7.7766452    82.503495    4.4898482 
    2026            0    -17375.99    7.7766452    82.503495    4.4898482 
    2027            0    -17375.99    7.7766452    82.503495    4.4898482 
    2028            0    -17375.99    7.7766452    82.503495    4.4898482 
    2029            0    -17375.99    7.7766452    82.503495    4.4898482 
    2030            0    -17375.99    7.7766452    82.503495    4.4898482 
    2031            0    -17375.99    7.7766452    82.503495    4.4898482 
    2032            0    -17375.99    7.7766452    82.503495    4.4898482 
    2033            0    -17375.99    7.7766452    82.503495    4.4898482 
Loop time of 0.965746 on 1 procs for 20 steps with 2912 atoms

Minimization stats:
  Stopping criterion = energy tolerance
  Energy initial, next-to-last, final = 
        -17375.9887326     -17375.9900171     -17375.9900176
  Force two-norm initial, final = 0.457868 0.0144341
  Force max component initial, final = 0.054974 0.000519656
  Final line search alpha, max atom move = 0 0
  Iterations, force evaluations = 20 371

Pair  time (%) = 0.878226 (90.9376)
Neigh time (%) = 0 (0)
Comm  time (%) = 0.0241054 (2.49604)
Outpt time (%) = 0.00257297 (0.266423)
Other time (%) = 0.0608419 (6.29999)

Nlocal:    2912 ave 2912 max 2912 min
Histogram: 1 0 0 0 0 0 0 0 0 0
Nghost:    7129 ave 7129 max 7129 min
Histogram: 1 0 0 0 0 0 0 0 0 0
Neighs:    77856 ave 77856 max 77856 min
Histogram: 1 0 0 0 0 0 0 0 0 0

Total # of neighbors = 77856
Ave neighs/atom = 26.7363
Neighbor list builds = 0
Dangerous builds = 0
        next j
jump SELF loop2


