LAMMPS (28 Jun 2014)
# attempt at getting surface energy

#file prefix
variable prefix string surf_V_brittle_3d
variable dumpfile string ${prefix}.*.dump
variable dumpfile string surf_V_brittle_3d.*.dump
variable restartfile string ${prefix}.*.equil
variable restartfile string surf_V_brittle_3d.*.equil

#Mass (g/mol)
variable m equal 1.0

# lattice constant (in Angstroms) and orientation of axes (given by lattice vectors)
variable rho equal 1.0
variable x1 equal 1
variable x2 equal 1
variable x3 equal -2
variable y1 equal 1
variable y2 equal 1
variable y3 equal 1
variable z1 equal 1
variable z2 equal -1
variable z3 equal 0
# length of lattice in different directions (using orientation of lattice vectors)
variable ax equal sqrt(${x1}*${x1}+${x2}*${x2}+${x3}*${x3})
variable ax equal sqrt(1*${x1}+${x2}*${x2}+${x3}*${x3})
variable ax equal sqrt(1*1+${x2}*${x2}+${x3}*${x3})
variable ax equal sqrt(1*1+1*${x2}+${x3}*${x3})
variable ax equal sqrt(1*1+1*1+${x3}*${x3})
variable ax equal sqrt(1*1+1*1+-2*${x3})
variable ax equal sqrt(1*1+1*1+-2*-2)
variable ay equal sqrt(${y1}*${y1}+${y2}*${y2}+${y3}*${y3})
variable ay equal sqrt(1*${y1}+${y2}*${y2}+${y3}*${y3})
variable ay equal sqrt(1*1+${y2}*${y2}+${y3}*${y3})
variable ay equal sqrt(1*1+1*${y2}+${y3}*${y3})
variable ay equal sqrt(1*1+1*1+${y3}*${y3})
variable ay equal sqrt(1*1+1*1+1*${y3})
variable ay equal sqrt(1*1+1*1+1*1)
variable az equal sqrt(${z1}*${z1}+${z2}*${z2}+${z3}*${z3})
variable az equal sqrt(1*${z1}+${z2}*${z2}+${z3}*${z3})
variable az equal sqrt(1*1+${z2}*${z2}+${z3}*${z3})
variable az equal sqrt(1*1+-1*${z2}+${z3}*${z3})
variable az equal sqrt(1*1+-1*-1+${z3}*${z3})
variable az equal sqrt(1*1+-1*-1+0*${z3})
variable az equal sqrt(1*1+-1*-1+0*0)

# size of box in lattice units
variable lxpos equal 2
variable lxneg equal 0
variable lypos equal 15
variable lyneg equal -1*${lypos}
variable lyneg equal -1*15
variable lzpos equal 2
variable lzneg equal 0

# boundary conditions
dimension	3
boundary	p s p
atom_style	atomic

# Define minimization parameters and damping
variable etol equal 1.0e-12
variable ftol equal 1.0e-8
variable maxiter equal 10000
variable maxeval equal 20000
variable style string hftn

# create geometry
units		lj
lattice         hcp 1.0 orient x 1 0 0 orient y 0 1 0 orient z 0 0 1
Lattice spacing in x,y,z = 1.12246 1.94416 1.83297
region		myregion block ${lxneg} ${lxpos} ${lyneg} ${lypos} ${lzneg} ${lzpos} units lattice
region		myregion block 0 ${lxpos} ${lyneg} ${lypos} ${lzneg} ${lzpos} units lattice
region		myregion block 0 2 ${lyneg} ${lypos} ${lzneg} ${lzpos} units lattice
region		myregion block 0 2 -15 ${lypos} ${lzneg} ${lzpos} units lattice
region		myregion block 0 2 -15 15 ${lzneg} ${lzpos} units lattice
region		myregion block 0 2 -15 15 0 ${lzpos} units lattice
region		myregion block 0 2 -15 15 0 2 units lattice
create_box	1 myregion
Created orthogonal box = (0 -29.1624 0) to (2.24492 29.1624 3.66595)
  1 by 1 by 1 MPI processor grid
create_atoms	1 box
Created 484 atoms
write_dump all atom init.dump

# define masses
mass * $m
mass * 1

# my fake/morse potential
pair_style      table linear 3001
pair_coeff      * * vpotential_brittle3d dummy
neighbor	0.3 bin
neigh_modify	delay 5

# define groups. Nudge to separate planes cleanly
region	    upper block INF INF 0.01 ${lypos} INF INF units lattice
region	    upper block INF INF 0.01 15 INF INF units lattice
group		upper region upper
240 atoms in group upper

# Setup output
thermo 1
thermo_style custom step temp pe lx ly lz
thermo_modify norm no

# Compute initial state by relaxing box
fix 3 all box/relax x 0.0
min_style ${style}
min_style hftn
minimize ${etol} ${ftol} ${maxiter} ${maxeval}
minimize 1e-12 ${ftol} ${maxiter} ${maxeval}
minimize 1e-12 1e-08 ${maxiter} ${maxeval}
minimize 1e-12 1e-08 10000 ${maxeval}
minimize 1e-12 1e-08 10000 20000
WARNING: Resetting reneighboring criteria during minimization (../min.cpp:168)
Memory usage per processor = 5.02098 Mbytes
Step Temp PotEng Lx Ly Lz 
       0            0   -2875.9976    2.2449241    58.336504    3.6659457 
       1            0   -2875.9976    2.2449241    58.336504    3.6659457 
       2            0   -2875.9976    2.2449241    58.336504    3.6659457 
       3            0   -2875.9976    2.2449241    58.336504    3.6659457 
       4            0   -2875.9976    2.2449241    58.336504    3.6659457 
       5            0   -2875.9976    2.2449241    58.336504    3.6659457 
       6            0   -2875.9976    2.2449241    58.336504    3.6659457 
       7            0   -2875.9976    2.2449241    58.336504    3.6659457 
       8            0   -2875.9976    2.2449241    58.336504    3.6659457 
       9            0   -2875.9976    2.2449241    58.336504    3.6659457 
      10            0   -2875.9976    2.2449241    58.336504    3.6659457 
      11            0   -2875.9976    2.2449241    58.336504    3.6659457 
      12            0   -2875.9976    2.2449241    58.336504    3.6659457 
      13            0   -2875.9976    2.2449241    58.336504    3.6659457 
      14            0   -2875.9976    2.2449241    58.336504    3.6659457 
Loop time of 0.0395619 on 1 procs for 13 steps with 484 atoms

Minimization stats:
  Stopping criterion = trust region too small
  Energy initial, next-to-last, final = 
        -2875.99760854     -2875.99760854     -2875.99760854
  Force two-norm initial, final = 0.139217 0.139217
  Force max component initial, final = 0.139212 0.139212
  Final line search alpha, max atom move = 0 0
  Iterations, force evaluations = 13 82

Pair  time (%) = 0.0305073 (77.1127)
Neigh time (%) = 0 (0)
Comm  time (%) = 0.00150713 (3.80956)
Outpt time (%) = 0.00291983 (7.38041)
Other time (%) = 0.00462767 (11.6973)

Nlocal:    484 ave 484 max 484 min
Histogram: 1 0 0 0 0 0 0 0 0 0
Nghost:    3061 ave 3061 max 3061 min
Histogram: 1 0 0 0 0 0 0 0 0 0
Neighs:    13352 ave 13352 max 13352 min
Histogram: 1 0 0 0 0 0 0 0 0 0

Total # of neighbors = 13352
Ave neighs/atom = 27.5868
Neighbor list builds = 0
Dangerous builds = 0
unfix 3

# don't allow atoms to relax in y-direction
fix 2 all setforce NULL 0.0 NULL

# GSF energy curve will have 100*2 steps
variable nsteps equal 300
variable sstep1 equal 1.5
variable ystep1 equal ${sstep1}/(${ay}*${nsteps})
variable ystep1 equal 1.5/(${ay}*${nsteps})
variable ystep1 equal 1.5/(1.73205080756888*${nsteps})
variable ystep1 equal 1.5/(1.73205080756888*300)

variable i loop ${nsteps}
variable i loop 300
label loop1
        displace_atoms upper move 0.0 ${ystep1} 0.0 units lattice
        displace_atoms upper move 0.0 0.00288675134594812 0.0 units lattice
        min_style ${style}
        min_style hftn
        minimize ${etol} ${ftol} ${maxiter} ${maxeval}
        minimize 1e-12 ${ftol} ${maxiter} ${maxeval}
        minimize 1e-12 1e-08 ${maxiter} ${maxeval}
        minimize 1e-12 1e-08 10000 ${maxeval}
        minimize 1e-12 1e-08 10000 20000
WARNING: Resetting reneighboring criteria during minimization (../min.cpp:168)
Memory usage per processor = 5.02098 Mbytes
Step Temp PotEng Lx Ly Lz 
      14            0   -2875.9786    2.2449241    58.342116    3.6659457 
Loop time of 0.000354017 on 1 procs for 0 steps with 484 atoms

Minimization stats:
  Stopping criterion = force tolerance
  Energy initial, next-to-last, final = 
         -2875.9785838      -2875.9785838      -2875.9785838
  Force two-norm initial, final = 1.05994e-12 1.05994e-12
  Force max component initial, final = 8.23678e-14 8.23678e-14
  Final line search alpha, max atom move = 0 0
  Iterations, force evaluations = 0 0

Pair  time (%) = 0.00033305 (94.0774)
Neigh time (%) = 0 (0)
Comm  time (%) = 1.40896e-05 (3.97992)
Outpt time (%) = 0 (0)
Other time (%) = 6.87758e-06 (1.94272)

Nlocal:    484 ave 484 max 484 min
Histogram: 1 0 0 0 0 0 0 0 0 0
Nghost:    3061 ave 3061 max 3061 min
Histogram: 1 0 0 0 0 0 0 0 0 0
Neighs:    13352 ave 13352 max 13352 min
Histogram: 1 0 0 0 0 0 0 0 0 0

Total # of neighbors = 13352
Ave neighs/atom = 27.5868
Neighbor list builds = 0
Dangerous builds = 0
	# write_dump all atom ${dumpfile}
        next i
jump SELF loop1
        displace_atoms upper move 0.0 ${ystep1} 0.0 units lattice
        displace_atoms upper move 0.0 0.00288675134594812 0.0 units lattice
        min_style ${style}
        min_style hftn
        minimize ${etol} ${ftol} ${maxiter} ${maxeval}
        minimize 1e-12 ${ftol} ${maxiter} ${maxeval}
        minimize 1e-12 1e-08 ${maxiter} ${maxeval}
        minimize 1e-12 1e-08 10000 ${maxeval}
        minimize 1e-12 1e-08 10000 20000
WARNING: Resetting reneighboring criteria during minimization (../min.cpp:168)
Memory usage per processor = 5.02098 Mbytes
Step Temp PotEng Lx Ly Lz 
      14            0   -2875.9237    2.2449241    58.347729    3.6659457 
Loop time of 0.000383996 on 1 procs for 0 steps with 484 atoms

Minimization stats:
  Stopping criterion = force tolerance
  Energy initial, next-to-last, final = 
        -2875.92365919     -2875.92365919     -2875.92365919
  Force two-norm initial, final = 1.06114e-12 1.06114e-12
  Force max component initial, final = 8.23678e-14 8.23678e-14
  Final line search alpha, max atom move = 0 0
  Iterations, force evaluations = 0 0

Pair  time (%) = 0.000363029 (94.5397)
Neigh time (%) = 0 (0)
Comm  time (%) = 1.30067e-05 (3.3872)
Outpt time (%) = 0 (0)
Other time (%) = 7.96048e-06 (2.07306)

Nlocal:    484 ave 484 max 484 min
Histogram: 1 0 0 0 0 0 0 0 0 0
Nghost:    3061 ave 3061 max 3061 min
Histogram: 1 0 0 0 0 0 0 0 0 0
Neighs:    13352 ave 13352 max 13352 min
Histogram: 1 0 0 0 0 0 0 0 0 0

Total # of neighbors = 13352
Ave neighs/atom = 27.5868
Neighbor list builds = 0
Dangerous builds = 0
	# write_dump all atom ${dumpfile}
        next i
jump SELF loop1
        displace_atoms upper move 0.0 ${ystep1} 0.0 units lattice
        displace_atoms upper move 0.0 0.00288675134594812 0.0 units lattice
        min_style ${style}
        min_style hftn
        minimize ${etol} ${ftol} ${maxiter} ${maxeval}
        minimize 1e-12 ${ftol} ${maxiter} ${maxeval}
        minimize 1e-12 1e-08 ${maxiter} ${maxeval}
        minimize 1e-12 1e-08 10000 ${maxeval}
        minimize 1e-12 1e-08 10000 20000
WARNING: Resetting reneighboring criteria during minimization (../min.cpp:168)
Memory usage per processor = 5.02098 Mbytes
Step Temp PotEng Lx Ly Lz 
      14            0   -2875.8357    2.2449241    58.353341    3.6659457 
Loop time of 0.000355017 on 1 procs for 0 steps with 484 atoms

Minimization stats:
  Stopping criterion = force tolerance
  Energy initial, next-to-last, final = 
        -2875.83571416     -2875.83571416     -2875.83571416
  Force two-norm initial, final = 1.0583e-12 1.0583e-12
  Force max component initial, final = 8.23678e-14 8.23678e-14
  Final line search alpha, max atom move = 0 0
  Iterations, force evaluations = 0 0

Pair  time (%) = 0.000334096 (94.107)
Neigh time (%) = 0 (0)
Comm  time (%) = 1.41803e-05 (3.99427)
Outpt time (%) = 0 (0)
Other time (%) = 6.74068e-06 (1.89869)

Nlocal:    484 ave 484 max 484 min
Histogram: 1 0 0 0 0 0 0 0 0 0
Nghost:    3061 ave 3061 max 3061 min
Histogram: 1 0 0 0 0 0 0 0 0 0
Neighs:    13352 ave 13352 max 13352 min
Histogram: 1 0 0 0 0 0 0 0 0 0

Total # of neighbors = 13352
Ave neighs/atom = 27.5868
Neighbor list builds = 0
Dangerous builds = 0
	# write_dump all atom ${dumpfile}
        next i
jump SELF loop1
        displace_atoms upper move 0.0 ${ystep1} 0.0 units lattice
        displace_atoms upper move 0.0 0.00288675134594812 0.0 units lattice
        min_style ${style}
        min_style hftn
        minimize ${etol} ${ftol} ${maxiter} ${maxeval}
        minimize 1e-12 ${ftol} ${maxiter} ${maxeval}
        minimize 1e-12 1e-08 ${maxiter} ${maxeval}
        minimize 1e-12 1e-08 10000 ${maxeval}
        minimize 1e-12 1e-08 10000 20000
WARNING: Resetting reneighboring criteria during minimization (../min.cpp:168)
Memory usage per processor = 5.02098 Mbytes
Step Temp PotEng Lx Ly Lz 
      14            0   -2875.7176    2.2449241    58.358953    3.6659457 
Loop time of 0.000401119 on 1 procs for 0 steps with 484 atoms

Minimization stats:
  Stopping criterion = force tolerance
  Energy initial, next-to-last, final = 
         -2875.7175569      -2875.7175569      -2875.7175569
  Force two-norm initial, final = 1.05898e-12 1.05898e-12
  Force max component initial, final = 8.23678e-14 8.23678e-14
  Final line search alpha, max atom move = 0 0
  Iterations, force evaluations = 0 0

Pair  time (%) = 0.000378959 (94.4756)
Neigh time (%) = 0 (0)
Comm  time (%) = 1.50854e-05 (3.76084)
Outpt time (%) = 0 (0)
Other time (%) = 7.07398e-06 (1.76356)

Nlocal:    484 ave 484 max 484 min
Histogram: 1 0 0 0 0 0 0 0 0 0
Nghost:    3061 ave 3061 max 3061 min
Histogram: 1 0 0 0 0 0 0 0 0 0
Neighs:    13352 ave 13352 max 13352 min
Histogram: 1 0 0 0 0 0 0 0 0 0

Total # of neighbors = 13352
Ave neighs/atom = 27.5868
Neighbor list builds = 0
Dangerous builds = 0
	# write_dump all atom ${dumpfile}
        next i
jump SELF loop1
        displace_atoms upper move 0.0 ${ystep1} 0.0 units lattice
        displace_atoms upper move 0.0 0.00288675134594812 0.0 units lattice
        min_style ${style}
        min_style hftn
        minimize ${etol} ${ftol} ${maxiter} ${maxeval}
        minimize 1e-12 ${ftol} ${maxiter} ${maxeval}
        minimize 1e-12 1e-08 ${maxiter} ${maxeval}
        minimize 1e-12 1e-08 10000 ${maxeval}
        minimize 1e-12 1e-08 10000 20000
WARNING: Resetting reneighboring criteria during minimization (../min.cpp:168)
Memory usage per processor = 5.02098 Mbytes
Step Temp PotEng Lx Ly Lz 
      14            0   -2875.5716    2.2449241    58.364565    3.6659457 
Loop time of 0.000358017 on 1 procs for 0 steps with 484 atoms

Minimization stats:
  Stopping criterion = force tolerance
  Energy initial, next-to-last, final = 
        -2875.57164639     -2875.57164639     -2875.57164639
  Force two-norm initial, final = 1.05874e-12 1.05874e-12
  Force max component initial, final = 8.23678e-14 8.23678e-14
  Final line search alpha, max atom move = 0 0
  Iterations, force evaluations = 0 0

Pair  time (%) = 0.000333951 (93.2778)
Neigh time (%) = 0 (0)
Comm  time (%) = 1.38902e-05 (3.87976)
Outpt time (%) = 0 (0)
Other time (%) = 1.01766e-05 (2.84248)

Nlocal:    484 ave 484 max 484 min
Histogram: 1 0 0 0 0 0 0 0 0 0
Nghost:    3061 ave 3061 max 3061 min
Histogram: 1 0 0 0 0 0 0 0 0 0
Neighs:    13352 ave 13352 max 13352 min
Histogram: 1 0 0 0 0 0 0 0 0 0

Total # of neighbors = 13352
Ave neighs/atom = 27.5868
Neighbor list builds = 0
Dangerous builds = 0
	# write_dump all atom ${dumpfile}
        next i
jump SELF loop1
        displace_atoms upper move 0.0 ${ystep1} 0.0 units lattice
        displace_atoms upper move 0.0 0.00288675134594812 0.0 units lattice
        min_style ${style}
        min_style hftn
        minimize ${etol} ${ftol} ${maxiter} ${maxeval}
        minimize 1e-12 ${ftol} ${maxiter} ${maxeval}
        minimize 1e-12 1e-08 ${maxiter} ${maxeval}
        minimize 1e-12 1e-08 10000 ${maxeval}
        minimize 1e-12 1e-08 10000 20000
WARNING: Resetting reneighboring criteria during minimization (../min.cpp:168)
Memory usage per processor = 5.02098 Mbytes
Step Temp PotEng Lx Ly Lz 
      14            0   -2875.4005    2.2449241    58.370178    3.6659457 
Loop time of 0.000330917 on 1 procs for 0 steps with 484 atoms

Minimization stats:
  Stopping criterion = force tolerance
  Energy initial, next-to-last, final = 
        -2875.40051258     -2875.40051258     -2875.40051258
  Force two-norm initial, final = 1.05773e-12 1.05773e-12
  Force max component initial, final = 8.23678e-14 8.23678e-14
  Final line search alpha, max atom move = 0 0
  Iterations, force evaluations = 0 0

Pair  time (%) = 0.000307949 (93.0595)
Neigh time (%) = 0 (0)
Comm  time (%) = 1.4922e-05 (4.50929)
Outpt time (%) = 0 (0)
Other time (%) = 8.04523e-06 (2.43119)

Nlocal:    484 ave 484 max 484 min
Histogram: 1 0 0 0 0 0 0 0 0 0
Nghost:    3061 ave 3061 max 3061 min
Histogram: 1 0 0 0 0 0 0 0 0 0
Neighs:    13352 ave 13352 max 13352 min
Histogram: 1 0 0 0 0 0 0 0 0 0

Total # of neighbors = 13352
Ave neighs/atom = 27.5868
Neighbor list builds = 0
Dangerous builds = 0
	# write_dump all atom ${dumpfile}
        next i
jump SELF loop1
        displace_atoms upper move 0.0 ${ystep1} 0.0 units lattice
        displace_atoms upper move 0.0 0.00288675134594812 0.0 units lattice
        min_style ${style}
        min_style hftn
        minimize ${etol} ${ftol} ${maxiter} ${maxeval}
        minimize 1e-12 ${ftol} ${maxiter} ${maxeval}
        minimize 1e-12 1e-08 ${maxiter} ${maxeval}
        minimize 1e-12 1e-08 10000 ${maxeval}
        minimize 1e-12 1e-08 10000 20000
WARNING: Resetting reneighboring criteria during minimization (../min.cpp:168)
Memory usage per processor = 5.02098 Mbytes
Step Temp PotEng Lx Ly Lz 
      14            0   -2875.2064    2.2449241     58.37579    3.6659457 
Loop time of 0.000259109 on 1 procs for 0 steps with 484 atoms

Minimization stats:
  Stopping criterion = force tolerance
  Energy initial, next-to-last, final = 
        -2875.20635396     -2875.20635396     -2875.20635396
  Force two-norm initial, final = 1.05974e-12 1.05974e-12
  Force max component initial, final = 8.23678e-14 8.23678e-14
  Final line search alpha, max atom move = 0 0
  Iterations, force evaluations = 0 0

Pair  time (%) = 0.000236904 (91.43)
Neigh time (%) = 0 (0)
Comm  time (%) = 1.38793e-05 (5.35653)
Outpt time (%) = 0 (0)
Other time (%) = 8.32637e-06 (3.21346)

Nlocal:    484 ave 484 max 484 min
Histogram: 1 0 0 0 0 0 0 0 0 0
Nghost:    3061 ave 3061 max 3061 min
Histogram: 1 0 0 0 0 0 0 0 0 0
Neighs:    13352 ave 13352 max 13352 min
Histogram: 1 0 0 0 0 0 0 0 0 0

Total # of neighbors = 13352
Ave neighs/atom = 27.5868
Neighbor list builds = 0
Dangerous builds = 0
	# write_dump all atom ${dumpfile}
        next i
jump SELF loop1
        displace_atoms upper move 0.0 ${ystep1} 0.0 units lattice
        displace_atoms upper move 0.0 0.00288675134594812 0.0 units lattice
        min_style ${style}
        min_style hftn
        minimize ${etol} ${ftol} ${maxiter} ${maxeval}
        minimize 1e-12 ${ftol} ${maxiter} ${maxeval}
        minimize 1e-12 1e-08 ${maxiter} ${maxeval}
        minimize 1e-12 1e-08 10000 ${maxeval}
        minimize 1e-12 1e-08 10000 20000
WARNING: Resetting reneighboring criteria during minimization (../min.cpp:168)
Memory usage per processor = 5.02098 Mbytes
Step Temp PotEng Lx Ly Lz 
      14            0   -2874.9914    2.2449241    58.381402    3.6659457 
Loop time of 0.000238932 on 1 procs for 0 steps with 484 atoms

Minimization stats:
  Stopping criterion = force tolerance
  Energy initial, next-to-last, final = 
        -2874.99135171     -2874.99135171     -2874.99135171
  Force two-norm initial, final = 1.05743e-12 1.05743e-12
  Force max component initial, final = 8.23678e-14 8.23678e-14
  Final line search alpha, max atom move = 0 0
  Iterations, force evaluations = 0 0

Pair  time (%) = 0.000216964 (90.8061)
Neigh time (%) = 0 (0)
Comm  time (%) = 1.50277e-05 (6.28954)
Outpt time (%) = 0 (0)
Other time (%) = 6.93952e-06 (2.90439)

Nlocal:    484 ave 484 max 484 min
Histogram: 1 0 0 0 0 0 0 0 0 0
Nghost:    3061 ave 3061 max 3061 min
Histogram: 1 0 0 0 0 0 0 0 0 0
Neighs:    13352 ave 13352 max 13352 min
Histogram: 1 0 0 0 0 0 0 0 0 0

Total # of neighbors = 13352
Ave neighs/atom = 27.5868
Neighbor list builds = 0
Dangerous builds = 0
	# write_dump all atom ${dumpfile}
        next i
jump SELF loop1
        displace_atoms upper move 0.0 ${ystep1} 0.0 units lattice
        displace_atoms upper move 0.0 0.00288675134594812 0.0 units lattice
        min_style ${style}
        min_style hftn
        minimize ${etol} ${ftol} ${maxiter} ${maxeval}
        minimize 1e-12 ${ftol} ${maxiter} ${maxeval}
        minimize 1e-12 1e-08 ${maxiter} ${maxeval}
        minimize 1e-12 1e-08 10000 ${maxeval}
        minimize 1e-12 1e-08 10000 20000
WARNING: Resetting reneighboring criteria during minimization (../min.cpp:168)
Memory usage per processor = 5.02098 Mbytes
Step Temp PotEng Lx Ly Lz 
      14            0   -2874.7574    2.2449241    58.387015    3.6659457 
Loop time of 0.000348059 on 1 procs for 0 steps with 484 atoms

Minimization stats:
  Stopping criterion = force tolerance
  Energy initial, next-to-last, final = 
        -2874.75742249     -2874.75742249     -2874.75742249
  Force two-norm initial, final = 1.05729e-12 1.05729e-12
  Force max component initial, final = 8.23678e-14 8.23678e-14
  Final line search alpha, max atom move = 0 0
  Iterations, force evaluations = 0 0

Pair  time (%) = 0.000327091 (93.976)
Neigh time (%) = 0 (0)
Comm  time (%) = 1.38939e-05 (3.99184)
Outpt time (%) = 0 (0)
Other time (%) = 7.07328e-06 (2.03221)

Nlocal:    484 ave 484 max 484 min
Histogram: 1 0 0 0 0 0 0 0 0 0
Nghost:    3061 ave 3061 max 3061 min
Histogram: 1 0 0 0 0 0 0 0 0 0
Neighs:    13352 ave 13352 max 13352 min
Histogram: 1 0 0 0 0 0 0 0 0 0

Total # of neighbors = 13352
Ave neighs/atom = 27.5868
Neighbor list builds = 0
Dangerous builds = 0
	# write_dump all atom ${dumpfile}
        next i
jump SELF loop1
        displace_atoms upper move 0.0 ${ystep1} 0.0 units lattice
        displace_atoms upper move 0.0 0.00288675134594812 0.0 units lattice
        min_style ${style}
        min_style hftn
        minimize ${etol} ${ftol} ${maxiter} ${maxeval}
        minimize 1e-12 ${ftol} ${maxiter} ${maxeval}
        minimize 1e-12 1e-08 ${maxiter} ${maxeval}
        minimize 1e-12 1e-08 10000 ${maxeval}
        minimize 1e-12 1e-08 10000 20000
WARNING: Resetting reneighboring criteria during minimization (../min.cpp:168)
Memory usage per processor = 5.02098 Mbytes
Step Temp PotEng Lx Ly Lz 
      14            0   -2874.5065    2.2449241    58.392627    3.6659457 
Loop time of 0.00333709 on 1 procs for 0 steps with 484 atoms

Minimization stats:
  Stopping criterion = force tolerance
  Energy initial, next-to-last, final = 
        -2874.50647943     -2874.50647943     -2874.50647943
  Force two-norm initial, final = 1.05715e-12 1.05715e-12
  Force max component initial, final = 8.23678e-14 8.23678e-14
  Final line search alpha, max atom move = 0 0
  Iterations, force evaluations = 0 0

Pair  time (%) = 0.000192996 (5.78335)
Neigh time (%) = 0 (0)
Comm  time (%) = 0.00312019 (93.5004)
Outpt time (%) = 0 (0)
Other time (%) = 2.3903e-05 (0.716282)

Nlocal:    484 ave 484 max 484 min
Histogram: 1 0 0 0 0 0 0 0 0 0
Nghost:    3061 ave 3061 max 3061 min
Histogram: 1 0 0 0 0 0 0 0 0 0
Neighs:    13352 ave 13352 max 13352 min
Histogram: 1 0 0 0 0 0 0 0 0 0

Total # of neighbors = 13352
Ave neighs/atom = 27.5868
Neighbor list builds = 0
Dangerous builds = 0
	# write_dump all atom ${dumpfile}
        next i
jump SELF loop1
        displace_atoms upper move 0.0 ${ystep1} 0.0 units lattice
        displace_atoms upper move 0.0 0.00288675134594812 0.0 units lattice
        min_style ${style}
        min_style hftn
        minimize ${etol} ${ftol} ${maxiter} ${maxeval}
        minimize 1e-12 ${ftol} ${maxiter} ${maxeval}
        minimize 1e-12 1e-08 ${maxiter} ${maxeval}
        minimize 1e-12 1e-08 10000 ${maxeval}
        minimize 1e-12 1e-08 10000 20000
WARNING: Resetting reneighboring criteria during minimization (../min.cpp:168)
Memory usage per processor = 5.02098 Mbytes
Step Temp PotEng Lx Ly Lz 
      14            0   -2874.2402    2.2449241    58.398239    3.6659457 
Loop time of 0.000355992 on 1 procs for 0 steps with 484 atoms

Minimization stats:
  Stopping criterion = force tolerance
  Energy initial, next-to-last, final = 
        -2874.24023527     -2874.24023527     -2874.24023527
  Force two-norm initial, final = 1.05855e-12 1.05855e-12
  Force max component initial, final = 8.23678e-14 8.23678e-14
  Final line search alpha, max atom move = 0 0
  Iterations, force evaluations = 0 0

Pair  time (%) = 0.000334071 (93.8423)
Neigh time (%) = 0 (0)
Comm  time (%) = 1.41311e-05 (3.96949)
Outpt time (%) = 0 (0)
Other time (%) = 7.78981e-06 (2.1882)

Nlocal:    484 ave 484 max 484 min
Histogram: 1 0 0 0 0 0 0 0 0 0
Nghost:    3061 ave 3061 max 3061 min
Histogram: 1 0 0 0 0 0 0 0 0 0
Neighs:    13352 ave 13352 max 13352 min
Histogram: 1 0 0 0 0 0 0 0 0 0

Total # of neighbors = 13352
Ave neighs/atom = 27.5868
Neighbor list builds = 0
Dangerous builds = 0
	# write_dump all atom ${dumpfile}
        next i
jump SELF loop1
        displace_atoms upper move 0.0 ${ystep1} 0.0 units lattice
        displace_atoms upper move 0.0 0.00288675134594812 0.0 units lattice
        min_style ${style}
        min_style hftn
        minimize ${etol} ${ftol} ${maxiter} ${maxeval}
        minimize 1e-12 ${ftol} ${maxiter} ${maxeval}
        minimize 1e-12 1e-08 ${maxiter} ${maxeval}
        minimize 1e-12 1e-08 10000 ${maxeval}
        minimize 1e-12 1e-08 10000 20000
WARNING: Resetting reneighboring criteria during minimization (../min.cpp:168)
Memory usage per processor = 5.02098 Mbytes
Step Temp PotEng Lx Ly Lz 
      14            0   -2873.9543    2.2449241    58.403852    3.6659457 
Loop time of 0.000630097 on 1 procs for 0 steps with 484 atoms

Minimization stats:
  Stopping criterion = force tolerance
  Energy initial, next-to-last, final = 
        -2873.95425038     -2873.95425038     -2873.95425038
  Force two-norm initial, final = 1.05691e-12 1.05691e-12
  Force max component initial, final = 8.23678e-14 8.23678e-14
  Final line search alpha, max atom move = 0 0
  Iterations, force evaluations = 0 0

Pair  time (%) = 0.000266023 (42.2194)
Neigh time (%) = 0 (0)
Comm  time (%) = 1.09912e-05 (1.74437)
Outpt time (%) = 0 (0)
Other time (%) = 0.000353082 (56.0362)

Nlocal:    484 ave 484 max 484 min
Histogram: 1 0 0 0 0 0 0 0 0 0
Nghost:    3061 ave 3061 max 3061 min
Histogram: 1 0 0 0 0 0 0 0 0 0
Neighs:    13320 ave 13320 max 13320 min
Histogram: 1 0 0 0 0 0 0 0 0 0

Total # of neighbors = 13320
Ave neighs/atom = 27.5207
Neighbor list builds = 0
Dangerous builds = 0
	# write_dump all atom ${dumpfile}
        next i
jump SELF loop1
        displace_atoms upper move 0.0 ${ystep1} 0.0 units lattice
        displace_atoms upper move 0.0 0.00288675134594812 0.0 units lattice
        min_style ${style}
        min_style hftn
        minimize ${etol} ${ftol} ${maxiter} ${maxeval}
        minimize 1e-12 ${ftol} ${maxiter} ${maxeval}
        minimize 1e-12 1e-08 ${maxiter} ${maxeval}
        minimize 1e-12 1e-08 10000 ${maxeval}
        minimize 1e-12 1e-08 10000 20000
WARNING: Resetting reneighboring criteria during minimization (../min.cpp:168)
Memory usage per processor = 5.02098 Mbytes
Step Temp PotEng Lx Ly Lz 
      14            0   -2873.6205    2.2449241    58.409464    3.6659457 
Loop time of 0.000353901 on 1 procs for 0 steps with 484 atoms

Minimization stats:
  Stopping criterion = force tolerance
  Energy initial, next-to-last, final = 
        -2873.62049697     -2873.62049697     -2873.62049697
  Force two-norm initial, final = 1.05717e-12 1.05717e-12
  Force max component initial, final = 8.23678e-14 8.23678e-14
  Final line search alpha, max atom move = 0 0
  Iterations, force evaluations = 0 0

Pair  time (%) = 0.00033198 (93.8059)
Neigh time (%) = 0 (0)
Comm  time (%) = 1.50951e-05 (4.26535)
Outpt time (%) = 0 (0)
Other time (%) = 6.8259e-06 (1.92876)

Nlocal:    484 ave 484 max 484 min
Histogram: 1 0 0 0 0 0 0 0 0 0
Nghost:    3061 ave 3061 max 3061 min
Histogram: 1 0 0 0 0 0 0 0 0 0
Neighs:    13320 ave 13320 max 13320 min
Histogram: 1 0 0 0 0 0 0 0 0 0

Total # of neighbors = 13320
Ave neighs/atom = 27.5207
Neighbor list builds = 0
Dangerous builds = 0
	# write_dump all atom ${dumpfile}
        next i
jump SELF loop1
        displace_atoms upper move 0.0 ${ystep1} 0.0 units lattice
        displace_atoms upper move 0.0 0.00288675134594812 0.0 units lattice
        min_style ${style}
        min_style hftn
        minimize ${etol} ${ftol} ${maxiter} ${maxeval}
        minimize 1e-12 ${ftol} ${maxiter} ${maxeval}
        minimize 1e-12 1e-08 ${maxiter} ${maxeval}
        minimize 1e-12 1e-08 10000 ${maxeval}
        minimize 1e-12 1e-08 10000 20000
WARNING: Resetting reneighboring criteria during minimization (../min.cpp:168)
Memory usage per processor = 5.02098 Mbytes
Step Temp PotEng Lx Ly Lz 
      14            0    -2873.238    2.2449241    58.415076    3.6659457 
Loop time of 0.000352986 on 1 procs for 0 steps with 484 atoms

Minimization stats:
  Stopping criterion = force tolerance
  Energy initial, next-to-last, final = 
        -2873.23801177     -2873.23801177     -2873.23801177
  Force two-norm initial, final = 1.05824e-12 1.05824e-12
  Force max component initial, final = 8.23678e-14 8.23678e-14
  Final line search alpha, max atom move = 0 0
  Iterations, force evaluations = 0 0

Pair  time (%) = 0.000333018 (94.3433)
Neigh time (%) = 0 (0)
Comm  time (%) = 1.30257e-05 (3.69015)
Outpt time (%) = 0 (0)
Other time (%) = 6.94161e-06 (1.96654)

Nlocal:    484 ave 484 max 484 min
Histogram: 1 0 0 0 0 0 0 0 0 0
Nghost:    3061 ave 3061 max 3061 min
Histogram: 1 0 0 0 0 0 0 0 0 0
Neighs:    13320 ave 13320 max 13320 min
Histogram: 1 0 0 0 0 0 0 0 0 0

Total # of neighbors = 13320
Ave neighs/atom = 27.5207
Neighbor list builds = 0
Dangerous builds = 0
	# write_dump all atom ${dumpfile}
        next i
jump SELF loop1
        displace_atoms upper move 0.0 ${ystep1} 0.0 units lattice
        displace_atoms upper move 0.0 0.00288675134594812 0.0 units lattice
        min_style ${style}
        min_style hftn
        minimize ${etol} ${ftol} ${maxiter} ${maxeval}
        minimize 1e-12 ${ftol} ${maxiter} ${maxeval}
        minimize 1e-12 1e-08 ${maxiter} ${maxeval}
        minimize 1e-12 1e-08 10000 ${maxeval}
        minimize 1e-12 1e-08 10000 20000
WARNING: Resetting reneighboring criteria during minimization (../min.cpp:168)
Memory usage per processor = 5.02098 Mbytes
Step Temp PotEng Lx Ly Lz 
      14            0   -2872.8102    2.2449241    58.420689    3.6659457 
Loop time of 0.000377998 on 1 procs for 0 steps with 484 atoms

Minimization stats:
  Stopping criterion = force tolerance
  Energy initial, next-to-last, final = 
         -2872.8102111      -2872.8102111      -2872.8102111
  Force two-norm initial, final = 1.05533e-12 1.05533e-12
  Force max component initial, final = 8.23678e-14 8.23678e-14
  Final line search alpha, max atom move = 0 0
  Iterations, force evaluations = 0 0

Pair  time (%) = 0.000345109 (91.2993)
Neigh time (%) = 0 (0)
Comm  time (%) = 1.50023e-05 (3.96889)
Outpt time (%) = 0 (0)
Other time (%) = 1.78859e-05 (4.73176)

Nlocal:    484 ave 484 max 484 min
Histogram: 1 0 0 0 0 0 0 0 0 0
Nghost:    3061 ave 3061 max 3061 min
Histogram: 1 0 0 0 0 0 0 0 0 0
Neighs:    13320 ave 13320 max 13320 min
Histogram: 1 0 0 0 0 0 0 0 0 0

Total # of neighbors = 13320
Ave neighs/atom = 27.5207
Neighbor list builds = 0
Dangerous builds = 0
	# write_dump all atom ${dumpfile}
        next i
jump SELF loop1
        displace_atoms upper move 0.0 ${ystep1} 0.0 units lattice
        displace_atoms upper move 0.0 0.00288675134594812 0.0 units lattice
        min_style ${style}
        min_style hftn
        minimize ${etol} ${ftol} ${maxiter} ${maxeval}
        minimize 1e-12 ${ftol} ${maxiter} ${maxeval}
        minimize 1e-12 1e-08 ${maxiter} ${maxeval}
        minimize 1e-12 1e-08 10000 ${maxeval}
        minimize 1e-12 1e-08 10000 20000
WARNING: Resetting reneighboring criteria during minimization (../min.cpp:168)
Memory usage per processor = 5.02098 Mbytes
Step Temp PotEng Lx Ly Lz 
      14            0   -2872.3405    2.2449241    58.426301    3.6659457 
Loop time of 0.000353109 on 1 procs for 0 steps with 484 atoms

Minimization stats:
  Stopping criterion = force tolerance
  Energy initial, next-to-last, final = 
        -2872.34051172     -2872.34051172     -2872.34051172
  Force two-norm initial, final = 1.05827e-12 1.05827e-12
  Force max component initial, final = 8.23678e-14 8.23678e-14
  Final line search alpha, max atom move = 0 0
  Iterations, force evaluations = 0 0

Pair  time (%) = 0.000331903 (93.9946)
Neigh time (%) = 0 (0)
Comm  time (%) = 1.29868e-05 (3.67786)
Outpt time (%) = 0 (0)
Other time (%) = 8.21892e-06 (2.32759)

Nlocal:    484 ave 484 max 484 min
Histogram: 1 0 0 0 0 0 0 0 0 0
Nghost:    3061 ave 3061 max 3061 min
Histogram: 1 0 0 0 0 0 0 0 0 0
Neighs:    13320 ave 13320 max 13320 min
Histogram: 1 0 0 0 0 0 0 0 0 0

Total # of neighbors = 13320
Ave neighs/atom = 27.5207
Neighbor list builds = 0
Dangerous builds = 0
	# write_dump all atom ${dumpfile}
        next i
jump SELF loop1
        displace_atoms upper move 0.0 ${ystep1} 0.0 units lattice
        displace_atoms upper move 0.0 0.00288675134594812 0.0 units lattice
        min_style ${style}
        min_style hftn
        minimize ${etol} ${ftol} ${maxiter} ${maxeval}
        minimize 1e-12 ${ftol} ${maxiter} ${maxeval}
        minimize 1e-12 1e-08 ${maxiter} ${maxeval}
        minimize 1e-12 1e-08 10000 ${maxeval}
        minimize 1e-12 1e-08 10000 20000
WARNING: Resetting reneighboring criteria during minimization (../min.cpp:168)
Memory usage per processor = 5.02098 Mbytes
Step Temp PotEng Lx Ly Lz 
      14            0   -2871.8314    2.2449241    58.431913    3.6659457 
Loop time of 0.000352926 on 1 procs for 0 steps with 484 atoms

Minimization stats:
  Stopping criterion = force tolerance
  Energy initial, next-to-last, final = 
        -2871.83142168     -2871.83142168     -2871.83142168
  Force two-norm initial, final = 1.06241e-12 1.06241e-12
  Force max component initial, final = 8.23678e-14 8.23678e-14
  Final line search alpha, max atom move = 0 0
  Iterations, force evaluations = 0 0

Pair  time (%) = 0.000331959 (94.059)
Neigh time (%) = 0 (0)
Comm  time (%) = 1.40982e-05 (3.99468)
Outpt time (%) = 0 (0)
Other time (%) = 6.86897e-06 (1.94629)

Nlocal:    484 ave 484 max 484 min
Histogram: 1 0 0 0 0 0 0 0 0 0
Nghost:    3061 ave 3061 max 3061 min
Histogram: 1 0 0 0 0 0 0 0 0 0
Neighs:    13320 ave 13320 max 13320 min
Histogram: 1 0 0 0 0 0 0 0 0 0

Total # of neighbors = 13320
Ave neighs/atom = 27.5207
Neighbor list builds = 0
Dangerous builds = 0
	# write_dump all atom ${dumpfile}
        next i
jump SELF loop1
        displace_atoms upper move 0.0 ${ystep1} 0.0 units lattice
        displace_atoms upper move 0.0 0.00288675134594812 0.0 units lattice
        min_style ${style}
        min_style hftn
        minimize ${etol} ${ftol} ${maxiter} ${maxeval}
        minimize 1e-12 ${ftol} ${maxiter} ${maxeval}
        minimize 1e-12 1e-08 ${maxiter} ${maxeval}
        minimize 1e-12 1e-08 10000 ${maxeval}
        minimize 1e-12 1e-08 10000 20000
WARNING: Resetting reneighboring criteria during minimization (../min.cpp:168)
Memory usage per processor = 5.02098 Mbytes
Step Temp PotEng Lx Ly Lz 
      14            0   -2871.2788    2.2449241    58.437525    3.6659457 
Loop time of 0.00433392 on 1 procs for 0 steps with 484 atoms

Minimization stats:
  Stopping criterion = force tolerance
  Energy initial, next-to-last, final = 
        -2871.27879111     -2871.27879111     -2871.27879111
  Force two-norm initial, final = 1.062e-12 1.062e-12
  Force max component initial, final = 8.23678e-14 8.23678e-14
  Final line search alpha, max atom move = 0 0
  Iterations, force evaluations = 0 0

Pair  time (%) = 0.000966906 (22.3102)
Neigh time (%) = 0 (0)
Comm  time (%) = 0.00336008 (77.5299)
Outpt time (%) = 0 (0)
Other time (%) = 6.92916e-06 (0.159882)

Nlocal:    484 ave 484 max 484 min
Histogram: 1 0 0 0 0 0 0 0 0 0
Nghost:    3061 ave 3061 max 3061 min
Histogram: 1 0 0 0 0 0 0 0 0 0
Neighs:    13320 ave 13320 max 13320 min
Histogram: 1 0 0 0 0 0 0 0 0 0

Total # of neighbors = 13320
Ave neighs/atom = 27.5207
Neighbor list builds = 0
Dangerous builds = 0
	# write_dump all atom ${dumpfile}
        next i
jump SELF loop1
        displace_atoms upper move 0.0 ${ystep1} 0.0 units lattice
        displace_atoms upper move 0.0 0.00288675134594812 0.0 units lattice
        min_style ${style}
        min_style hftn
        minimize ${etol} ${ftol} ${maxiter} ${maxeval}
        minimize 1e-12 ${ftol} ${maxiter} ${maxeval}
        minimize 1e-12 1e-08 ${maxiter} ${maxeval}
        minimize 1e-12 1e-08 10000 ${maxeval}
        minimize 1e-12 1e-08 10000 20000
WARNING: Resetting reneighboring criteria during minimization (../min.cpp:168)
Memory usage per processor = 5.02098 Mbytes
Step Temp PotEng Lx Ly Lz 
      14            0   -2870.6846    2.2449241    58.443138    3.6659457 
Loop time of 0.000200976 on 1 procs for 0 steps with 484 atoms

Minimization stats:
  Stopping criterion = force tolerance
  Energy initial, next-to-last, final = 
        -2870.68463832     -2870.68463832     -2870.68463832
  Force two-norm initial, final = 1.06306e-12 1.06306e-12
  Force max component initial, final = 8.23678e-14 8.23678e-14
  Final line search alpha, max atom move = 0 0
  Iterations, force evaluations = 0 0

Pair  time (%) = 0.000174055 (86.6049)
Neigh time (%) = 0 (0)
Comm  time (%) = 1.81245e-05 (9.01822)
Outpt time (%) = 0 (0)
Other time (%) = 8.79646e-06 (4.37687)

Nlocal:    484 ave 484 max 484 min
Histogram: 1 0 0 0 0 0 0 0 0 0
Nghost:    3061 ave 3061 max 3061 min
Histogram: 1 0 0 0 0 0 0 0 0 0
Neighs:    13320 ave 13320 max 13320 min
Histogram: 1 0 0 0 0 0 0 0 0 0

Total # of neighbors = 13320
Ave neighs/atom = 27.5207
Neighbor list builds = 0
Dangerous builds = 0
	# write_dump all atom ${dumpfile}
        next i
jump SELF loop1
        displace_atoms upper move 0.0 ${ystep1} 0.0 units lattice
        displace_atoms upper move 0.0 0.00288675134594812 0.0 units lattice
        min_style ${style}
        min_style hftn
        minimize ${etol} ${ftol} ${maxiter} ${maxeval}
        minimize 1e-12 ${ftol} ${maxiter} ${maxeval}
        minimize 1e-12 1e-08 ${maxiter} ${maxeval}
        minimize 1e-12 1e-08 10000 ${maxeval}
        minimize 1e-12 1e-08 10000 20000
WARNING: Resetting reneighboring criteria during minimization (../min.cpp:168)
Memory usage per processor = 5.02098 Mbytes
Step Temp PotEng Lx Ly Lz 
      14            0   -2870.0527    2.2449241     58.44875    3.6659457 
Loop time of 0.000227969 on 1 procs for 0 steps with 484 atoms

Minimization stats:
  Stopping criterion = force tolerance
  Energy initial, next-to-last, final = 
        -2870.05273013     -2870.05273013     -2870.05273013
  Force two-norm initial, final = 1.05961e-12 1.05961e-12
  Force max component initial, final = 8.23678e-14 8.23678e-14
  Final line search alpha, max atom move = 0 0
  Iterations, force evaluations = 0 0

Pair  time (%) = 0.00020508 (89.9599)
Neigh time (%) = 0 (0)
Comm  time (%) = 1.71479e-05 (7.52203)
Outpt time (%) = 0 (0)
Other time (%) = 5.74032e-06 (2.51803)

Nlocal:    484 ave 484 max 484 min
Histogram: 1 0 0 0 0 0 0 0 0 0
Nghost:    3061 ave 3061 max 3061 min
Histogram: 1 0 0 0 0 0 0 0 0 0
Neighs:    13320 ave 13320 max 13320 min
Histogram: 1 0 0 0 0 0 0 0 0 0

Total # of neighbors = 13320
Ave neighs/atom = 27.5207
Neighbor list builds = 0
Dangerous builds = 0
	# write_dump all atom ${dumpfile}
        next i
jump SELF loop1
        displace_atoms upper move 0.0 ${ystep1} 0.0 units lattice
        displace_atoms upper move 0.0 0.00288675134594812 0.0 units lattice
        min_style ${style}
        min_style hftn
        minimize ${etol} ${ftol} ${maxiter} ${maxeval}
        minimize 1e-12 ${ftol} ${maxiter} ${maxeval}
        minimize 1e-12 1e-08 ${maxiter} ${maxeval}
        minimize 1e-12 1e-08 10000 ${maxeval}
        minimize 1e-12 1e-08 10000 20000
WARNING: Resetting reneighboring criteria during minimization (../min.cpp:168)
Memory usage per processor = 5.02098 Mbytes
Step Temp PotEng Lx Ly Lz 
      14            0    -2869.387    2.2449241    58.454362    3.6659457 
Loop time of 0.000352983 on 1 procs for 0 steps with 484 atoms

Minimization stats:
  Stopping criterion = force tolerance
  Energy initial, next-to-last, final = 
        -2869.38697864     -2869.38697864     -2869.38697864
  Force two-norm initial, final = 1.06224e-12 1.06224e-12
  Force max component initial, final = 8.23678e-14 8.23678e-14
  Final line search alpha, max atom move = 0 0
  Iterations, force evaluations = 0 0

Pair  time (%) = 0.000332015 (94.06)
Neigh time (%) = 0 (0)
Comm  time (%) = 1.29737e-05 (3.67544)
Outpt time (%) = 0 (0)
Other time (%) = 7.99354e-06 (2.26457)

Nlocal:    484 ave 484 max 484 min
Histogram: 1 0 0 0 0 0 0 0 0 0
Nghost:    3061 ave 3061 max 3061 min
Histogram: 1 0 0 0 0 0 0 0 0 0
Neighs:    13320 ave 13320 max 13320 min
Histogram: 1 0 0 0 0 0 0 0 0 0

Total # of neighbors = 13320
Ave neighs/atom = 27.5207
Neighbor list builds = 0
Dangerous builds = 0
	# write_dump all atom ${dumpfile}
        next i
jump SELF loop1
        displace_atoms upper move 0.0 ${ystep1} 0.0 units lattice
        displace_atoms upper move 0.0 0.00288675134594812 0.0 units lattice
        min_style ${style}
        min_style hftn
        minimize ${etol} ${ftol} ${maxiter} ${maxeval}
        minimize 1e-12 ${ftol} ${maxiter} ${maxeval}
        minimize 1e-12 1e-08 ${maxiter} ${maxeval}
        minimize 1e-12 1e-08 10000 ${maxeval}
        minimize 1e-12 1e-08 10000 20000
WARNING: Resetting reneighboring criteria during minimization (../min.cpp:168)
Memory usage per processor = 5.02098 Mbytes
Step Temp PotEng Lx Ly Lz 
      14            0   -2868.6912    2.2449241    58.459975    3.6659457 
Loop time of 0.000357038 on 1 procs for 0 steps with 484 atoms

Minimization stats:
  Stopping criterion = force tolerance
  Energy initial, next-to-last, final = 
        -2868.69120158     -2868.69120158     -2868.69120158
  Force two-norm initial, final = 1.06057e-12 1.06057e-12
  Force max component initial, final = 8.23678e-14 8.23678e-14
  Final line search alpha, max atom move = 0 0
  Iterations, force evaluations = 0 0

Pair  time (%) = 0.000334071 (93.5673)
Neigh time (%) = 0 (0)
Comm  time (%) = 1.5939e-05 (4.46423)
Outpt time (%) = 0 (0)
Other time (%) = 7.02823e-06 (1.96848)

Nlocal:    484 ave 484 max 484 min
Histogram: 1 0 0 0 0 0 0 0 0 0
Nghost:    3061 ave 3061 max 3061 min
Histogram: 1 0 0 0 0 0 0 0 0 0
Neighs:    13320 ave 13320 max 13320 min
Histogram: 1 0 0 0 0 0 0 0 0 0

Total # of neighbors = 13320
Ave neighs/atom = 27.5207
Neighbor list builds = 0
Dangerous builds = 0
	# write_dump all atom ${dumpfile}
        next i
jump SELF loop1
        displace_atoms upper move 0.0 ${ystep1} 0.0 units lattice
        displace_atoms upper move 0.0 0.00288675134594812 0.0 units lattice
        min_style ${style}
        min_style hftn
        minimize ${etol} ${ftol} ${maxiter} ${maxeval}
        minimize 1e-12 ${ftol} ${maxiter} ${maxeval}
        minimize 1e-12 1e-08 ${maxiter} ${maxeval}
        minimize 1e-12 1e-08 10000 ${maxeval}
        minimize 1e-12 1e-08 10000 20000
WARNING: Resetting reneighboring criteria during minimization (../min.cpp:168)
Memory usage per processor = 5.02098 Mbytes
Step Temp PotEng Lx Ly Lz 
      14            0   -2867.9694    2.2449241    58.465587    3.6659457 
Loop time of 8.21119e-05 on 1 procs for 0 steps with 484 atoms

Minimization stats:
  Stopping criterion = force tolerance
  Energy initial, next-to-last, final = 
        -2867.96940633     -2867.96940633     -2867.96940633
  Force two-norm initial, final = 1.05732e-12 1.05732e-12
  Force max component initial, final = 8.23678e-14 8.23678e-14
  Final line search alpha, max atom move = 0 0
  Iterations, force evaluations = 0 0

Pair  time (%) = 5.89062e-05 (71.7389)
Neigh time (%) = 0 (0)
Comm  time (%) = 1.59829e-05 (19.4648)
Outpt time (%) = 0 (0)
Other time (%) = 7.22287e-06 (8.79638)

Nlocal:    484 ave 484 max 484 min
Histogram: 1 0 0 0 0 0 0 0 0 0
Nghost:    3061 ave 3061 max 3061 min
Histogram: 1 0 0 0 0 0 0 0 0 0
Neighs:    13320 ave 13320 max 13320 min
Histogram: 1 0 0 0 0 0 0 0 0 0

Total # of neighbors = 13320
Ave neighs/atom = 27.5207
Neighbor list builds = 0
Dangerous builds = 0
	# write_dump all atom ${dumpfile}
        next i
jump SELF loop1
        displace_atoms upper move 0.0 ${ystep1} 0.0 units lattice
        displace_atoms upper move 0.0 0.00288675134594812 0.0 units lattice
        min_style ${style}
        min_style hftn
        minimize ${etol} ${ftol} ${maxiter} ${maxeval}
        minimize 1e-12 ${ftol} ${maxiter} ${maxeval}
        minimize 1e-12 1e-08 ${maxiter} ${maxeval}
        minimize 1e-12 1e-08 10000 ${maxeval}
        minimize 1e-12 1e-08 10000 20000
WARNING: Resetting reneighboring criteria during minimization (../min.cpp:168)
Memory usage per processor = 5.02098 Mbytes
Step Temp PotEng Lx Ly Lz 
      14            0   -2867.2255    2.2449241    58.471199    3.6659457 
Loop time of 0.000372889 on 1 procs for 0 steps with 484 atoms

Minimization stats:
  Stopping criterion = force tolerance
  Energy initial, next-to-last, final = 
        -2867.22548184     -2867.22548184     -2867.22548184
  Force two-norm initial, final = 1.06112e-12 1.06112e-12
  Force max component initial, final = 8.23678e-14 8.23678e-14
  Final line search alpha, max atom move = 0 0
  Iterations, force evaluations = 0 0

Pair  time (%) = 0.000350968 (94.1213)
Neigh time (%) = 0 (0)
Comm  time (%) = 1.39967e-05 (3.7536)
Outpt time (%) = 0 (0)
Other time (%) = 7.92427e-06 (2.1251)

Nlocal:    484 ave 484 max 484 min
Histogram: 1 0 0 0 0 0 0 0 0 0
Nghost:    3061 ave 3061 max 3061 min
Histogram: 1 0 0 0 0 0 0 0 0 0
Neighs:    13320 ave 13320 max 13320 min
Histogram: 1 0 0 0 0 0 0 0 0 0

Total # of neighbors = 13320
Ave neighs/atom = 27.5207
Neighbor list builds = 0
Dangerous builds = 0
	# write_dump all atom ${dumpfile}
        next i
jump SELF loop1
        displace_atoms upper move 0.0 ${ystep1} 0.0 units lattice
        displace_atoms upper move 0.0 0.00288675134594812 0.0 units lattice
        min_style ${style}
        min_style hftn
        minimize ${etol} ${ftol} ${maxiter} ${maxeval}
        minimize 1e-12 ${ftol} ${maxiter} ${maxeval}
        minimize 1e-12 1e-08 ${maxiter} ${maxeval}
        minimize 1e-12 1e-08 10000 ${maxeval}
        minimize 1e-12 1e-08 10000 20000
WARNING: Resetting reneighboring criteria during minimization (../min.cpp:168)
Memory usage per processor = 5.02098 Mbytes
Step Temp PotEng Lx Ly Lz 
      14            0   -2866.4635    2.2449241    58.476812    3.6659457 
Loop time of 0.000232929 on 1 procs for 0 steps with 484 atoms

Minimization stats:
  Stopping criterion = force tolerance
  Energy initial, next-to-last, final = 
        -2866.46348695     -2866.46348695     -2866.46348695
  Force two-norm initial, final = 1.05914e-12 1.05914e-12
  Force max component initial, final = 8.23678e-14 8.23678e-14
  Final line search alpha, max atom move = 0 0
  Iterations, force evaluations = 0 0

Pair  time (%) = 0.000210962 (90.5691)
Neigh time (%) = 0 (0)
Comm  time (%) = 1.4937e-05 (6.41269)
Outpt time (%) = 0 (0)
Other time (%) = 7.0302e-06 (3.01817)

Nlocal:    484 ave 484 max 484 min
Histogram: 1 0 0 0 0 0 0 0 0 0
Nghost:    3061 ave 3061 max 3061 min
Histogram: 1 0 0 0 0 0 0 0 0 0
Neighs:    13320 ave 13320 max 13320 min
Histogram: 1 0 0 0 0 0 0 0 0 0

Total # of neighbors = 13320
Ave neighs/atom = 27.5207
Neighbor list builds = 0
Dangerous builds = 0
	# write_dump all atom ${dumpfile}
        next i
jump SELF loop1
        displace_atoms upper move 0.0 ${ystep1} 0.0 units lattice
        displace_atoms upper move 0.0 0.00288675134594812 0.0 units lattice
        min_style ${style}
        min_style hftn
        minimize ${etol} ${ftol} ${maxiter} ${maxeval}
        minimize 1e-12 ${ftol} ${maxiter} ${maxeval}
        minimize 1e-12 1e-08 ${maxiter} ${maxeval}
        minimize 1e-12 1e-08 10000 ${maxeval}
        minimize 1e-12 1e-08 10000 20000
WARNING: Resetting reneighboring criteria during minimization (../min.cpp:168)
Memory usage per processor = 5.02098 Mbytes
Step Temp PotEng Lx Ly Lz 
      14            0   -2865.6874    2.2449241    58.482424    3.6659457 
Loop time of 0.000423915 on 1 procs for 0 steps with 484 atoms

Minimization stats:
  Stopping criterion = force tolerance
  Energy initial, next-to-last, final = 
        -2865.68742736     -2865.68742736     -2865.68742736
  Force two-norm initial, final = 1.05776e-12 1.05776e-12
  Force max component initial, final = 8.23678e-14 8.23678e-14
  Final line search alpha, max atom move = 0 0
  Iterations, force evaluations = 0 0

Pair  time (%) = 0.000401994 (94.8289)
Neigh time (%) = 0 (0)
Comm  time (%) = 1.40272e-05 (3.30898)
Outpt time (%) = 0 (0)
Other time (%) = 7.89366e-06 (1.86209)

Nlocal:    484 ave 484 max 484 min
Histogram: 1 0 0 0 0 0 0 0 0 0
Nghost:    3061 ave 3061 max 3061 min
Histogram: 1 0 0 0 0 0 0 0 0 0
Neighs:    13320 ave 13320 max 13320 min
Histogram: 1 0 0 0 0 0 0 0 0 0

Total # of neighbors = 13320
Ave neighs/atom = 27.5207
Neighbor list builds = 0
Dangerous builds = 0
	# write_dump all atom ${dumpfile}
        next i
jump SELF loop1
        displace_atoms upper move 0.0 ${ystep1} 0.0 units lattice
        displace_atoms upper move 0.0 0.00288675134594812 0.0 units lattice
        min_style ${style}
        min_style hftn
        minimize ${etol} ${ftol} ${maxiter} ${maxeval}
        minimize 1e-12 ${ftol} ${maxiter} ${maxeval}
        minimize 1e-12 1e-08 ${maxiter} ${maxeval}
        minimize 1e-12 1e-08 10000 ${maxeval}
        minimize 1e-12 1e-08 10000 20000
WARNING: Resetting reneighboring criteria during minimization (../min.cpp:168)
Memory usage per processor = 5.02098 Mbytes
Step Temp PotEng Lx Ly Lz 
      14            0   -2864.9014    2.2449241    58.488036    3.6659457 
Loop time of 0.000354087 on 1 procs for 0 steps with 484 atoms

Minimization stats:
  Stopping criterion = force tolerance
  Energy initial, next-to-last, final = 
        -2864.90140834     -2864.90140834     -2864.90140834
  Force two-norm initial, final = 1.05936e-12 1.05936e-12
  Force max component initial, final = 8.23678e-14 8.23678e-14
  Final line search alpha, max atom move = 0 0
  Iterations, force evaluations = 0 0

Pair  time (%) = 0.000332928 (94.0243)
Neigh time (%) = 0 (0)
Comm  time (%) = 1.40368e-05 (3.96422)
Outpt time (%) = 0 (0)
Other time (%) = 7.12252e-06 (2.01152)

Nlocal:    484 ave 484 max 484 min
Histogram: 1 0 0 0 0 0 0 0 0 0
Nghost:    3061 ave 3061 max 3061 min
Histogram: 1 0 0 0 0 0 0 0 0 0
Neighs:    13320 ave 13320 max 13320 min
Histogram: 1 0 0 0 0 0 0 0 0 0

Total # of neighbors = 13320
Ave neighs/atom = 27.5207
Neighbor list builds = 0
Dangerous builds = 0
	# write_dump all atom ${dumpfile}
        next i
jump SELF loop1
        displace_atoms upper move 0.0 ${ystep1} 0.0 units lattice
        displace_atoms upper move 0.0 0.00288675134594812 0.0 units lattice
        min_style ${style}
        min_style hftn
        minimize ${etol} ${ftol} ${maxiter} ${maxeval}
        minimize 1e-12 ${ftol} ${maxiter} ${maxeval}
        minimize 1e-12 1e-08 ${maxiter} ${maxeval}
        minimize 1e-12 1e-08 10000 ${maxeval}
        minimize 1e-12 1e-08 10000 20000
WARNING: Resetting reneighboring criteria during minimization (../min.cpp:168)
Memory usage per processor = 5.02098 Mbytes
Step Temp PotEng Lx Ly Lz 
      14            0   -2864.1096    2.2449241    58.493649    3.6659457 
Loop time of 0.000383908 on 1 procs for 0 steps with 484 atoms

Minimization stats:
  Stopping criterion = force tolerance
  Energy initial, next-to-last, final = 
        -2864.10956626     -2864.10956626     -2864.10956626
  Force two-norm initial, final = 1.05816e-12 1.05816e-12
  Force max component initial, final = 8.23678e-14 8.23678e-14
  Final line search alpha, max atom move = 0 0
  Iterations, force evaluations = 0 0

Pair  time (%) = 0.00035908 (93.5328)
Neigh time (%) = 0 (0)
Comm  time (%) = 1.6069e-05 (4.18565)
Outpt time (%) = 0 (0)
Other time (%) = 8.75921e-06 (2.28159)

Nlocal:    484 ave 484 max 484 min
Histogram: 1 0 0 0 0 0 0 0 0 0
Nghost:    3061 ave 3061 max 3061 min
Histogram: 1 0 0 0 0 0 0 0 0 0
Neighs:    13320 ave 13320 max 13320 min
Histogram: 1 0 0 0 0 0 0 0 0 0

Total # of neighbors = 13320
Ave neighs/atom = 27.5207
Neighbor list builds = 0
Dangerous builds = 0
	# write_dump all atom ${dumpfile}
        next i
jump SELF loop1
        displace_atoms upper move 0.0 ${ystep1} 0.0 units lattice
        displace_atoms upper move 0.0 0.00288675134594812 0.0 units lattice
        min_style ${style}
        min_style hftn
        minimize ${etol} ${ftol} ${maxiter} ${maxeval}
        minimize 1e-12 ${ftol} ${maxiter} ${maxeval}
        minimize 1e-12 1e-08 ${maxiter} ${maxeval}
        minimize 1e-12 1e-08 10000 ${maxeval}
        minimize 1e-12 1e-08 10000 20000
WARNING: Resetting reneighboring criteria during minimization (../min.cpp:168)
Memory usage per processor = 5.02098 Mbytes
Step Temp PotEng Lx Ly Lz 
      14            0    -2863.316    2.2449241    58.499261    3.6659457 
Loop time of 0.000360068 on 1 procs for 0 steps with 484 atoms

Minimization stats:
  Stopping criterion = force tolerance
  Energy initial, next-to-last, final = 
        -2863.31603746     -2863.31603746     -2863.31603746
  Force two-norm initial, final = 1.05622e-12 1.05622e-12
  Force max component initial, final = 8.23678e-14 8.23678e-14
  Final line search alpha, max atom move = 0 0
  Iterations, force evaluations = 0 0

Pair  time (%) = 0.000339101 (94.1769)
Neigh time (%) = 0 (0)
Comm  time (%) = 1.39914e-05 (3.88576)
Outpt time (%) = 0 (0)
Other time (%) = 6.97584e-06 (1.93737)

Nlocal:    484 ave 484 max 484 min
Histogram: 1 0 0 0 0 0 0 0 0 0
Nghost:    3061 ave 3061 max 3061 min
Histogram: 1 0 0 0 0 0 0 0 0 0
Neighs:    13320 ave 13320 max 13320 min
Histogram: 1 0 0 0 0 0 0 0 0 0

Total # of neighbors = 13320
Ave neighs/atom = 27.5207
Neighbor list builds = 0
Dangerous builds = 0
	# write_dump all atom ${dumpfile}
        next i
jump SELF loop1
        displace_atoms upper move 0.0 ${ystep1} 0.0 units lattice
        displace_atoms upper move 0.0 0.00288675134594812 0.0 units lattice
        min_style ${style}
        min_style hftn
        minimize ${etol} ${ftol} ${maxiter} ${maxeval}
        minimize 1e-12 ${ftol} ${maxiter} ${maxeval}
        minimize 1e-12 1e-08 ${maxiter} ${maxeval}
        minimize 1e-12 1e-08 10000 ${maxeval}
        minimize 1e-12 1e-08 10000 20000
WARNING: Resetting reneighboring criteria during minimization (../min.cpp:168)
Memory usage per processor = 5.02098 Mbytes
Step Temp PotEng Lx Ly Lz 
      14            0    -2862.525    2.2449241    58.504873    3.6659457 
Loop time of 0.000395991 on 1 procs for 0 steps with 484 atoms

Minimization stats:
  Stopping criterion = force tolerance
  Energy initial, next-to-last, final = 
        -2862.52503009     -2862.52503009     -2862.52503009
  Force two-norm initial, final = 1.05915e-12 1.05915e-12
  Force max component initial, final = 8.23678e-14 8.23678e-14
  Final line search alpha, max atom move = 0 0
  Iterations, force evaluations = 0 0

Pair  time (%) = 0.000373071 (94.2118)
Neigh time (%) = 0 (0)
Comm  time (%) = 1.28376e-05 (3.24188)
Outpt time (%) = 0 (0)
Other time (%) = 1.00833e-05 (2.54635)

Nlocal:    484 ave 484 max 484 min
Histogram: 1 0 0 0 0 0 0 0 0 0
Nghost:    3061 ave 3061 max 3061 min
Histogram: 1 0 0 0 0 0 0 0 0 0
Neighs:    13320 ave 13320 max 13320 min
Histogram: 1 0 0 0 0 0 0 0 0 0

Total # of neighbors = 13320
Ave neighs/atom = 27.5207
Neighbor list builds = 0
Dangerous builds = 0
	# write_dump all atom ${dumpfile}
        next i
jump SELF loop1
        displace_atoms upper move 0.0 ${ystep1} 0.0 units lattice
        displace_atoms upper move 0.0 0.00288675134594812 0.0 units lattice
        min_style ${style}
        min_style hftn
        minimize ${etol} ${ftol} ${maxiter} ${maxeval}
        minimize 1e-12 ${ftol} ${maxiter} ${maxeval}
        minimize 1e-12 1e-08 ${maxiter} ${maxeval}
        minimize 1e-12 1e-08 10000 ${maxeval}
        minimize 1e-12 1e-08 10000 20000
WARNING: Resetting reneighboring criteria during minimization (../min.cpp:168)
Memory usage per processor = 5.02098 Mbytes
Step Temp PotEng Lx Ly Lz 
      14            0   -2861.7408    2.2449241    58.510486    3.6659457 
Loop time of 0.000374895 on 1 procs for 0 steps with 484 atoms

Minimization stats:
  Stopping criterion = force tolerance
  Energy initial, next-to-last, final = 
        -2861.74077708     -2861.74077708     -2861.74077708
  Force two-norm initial, final = 1.05728e-12 1.05728e-12
  Force max component initial, final = 8.23678e-14 8.23678e-14
  Final line search alpha, max atom move = 0 0
  Iterations, force evaluations = 0 0

Pair  time (%) = 0.000344927 (92.0065)
Neigh time (%) = 0 (0)
Comm  time (%) = 2.2923e-05 (6.11452)
Outpt time (%) = 0 (0)
Other time (%) = 7.04417e-06 (1.87897)

Nlocal:    484 ave 484 max 484 min
Histogram: 1 0 0 0 0 0 0 0 0 0
Nghost:    3061 ave 3061 max 3061 min
Histogram: 1 0 0 0 0 0 0 0 0 0
Neighs:    13320 ave 13320 max 13320 min
Histogram: 1 0 0 0 0 0 0 0 0 0

Total # of neighbors = 13320
Ave neighs/atom = 27.5207
Neighbor list builds = 0
Dangerous builds = 0
	# write_dump all atom ${dumpfile}
        next i
jump SELF loop1
        displace_atoms upper move 0.0 ${ystep1} 0.0 units lattice
        displace_atoms upper move 0.0 0.00288675134594812 0.0 units lattice
        min_style ${style}
        min_style hftn
        minimize ${etol} ${ftol} ${maxiter} ${maxeval}
        minimize 1e-12 ${ftol} ${maxiter} ${maxeval}
        minimize 1e-12 1e-08 ${maxiter} ${maxeval}
        minimize 1e-12 1e-08 10000 ${maxeval}
        minimize 1e-12 1e-08 10000 20000
WARNING: Resetting reneighboring criteria during minimization (../min.cpp:168)
Memory usage per processor = 5.02098 Mbytes
Step Temp PotEng Lx Ly Lz 
      14            0   -2860.9675    2.2449241    58.516098    3.6659457 
Loop time of 0.000353977 on 1 procs for 0 steps with 484 atoms

Minimization stats:
  Stopping criterion = force tolerance
  Energy initial, next-to-last, final = 
        -2860.96752925     -2860.96752925     -2860.96752925
  Force two-norm initial, final = 1.05858e-12 1.05858e-12
  Force max component initial, final = 8.23678e-14 8.23678e-14
  Final line search alpha, max atom move = 0 0
  Iterations, force evaluations = 0 0

Pair  time (%) = 0.000332057 (93.8073)
Neigh time (%) = 0 (0)
Comm  time (%) = 1.50097e-05 (4.24029)
Outpt time (%) = 0 (0)
Other time (%) = 6.91123e-06 (1.95245)

Nlocal:    484 ave 484 max 484 min
Histogram: 1 0 0 0 0 0 0 0 0 0
Nghost:    3061 ave 3061 max 3061 min
Histogram: 1 0 0 0 0 0 0 0 0 0
Neighs:    13320 ave 13320 max 13320 min
Histogram: 1 0 0 0 0 0 0 0 0 0

Total # of neighbors = 13320
Ave neighs/atom = 27.5207
Neighbor list builds = 0
Dangerous builds = 0
	# write_dump all atom ${dumpfile}
        next i
jump SELF loop1
        displace_atoms upper move 0.0 ${ystep1} 0.0 units lattice
        displace_atoms upper move 0.0 0.00288675134594812 0.0 units lattice
        min_style ${style}
        min_style hftn
        minimize ${etol} ${ftol} ${maxiter} ${maxeval}
        minimize 1e-12 ${ftol} ${maxiter} ${maxeval}
        minimize 1e-12 1e-08 ${maxiter} ${maxeval}
        minimize 1e-12 1e-08 10000 ${maxeval}
        minimize 1e-12 1e-08 10000 20000
WARNING: Resetting reneighboring criteria during minimization (../min.cpp:168)
Memory usage per processor = 5.02098 Mbytes
Step Temp PotEng Lx Ly Lz 
      14            0   -2860.2097    2.2449241     58.52171    3.6659457 
Loop time of 0.000311063 on 1 procs for 0 steps with 484 atoms

Minimization stats:
  Stopping criterion = force tolerance
  Energy initial, next-to-last, final = 
        -2860.20966854     -2860.20966854     -2860.20966854
  Force two-norm initial, final = 1.05557e-12 1.05557e-12
  Force max component initial, final = 8.23678e-14 8.23678e-14
  Final line search alpha, max atom move = 0 0
  Iterations, force evaluations = 0 0

Pair  time (%) = 0.000301063 (96.7852)
Neigh time (%) = 0 (0)
Comm  time (%) = 8.00367e-06 (2.573)
Outpt time (%) = 0 (0)
Other time (%) = 1.99629e-06 (0.641764)

Nlocal:    484 ave 484 max 484 min
Histogram: 1 0 0 0 0 0 0 0 0 0
Nghost:    3061 ave 3061 max 3061 min
Histogram: 1 0 0 0 0 0 0 0 0 0
Neighs:    13320 ave 13320 max 13320 min
Histogram: 1 0 0 0 0 0 0 0 0 0

Total # of neighbors = 13320
Ave neighs/atom = 27.5207
Neighbor list builds = 0
Dangerous builds = 0
	# write_dump all atom ${dumpfile}
        next i
jump SELF loop1
        displace_atoms upper move 0.0 ${ystep1} 0.0 units lattice
        displace_atoms upper move 0.0 0.00288675134594812 0.0 units lattice
        min_style ${style}
        min_style hftn
        minimize ${etol} ${ftol} ${maxiter} ${maxeval}
        minimize 1e-12 ${ftol} ${maxiter} ${maxeval}
        minimize 1e-12 1e-08 ${maxiter} ${maxeval}
        minimize 1e-12 1e-08 10000 ${maxeval}
        minimize 1e-12 1e-08 10000 20000
WARNING: Resetting reneighboring criteria during minimization (../min.cpp:168)
Memory usage per processor = 5.02098 Mbytes
Step Temp PotEng Lx Ly Lz 
      14            0   -2859.4715    2.2449241    58.527322    3.6659457 
Loop time of 0.000347951 on 1 procs for 0 steps with 484 atoms

Minimization stats:
  Stopping criterion = force tolerance
  Energy initial, next-to-last, final = 
        -2859.47147454     -2859.47147454     -2859.47147454
  Force two-norm initial, final = 1.05798e-12 1.05798e-12
  Force max component initial, final = 8.23678e-14 8.23678e-14
  Final line search alpha, max atom move = 0 0
  Iterations, force evaluations = 0 0

Pair  time (%) = 0.000320024 (91.9736)
Neigh time (%) = 0 (0)
Comm  time (%) = 1.59643e-05 (4.58807)
Outpt time (%) = 0 (0)
Other time (%) = 1.19635e-05 (3.43828)

Nlocal:    484 ave 484 max 484 min
Histogram: 1 0 0 0 0 0 0 0 0 0
Nghost:    3061 ave 3061 max 3061 min
Histogram: 1 0 0 0 0 0 0 0 0 0
Neighs:    13320 ave 13320 max 13320 min
Histogram: 1 0 0 0 0 0 0 0 0 0

Total # of neighbors = 13320
Ave neighs/atom = 27.5207
Neighbor list builds = 0
Dangerous builds = 0
	# write_dump all atom ${dumpfile}
        next i
jump SELF loop1
        displace_atoms upper move 0.0 ${ystep1} 0.0 units lattice
        displace_atoms upper move 0.0 0.00288675134594812 0.0 units lattice
        min_style ${style}
        min_style hftn
        minimize ${etol} ${ftol} ${maxiter} ${maxeval}
        minimize 1e-12 ${ftol} ${maxiter} ${maxeval}
        minimize 1e-12 1e-08 ${maxiter} ${maxeval}
        minimize 1e-12 1e-08 10000 ${maxeval}
        minimize 1e-12 1e-08 10000 20000
WARNING: Resetting reneighboring criteria during minimization (../min.cpp:168)
Memory usage per processor = 5.02098 Mbytes
Step Temp PotEng Lx Ly Lz 
      14            0   -2858.7573    2.2449241    58.532935    3.6659457 
Loop time of 0.000353992 on 1 procs for 0 steps with 484 atoms

Minimization stats:
  Stopping criterion = force tolerance
  Energy initial, next-to-last, final = 
        -2858.75732967     -2858.75732967     -2858.75732967
  Force two-norm initial, final = 1.0578e-12 1.0578e-12
  Force max component initial, final = 8.23678e-14 8.23678e-14
  Final line search alpha, max atom move = 0 0
  Iterations, force evaluations = 0 0

Pair  time (%) = 0.000333025 (94.0769)
Neigh time (%) = 0 (0)
Comm  time (%) = 1.30385e-05 (3.68328)
Outpt time (%) = 0 (0)
Other time (%) = 7.92881e-06 (2.23983)

Nlocal:    484 ave 484 max 484 min
Histogram: 1 0 0 0 0 0 0 0 0 0
Nghost:    3061 ave 3061 max 3061 min
Histogram: 1 0 0 0 0 0 0 0 0 0
Neighs:    13320 ave 13320 max 13320 min
Histogram: 1 0 0 0 0 0 0 0 0 0

Total # of neighbors = 13320
Ave neighs/atom = 27.5207
Neighbor list builds = 0
Dangerous builds = 0
	# write_dump all atom ${dumpfile}
        next i
jump SELF loop1
        displace_atoms upper move 0.0 ${ystep1} 0.0 units lattice
        displace_atoms upper move 0.0 0.00288675134594812 0.0 units lattice
        min_style ${style}
        min_style hftn
        minimize ${etol} ${ftol} ${maxiter} ${maxeval}
        minimize 1e-12 ${ftol} ${maxiter} ${maxeval}
        minimize 1e-12 1e-08 ${maxiter} ${maxeval}
        minimize 1e-12 1e-08 10000 ${maxeval}
        minimize 1e-12 1e-08 10000 20000
WARNING: Resetting reneighboring criteria during minimization (../min.cpp:168)
Memory usage per processor = 5.02098 Mbytes
Step Temp PotEng Lx Ly Lz 
      14            0   -2858.0717    2.2449241    58.538547    3.6659457 
Loop time of 0.000369 on 1 procs for 0 steps with 484 atoms

Minimization stats:
  Stopping criterion = force tolerance
  Energy initial, next-to-last, final = 
        -2858.07165336     -2858.07165336     -2858.07165336
  Force two-norm initial, final = 1.05336e-12 1.05336e-12
  Force max component initial, final = 8.23678e-14 8.23678e-14
  Final line search alpha, max atom move = 0 0
  Iterations, force evaluations = 0 0

Pair  time (%) = 0.000348033 (94.3178)
Neigh time (%) = 0 (0)
Comm  time (%) = 1.40339e-05 (3.80322)
Outpt time (%) = 0 (0)
Other time (%) = 6.93335e-06 (1.87896)

Nlocal:    484 ave 484 max 484 min
Histogram: 1 0 0 0 0 0 0 0 0 0
Nghost:    3061 ave 3061 max 3061 min
Histogram: 1 0 0 0 0 0 0 0 0 0
Neighs:    13320 ave 13320 max 13320 min
Histogram: 1 0 0 0 0 0 0 0 0 0

Total # of neighbors = 13320
Ave neighs/atom = 27.5207
Neighbor list builds = 0
Dangerous builds = 0
	# write_dump all atom ${dumpfile}
        next i
jump SELF loop1
        displace_atoms upper move 0.0 ${ystep1} 0.0 units lattice
        displace_atoms upper move 0.0 0.00288675134594812 0.0 units lattice
        min_style ${style}
        min_style hftn
        minimize ${etol} ${ftol} ${maxiter} ${maxeval}
        minimize 1e-12 ${ftol} ${maxiter} ${maxeval}
        minimize 1e-12 1e-08 ${maxiter} ${maxeval}
        minimize 1e-12 1e-08 10000 ${maxeval}
        minimize 1e-12 1e-08 10000 20000
WARNING: Resetting reneighboring criteria during minimization (../min.cpp:168)
Memory usage per processor = 5.02098 Mbytes
Step Temp PotEng Lx Ly Lz 
      14            0   -2857.4189    2.2449241    58.544159    3.6659457 
Loop time of 0.000771041 on 1 procs for 0 steps with 484 atoms

Minimization stats:
  Stopping criterion = force tolerance
  Energy initial, next-to-last, final = 
        -2857.41890313     -2857.41890313     -2857.41890313
  Force two-norm initial, final = 1.0573e-12 1.0573e-12
  Force max component initial, final = 8.23678e-14 8.23678e-14
  Final line search alpha, max atom move = 0 0
  Iterations, force evaluations = 0 0

Pair  time (%) = 0.000748881 (97.1261)
Neigh time (%) = 0 (0)
Comm  time (%) = 1.49038e-05 (1.93295)
Outpt time (%) = 0 (0)
Other time (%) = 7.25547e-06 (0.940997)

Nlocal:    484 ave 484 max 484 min
Histogram: 1 0 0 0 0 0 0 0 0 0
Nghost:    3061 ave 3061 max 3061 min
Histogram: 1 0 0 0 0 0 0 0 0 0
Neighs:    13320 ave 13320 max 13320 min
Histogram: 1 0 0 0 0 0 0 0 0 0

Total # of neighbors = 13320
Ave neighs/atom = 27.5207
Neighbor list builds = 0
Dangerous builds = 0
	# write_dump all atom ${dumpfile}
        next i
jump SELF loop1
        displace_atoms upper move 0.0 ${ystep1} 0.0 units lattice
        displace_atoms upper move 0.0 0.00288675134594812 0.0 units lattice
        min_style ${style}
        min_style hftn
        minimize ${etol} ${ftol} ${maxiter} ${maxeval}
        minimize 1e-12 ${ftol} ${maxiter} ${maxeval}
        minimize 1e-12 1e-08 ${maxiter} ${maxeval}
        minimize 1e-12 1e-08 10000 ${maxeval}
        minimize 1e-12 1e-08 10000 20000
WARNING: Resetting reneighboring criteria during minimization (../min.cpp:168)
Memory usage per processor = 5.02098 Mbytes
Step Temp PotEng Lx Ly Lz 
      14            0   -2856.8036    2.2449241    58.549772    3.6659457 
Loop time of 0.000282048 on 1 procs for 0 steps with 484 atoms

Minimization stats:
  Stopping criterion = force tolerance
  Energy initial, next-to-last, final = 
        -2856.80356861     -2856.80356861     -2856.80356861
  Force two-norm initial, final = 1.05703e-12 1.05703e-12
  Force max component initial, final = 8.23678e-14 8.23678e-14
  Final line search alpha, max atom move = 0 0
  Iterations, force evaluations = 0 0

Pair  time (%) = 0.000271048 (96.0999)
Neigh time (%) = 0 (0)
Comm  time (%) = 8.0145e-06 (2.84153)
Outpt time (%) = 0 (0)
Other time (%) = 2.98559e-06 (1.05854)

Nlocal:    484 ave 484 max 484 min
Histogram: 1 0 0 0 0 0 0 0 0 0
Nghost:    3061 ave 3061 max 3061 min
Histogram: 1 0 0 0 0 0 0 0 0 0
Neighs:    13320 ave 13320 max 13320 min
Histogram: 1 0 0 0 0 0 0 0 0 0

Total # of neighbors = 13320
Ave neighs/atom = 27.5207
Neighbor list builds = 0
Dangerous builds = 0
	# write_dump all atom ${dumpfile}
        next i
jump SELF loop1
        displace_atoms upper move 0.0 ${ystep1} 0.0 units lattice
        displace_atoms upper move 0.0 0.00288675134594812 0.0 units lattice
        min_style ${style}
        min_style hftn
        minimize ${etol} ${ftol} ${maxiter} ${maxeval}
        minimize 1e-12 ${ftol} ${maxiter} ${maxeval}
        minimize 1e-12 1e-08 ${maxiter} ${maxeval}
        minimize 1e-12 1e-08 10000 ${maxeval}
        minimize 1e-12 1e-08 10000 20000
WARNING: Resetting reneighboring criteria during minimization (../min.cpp:168)
Memory usage per processor = 5.02098 Mbytes
Step Temp PotEng Lx Ly Lz 
      14            0   -2856.2302    2.2449241    58.555384    3.6659457 
Loop time of 0.000335053 on 1 procs for 0 steps with 484 atoms

Minimization stats:
  Stopping criterion = force tolerance
  Energy initial, next-to-last, final = 
        -2856.23017053     -2856.23017053     -2856.23017053
  Force two-norm initial, final = 1.05287e-12 1.05287e-12
  Force max component initial, final = 8.23678e-14 8.23678e-14
  Final line search alpha, max atom move = 0 0
  Iterations, force evaluations = 0 0

Pair  time (%) = 0.000320986 (95.8016)
Neigh time (%) = 0 (0)
Comm  time (%) = 7.02788e-06 (2.09754)
Outpt time (%) = 0 (0)
Other time (%) = 7.03882e-06 (2.10081)

Nlocal:    484 ave 484 max 484 min
Histogram: 1 0 0 0 0 0 0 0 0 0
Nghost:    3061 ave 3061 max 3061 min
Histogram: 1 0 0 0 0 0 0 0 0 0
Neighs:    13320 ave 13320 max 13320 min
Histogram: 1 0 0 0 0 0 0 0 0 0

Total # of neighbors = 13320
Ave neighs/atom = 27.5207
Neighbor list builds = 0
Dangerous builds = 0
	# write_dump all atom ${dumpfile}
        next i
jump SELF loop1
        displace_atoms upper move 0.0 ${ystep1} 0.0 units lattice
        displace_atoms upper move 0.0 0.00288675134594812 0.0 units lattice
        min_style ${style}
        min_style hftn
        minimize ${etol} ${ftol} ${maxiter} ${maxeval}
        minimize 1e-12 ${ftol} ${maxiter} ${maxeval}
        minimize 1e-12 1e-08 ${maxiter} ${maxeval}
        minimize 1e-12 1e-08 10000 ${maxeval}
        minimize 1e-12 1e-08 10000 20000
WARNING: Resetting reneighboring criteria during minimization (../min.cpp:168)
Memory usage per processor = 5.02098 Mbytes
Step Temp PotEng Lx Ly Lz 
      14            0   -2855.7033    2.2449241    58.560996    3.6659457 
Loop time of 0.00027393 on 1 procs for 0 steps with 484 atoms

Minimization stats:
  Stopping criterion = force tolerance
  Energy initial, next-to-last, final = 
        -2855.70325495     -2855.70325495     -2855.70325495
  Force two-norm initial, final = 1.05399e-12 1.05399e-12
  Force max component initial, final = 8.23678e-14 8.23678e-14
  Final line search alpha, max atom move = 0 0
  Iterations, force evaluations = 0 0

Pair  time (%) = 0.000262963 (95.9963)
Neigh time (%) = 0 (0)
Comm  time (%) = 7.01041e-06 (2.5592)
Outpt time (%) = 0 (0)
Other time (%) = 3.95684e-06 (1.44447)

Nlocal:    484 ave 484 max 484 min
Histogram: 1 0 0 0 0 0 0 0 0 0
Nghost:    3061 ave 3061 max 3061 min
Histogram: 1 0 0 0 0 0 0 0 0 0
Neighs:    13320 ave 13320 max 13320 min
Histogram: 1 0 0 0 0 0 0 0 0 0

Total # of neighbors = 13320
Ave neighs/atom = 27.5207
Neighbor list builds = 0
Dangerous builds = 0
	# write_dump all atom ${dumpfile}
        next i
jump SELF loop1
        displace_atoms upper move 0.0 ${ystep1} 0.0 units lattice
        displace_atoms upper move 0.0 0.00288675134594812 0.0 units lattice
        min_style ${style}
        min_style hftn
        minimize ${etol} ${ftol} ${maxiter} ${maxeval}
        minimize 1e-12 ${ftol} ${maxiter} ${maxeval}
        minimize 1e-12 1e-08 ${maxiter} ${maxeval}
        minimize 1e-12 1e-08 10000 ${maxeval}
        minimize 1e-12 1e-08 10000 20000
WARNING: Resetting reneighboring criteria during minimization (../min.cpp:168)
Memory usage per processor = 5.02098 Mbytes
Step Temp PotEng Lx Ly Lz 
      14            0   -2855.2274    2.2449241    58.566609    3.6659457 
Loop time of 0.000354048 on 1 procs for 0 steps with 484 atoms

Minimization stats:
  Stopping criterion = force tolerance
  Energy initial, next-to-last, final = 
        -2855.22742258     -2855.22742258     -2855.22742258
  Force two-norm initial, final = 1.05646e-12 1.05646e-12
  Force max component initial, final = 8.23678e-14 8.23678e-14
  Final line search alpha, max atom move = 0 0
  Iterations, force evaluations = 0 0

Pair  time (%) = 0.000326889 (92.3289)
Neigh time (%) = 0 (0)
Comm  time (%) = 1.89189e-05 (5.3436)
Outpt time (%) = 0 (0)
Other time (%) = 8.24046e-06 (2.3275)

Nlocal:    484 ave 484 max 484 min
Histogram: 1 0 0 0 0 0 0 0 0 0
Nghost:    3061 ave 3061 max 3061 min
Histogram: 1 0 0 0 0 0 0 0 0 0
Neighs:    13320 ave 13320 max 13320 min
Histogram: 1 0 0 0 0 0 0 0 0 0

Total # of neighbors = 13320
Ave neighs/atom = 27.5207
Neighbor list builds = 0
Dangerous builds = 0
	# write_dump all atom ${dumpfile}
        next i
jump SELF loop1
        displace_atoms upper move 0.0 ${ystep1} 0.0 units lattice
        displace_atoms upper move 0.0 0.00288675134594812 0.0 units lattice
        min_style ${style}
        min_style hftn
        minimize ${etol} ${ftol} ${maxiter} ${maxeval}
        minimize 1e-12 ${ftol} ${maxiter} ${maxeval}
        minimize 1e-12 1e-08 ${maxiter} ${maxeval}
        minimize 1e-12 1e-08 10000 ${maxeval}
        minimize 1e-12 1e-08 10000 20000
WARNING: Resetting reneighboring criteria during minimization (../min.cpp:168)
Memory usage per processor = 5.02098 Mbytes
Step Temp PotEng Lx Ly Lz 
      14            0   -2854.8073    2.2449241    58.572221    3.6659457 
Loop time of 0.000333925 on 1 procs for 0 steps with 484 atoms

Minimization stats:
  Stopping criterion = force tolerance
  Energy initial, next-to-last, final = 
        -2854.80726397     -2854.80726397     -2854.80726397
  Force two-norm initial, final = 1.05476e-12 1.05476e-12
  Force max component initial, final = 8.23678e-14 8.23678e-14
  Final line search alpha, max atom move = 0 0
  Iterations, force evaluations = 0 0

Pair  time (%) = 0.000307004 (91.938)
Neigh time (%) = 0 (0)
Comm  time (%) = 1.99379e-05 (5.97077)
Outpt time (%) = 0 (0)
Other time (%) = 6.98306e-06 (2.09121)

Nlocal:    484 ave 484 max 484 min
Histogram: 1 0 0 0 0 0 0 0 0 0
Nghost:    3061 ave 3061 max 3061 min
Histogram: 1 0 0 0 0 0 0 0 0 0
Neighs:    13320 ave 13320 max 13320 min
Histogram: 1 0 0 0 0 0 0 0 0 0

Total # of neighbors = 13320
Ave neighs/atom = 27.5207
Neighbor list builds = 0
Dangerous builds = 0
	# write_dump all atom ${dumpfile}
        next i
jump SELF loop1
        displace_atoms upper move 0.0 ${ystep1} 0.0 units lattice
        displace_atoms upper move 0.0 0.00288675134594812 0.0 units lattice
        min_style ${style}
        min_style hftn
        minimize ${etol} ${ftol} ${maxiter} ${maxeval}
        minimize 1e-12 ${ftol} ${maxiter} ${maxeval}
        minimize 1e-12 1e-08 ${maxiter} ${maxeval}
        minimize 1e-12 1e-08 10000 ${maxeval}
        minimize 1e-12 1e-08 10000 20000
WARNING: Resetting reneighboring criteria during minimization (../min.cpp:168)
Memory usage per processor = 5.02098 Mbytes
Step Temp PotEng Lx Ly Lz 
      14            0   -2854.4474    2.2449241    58.577833    3.6659457 
Loop time of 0.000427039 on 1 procs for 0 steps with 484 atoms

Minimization stats:
  Stopping criterion = force tolerance
  Energy initial, next-to-last, final = 
        -2854.44740088     -2854.44740088     -2854.44740088
  Force two-norm initial, final = 1.05342e-12 1.05342e-12
  Force max component initial, final = 8.23678e-14 8.23678e-14
  Final line search alpha, max atom move = 0 0
  Iterations, force evaluations = 0 0

Pair  time (%) = 0.000401119 (93.9301)
Neigh time (%) = 0 (0)
Comm  time (%) = 1.79921e-05 (4.21322)
Outpt time (%) = 0 (0)
Other time (%) = 7.92881e-06 (1.85669)

Nlocal:    484 ave 484 max 484 min
Histogram: 1 0 0 0 0 0 0 0 0 0
Nghost:    3061 ave 3061 max 3061 min
Histogram: 1 0 0 0 0 0 0 0 0 0
Neighs:    13320 ave 13320 max 13320 min
Histogram: 1 0 0 0 0 0 0 0 0 0

Total # of neighbors = 13320
Ave neighs/atom = 27.5207
Neighbor list builds = 0
Dangerous builds = 0
	# write_dump all atom ${dumpfile}
        next i
jump SELF loop1
        displace_atoms upper move 0.0 ${ystep1} 0.0 units lattice
        displace_atoms upper move 0.0 0.00288675134594812 0.0 units lattice
        min_style ${style}
        min_style hftn
        minimize ${etol} ${ftol} ${maxiter} ${maxeval}
        minimize 1e-12 ${ftol} ${maxiter} ${maxeval}
        minimize 1e-12 1e-08 ${maxiter} ${maxeval}
        minimize 1e-12 1e-08 10000 ${maxeval}
        minimize 1e-12 1e-08 10000 20000
WARNING: Resetting reneighboring criteria during minimization (../min.cpp:168)
Memory usage per processor = 5.02098 Mbytes
Step Temp PotEng Lx Ly Lz 
      14            0   -2854.1475    2.2449241    58.583446    3.6659457 
Loop time of 0.000443095 on 1 procs for 0 steps with 484 atoms

Minimization stats:
  Stopping criterion = force tolerance
  Energy initial, next-to-last, final = 
        -2854.14750893     -2854.14750893     -2854.14750893
  Force two-norm initial, final = 1.05478e-12 1.05478e-12
  Force max component initial, final = 8.23678e-14 8.23678e-14
  Final line search alpha, max atom move = 0 0
  Iterations, force evaluations = 0 0

Pair  time (%) = 0.000417889 (94.3115)
Neigh time (%) = 0 (0)
Comm  time (%) = 1.78447e-05 (4.02729)
Outpt time (%) = 0 (0)
Other time (%) = 7.36094e-06 (1.66126)

Nlocal:    484 ave 484 max 484 min
Histogram: 1 0 0 0 0 0 0 0 0 0
Nghost:    3061 ave 3061 max 3061 min
Histogram: 1 0 0 0 0 0 0 0 0 0
Neighs:    13320 ave 13320 max 13320 min
Histogram: 1 0 0 0 0 0 0 0 0 0

Total # of neighbors = 13320
Ave neighs/atom = 27.5207
Neighbor list builds = 0
Dangerous builds = 0
	# write_dump all atom ${dumpfile}
        next i
jump SELF loop1
        displace_atoms upper move 0.0 ${ystep1} 0.0 units lattice
        displace_atoms upper move 0.0 0.00288675134594812 0.0 units lattice
        min_style ${style}
        min_style hftn
        minimize ${etol} ${ftol} ${maxiter} ${maxeval}
        minimize 1e-12 ${ftol} ${maxiter} ${maxeval}
        minimize 1e-12 1e-08 ${maxiter} ${maxeval}
        minimize 1e-12 1e-08 10000 ${maxeval}
        minimize 1e-12 1e-08 10000 20000
WARNING: Resetting reneighboring criteria during minimization (../min.cpp:168)
Memory usage per processor = 5.02098 Mbytes
Step Temp PotEng Lx Ly Lz 
      14            0   -2853.8956    2.2449241    58.589058    3.6659457 
Loop time of 0.000361932 on 1 procs for 0 steps with 484 atoms

Minimization stats:
  Stopping criterion = force tolerance
  Energy initial, next-to-last, final = 
        -2853.89560831     -2853.89560831     -2853.89560831
  Force two-norm initial, final = 1.05577e-12 1.05577e-12
  Force max component initial, final = 8.23678e-14 8.23678e-14
  Final line search alpha, max atom move = 0 0
  Iterations, force evaluations = 0 0

Pair  time (%) = 0.000335011 (92.5619)
Neigh time (%) = 0 (0)
Comm  time (%) = 1.90575e-05 (5.2655)
Outpt time (%) = 0 (0)
Other time (%) = 7.86339e-06 (2.17262)

Nlocal:    484 ave 484 max 484 min
Histogram: 1 0 0 0 0 0 0 0 0 0
Nghost:    3061 ave 3061 max 3061 min
Histogram: 1 0 0 0 0 0 0 0 0 0
Neighs:    13320 ave 13320 max 13320 min
Histogram: 1 0 0 0 0 0 0 0 0 0

Total # of neighbors = 13320
Ave neighs/atom = 27.5207
Neighbor list builds = 0
Dangerous builds = 0
	# write_dump all atom ${dumpfile}
        next i
jump SELF loop1
[...]
Histogram: 1 0 0 0 0 0 0 0 0 0
Nghost:    3061 ave 3061 max 3061 min
Histogram: 1 0 0 0 0 0 0 0 0 0
Neighs:    13160 ave 13160 max 13160 min
Histogram: 1 0 0 0 0 0 0 0 0 0

Total # of neighbors = 13160
Ave neighs/atom = 27.1901
Neighbor list builds = 0
Dangerous builds = 0
	# write_dump all atom ${dumpfile}
        next i
jump SELF loop1
        displace_atoms upper move 0.0 ${ystep1} 0.0 units lattice
        displace_atoms upper move 0.0 0.00288675134594812 0.0 units lattice
        min_style ${style}
        min_style hftn
        minimize ${etol} ${ftol} ${maxiter} ${maxeval}
        minimize 1e-12 ${ftol} ${maxiter} ${maxeval}
        minimize 1e-12 1e-08 ${maxiter} ${maxeval}
        minimize 1e-12 1e-08 10000 ${maxeval}
        minimize 1e-12 1e-08 10000 20000
WARNING: Resetting reneighboring criteria during minimization (../min.cpp:168)
Memory usage per processor = 5.02195 Mbytes
Step Temp PotEng Lx Ly Lz 
      14            0   -2851.9976    2.2449241    59.964074    3.6659457 
Loop time of 0.000332932 on 1 procs for 0 steps with 484 atoms

Minimization stats:
  Stopping criterion = force tolerance
  Energy initial, next-to-last, final = 
         -2851.9976285      -2851.9976285      -2851.9976285
  Force two-norm initial, final = 1.05518e-12 1.05518e-12
  Force max component initial, final = 8.23678e-14 8.23678e-14
  Final line search alpha, max atom move = 0 0
  Iterations, force evaluations = 0 0

Pair  time (%) = 0.000310011 (93.1154)
Neigh time (%) = 0 (0)
Comm  time (%) = 1.41376e-05 (4.24639)
Outpt time (%) = 0 (0)
Other time (%) = 8.78342e-06 (2.6382)

Nlocal:    484 ave 484 max 484 min
Histogram: 1 0 0 0 0 0 0 0 0 0
Nghost:    3061 ave 3061 max 3061 min
Histogram: 1 0 0 0 0 0 0 0 0 0
Neighs:    13160 ave 13160 max 13160 min
Histogram: 1 0 0 0 0 0 0 0 0 0

Total # of neighbors = 13160
Ave neighs/atom = 27.1901
Neighbor list builds = 0
Dangerous builds = 0
	# write_dump all atom ${dumpfile}
        next i
jump SELF loop1
        displace_atoms upper move 0.0 ${ystep1} 0.0 units lattice
        displace_atoms upper move 0.0 0.00288675134594812 0.0 units lattice
        min_style ${style}
        min_style hftn
        minimize ${etol} ${ftol} ${maxiter} ${maxeval}
        minimize 1e-12 ${ftol} ${maxiter} ${maxeval}
        minimize 1e-12 1e-08 ${maxiter} ${maxeval}
        minimize 1e-12 1e-08 10000 ${maxeval}
        minimize 1e-12 1e-08 10000 20000
WARNING: Resetting reneighboring criteria during minimization (../min.cpp:168)
Memory usage per processor = 5.02195 Mbytes
Step Temp PotEng Lx Ly Lz 
      14            0   -2851.9976    2.2449241    59.969686    3.6659457 
Loop time of 0.000352972 on 1 procs for 0 steps with 484 atoms

Minimization stats:
  Stopping criterion = force tolerance
  Energy initial, next-to-last, final = 
         -2851.9976285      -2851.9976285      -2851.9976285
  Force two-norm initial, final = 1.05384e-12 1.05384e-12
  Force max component initial, final = 8.23678e-14 8.23678e-14
  Final line search alpha, max atom move = 0 0
  Iterations, force evaluations = 0 0

Pair  time (%) = 0.000332051 (94.0729)
Neigh time (%) = 0 (0)
Comm  time (%) = 1.39994e-05 (3.96615)
Outpt time (%) = 0 (0)
Other time (%) = 6.92159e-06 (1.96094)

Nlocal:    484 ave 484 max 484 min
Histogram: 1 0 0 0 0 0 0 0 0 0
Nghost:    3061 ave 3061 max 3061 min
Histogram: 1 0 0 0 0 0 0 0 0 0
Neighs:    13160 ave 13160 max 13160 min
Histogram: 1 0 0 0 0 0 0 0 0 0

Total # of neighbors = 13160
Ave neighs/atom = 27.1901
Neighbor list builds = 0
Dangerous builds = 0
	# write_dump all atom ${dumpfile}
        next i
jump SELF loop1
        displace_atoms upper move 0.0 ${ystep1} 0.0 units lattice
        displace_atoms upper move 0.0 0.00288675134594812 0.0 units lattice
        min_style ${style}
        min_style hftn
        minimize ${etol} ${ftol} ${maxiter} ${maxeval}
        minimize 1e-12 ${ftol} ${maxiter} ${maxeval}
        minimize 1e-12 1e-08 ${maxiter} ${maxeval}
        minimize 1e-12 1e-08 10000 ${maxeval}
        minimize 1e-12 1e-08 10000 20000
WARNING: Resetting reneighboring criteria during minimization (../min.cpp:168)
Memory usage per processor = 5.02195 Mbytes
Step Temp PotEng Lx Ly Lz 
      14            0   -2851.9976    2.2449241    59.975298    3.6659457 
Loop time of 0.000351931 on 1 procs for 0 steps with 484 atoms

Minimization stats:
  Stopping criterion = force tolerance
  Energy initial, next-to-last, final = 
         -2851.9976285      -2851.9976285      -2851.9976285
  Force two-norm initial, final = 1.0525e-12 1.0525e-12
  Force max component initial, final = 8.23678e-14 8.23678e-14
  Final line search alpha, max atom move = 0 0
  Iterations, force evaluations = 0 0

Pair  time (%) = 0.000330964 (94.0422)
Neigh time (%) = 0 (0)
Comm  time (%) = 1.40169e-05 (3.98284)
Outpt time (%) = 0 (0)
Other time (%) = 6.95034e-06 (1.97491)

Nlocal:    484 ave 484 max 484 min
Histogram: 1 0 0 0 0 0 0 0 0 0
Nghost:    3061 ave 3061 max 3061 min
Histogram: 1 0 0 0 0 0 0 0 0 0
Neighs:    13160 ave 13160 max 13160 min
Histogram: 1 0 0 0 0 0 0 0 0 0

Total # of neighbors = 13160
Ave neighs/atom = 27.1901
Neighbor list builds = 0
Dangerous builds = 0
	# write_dump all atom ${dumpfile}
        next i
jump SELF loop1
        displace_atoms upper move 0.0 ${ystep1} 0.0 units lattice
        displace_atoms upper move 0.0 0.00288675134594812 0.0 units lattice
        min_style ${style}
        min_style hftn
        minimize ${etol} ${ftol} ${maxiter} ${maxeval}
        minimize 1e-12 ${ftol} ${maxiter} ${maxeval}
        minimize 1e-12 1e-08 ${maxiter} ${maxeval}
        minimize 1e-12 1e-08 10000 ${maxeval}
        minimize 1e-12 1e-08 10000 20000
WARNING: Resetting reneighboring criteria during minimization (../min.cpp:168)
Memory usage per processor = 5.02195 Mbytes
Step Temp PotEng Lx Ly Lz 
      14            0   -2851.9976    2.2449241    59.980911    3.6659457 
Loop time of 0.000284105 on 1 procs for 0 steps with 484 atoms

Minimization stats:
  Stopping criterion = force tolerance
  Energy initial, next-to-last, final = 
         -2851.9976285      -2851.9976285      -2851.9976285
  Force two-norm initial, final = 1.05652e-12 1.05652e-12
  Force max component initial, final = 8.23678e-14 8.23678e-14
  Final line search alpha, max atom move = 0 0
  Iterations, force evaluations = 0 0

Pair  time (%) = 0.0002669 (93.9439)
Neigh time (%) = 0 (0)
Comm  time (%) = 9.06899e-06 (3.19212)
Outpt time (%) = 0 (0)
Other time (%) = 8.13662e-06 (2.86394)

Nlocal:    484 ave 484 max 484 min
Histogram: 1 0 0 0 0 0 0 0 0 0
Nghost:    3061 ave 3061 max 3061 min
Histogram: 1 0 0 0 0 0 0 0 0 0
Neighs:    13160 ave 13160 max 13160 min
Histogram: 1 0 0 0 0 0 0 0 0 0

Total # of neighbors = 13160
Ave neighs/atom = 27.1901
Neighbor list builds = 0
Dangerous builds = 0
	# write_dump all atom ${dumpfile}
        next i
jump SELF loop1
        displace_atoms upper move 0.0 ${ystep1} 0.0 units lattice
        displace_atoms upper move 0.0 0.00288675134594812 0.0 units lattice
        min_style ${style}
        min_style hftn
        minimize ${etol} ${ftol} ${maxiter} ${maxeval}
        minimize 1e-12 ${ftol} ${maxiter} ${maxeval}
        minimize 1e-12 1e-08 ${maxiter} ${maxeval}
        minimize 1e-12 1e-08 10000 ${maxeval}
        minimize 1e-12 1e-08 10000 20000
WARNING: Resetting reneighboring criteria during minimization (../min.cpp:168)
Memory usage per processor = 5.02195 Mbytes
Step Temp PotEng Lx Ly Lz 
      14            0   -2851.9976    2.2449241    59.986523    3.6659457 
Loop time of 0.000429 on 1 procs for 0 steps with 484 atoms

Minimization stats:
  Stopping criterion = force tolerance
  Energy initial, next-to-last, final = 
         -2851.9976285      -2851.9976285      -2851.9976285
  Force two-norm initial, final = 1.05652e-12 1.05652e-12
  Force max component initial, final = 8.23678e-14 8.23678e-14
  Final line search alpha, max atom move = 0 0
  Iterations, force evaluations = 0 0

Pair  time (%) = 0.000374952 (87.4015)
Neigh time (%) = 0 (0)
Comm  time (%) = 2.69057e-05 (6.27172)
Outpt time (%) = 0 (0)
Other time (%) = 2.71419e-05 (6.32678)

Nlocal:    484 ave 484 max 484 min
Histogram: 1 0 0 0 0 0 0 0 0 0
Nghost:    3061 ave 3061 max 3061 min
Histogram: 1 0 0 0 0 0 0 0 0 0
Neighs:    13160 ave 13160 max 13160 min
Histogram: 1 0 0 0 0 0 0 0 0 0

Total # of neighbors = 13160
Ave neighs/atom = 27.1901
Neighbor list builds = 0
Dangerous builds = 0
	# write_dump all atom ${dumpfile}
        next i
jump SELF loop1
        displace_atoms upper move 0.0 ${ystep1} 0.0 units lattice
        displace_atoms upper move 0.0 0.00288675134594812 0.0 units lattice
        min_style ${style}
        min_style hftn
        minimize ${etol} ${ftol} ${maxiter} ${maxeval}
        minimize 1e-12 ${ftol} ${maxiter} ${maxeval}
        minimize 1e-12 1e-08 ${maxiter} ${maxeval}
        minimize 1e-12 1e-08 10000 ${maxeval}
        minimize 1e-12 1e-08 10000 20000
WARNING: Resetting reneighboring criteria during minimization (../min.cpp:168)
Memory usage per processor = 5.02195 Mbytes
Step Temp PotEng Lx Ly Lz 
      14            0   -2851.9976    2.2449241    59.992135    3.6659457 
Loop time of 0.000195095 on 1 procs for 0 steps with 484 atoms

Minimization stats:
  Stopping criterion = force tolerance
  Energy initial, next-to-last, final = 
         -2851.9976285      -2851.9976285      -2851.9976285
  Force two-norm initial, final = 1.05518e-12 1.05518e-12
  Force max component initial, final = 8.23678e-14 8.23678e-14
  Final line search alpha, max atom move = 0 0
  Iterations, force evaluations = 0 0

Pair  time (%) = 0.000171935 (88.1291)
Neigh time (%) = 0 (0)
Comm  time (%) = 1.49847e-05 (7.68075)
Outpt time (%) = 0 (0)
Other time (%) = 8.17468e-06 (4.19011)

Nlocal:    484 ave 484 max 484 min
Histogram: 1 0 0 0 0 0 0 0 0 0
Nghost:    3061 ave 3061 max 3061 min
Histogram: 1 0 0 0 0 0 0 0 0 0
Neighs:    13160 ave 13160 max 13160 min
Histogram: 1 0 0 0 0 0 0 0 0 0

Total # of neighbors = 13160
Ave neighs/atom = 27.1901
Neighbor list builds = 0
Dangerous builds = 0
	# write_dump all atom ${dumpfile}
        next i
jump SELF loop1
        displace_atoms upper move 0.0 ${ystep1} 0.0 units lattice
        displace_atoms upper move 0.0 0.00288675134594812 0.0 units lattice
        min_style ${style}
        min_style hftn
        minimize ${etol} ${ftol} ${maxiter} ${maxeval}
        minimize 1e-12 ${ftol} ${maxiter} ${maxeval}
        minimize 1e-12 1e-08 ${maxiter} ${maxeval}
        minimize 1e-12 1e-08 10000 ${maxeval}
        minimize 1e-12 1e-08 10000 20000
WARNING: Resetting reneighboring criteria during minimization (../min.cpp:168)
Memory usage per processor = 5.02195 Mbytes
Step Temp PotEng Lx Ly Lz 
      14            0   -2851.9976    2.2449241    59.997748    3.6659457 
Loop time of 0.000326043 on 1 procs for 0 steps with 484 atoms

Minimization stats:
  Stopping criterion = force tolerance
  Energy initial, next-to-last, final = 
         -2851.9976285      -2851.9976285      -2851.9976285
  Force two-norm initial, final = 1.05384e-12 1.05384e-12
  Force max component initial, final = 8.23678e-14 8.23678e-14
  Final line search alpha, max atom move = 0 0
  Iterations, force evaluations = 0 0

Pair  time (%) = 0.000313884 (96.2706)
Neigh time (%) = 0 (0)
Comm  time (%) = 6.78375e-06 (2.08063)
Outpt time (%) = 0 (0)
Other time (%) = 5.37559e-06 (1.64874)

Nlocal:    484 ave 484 max 484 min
Histogram: 1 0 0 0 0 0 0 0 0 0
Nghost:    3061 ave 3061 max 3061 min
Histogram: 1 0 0 0 0 0 0 0 0 0
Neighs:    13160 ave 13160 max 13160 min
Histogram: 1 0 0 0 0 0 0 0 0 0

Total # of neighbors = 13160
Ave neighs/atom = 27.1901
Neighbor list builds = 0
Dangerous builds = 0
	# write_dump all atom ${dumpfile}
        next i
jump SELF loop1
        displace_atoms upper move 0.0 ${ystep1} 0.0 units lattice
        displace_atoms upper move 0.0 0.00288675134594812 0.0 units lattice
        min_style ${style}
        min_style hftn
        minimize ${etol} ${ftol} ${maxiter} ${maxeval}
        minimize 1e-12 ${ftol} ${maxiter} ${maxeval}
        minimize 1e-12 1e-08 ${maxiter} ${maxeval}
        minimize 1e-12 1e-08 10000 ${maxeval}
        minimize 1e-12 1e-08 10000 20000
WARNING: Resetting reneighboring criteria during minimization (../min.cpp:168)
Memory usage per processor = 5.02195 Mbytes
Step Temp PotEng Lx Ly Lz 
      14            0   -2851.9976    2.2449241     60.00336    3.6659457 
Loop time of 0.000398065 on 1 procs for 0 steps with 484 atoms

Minimization stats:
  Stopping criterion = force tolerance
  Energy initial, next-to-last, final = 
         -2851.9976285      -2851.9976285      -2851.9976285
  Force two-norm initial, final = 1.0525e-12 1.0525e-12
  Force max component initial, final = 8.23678e-14 8.23678e-14
  Final line search alpha, max atom move = 0 0
  Iterations, force evaluations = 0 0

Pair  time (%) = 0.000336918 (84.6389)
Neigh time (%) = 0 (0)
Comm  time (%) = 2.99443e-05 (7.52248)
Outpt time (%) = 0 (0)
Other time (%) = 3.12026e-05 (7.83857)

Nlocal:    484 ave 484 max 484 min
Histogram: 1 0 0 0 0 0 0 0 0 0
Nghost:    3061 ave 3061 max 3061 min
Histogram: 1 0 0 0 0 0 0 0 0 0
Neighs:    13160 ave 13160 max 13160 min
Histogram: 1 0 0 0 0 0 0 0 0 0

Total # of neighbors = 13160
Ave neighs/atom = 27.1901
Neighbor list builds = 0
Dangerous builds = 0
	# write_dump all atom ${dumpfile}
        next i
jump SELF loop1
        displace_atoms upper move 0.0 ${ystep1} 0.0 units lattice
        displace_atoms upper move 0.0 0.00288675134594812 0.0 units lattice
        min_style ${style}
        min_style hftn
        minimize ${etol} ${ftol} ${maxiter} ${maxeval}
        minimize 1e-12 ${ftol} ${maxiter} ${maxeval}
        minimize 1e-12 1e-08 ${maxiter} ${maxeval}
        minimize 1e-12 1e-08 10000 ${maxeval}
        minimize 1e-12 1e-08 10000 20000
WARNING: Resetting reneighboring criteria during minimization (../min.cpp:168)
Memory usage per processor = 5.02195 Mbytes
Step Temp PotEng Lx Ly Lz 
      14            0   -2851.9976    2.2449241    60.008972    3.6659457 
Loop time of 0.000396074 on 1 procs for 0 steps with 484 atoms

Minimization stats:
  Stopping criterion = force tolerance
  Energy initial, next-to-last, final = 
         -2851.9976285      -2851.9976285      -2851.9976285
  Force two-norm initial, final = 1.05652e-12 1.05652e-12
  Force max component initial, final = 8.23678e-14 8.23678e-14
  Final line search alpha, max atom move = 0 0
  Iterations, force evaluations = 0 0

Pair  time (%) = 0.000375107 (94.7062)
Neigh time (%) = 0 (0)
Comm  time (%) = 1.30025e-05 (3.28286)
Outpt time (%) = 0 (0)
Other time (%) = 7.96467e-06 (2.0109)

Nlocal:    484 ave 484 max 484 min
Histogram: 1 0 0 0 0 0 0 0 0 0
Nghost:    3061 ave 3061 max 3061 min
Histogram: 1 0 0 0 0 0 0 0 0 0
Neighs:    13160 ave 13160 max 13160 min
Histogram: 1 0 0 0 0 0 0 0 0 0

Total # of neighbors = 13160
Ave neighs/atom = 27.1901
Neighbor list builds = 0
Dangerous builds = 0
	# write_dump all atom ${dumpfile}
        next i
jump SELF loop1
        displace_atoms upper move 0.0 ${ystep1} 0.0 units lattice
        displace_atoms upper move 0.0 0.00288675134594812 0.0 units lattice
        min_style ${style}
        min_style hftn
        minimize ${etol} ${ftol} ${maxiter} ${maxeval}
        minimize 1e-12 ${ftol} ${maxiter} ${maxeval}
        minimize 1e-12 1e-08 ${maxiter} ${maxeval}
        minimize 1e-12 1e-08 10000 ${maxeval}
        minimize 1e-12 1e-08 10000 20000
WARNING: Resetting reneighboring criteria during minimization (../min.cpp:168)
Memory usage per processor = 5.02195 Mbytes
Step Temp PotEng Lx Ly Lz 
      14            0   -2851.9976    2.2449241    60.014585    3.6659457 
Loop time of 0.000352975 on 1 procs for 0 steps with 484 atoms

Minimization stats:
  Stopping criterion = force tolerance
  Energy initial, next-to-last, final = 
         -2851.9976285      -2851.9976285      -2851.9976285
  Force two-norm initial, final = 1.05652e-12 1.05652e-12
  Force max component initial, final = 8.23678e-14 8.23678e-14
  Final line search alpha, max atom move = 0 0
  Iterations, force evaluations = 0 0

Pair  time (%) = 0.000332008 (94.0599)
Neigh time (%) = 0 (0)
Comm  time (%) = 1.39577e-05 (3.95431)
Outpt time (%) = 0 (0)
Other time (%) = 7.00948e-06 (1.98583)

Nlocal:    484 ave 484 max 484 min
Histogram: 1 0 0 0 0 0 0 0 0 0
Nghost:    3061 ave 3061 max 3061 min
Histogram: 1 0 0 0 0 0 0 0 0 0
Neighs:    13160 ave 13160 max 13160 min
Histogram: 1 0 0 0 0 0 0 0 0 0

Total # of neighbors = 13160
Ave neighs/atom = 27.1901
Neighbor list builds = 0
Dangerous builds = 0
	# write_dump all atom ${dumpfile}
        next i
jump SELF loop1
        displace_atoms upper move 0.0 ${ystep1} 0.0 units lattice
        displace_atoms upper move 0.0 0.00288675134594812 0.0 units lattice
        min_style ${style}
        min_style hftn
        minimize ${etol} ${ftol} ${maxiter} ${maxeval}
        minimize 1e-12 ${ftol} ${maxiter} ${maxeval}
        minimize 1e-12 1e-08 ${maxiter} ${maxeval}
        minimize 1e-12 1e-08 10000 ${maxeval}
        minimize 1e-12 1e-08 10000 20000
WARNING: Resetting reneighboring criteria during minimization (../min.cpp:168)
Memory usage per processor = 5.02195 Mbytes
Step Temp PotEng Lx Ly Lz 
      14            0   -2851.9976    2.2449241    60.020197    3.6659457 
Loop time of 0.00047111 on 1 procs for 0 steps with 484 atoms

Minimization stats:
  Stopping criterion = force tolerance
  Energy initial, next-to-last, final = 
         -2851.9976285      -2851.9976285      -2851.9976285
  Force two-norm initial, final = 1.05518e-12 1.05518e-12
  Force max component initial, final = 8.23678e-14 8.23678e-14
  Final line search alpha, max atom move = 0 0
  Iterations, force evaluations = 0 0

Pair  time (%) = 0.000448905 (95.2865)
Neigh time (%) = 0 (0)
Comm  time (%) = 1.39271e-05 (2.95623)
Outpt time (%) = 0 (0)
Other time (%) = 8.27853e-06 (1.75724)

Nlocal:    484 ave 484 max 484 min
Histogram: 1 0 0 0 0 0 0 0 0 0
Nghost:    3061 ave 3061 max 3061 min
Histogram: 1 0 0 0 0 0 0 0 0 0
Neighs:    13160 ave 13160 max 13160 min
Histogram: 1 0 0 0 0 0 0 0 0 0

Total # of neighbors = 13160
Ave neighs/atom = 27.1901
Neighbor list builds = 0
Dangerous builds = 0
	# write_dump all atom ${dumpfile}
        next i
jump SELF loop1

# allow atoms to relax in y-direction, now that two halves have separated
unfix 2
min_style ${style}
min_style hftn
minimize ${etol} ${ftol} ${maxiter} ${maxeval}
minimize 1e-12 ${ftol} ${maxiter} ${maxeval}
minimize 1e-12 1e-08 ${maxiter} ${maxeval}
minimize 1e-12 1e-08 10000 ${maxeval}
minimize 1e-12 1e-08 10000 20000
WARNING: Resetting reneighboring criteria during minimization (../min.cpp:168)
Memory usage per processor = 5.02195 Mbytes
Step Temp PotEng Lx Ly Lz 
      14            0   -2851.9976    2.2449241    60.020197    3.6659457 
      15            0   -2851.9977    2.2449241    60.020197    3.6659457 
      16            0   -2851.9977    2.2449241    60.020197    3.6659457 
Loop time of 0.0926069 on 1 procs for 1 steps with 484 atoms

Minimization stats:
  Stopping criterion = force tolerance
  Energy initial, next-to-last, final = 
         -2851.9976285      -2851.9976285     -2851.99768125
  Force two-norm initial, final = 0.00173607 9.93675e-11
  Force max component initial, final = 0.000372168 2.576e-11
  Final line search alpha, max atom move = 0 0
  Iterations, force evaluations = 1 225

Pair  time (%) = 0.0785056 (84.7729)
Neigh time (%) = 0 (0)
Comm  time (%) = 0.00823571 (8.89319)
Outpt time (%) = 6.40518e-05 (0.0691653)
Other time (%) = 0.00580155 (6.2647)

Nlocal:    484 ave 484 max 484 min
Histogram: 1 0 0 0 0 0 0 0 0 0
Nghost:    3061 ave 3061 max 3061 min
Histogram: 1 0 0 0 0 0 0 0 0 0
Neighs:    13160 ave 13160 max 13160 min
Histogram: 1 0 0 0 0 0 0 0 0 0

Total # of neighbors = 13160
Ave neighs/atom = 27.1901
Neighbor list builds = 0
Dangerous builds = 0

write_dump all atom ${dumpfile}
write_dump all atom surf_V_brittle_3d.*.dump


