LAMMPS (28 Jun 2014)
# attempt at getting surface energy

#file prefix
variable prefix string surf_V_brittle_3d
variable dumpfile string ${prefix}.*.dump
variable dumpfile string surf_V_brittle_3d.*.dump
variable restartfile string ${prefix}.*.equil
variable restartfile string surf_V_brittle_3d.*.equil

#Mass (g/mol)
variable m equal 1.0

# lattice constant (in Angstroms) and orientation of axes (given by lattice vectors)
variable rho equal 1.0
variable x1 equal 1
variable x2 equal 1
variable x3 equal -2
variable y1 equal 1
variable y2 equal 1
variable y3 equal 1
variable z1 equal 1
variable z2 equal -1
variable z3 equal 0
# length of lattice in different directions (using orientation of lattice vectors)
variable ax equal sqrt(${x1}*${x1}+${x2}*${x2}+${x3}*${x3})
variable ax equal sqrt(1*${x1}+${x2}*${x2}+${x3}*${x3})
variable ax equal sqrt(1*1+${x2}*${x2}+${x3}*${x3})
variable ax equal sqrt(1*1+1*${x2}+${x3}*${x3})
variable ax equal sqrt(1*1+1*1+${x3}*${x3})
variable ax equal sqrt(1*1+1*1+-2*${x3})
variable ax equal sqrt(1*1+1*1+-2*-2)
variable ay equal sqrt(${y1}*${y1}+${y2}*${y2}+${y3}*${y3})
variable ay equal sqrt(1*${y1}+${y2}*${y2}+${y3}*${y3})
variable ay equal sqrt(1*1+${y2}*${y2}+${y3}*${y3})
variable ay equal sqrt(1*1+1*${y2}+${y3}*${y3})
variable ay equal sqrt(1*1+1*1+${y3}*${y3})
variable ay equal sqrt(1*1+1*1+1*${y3})
variable ay equal sqrt(1*1+1*1+1*1)
variable az equal sqrt(${z1}*${z1}+${z2}*${z2}+${z3}*${z3})
variable az equal sqrt(1*${z1}+${z2}*${z2}+${z3}*${z3})
variable az equal sqrt(1*1+${z2}*${z2}+${z3}*${z3})
variable az equal sqrt(1*1+-1*${z2}+${z3}*${z3})
variable az equal sqrt(1*1+-1*-1+${z3}*${z3})
variable az equal sqrt(1*1+-1*-1+0*${z3})
variable az equal sqrt(1*1+-1*-1+0*0)

# size of box in lattice units
variable lxpos equal 2
variable lxneg equal 0
variable lypos equal 15
variable lyneg equal -1*${lypos}
variable lyneg equal -1*15
variable lzpos equal 2
variable lzneg equal 0

# boundary conditions
dimension	3
boundary	p s p
atom_style	atomic

# Define minimization parameters and damping
variable etol equal 1.0e-12
variable ftol equal 1.0e-8
variable maxiter equal 10000
variable maxeval equal 20000
variable style string hftn

# create geometry
units		lj
lattice         fcc ${rho} orient x 1 1 -2 orient y 1 1 1 orient z 1 -1 0 spacing ${ax} ${ay} ${az}
lattice         fcc 1 orient x 1 1 -2 orient y 1 1 1 orient z 1 -1 0 spacing ${ax} ${ay} ${az}
lattice         fcc 1 orient x 1 1 -2 orient y 1 1 1 orient z 1 -1 0 spacing 2.44948974278318 ${ay} ${az}
lattice         fcc 1 orient x 1 1 -2 orient y 1 1 1 orient z 1 -1 0 spacing 2.44948974278318 1.73205080756888 ${az}
lattice         fcc 1 orient x 1 1 -2 orient y 1 1 1 orient z 1 -1 0 spacing 2.44948974278318 1.73205080756888 1.4142135623731
Lattice spacing in x,y,z = 3.88832 2.74946 2.24492
region		myregion block ${lxneg} ${lxpos} ${lyneg} ${lypos} ${lzneg} ${lzpos} units lattice
region		myregion block 0 ${lxpos} ${lyneg} ${lypos} ${lzneg} ${lzpos} units lattice
region		myregion block 0 2 ${lyneg} ${lypos} ${lzneg} ${lzpos} units lattice
region		myregion block 0 2 -15 ${lypos} ${lzneg} ${lzpos} units lattice
region		myregion block 0 2 -15 15 ${lzneg} ${lzpos} units lattice
region		myregion block 0 2 -15 15 0 ${lzpos} units lattice
region		myregion block 0 2 -15 15 0 2 units lattice
create_box	1 myregion
Created orthogonal box = (0 -41.2419 0) to (7.77665 41.2419 4.48985)
  1 by 1 by 1 MPI processor grid
create_atoms	1 box
Created 2912 atoms
write_dump all atom init.dump

# define masses
mass * $m
mass * 1

# my fake/morse potential
pair_style      table linear 3001
pair_coeff      * * vpotential_inter43d dummy
neighbor	0.3 bin
neigh_modify	delay 5

# define groups. Nudge to separate planes cleanly
region	    upper block INF INF 0.01 ${lypos} INF INF units lattice
region	    upper block INF INF 0.01 15 INF INF units lattice
group		upper region upper
1440 atoms in group upper

# Setup output
thermo 1
thermo_style custom step temp pe lx ly lz
thermo_modify norm no

# Compute initial state by relaxing box
fix 3 all box/relax x 0.0
min_style ${style}
min_style hftn
minimize ${etol} ${ftol} ${maxiter} ${maxeval}
minimize 1e-12 ${ftol} ${maxiter} ${maxeval}
minimize 1e-12 1e-08 ${maxiter} ${maxeval}
minimize 1e-12 1e-08 10000 ${maxeval}
minimize 1e-12 1e-08 10000 20000
WARNING: Resetting reneighboring criteria during minimization (../min.cpp:168)
Memory usage per processor = 5.28939 Mbytes
Step Temp PotEng Lx Ly Lz 
       0            0   -17375.986    7.7766452    82.500275    4.4898482 
       1            0   -17375.986    7.7766452    82.500275    4.4898482 
       2            0   -17375.986    7.7766452    82.500275    4.4898482 
       3            0   -17375.986    7.7766452    82.500275    4.4898482 
       4            0   -17375.986    7.7766452    82.500275    4.4898482 
       5            0   -17375.986    7.7766452    82.500275    4.4898482 
       6            0   -17375.986    7.7766452    82.500275    4.4898482 
       7            0   -17375.986    7.7766452    82.500275    4.4898482 
       8            0   -17375.986    7.7766452    82.500275    4.4898482 
       9            0   -17375.986    7.7766452    82.500275    4.4898482 
      10            0   -17375.986    7.7766452    82.500275    4.4898482 
      11            0   -17375.986    7.7766452    82.500275    4.4898482 
      12            0   -17375.986    7.7766452    82.500275    4.4898482 
      13            0   -17375.986    7.7766452    82.500275    4.4898482 
      14            0   -17375.986    7.7766452    82.500275    4.4898482 
      15            0   -17375.986    7.7766452    82.500275    4.4898482 
Loop time of 0.23146 on 1 procs for 14 steps with 2912 atoms

Minimization stats:
  Stopping criterion = trust region too small
  Energy initial, next-to-last, final = 
        -17375.9855515     -17375.9855515     -17375.9855515
  Force two-norm initial, final = 0.840484 0.840484
  Force max component initial, final = 0.840481 0.840481
  Final line search alpha, max atom move = 0 0
  Iterations, force evaluations = 14 88

Pair  time (%) = 0.210537 (90.9602)
Neigh time (%) = 0 (0)
Comm  time (%) = 0.00418891 (1.80978)
Outpt time (%) = 0.000968253 (0.418324)
Other time (%) = 0.0157664 (6.8117)

Nlocal:    2912 ave 2912 max 2912 min
Histogram: 1 0 0 0 0 0 0 0 0 0
Nghost:    7129 ave 7129 max 7129 min
Histogram: 1 0 0 0 0 0 0 0 0 0
Neighs:    77856 ave 77856 max 77856 min
Histogram: 1 0 0 0 0 0 0 0 0 0

Total # of neighbors = 77856
Ave neighs/atom = 26.7363
Neighbor list builds = 0
Dangerous builds = 0
unfix 3

# don't allow atoms to relax in y-direction
fix 2 all setforce NULL 0.0 NULL

# GSF energy curve will have 100*2 steps
variable nsteps equal 300
variable sstep1 equal 1.5
variable ystep1 equal ${sstep1}/(${ay}*${nsteps})
variable ystep1 equal 1.5/(${ay}*${nsteps})
variable ystep1 equal 1.5/(1.73205080756888*${nsteps})
variable ystep1 equal 1.5/(1.73205080756888*300)

variable i loop ${nsteps}
variable i loop 300
label loop1
        displace_atoms upper move 0.0 ${ystep1} 0.0 units lattice
        displace_atoms upper move 0.0 0.00288675134594812 0.0 units lattice
        min_style ${style}
        min_style hftn
        minimize ${etol} ${ftol} ${maxiter} ${maxeval}
        minimize 1e-12 ${ftol} ${maxiter} ${maxeval}
        minimize 1e-12 1e-08 ${maxiter} ${maxeval}
        minimize 1e-12 1e-08 10000 ${maxeval}
        minimize 1e-12 1e-08 10000 20000
WARNING: Resetting reneighboring criteria during minimization (../min.cpp:168)
Memory usage per processor = 5.28939 Mbytes
Step Temp PotEng Lx Ly Lz 
      15            0   -17375.822    7.7766452    82.508212    4.4898482 
Loop time of 0.00235601 on 1 procs for 0 steps with 2912 atoms

Minimization stats:
  Stopping criterion = force tolerance
  Energy initial, next-to-last, final = 
        -17375.8217205     -17375.8217205     -17375.8217205
  Force two-norm initial, final = 8.51156e-11 8.51156e-11
  Force max component initial, final = 2.7994e-12 2.7994e-12
  Final line search alpha, max atom move = 0 0
  Iterations, force evaluations = 0 0

Pair  time (%) = 0.00227011 (96.3539)
Neigh time (%) = 0 (0)
Comm  time (%) = 4.57877e-05 (1.94344)
Outpt time (%) = 0 (0)
Other time (%) = 4.01142e-05 (1.70263)

Nlocal:    2912 ave 2912 max 2912 min
Histogram: 1 0 0 0 0 0 0 0 0 0
Nghost:    7129 ave 7129 max 7129 min
Histogram: 1 0 0 0 0 0 0 0 0 0
Neighs:    77856 ave 77856 max 77856 min
Histogram: 1 0 0 0 0 0 0 0 0 0

Total # of neighbors = 77856
Ave neighs/atom = 26.7363
Neighbor list builds = 0
Dangerous builds = 0
	# write_dump all atom ${dumpfile}
        next i
jump SELF loop1
        displace_atoms upper move 0.0 ${ystep1} 0.0 units lattice
        displace_atoms upper move 0.0 0.00288675134594812 0.0 units lattice
        min_style ${style}
        min_style hftn
        minimize ${etol} ${ftol} ${maxiter} ${maxeval}
        minimize 1e-12 ${ftol} ${maxiter} ${maxeval}
        minimize 1e-12 1e-08 ${maxiter} ${maxeval}
        minimize 1e-12 1e-08 10000 ${maxeval}
        minimize 1e-12 1e-08 10000 20000
WARNING: Resetting reneighboring criteria during minimization (../min.cpp:168)
Memory usage per processor = 5.28939 Mbytes
Step Temp PotEng Lx Ly Lz 
      15            0   -17375.355    7.7766452    82.516149    4.4898482 
Loop time of 0.00197095 on 1 procs for 0 steps with 2912 atoms

Minimization stats:
  Stopping criterion = force tolerance
  Energy initial, next-to-last, final = 
        -17375.3554661     -17375.3554661     -17375.3554661
  Force two-norm initial, final = 8.50972e-11 8.50972e-11
  Force max component initial, final = 2.7994e-12 2.7994e-12
  Final line search alpha, max atom move = 0 0
  Iterations, force evaluations = 0 0

Pair  time (%) = 0.00190709 (96.7602)
Neigh time (%) = 0 (0)
Comm  time (%) = 3.29209e-05 (1.6703)
Outpt time (%) = 0 (0)
Other time (%) = 3.09346e-05 (1.56953)

Nlocal:    2912 ave 2912 max 2912 min
Histogram: 1 0 0 0 0 0 0 0 0 0
Nghost:    7129 ave 7129 max 7129 min
Histogram: 1 0 0 0 0 0 0 0 0 0
Neighs:    77856 ave 77856 max 77856 min
Histogram: 1 0 0 0 0 0 0 0 0 0

Total # of neighbors = 77856
Ave neighs/atom = 26.7363
Neighbor list builds = 0
Dangerous builds = 0
	# write_dump all atom ${dumpfile}
        next i
jump SELF loop1
        displace_atoms upper move 0.0 ${ystep1} 0.0 units lattice
        displace_atoms upper move 0.0 0.00288675134594812 0.0 units lattice
        min_style ${style}
        min_style hftn
        minimize ${etol} ${ftol} ${maxiter} ${maxeval}
        minimize 1e-12 ${ftol} ${maxiter} ${maxeval}
        minimize 1e-12 1e-08 ${maxiter} ${maxeval}
        minimize 1e-12 1e-08 10000 ${maxeval}
        minimize 1e-12 1e-08 10000 20000
WARNING: Resetting reneighboring criteria during minimization (../min.cpp:168)
Memory usage per processor = 5.28939 Mbytes
Step Temp PotEng Lx Ly Lz 
      15            0   -17374.622    7.7766452    82.524086    4.4898482 
Loop time of 0.00189589 on 1 procs for 0 steps with 2912 atoms

Minimization stats:
  Stopping criterion = force tolerance
  Energy initial, next-to-last, final = 
        -17374.6218503     -17374.6218503     -17374.6218503
  Force two-norm initial, final = 8.50788e-11 8.50788e-11
  Force max component initial, final = 2.7994e-12 2.7994e-12
  Final line search alpha, max atom move = 0 0
  Iterations, force evaluations = 0 0

Pair  time (%) = 0.00182698 (96.3654)
Neigh time (%) = 0 (0)
Comm  time (%) = 3.60893e-05 (1.90356)
Outpt time (%) = 0 (0)
Other time (%) = 3.28192e-05 (1.73107)

Nlocal:    2912 ave 2912 max 2912 min
Histogram: 1 0 0 0 0 0 0 0 0 0
Nghost:    7129 ave 7129 max 7129 min
Histogram: 1 0 0 0 0 0 0 0 0 0
Neighs:    77856 ave 77856 max 77856 min
Histogram: 1 0 0 0 0 0 0 0 0 0

Total # of neighbors = 77856
Ave neighs/atom = 26.7363
Neighbor list builds = 0
Dangerous builds = 0
	# write_dump all atom ${dumpfile}
        next i
jump SELF loop1
        displace_atoms upper move 0.0 ${ystep1} 0.0 units lattice
        displace_atoms upper move 0.0 0.00288675134594812 0.0 units lattice
        min_style ${style}
        min_style hftn
        minimize ${etol} ${ftol} ${maxiter} ${maxeval}
        minimize 1e-12 ${ftol} ${maxiter} ${maxeval}
        minimize 1e-12 1e-08 ${maxiter} ${maxeval}
        minimize 1e-12 1e-08 10000 ${maxeval}
        minimize 1e-12 1e-08 10000 20000
WARNING: Resetting reneighboring criteria during minimization (../min.cpp:168)
Memory usage per processor = 5.28939 Mbytes
Step Temp PotEng Lx Ly Lz 
      15            0   -17373.653    7.7766452    82.532023    4.4898482 
Loop time of 0.00192397 on 1 procs for 0 steps with 2912 atoms

Minimization stats:
  Stopping criterion = force tolerance
  Energy initial, next-to-last, final = 
        -17373.6531956     -17373.6531956     -17373.6531956
  Force two-norm initial, final = 8.50672e-11 8.50672e-11
  Force max component initial, final = 2.7994e-12 2.7994e-12
  Final line search alpha, max atom move = 0 0
  Iterations, force evaluations = 0 0

Pair  time (%) = 0.00186107 (96.7306)
Neigh time (%) = 0 (0)
Comm  time (%) = 3.38794e-05 (1.76091)
Outpt time (%) = 0 (0)
Other time (%) = 2.90225e-05 (1.50847)

Nlocal:    2912 ave 2912 max 2912 min
Histogram: 1 0 0 0 0 0 0 0 0 0
Nghost:    7129 ave 7129 max 7129 min
Histogram: 1 0 0 0 0 0 0 0 0 0
Neighs:    77856 ave 77856 max 77856 min
Histogram: 1 0 0 0 0 0 0 0 0 0

Total # of neighbors = 77856
Ave neighs/atom = 26.7363
Neighbor list builds = 0
Dangerous builds = 0
	# write_dump all atom ${dumpfile}
        next i
jump SELF loop1
        displace_atoms upper move 0.0 ${ystep1} 0.0 units lattice
        displace_atoms upper move 0.0 0.00288675134594812 0.0 units lattice
        min_style ${style}
        min_style hftn
        minimize ${etol} ${ftol} ${maxiter} ${maxeval}
        minimize 1e-12 ${ftol} ${maxiter} ${maxeval}
        minimize 1e-12 1e-08 ${maxiter} ${maxeval}
        minimize 1e-12 1e-08 10000 ${maxeval}
        minimize 1e-12 1e-08 10000 20000
WARNING: Resetting reneighboring criteria during minimization (../min.cpp:168)
Memory usage per processor = 5.28939 Mbytes
Step Temp PotEng Lx Ly Lz 
      15            0   -17372.479    7.7766452     82.53996    4.4898482 
Loop time of 0.00173702 on 1 procs for 0 steps with 2912 atoms

Minimization stats:
  Stopping criterion = force tolerance
  Energy initial, next-to-last, final = 
        -17372.4792093     -17372.4792093     -17372.4792093
  Force two-norm initial, final = 8.50557e-11 8.50557e-11
  Force max component initial, final = 2.7994e-12 2.7994e-12
  Final line search alpha, max atom move = 0 0
  Iterations, force evaluations = 0 0

Pair  time (%) = 0.00167193 (96.2526)
Neigh time (%) = 0 (0)
Comm  time (%) = 3.3904e-05 (1.95185)
Outpt time (%) = 0 (0)
Other time (%) = 3.11899e-05 (1.7956)

Nlocal:    2912 ave 2912 max 2912 min
Histogram: 1 0 0 0 0 0 0 0 0 0
Nghost:    7129 ave 7129 max 7129 min
Histogram: 1 0 0 0 0 0 0 0 0 0
Neighs:    77856 ave 77856 max 77856 min
Histogram: 1 0 0 0 0 0 0 0 0 0

Total # of neighbors = 77856
Ave neighs/atom = 26.7363
Neighbor list builds = 0
Dangerous builds = 0
	# write_dump all atom ${dumpfile}
        next i
jump SELF loop1
        displace_atoms upper move 0.0 ${ystep1} 0.0 units lattice
        displace_atoms upper move 0.0 0.00288675134594812 0.0 units lattice
        min_style ${style}
        min_style hftn
        minimize ${etol} ${ftol} ${maxiter} ${maxeval}
        minimize 1e-12 ${ftol} ${maxiter} ${maxeval}
        minimize 1e-12 1e-08 ${maxiter} ${maxeval}
        minimize 1e-12 1e-08 10000 ${maxeval}
        minimize 1e-12 1e-08 10000 20000
WARNING: Resetting reneighboring criteria during minimization (../min.cpp:168)
Memory usage per processor = 5.28939 Mbytes
Step Temp PotEng Lx Ly Lz 
      15            0   -17371.127    7.7766452    82.547897    4.4898482 
Loop time of 0.00217106 on 1 procs for 0 steps with 2912 atoms

Minimization stats:
  Stopping criterion = force tolerance
  Energy initial, next-to-last, final = 
        -17371.1267864     -17371.1267864     -17371.1267864
  Force two-norm initial, final = 8.5043e-11 8.5043e-11
  Force max component initial, final = 2.7994e-12 2.7994e-12
  Final line search alpha, max atom move = 0 0
  Iterations, force evaluations = 0 0

Pair  time (%) = 0.00210506 (96.96)
Neigh time (%) = 0 (0)
Comm  time (%) = 3.5111e-05 (1.61723)
Outpt time (%) = 0 (0)
Other time (%) = 3.08902e-05 (1.42282)

Nlocal:    2912 ave 2912 max 2912 min
Histogram: 1 0 0 0 0 0 0 0 0 0
Nghost:    7129 ave 7129 max 7129 min
Histogram: 1 0 0 0 0 0 0 0 0 0
Neighs:    77856 ave 77856 max 77856 min
Histogram: 1 0 0 0 0 0 0 0 0 0

Total # of neighbors = 77856
Ave neighs/atom = 26.7363
Neighbor list builds = 0
Dangerous builds = 0
	# write_dump all atom ${dumpfile}
        next i
jump SELF loop1
        displace_atoms upper move 0.0 ${ystep1} 0.0 units lattice
        displace_atoms upper move 0.0 0.00288675134594812 0.0 units lattice
        min_style ${style}
        min_style hftn
        minimize ${etol} ${ftol} ${maxiter} ${maxeval}
        minimize 1e-12 ${ftol} ${maxiter} ${maxeval}
        minimize 1e-12 1e-08 ${maxiter} ${maxeval}
        minimize 1e-12 1e-08 10000 ${maxeval}
        minimize 1e-12 1e-08 10000 20000
WARNING: Resetting reneighboring criteria during minimization (../min.cpp:168)
Memory usage per processor = 5.28939 Mbytes
Step Temp PotEng Lx Ly Lz 
      15            0    -17369.62    7.7766452    82.555834    4.4898482 
Loop time of 0.00192903 on 1 procs for 0 steps with 2912 atoms

Minimization stats:
  Stopping criterion = force tolerance
  Energy initial, next-to-last, final = 
        -17369.6203127     -17369.6203127     -17369.6203127
  Force two-norm initial, final = 8.50351e-11 8.50351e-11
  Force max component initial, final = 2.7994e-12 2.7994e-12
  Final line search alpha, max atom move = 0 0
  Iterations, force evaluations = 0 0

Pair  time (%) = 0.00182908 (94.8187)
Neigh time (%) = 0 (0)
Comm  time (%) = 7.28494e-05 (3.77649)
Outpt time (%) = 0 (0)
Other time (%) = 2.70986e-05 (1.40478)

Nlocal:    2912 ave 2912 max 2912 min
Histogram: 1 0 0 0 0 0 0 0 0 0
Nghost:    7129 ave 7129 max 7129 min
Histogram: 1 0 0 0 0 0 0 0 0 0
Neighs:    77856 ave 77856 max 77856 min
Histogram: 1 0 0 0 0 0 0 0 0 0

Total # of neighbors = 77856
Ave neighs/atom = 26.7363
Neighbor list builds = 0
Dangerous builds = 0
	# write_dump all atom ${dumpfile}
        next i
jump SELF loop1
        displace_atoms upper move 0.0 ${ystep1} 0.0 units lattice
        displace_atoms upper move 0.0 0.00288675134594812 0.0 units lattice
        min_style ${style}
        min_style hftn
        minimize ${etol} ${ftol} ${maxiter} ${maxeval}
        minimize 1e-12 ${ftol} ${maxiter} ${maxeval}
        minimize 1e-12 1e-08 ${maxiter} ${maxeval}
        minimize 1e-12 1e-08 10000 ${maxeval}
        minimize 1e-12 1e-08 10000 20000
WARNING: Resetting reneighboring criteria during minimization (../min.cpp:168)
Memory usage per processor = 5.28939 Mbytes
Step Temp PotEng Lx Ly Lz 
      15            0   -17367.982    7.7766452    82.563771    4.4898482 
Loop time of 0.00222704 on 1 procs for 0 steps with 2912 atoms

Minimization stats:
  Stopping criterion = force tolerance
  Energy initial, next-to-last, final = 
        -17367.9823934     -17367.9823934     -17367.9823934
  Force two-norm initial, final = 8.50252e-11 8.50252e-11
  Force max component initial, final = 2.7994e-12 2.7994e-12
  Final line search alpha, max atom move = 0 0
  Iterations, force evaluations = 0 0

Pair  time (%) = 0.00214297 (96.2251)
Neigh time (%) = 0 (0)
Comm  time (%) = 4.40385e-05 (1.97745)
Outpt time (%) = 0 (0)
Other time (%) = 4.00294e-05 (1.79743)

Nlocal:    2912 ave 2912 max 2912 min
Histogram: 1 0 0 0 0 0 0 0 0 0
Nghost:    7129 ave 7129 max 7129 min
Histogram: 1 0 0 0 0 0 0 0 0 0
Neighs:    77856 ave 77856 max 77856 min
Histogram: 1 0 0 0 0 0 0 0 0 0

Total # of neighbors = 77856
Ave neighs/atom = 26.7363
Neighbor list builds = 0
Dangerous builds = 0
	# write_dump all atom ${dumpfile}
        next i
jump SELF loop1
        displace_atoms upper move 0.0 ${ystep1} 0.0 units lattice
        displace_atoms upper move 0.0 0.00288675134594812 0.0 units lattice
        min_style ${style}
        min_style hftn
        minimize ${etol} ${ftol} ${maxiter} ${maxeval}
        minimize 1e-12 ${ftol} ${maxiter} ${maxeval}
        minimize 1e-12 1e-08 ${maxiter} ${maxeval}
        minimize 1e-12 1e-08 10000 ${maxeval}
        minimize 1e-12 1e-08 10000 20000
WARNING: Resetting reneighboring criteria during minimization (../min.cpp:168)
Memory usage per processor = 5.28939 Mbytes
Step Temp PotEng Lx Ly Lz 
      15            0   -17366.208    7.7766452    82.571708    4.4898482 
Loop time of 0.00263004 on 1 procs for 0 steps with 2912 atoms

Minimization stats:
  Stopping criterion = force tolerance
  Energy initial, next-to-last, final = 
        -17366.2075318     -17366.2075318     -17366.2075318
  Force two-norm initial, final = 8.51326e-11 8.51326e-11
  Force max component initial, final = 2.7994e-12 2.7994e-12
  Final line search alpha, max atom move = 0 0
  Iterations, force evaluations = 0 0

Pair  time (%) = 0.00250904 (95.3993)
Neigh time (%) = 0 (0)
Comm  time (%) = 6.39562e-05 (2.43176)
Outpt time (%) = 0 (0)
Other time (%) = 5.70449e-05 (2.16897)

Nlocal:    2912 ave 2912 max 2912 min
Histogram: 1 0 0 0 0 0 0 0 0 0
Nghost:    7129 ave 7129 max 7129 min
Histogram: 1 0 0 0 0 0 0 0 0 0
Neighs:    77664 ave 77664 max 77664 min
Histogram: 1 0 0 0 0 0 0 0 0 0

Total # of neighbors = 77664
Ave neighs/atom = 26.6703
Neighbor list builds = 0
Dangerous builds = 0
	# write_dump all atom ${dumpfile}
        next i
jump SELF loop1
        displace_atoms upper move 0.0 ${ystep1} 0.0 units lattice
        displace_atoms upper move 0.0 0.00288675134594812 0.0 units lattice
        min_style ${style}
        min_style hftn
        minimize ${etol} ${ftol} ${maxiter} ${maxeval}
        minimize 1e-12 ${ftol} ${maxiter} ${maxeval}
        minimize 1e-12 1e-08 ${maxiter} ${maxeval}
        minimize 1e-12 1e-08 10000 ${maxeval}
        minimize 1e-12 1e-08 10000 20000
WARNING: Resetting reneighboring criteria during minimization (../min.cpp:168)
Memory usage per processor = 5.28939 Mbytes
Step Temp PotEng Lx Ly Lz 
      15            0   -17364.119    7.7766452    82.579645    4.4898482 
Loop time of 0.00211402 on 1 procs for 0 steps with 2912 atoms

Minimization stats:
  Stopping criterion = force tolerance
  Energy initial, next-to-last, final = 
        -17364.1192054     -17364.1192054     -17364.1192054
  Force two-norm initial, final = 8.51216e-11 8.51216e-11
  Force max component initial, final = 2.7994e-12 2.7994e-12
  Final line search alpha, max atom move = 0 0
  Iterations, force evaluations = 0 0

Pair  time (%) = 0.00201294 (95.2185)
Neigh time (%) = 0 (0)
Comm  time (%) = 5.29645e-05 (2.50539)
Outpt time (%) = 0 (0)
Other time (%) = 4.8117e-05 (2.27609)

Nlocal:    2912 ave 2912 max 2912 min
Histogram: 1 0 0 0 0 0 0 0 0 0
Nghost:    7129 ave 7129 max 7129 min
Histogram: 1 0 0 0 0 0 0 0 0 0
Neighs:    77664 ave 77664 max 77664 min
Histogram: 1 0 0 0 0 0 0 0 0 0

Total # of neighbors = 77664
Ave neighs/atom = 26.6703
Neighbor list builds = 0
Dangerous builds = 0
	# write_dump all atom ${dumpfile}
        next i
jump SELF loop1
        displace_atoms upper move 0.0 ${ystep1} 0.0 units lattice
        displace_atoms upper move 0.0 0.00288675134594812 0.0 units lattice
        min_style ${style}
        min_style hftn
        minimize ${etol} ${ftol} ${maxiter} ${maxeval}
        minimize 1e-12 ${ftol} ${maxiter} ${maxeval}
        minimize 1e-12 1e-08 ${maxiter} ${maxeval}
        minimize 1e-12 1e-08 10000 ${maxeval}
        minimize 1e-12 1e-08 10000 20000
WARNING: Resetting reneighboring criteria during minimization (../min.cpp:168)
Memory usage per processor = 5.28939 Mbytes
Step Temp PotEng Lx Ly Lz 
      15            0   -17361.703    7.7766452    82.587582    4.4898482 
Loop time of 0.00211011 on 1 procs for 0 steps with 2912 atoms

Minimization stats:
  Stopping criterion = force tolerance
  Energy initial, next-to-last, final = 
        -17361.7030166     -17361.7030166     -17361.7030166
  Force two-norm initial, final = 8.51097e-11 8.51097e-11
  Force max component initial, final = 2.7994e-12 2.7994e-12
  Final line search alpha, max atom move = 0 0
  Iterations, force evaluations = 0 0

Pair  time (%) = 0.00204411 (96.8721)
Neigh time (%) = 0 (0)
Comm  time (%) = 3.38098e-05 (1.60228)
Outpt time (%) = 0 (0)
Other time (%) = 3.21914e-05 (1.52558)

Nlocal:    2912 ave 2912 max 2912 min
Histogram: 1 0 0 0 0 0 0 0 0 0
Nghost:    7129 ave 7129 max 7129 min
Histogram: 1 0 0 0 0 0 0 0 0 0
Neighs:    77664 ave 77664 max 77664 min
Histogram: 1 0 0 0 0 0 0 0 0 0

Total # of neighbors = 77664
Ave neighs/atom = 26.6703
Neighbor list builds = 0
Dangerous builds = 0
	# write_dump all atom ${dumpfile}
        next i
jump SELF loop1
        displace_atoms upper move 0.0 ${ystep1} 0.0 units lattice
        displace_atoms upper move 0.0 0.00288675134594812 0.0 units lattice
        min_style ${style}
        min_style hftn
        minimize ${etol} ${ftol} ${maxiter} ${maxeval}
        minimize 1e-12 ${ftol} ${maxiter} ${maxeval}
        minimize 1e-12 1e-08 ${maxiter} ${maxeval}
        minimize 1e-12 1e-08 10000 ${maxeval}
        minimize 1e-12 1e-08 10000 20000
WARNING: Resetting reneighboring criteria during minimization (../min.cpp:168)
Memory usage per processor = 5.28939 Mbytes
Step Temp PotEng Lx Ly Lz 
      15            0   -17358.987    7.7766452    82.595519    4.4898482 
Loop time of 0.00261408 on 1 procs for 0 steps with 2912 atoms

Minimization stats:
  Stopping criterion = force tolerance
  Energy initial, next-to-last, final = 
         -17358.986617      -17358.986617      -17358.986617
  Force two-norm initial, final = 8.50973e-11 8.50973e-11
  Force max component initial, final = 2.7994e-12 2.7994e-12
  Final line search alpha, max atom move = 0 0
  Iterations, force evaluations = 0 0

Pair  time (%) = 0.00254804 (97.4734)
Neigh time (%) = 0 (0)
Comm  time (%) = 3.51286e-05 (1.34382)
Outpt time (%) = 0 (0)
Other time (%) = 3.0919e-05 (1.18278)

Nlocal:    2912 ave 2912 max 2912 min
Histogram: 1 0 0 0 0 0 0 0 0 0
Nghost:    7129 ave 7129 max 7129 min
Histogram: 1 0 0 0 0 0 0 0 0 0
Neighs:    77664 ave 77664 max 77664 min
Histogram: 1 0 0 0 0 0 0 0 0 0

Total # of neighbors = 77664
Ave neighs/atom = 26.6703
Neighbor list builds = 0
Dangerous builds = 0
	# write_dump all atom ${dumpfile}
        next i
jump SELF loop1
        displace_atoms upper move 0.0 ${ystep1} 0.0 units lattice
        displace_atoms upper move 0.0 0.00288675134594812 0.0 units lattice
        min_style ${style}
        min_style hftn
        minimize ${etol} ${ftol} ${maxiter} ${maxeval}
        minimize 1e-12 ${ftol} ${maxiter} ${maxeval}
        minimize 1e-12 1e-08 ${maxiter} ${maxeval}
        minimize 1e-12 1e-08 10000 ${maxeval}
        minimize 1e-12 1e-08 10000 20000
WARNING: Resetting reneighboring criteria during minimization (../min.cpp:168)
Memory usage per processor = 5.28939 Mbytes
Step Temp PotEng Lx Ly Lz 
      15            0   -17355.998    7.7766452    82.603456    4.4898482 
Loop time of 0.00175611 on 1 procs for 0 steps with 2912 atoms

Minimization stats:
  Stopping criterion = force tolerance
  Energy initial, next-to-last, final = 
        -17355.9981778     -17355.9981778     -17355.9981778
  Force two-norm initial, final = 8.50865e-11 8.50865e-11
  Force max component initial, final = 2.7994e-12 2.7994e-12
  Final line search alpha, max atom move = 0 0
  Iterations, force evaluations = 0 0

Pair  time (%) = 0.00168291 (95.8317)
Neigh time (%) = 0 (0)
Comm  time (%) = 3.69977e-05 (2.1068)
Outpt time (%) = 0 (0)
Other time (%) = 3.62024e-05 (2.06151)

Nlocal:    2912 ave 2912 max 2912 min
Histogram: 1 0 0 0 0 0 0 0 0 0
Nghost:    7129 ave 7129 max 7129 min
Histogram: 1 0 0 0 0 0 0 0 0 0
Neighs:    77664 ave 77664 max 77664 min
Histogram: 1 0 0 0 0 0 0 0 0 0

Total # of neighbors = 77664
Ave neighs/atom = 26.6703
Neighbor list builds = 0
Dangerous builds = 0
	# write_dump all atom ${dumpfile}
        next i
jump SELF loop1
        displace_atoms upper move 0.0 ${ystep1} 0.0 units lattice
        displace_atoms upper move 0.0 0.00288675134594812 0.0 units lattice
        min_style ${style}
        min_style hftn
        minimize ${etol} ${ftol} ${maxiter} ${maxeval}
        minimize 1e-12 ${ftol} ${maxiter} ${maxeval}
        minimize 1e-12 1e-08 ${maxiter} ${maxeval}
        minimize 1e-12 1e-08 10000 ${maxeval}
        minimize 1e-12 1e-08 10000 20000
WARNING: Resetting reneighboring criteria during minimization (../min.cpp:168)
Memory usage per processor = 5.28939 Mbytes
Step Temp PotEng Lx Ly Lz 
      15            0   -17352.766    7.7766452    82.611393    4.4898482 
Loop time of 0.00197495 on 1 procs for 0 steps with 2912 atoms

Minimization stats:
  Stopping criterion = force tolerance
  Energy initial, next-to-last, final = 
        -17352.7663551     -17352.7663551     -17352.7663551
  Force two-norm initial, final = 8.50755e-11 8.50755e-11
  Force max component initial, final = 2.7994e-12 2.7994e-12
  Final line search alpha, max atom move = 0 0
  Iterations, force evaluations = 0 0

Pair  time (%) = 0.00193695 (98.0759)
Neigh time (%) = 0 (0)
Comm  time (%) = 2.59823e-05 (1.31559)
Outpt time (%) = 0 (0)
Other time (%) = 1.20177e-05 (0.608506)

Nlocal:    2912 ave 2912 max 2912 min
Histogram: 1 0 0 0 0 0 0 0 0 0
Nghost:    7129 ave 7129 max 7129 min
Histogram: 1 0 0 0 0 0 0 0 0 0
Neighs:    77664 ave 77664 max 77664 min
Histogram: 1 0 0 0 0 0 0 0 0 0

Total # of neighbors = 77664
Ave neighs/atom = 26.6703
Neighbor list builds = 0
Dangerous builds = 0
	# write_dump all atom ${dumpfile}
        next i
jump SELF loop1
        displace_atoms upper move 0.0 ${ystep1} 0.0 units lattice
        displace_atoms upper move 0.0 0.00288675134594812 0.0 units lattice
        min_style ${style}
        min_style hftn
        minimize ${etol} ${ftol} ${maxiter} ${maxeval}
        minimize 1e-12 ${ftol} ${maxiter} ${maxeval}
        minimize 1e-12 1e-08 ${maxiter} ${maxeval}
        minimize 1e-12 1e-08 10000 ${maxeval}
        minimize 1e-12 1e-08 10000 20000
WARNING: Resetting reneighboring criteria during minimization (../min.cpp:168)
Memory usage per processor = 5.28939 Mbytes
Step Temp PotEng Lx Ly Lz 
      15            0    -17349.32    7.7766452     82.61933    4.4898482 
Loop time of 0.00482696 on 1 procs for 0 steps with 2912 atoms

Minimization stats:
  Stopping criterion = force tolerance
  Energy initial, next-to-last, final = 
        -17349.3199943     -17349.3199943     -17349.3199943
  Force two-norm initial, final = 8.50624e-11 8.50624e-11
  Force max component initial, final = 2.7994e-12 2.7994e-12
  Final line search alpha, max atom move = 0 0
  Iterations, force evaluations = 0 0

Pair  time (%) = 0.0047941 (99.3192)
Neigh time (%) = 0 (0)
Comm  time (%) = 1.79363e-05 (0.371587)
Outpt time (%) = 0 (0)
Other time (%) = 1.49247e-05 (0.309194)

Nlocal:    2912 ave 2912 max 2912 min
Histogram: 1 0 0 0 0 0 0 0 0 0
Nghost:    7129 ave 7129 max 7129 min
Histogram: 1 0 0 0 0 0 0 0 0 0
Neighs:    77664 ave 77664 max 77664 min
Histogram: 1 0 0 0 0 0 0 0 0 0

Total # of neighbors = 77664
Ave neighs/atom = 26.6703
Neighbor list builds = 0
Dangerous builds = 0
	# write_dump all atom ${dumpfile}
        next i
jump SELF loop1
        displace_atoms upper move 0.0 ${ystep1} 0.0 units lattice
        displace_atoms upper move 0.0 0.00288675134594812 0.0 units lattice
        min_style ${style}
        min_style hftn
        minimize ${etol} ${ftol} ${maxiter} ${maxeval}
        minimize 1e-12 ${ftol} ${maxiter} ${maxeval}
        minimize 1e-12 1e-08 ${maxiter} ${maxeval}
        minimize 1e-12 1e-08 10000 ${maxeval}
        minimize 1e-12 1e-08 10000 20000
WARNING: Resetting reneighboring criteria during minimization (../min.cpp:168)
Memory usage per processor = 5.28939 Mbytes
Step Temp PotEng Lx Ly Lz 
      15            0   -17345.689    7.7766452    82.627267    4.4898482 
Loop time of 0.00201512 on 1 procs for 0 steps with 2912 atoms

Minimization stats:
  Stopping criterion = force tolerance
  Energy initial, next-to-last, final = 
        -17345.6888413     -17345.6888413     -17345.6888413
  Force two-norm initial, final = 8.50521e-11 8.50521e-11
  Force max component initial, final = 2.7994e-12 2.7994e-12
  Final line search alpha, max atom move = 0 0
  Iterations, force evaluations = 0 0

Pair  time (%) = 0.00195202 (96.869)
Neigh time (%) = 0 (0)
Comm  time (%) = 3.21906e-05 (1.59746)
Outpt time (%) = 0 (0)
Other time (%) = 3.09033e-05 (1.53357)

Nlocal:    2912 ave 2912 max 2912 min
Histogram: 1 0 0 0 0 0 0 0 0 0
Nghost:    7129 ave 7129 max 7129 min
Histogram: 1 0 0 0 0 0 0 0 0 0
Neighs:    77664 ave 77664 max 77664 min
Histogram: 1 0 0 0 0 0 0 0 0 0

Total # of neighbors = 77664
Ave neighs/atom = 26.6703
Neighbor list builds = 0
Dangerous builds = 0
	# write_dump all atom ${dumpfile}
        next i
jump SELF loop1
        displace_atoms upper move 0.0 ${ystep1} 0.0 units lattice
        displace_atoms upper move 0.0 0.00288675134594812 0.0 units lattice
        min_style ${style}
        min_style hftn
        minimize ${etol} ${ftol} ${maxiter} ${maxeval}
        minimize 1e-12 ${ftol} ${maxiter} ${maxeval}
        minimize 1e-12 1e-08 ${maxiter} ${maxeval}
        minimize 1e-12 1e-08 10000 ${maxeval}
        minimize 1e-12 1e-08 10000 20000
WARNING: Resetting reneighboring criteria during minimization (../min.cpp:168)
Memory usage per processor = 5.28939 Mbytes
Step Temp PotEng Lx Ly Lz 
      15            0   -17341.903    7.7766452    82.635204    4.4898482 
Loop time of 0.00347509 on 1 procs for 0 steps with 2912 atoms

Minimization stats:
  Stopping criterion = force tolerance
  Energy initial, next-to-last, final = 
        -17341.9028239     -17341.9028239     -17341.9028239
  Force two-norm initial, final = 8.50411e-11 8.50411e-11
  Force max component initial, final = 2.7994e-12 2.7994e-12
  Final line search alpha, max atom move = 0 0
  Iterations, force evaluations = 0 0

Pair  time (%) = 0.003391 (97.5801)
Neigh time (%) = 0 (0)
Comm  time (%) = 4.90032e-05 (1.41013)
Outpt time (%) = 0 (0)
Other time (%) = 3.50907e-05 (1.00978)

Nlocal:    2912 ave 2912 max 2912 min
Histogram: 1 0 0 0 0 0 0 0 0 0
Nghost:    7129 ave 7129 max 7129 min
Histogram: 1 0 0 0 0 0 0 0 0 0
Neighs:    77664 ave 77664 max 77664 min
Histogram: 1 0 0 0 0 0 0 0 0 0

Total # of neighbors = 77664
Ave neighs/atom = 26.6703
Neighbor list builds = 0
Dangerous builds = 0
	# write_dump all atom ${dumpfile}
        next i
jump SELF loop1
        displace_atoms upper move 0.0 ${ystep1} 0.0 units lattice
        displace_atoms upper move 0.0 0.00288675134594812 0.0 units lattice
        min_style ${style}
        min_style hftn
        minimize ${etol} ${ftol} ${maxiter} ${maxeval}
        minimize 1e-12 ${ftol} ${maxiter} ${maxeval}
        minimize 1e-12 1e-08 ${maxiter} ${maxeval}
        minimize 1e-12 1e-08 10000 ${maxeval}
        minimize 1e-12 1e-08 10000 20000
WARNING: Resetting reneighboring criteria during minimization (../min.cpp:168)
Memory usage per processor = 5.28939 Mbytes
Step Temp PotEng Lx Ly Lz 
      15            0   -17337.992    7.7766452    82.643141    4.4898482 
Loop time of 0.00267597 on 1 procs for 0 steps with 2912 atoms

Minimization stats:
  Stopping criterion = force tolerance
  Energy initial, next-to-last, final = 
        -17337.9920987     -17337.9920987     -17337.9920987
  Force two-norm initial, final = 8.50295e-11 8.50295e-11
  Force max component initial, final = 2.7994e-12 2.7994e-12
  Final line search alpha, max atom move = 0 0
  Iterations, force evaluations = 0 0

Pair  time (%) = 0.00257497 (96.2256)
Neigh time (%) = 0 (0)
Comm  time (%) = 5.29998e-05 (1.98059)
Outpt time (%) = 0 (0)
Other time (%) = 4.80014e-05 (1.7938)

Nlocal:    2912 ave 2912 max 2912 min
Histogram: 1 0 0 0 0 0 0 0 0 0
Nghost:    7129 ave 7129 max 7129 min
Histogram: 1 0 0 0 0 0 0 0 0 0
Neighs:    77664 ave 77664 max 77664 min
Histogram: 1 0 0 0 0 0 0 0 0 0

Total # of neighbors = 77664
Ave neighs/atom = 26.6703
Neighbor list builds = 0
Dangerous builds = 0
	# write_dump all atom ${dumpfile}
        next i
jump SELF loop1
        displace_atoms upper move 0.0 ${ystep1} 0.0 units lattice
        displace_atoms upper move 0.0 0.00288675134594812 0.0 units lattice
        min_style ${style}
        min_style hftn
        minimize ${etol} ${ftol} ${maxiter} ${maxeval}
        minimize 1e-12 ${ftol} ${maxiter} ${maxeval}
        minimize 1e-12 1e-08 ${maxiter} ${maxeval}
        minimize 1e-12 1e-08 10000 ${maxeval}
        minimize 1e-12 1e-08 10000 20000
WARNING: Resetting reneighboring criteria during minimization (../min.cpp:168)
Memory usage per processor = 5.28939 Mbytes
Step Temp PotEng Lx Ly Lz 
      15            0   -17333.988    7.7766452    82.651078    4.4898482 
Loop time of 0.00172005 on 1 procs for 0 steps with 2912 atoms

Minimization stats:
  Stopping criterion = force tolerance
  Energy initial, next-to-last, final = 
        -17333.9875333     -17333.9875333     -17333.9875333
  Force two-norm initial, final = 8.50189e-11 8.50189e-11
  Force max component initial, final = 2.7994e-12 2.7994e-12
  Final line search alpha, max atom move = 0 0
  Iterations, force evaluations = 0 0

Pair  time (%) = 0.00165711 (96.3403)
Neigh time (%) = 0 (0)
Comm  time (%) = 3.40461e-05 (1.97936)
Outpt time (%) = 0 (0)
Other time (%) = 2.8902e-05 (1.68029)

Nlocal:    2912 ave 2912 max 2912 min
Histogram: 1 0 0 0 0 0 0 0 0 0
Nghost:    7129 ave 7129 max 7129 min
Histogram: 1 0 0 0 0 0 0 0 0 0
Neighs:    77664 ave 77664 max 77664 min
Histogram: 1 0 0 0 0 0 0 0 0 0

Total # of neighbors = 77664
Ave neighs/atom = 26.6703
Neighbor list builds = 0
Dangerous builds = 0
	# write_dump all atom ${dumpfile}
        next i
jump SELF loop1
        displace_atoms upper move 0.0 ${ystep1} 0.0 units lattice
        displace_atoms upper move 0.0 0.00288675134594812 0.0 units lattice
        min_style ${style}
        min_style hftn
        minimize ${etol} ${ftol} ${maxiter} ${maxeval}
        minimize 1e-12 ${ftol} ${maxiter} ${maxeval}
        minimize 1e-12 1e-08 ${maxiter} ${maxeval}
        minimize 1e-12 1e-08 10000 ${maxeval}
        minimize 1e-12 1e-08 10000 20000
WARNING: Resetting reneighboring criteria during minimization (../min.cpp:168)
Memory usage per processor = 5.28939 Mbytes
Step Temp PotEng Lx Ly Lz 
      15            0    -17329.92    7.7766452    82.659015    4.4898482 
Loop time of 0.00390495 on 1 procs for 0 steps with 2912 atoms

Minimization stats:
  Stopping criterion = force tolerance
  Energy initial, next-to-last, final = 
        -17329.9201992     -17329.9201992     -17329.9201992
  Force two-norm initial, final = 8.50084e-11 8.50084e-11
  Force max component initial, final = 2.7994e-12 2.7994e-12
  Final line search alpha, max atom move = 0 0
  Iterations, force evaluations = 0 0

Pair  time (%) = 0.00384205 (98.3892)
Neigh time (%) = 0 (0)
Comm  time (%) = 3.28268e-05 (0.840645)
Outpt time (%) = 0 (0)
Other time (%) = 3.0075e-05 (0.770175)

Nlocal:    2912 ave 2912 max 2912 min
Histogram: 1 0 0 0 0 0 0 0 0 0
Nghost:    7129 ave 7129 max 7129 min
Histogram: 1 0 0 0 0 0 0 0 0 0
Neighs:    77664 ave 77664 max 77664 min
Histogram: 1 0 0 0 0 0 0 0 0 0

Total # of neighbors = 77664
Ave neighs/atom = 26.6703
Neighbor list builds = 0
Dangerous builds = 0
	# write_dump all atom ${dumpfile}
        next i
jump SELF loop1
        displace_atoms upper move 0.0 ${ystep1} 0.0 units lattice
        displace_atoms upper move 0.0 0.00288675134594812 0.0 units lattice
        min_style ${style}
        min_style hftn
        minimize ${etol} ${ftol} ${maxiter} ${maxeval}
        minimize 1e-12 ${ftol} ${maxiter} ${maxeval}
        minimize 1e-12 1e-08 ${maxiter} ${maxeval}
        minimize 1e-12 1e-08 10000 ${maxeval}
        minimize 1e-12 1e-08 10000 20000
WARNING: Resetting reneighboring criteria during minimization (../min.cpp:168)
Memory usage per processor = 5.28939 Mbytes
Step Temp PotEng Lx Ly Lz 
      15            0   -17325.822    7.7766452    82.666952    4.4898482 
Loop time of 0.00201011 on 1 procs for 0 steps with 2912 atoms

Minimization stats:
  Stopping criterion = force tolerance
  Energy initial, next-to-last, final = 
        -17325.8215806     -17325.8215806     -17325.8215806
  Force two-norm initial, final = 8.49972e-11 8.49972e-11
  Force max component initial, final = 2.7994e-12 2.7994e-12
  Final line search alpha, max atom move = 0 0
  Iterations, force evaluations = 0 0

Pair  time (%) = 0.00194697 (96.8589)
Neigh time (%) = 0 (0)
Comm  time (%) = 3.40998e-05 (1.69641)
Outpt time (%) = 0 (0)
Other time (%) = 2.90404e-05 (1.44471)

Nlocal:    2912 ave 2912 max 2912 min
Histogram: 1 0 0 0 0 0 0 0 0 0
Nghost:    7129 ave 7129 max 7129 min
Histogram: 1 0 0 0 0 0 0 0 0 0
Neighs:    77664 ave 77664 max 77664 min
Histogram: 1 0 0 0 0 0 0 0 0 0

Total # of neighbors = 77664
Ave neighs/atom = 26.6703
Neighbor list builds = 0
Dangerous builds = 0
	# write_dump all atom ${dumpfile}
        next i
jump SELF loop1
        displace_atoms upper move 0.0 ${ystep1} 0.0 units lattice
        displace_atoms upper move 0.0 0.00288675134594812 0.0 units lattice
        min_style ${style}
        min_style hftn
        minimize ${etol} ${ftol} ${maxiter} ${maxeval}
        minimize 1e-12 ${ftol} ${maxiter} ${maxeval}
        minimize 1e-12 1e-08 ${maxiter} ${maxeval}
        minimize 1e-12 1e-08 10000 ${maxeval}
        minimize 1e-12 1e-08 10000 20000
WARNING: Resetting reneighboring criteria during minimization (../min.cpp:168)
Memory usage per processor = 5.28939 Mbytes
Step Temp PotEng Lx Ly Lz 
      15            0   -17321.724    7.7766452    82.674889    4.4898482 
Loop time of 0.00347895 on 1 procs for 0 steps with 2912 atoms

Minimization stats:
  Stopping criterion = force tolerance
  Energy initial, next-to-last, final = 
        -17321.7235864     -17321.7235864     -17321.7235864
  Force two-norm initial, final = 8.49867e-11 8.49867e-11
  Force max component initial, final = 2.7994e-12 2.7994e-12
  Final line search alpha, max atom move = 0 0
  Iterations, force evaluations = 0 0

Pair  time (%) = 0.0033651 (96.7273)
Neigh time (%) = 0 (0)
Comm  time (%) = 5.99977e-05 (1.72459)
Outpt time (%) = 0 (0)
Other time (%) = 5.38578e-05 (1.5481)

Nlocal:    2912 ave 2912 max 2912 min
Histogram: 1 0 0 0 0 0 0 0 0 0
Nghost:    7129 ave 7129 max 7129 min
Histogram: 1 0 0 0 0 0 0 0 0 0
Neighs:    77664 ave 77664 max 77664 min
Histogram: 1 0 0 0 0 0 0 0 0 0

Total # of neighbors = 77664
Ave neighs/atom = 26.6703
Neighbor list builds = 0
Dangerous builds = 0
	# write_dump all atom ${dumpfile}
        next i
jump SELF loop1
        displace_atoms upper move 0.0 ${ystep1} 0.0 units lattice
        displace_atoms upper move 0.0 0.00288675134594812 0.0 units lattice
        min_style ${style}
        min_style hftn
        minimize ${etol} ${ftol} ${maxiter} ${maxeval}
        minimize 1e-12 ${ftol} ${maxiter} ${maxeval}
        minimize 1e-12 1e-08 ${maxiter} ${maxeval}
        minimize 1e-12 1e-08 10000 ${maxeval}
        minimize 1e-12 1e-08 10000 20000
WARNING: Resetting reneighboring criteria during minimization (../min.cpp:168)
Memory usage per processor = 5.28939 Mbytes
Step Temp PotEng Lx Ly Lz 
      15            0   -17317.658    7.7766452    82.682826    4.4898482 
Loop time of 0.00269411 on 1 procs for 0 steps with 2912 atoms

Minimization stats:
  Stopping criterion = force tolerance
  Energy initial, next-to-last, final = 
        -17317.6584331     -17317.6584331     -17317.6584331
  Force two-norm initial, final = 8.4977e-11 8.4977e-11
  Force max component initial, final = 2.7994e-12 2.7994e-12
  Final line search alpha, max atom move = 0 0
  Iterations, force evaluations = 0 0

Pair  time (%) = 0.00263097 (97.6564)
Neigh time (%) = 0 (0)
Comm  time (%) = 3.40712e-05 (1.26465)
Outpt time (%) = 0 (0)
Other time (%) = 2.9069e-05 (1.07898)

Nlocal:    2912 ave 2912 max 2912 min
Histogram: 1 0 0 0 0 0 0 0 0 0
Nghost:    7129 ave 7129 max 7129 min
Histogram: 1 0 0 0 0 0 0 0 0 0
Neighs:    77664 ave 77664 max 77664 min
Histogram: 1 0 0 0 0 0 0 0 0 0

Total # of neighbors = 77664
Ave neighs/atom = 26.6703
Neighbor list builds = 0
Dangerous builds = 0
	# write_dump all atom ${dumpfile}
        next i
jump SELF loop1
        displace_atoms upper move 0.0 ${ystep1} 0.0 units lattice
        displace_atoms upper move 0.0 0.00288675134594812 0.0 units lattice
        min_style ${style}
        min_style hftn
        minimize ${etol} ${ftol} ${maxiter} ${maxeval}
        minimize 1e-12 ${ftol} ${maxiter} ${maxeval}
        minimize 1e-12 1e-08 ${maxiter} ${maxeval}
        minimize 1e-12 1e-08 10000 ${maxeval}
        minimize 1e-12 1e-08 10000 20000
WARNING: Resetting reneighboring criteria during minimization (../min.cpp:168)
Memory usage per processor = 5.28939 Mbytes
Step Temp PotEng Lx Ly Lz 
      15            0   -17313.659    7.7766452    82.690763    4.4898482 
Loop time of 0.00295591 on 1 procs for 0 steps with 2912 atoms

Minimization stats:
  Stopping criterion = force tolerance
  Energy initial, next-to-last, final = 
        -17313.6587097     -17313.6587097     -17313.6587097
  Force two-norm initial, final = 8.49647e-11 8.49647e-11
  Force max component initial, final = 2.7994e-12 2.7994e-12
  Final line search alpha, max atom move = 0 0
  Iterations, force evaluations = 0 0

Pair  time (%) = 0.00292491 (98.9513)
Neigh time (%) = 0 (0)
Comm  time (%) = 1.88968e-05 (0.639288)
Outpt time (%) = 0 (0)
Other time (%) = 1.21032e-05 (0.409459)

Nlocal:    2912 ave 2912 max 2912 min
Histogram: 1 0 0 0 0 0 0 0 0 0
Nghost:    7129 ave 7129 max 7129 min
Histogram: 1 0 0 0 0 0 0 0 0 0
Neighs:    77664 ave 77664 max 77664 min
Histogram: 1 0 0 0 0 0 0 0 0 0

Total # of neighbors = 77664
Ave neighs/atom = 26.6703
Neighbor list builds = 0
Dangerous builds = 0
	# write_dump all atom ${dumpfile}
        next i
jump SELF loop1
        displace_atoms upper move 0.0 ${ystep1} 0.0 units lattice
        displace_atoms upper move 0.0 0.00288675134594812 0.0 units lattice
        min_style ${style}
        min_style hftn
        minimize ${etol} ${ftol} ${maxiter} ${maxeval}
        minimize 1e-12 ${ftol} ${maxiter} ${maxeval}
        minimize 1e-12 1e-08 ${maxiter} ${maxeval}
        minimize 1e-12 1e-08 10000 ${maxeval}
        minimize 1e-12 1e-08 10000 20000
WARNING: Resetting reneighboring criteria during minimization (../min.cpp:168)
Memory usage per processor = 5.28939 Mbytes
Step Temp PotEng Lx Ly Lz 
      15            0   -17309.757    7.7766452      82.6987    4.4898482 
Loop time of 0.00197488 on 1 procs for 0 steps with 2912 atoms

Minimization stats:
  Stopping criterion = force tolerance
  Energy initial, next-to-last, final = 
        -17309.7574814     -17309.7574814     -17309.7574814
  Force two-norm initial, final = 8.49547e-11 8.49547e-11
  Force max component initial, final = 2.7994e-12 2.7994e-12
  Final line search alpha, max atom move = 0 0
  Iterations, force evaluations = 0 0

Pair  time (%) = 0.00191103 (96.7666)
Neigh time (%) = 0 (0)
Comm  time (%) = 3.51671e-05 (1.78072)
Outpt time (%) = 0 (0)
Other time (%) = 2.86883e-05 (1.45266)

Nlocal:    2912 ave 2912 max 2912 min
Histogram: 1 0 0 0 0 0 0 0 0 0
Nghost:    7129 ave 7129 max 7129 min
Histogram: 1 0 0 0 0 0 0 0 0 0
Neighs:    77664 ave 77664 max 77664 min
Histogram: 1 0 0 0 0 0 0 0 0 0

Total # of neighbors = 77664
Ave neighs/atom = 26.6703
Neighbor list builds = 0
Dangerous builds = 0
	# write_dump all atom ${dumpfile}
        next i
jump SELF loop1
        displace_atoms upper move 0.0 ${ystep1} 0.0 units lattice
        displace_atoms upper move 0.0 0.00288675134594812 0.0 units lattice
        min_style ${style}
        min_style hftn
        minimize ${etol} ${ftol} ${maxiter} ${maxeval}
        minimize 1e-12 ${ftol} ${maxiter} ${maxeval}
        minimize 1e-12 1e-08 ${maxiter} ${maxeval}
        minimize 1e-12 1e-08 10000 ${maxeval}
        minimize 1e-12 1e-08 10000 20000
WARNING: Resetting reneighboring criteria during minimization (../min.cpp:168)
Memory usage per processor = 5.28939 Mbytes
Step Temp PotEng Lx Ly Lz 
      15            0   -17305.988    7.7766452    82.706637    4.4898482 
Loop time of 0.00277194 on 1 procs for 0 steps with 2912 atoms

Minimization stats:
  Stopping criterion = force tolerance
  Energy initial, next-to-last, final = 
        -17305.9879184     -17305.9879184     -17305.9879184
  Force two-norm initial, final = 8.49454e-11 8.49454e-11
  Force max component initial, final = 2.7994e-12 2.7994e-12
  Final line search alpha, max atom move = 0 0
  Iterations, force evaluations = 0 0

Pair  time (%) = 0.00266008 (95.9647)
Neigh time (%) = 0 (0)
Comm  time (%) = 5.79696e-05 (2.0913)
Outpt time (%) = 0 (0)
Other time (%) = 5.38859e-05 (1.94398)

Nlocal:    2912 ave 2912 max 2912 min
Histogram: 1 0 0 0 0 0 0 0 0 0
Nghost:    7129 ave 7129 max 7129 min
Histogram: 1 0 0 0 0 0 0 0 0 0
Neighs:    77664 ave 77664 max 77664 min
Histogram: 1 0 0 0 0 0 0 0 0 0

Total # of neighbors = 77664
Ave neighs/atom = 26.6703
Neighbor list builds = 0
Dangerous builds = 0
	# write_dump all atom ${dumpfile}
        next i
jump SELF loop1
        displace_atoms upper move 0.0 ${ystep1} 0.0 units lattice
        displace_atoms upper move 0.0 0.00288675134594812 0.0 units lattice
        min_style ${style}
        min_style hftn
        minimize ${etol} ${ftol} ${maxiter} ${maxeval}
        minimize 1e-12 ${ftol} ${maxiter} ${maxeval}
        minimize 1e-12 1e-08 ${maxiter} ${maxeval}
        minimize 1e-12 1e-08 10000 ${maxeval}
        minimize 1e-12 1e-08 10000 20000
WARNING: Resetting reneighboring criteria during minimization (../min.cpp:168)
Memory usage per processor = 5.28939 Mbytes
Step Temp PotEng Lx Ly Lz 
      15            0   -17302.384    7.7766452    82.714574    4.4898482 
Loop time of 0.00195991 on 1 procs for 0 steps with 2912 atoms

Minimization stats:
  Stopping criterion = force tolerance
  Energy initial, next-to-last, final = 
        -17302.3835089     -17302.3835089     -17302.3835089
  Force two-norm initial, final = 8.49341e-11 8.49341e-11
  Force max component initial, final = 2.7994e-12 2.7994e-12
  Final line search alpha, max atom move = 0 0
  Iterations, force evaluations = 0 0

Pair  time (%) = 0.00142611 (72.7636)
Neigh time (%) = 0 (0)
Comm  time (%) = 0.000465786 (23.7656)
Outpt time (%) = 0 (0)
Other time (%) = 6.8023e-05 (3.47071)

Nlocal:    2912 ave 2912 max 2912 min
Histogram: 1 0 0 0 0 0 0 0 0 0
Nghost:    7129 ave 7129 max 7129 min
Histogram: 1 0 0 0 0 0 0 0 0 0
Neighs:    77664 ave 77664 max 77664 min
Histogram: 1 0 0 0 0 0 0 0 0 0

Total # of neighbors = 77664
Ave neighs/atom = 26.6703
Neighbor list builds = 0
Dangerous builds = 0
	# write_dump all atom ${dumpfile}
        next i
jump SELF loop1
        displace_atoms upper move 0.0 ${ystep1} 0.0 units lattice
        displace_atoms upper move 0.0 0.00288675134594812 0.0 units lattice
        min_style ${style}
        min_style hftn
        minimize ${etol} ${ftol} ${maxiter} ${maxeval}
        minimize 1e-12 ${ftol} ${maxiter} ${maxeval}
        minimize 1e-12 1e-08 ${maxiter} ${maxeval}
        minimize 1e-12 1e-08 10000 ${maxeval}
        minimize 1e-12 1e-08 10000 20000
WARNING: Resetting reneighboring criteria during minimization (../min.cpp:168)
Memory usage per processor = 5.28939 Mbytes
Step Temp PotEng Lx Ly Lz 
      15            0   -17298.979    7.7766452    82.722511    4.4898482 
Loop time of 0.00221704 on 1 procs for 0 steps with 2912 atoms

Minimization stats:
  Stopping criterion = force tolerance
  Energy initial, next-to-last, final = 
        -17298.9786676     -17298.9786676     -17298.9786676
  Force two-norm initial, final = 8.49237e-11 8.49237e-11
  Force max component initial, final = 2.7994e-12 2.7994e-12
  Final line search alpha, max atom move = 0 0
  Iterations, force evaluations = 0 0

Pair  time (%) = 0.00205603 (92.738)
Neigh time (%) = 0 (0)
Comm  time (%) = 4.79815e-05 (2.16422)
Outpt time (%) = 0 (0)
Other time (%) = 0.00011302 (5.09778)

Nlocal:    2912 ave 2912 max 2912 min
Histogram: 1 0 0 0 0 0 0 0 0 0
Nghost:    7129 ave 7129 max 7129 min
Histogram: 1 0 0 0 0 0 0 0 0 0
Neighs:    77664 ave 77664 max 77664 min
Histogram: 1 0 0 0 0 0 0 0 0 0

Total # of neighbors = 77664
Ave neighs/atom = 26.6703
Neighbor list builds = 0
Dangerous builds = 0
	# write_dump all atom ${dumpfile}
        next i
jump SELF loop1
        displace_atoms upper move 0.0 ${ystep1} 0.0 units lattice
        displace_atoms upper move 0.0 0.00288675134594812 0.0 units lattice
        min_style ${style}
        min_style hftn
        minimize ${etol} ${ftol} ${maxiter} ${maxeval}
        minimize 1e-12 ${ftol} ${maxiter} ${maxeval}
        minimize 1e-12 1e-08 ${maxiter} ${maxeval}
        minimize 1e-12 1e-08 10000 ${maxeval}
        minimize 1e-12 1e-08 10000 20000
WARNING: Resetting reneighboring criteria during minimization (../min.cpp:168)
Memory usage per processor = 5.28939 Mbytes
Step Temp PotEng Lx Ly Lz 
      15            0   -17295.807    7.7766452    82.730448    4.4898482 
Loop time of 0.00223211 on 1 procs for 0 steps with 2912 atoms

Minimization stats:
  Stopping criterion = force tolerance
  Energy initial, next-to-last, final = 
        -17295.8071085     -17295.8071085     -17295.8071085
  Force two-norm initial, final = 8.49141e-11 8.49141e-11
  Force max component initial, final = 2.7994e-12 2.7994e-12
  Final line search alpha, max atom move = 0 0
  Iterations, force evaluations = 0 0

Pair  time (%) = 0.00216296 (96.9022)
Neigh time (%) = 0 (0)
Comm  time (%) = 3.59319e-05 (1.60978)
Outpt time (%) = 0 (0)
Other time (%) = 3.3215e-05 (1.48806)

Nlocal:    2912 ave 2912 max 2912 min
Histogram: 1 0 0 0 0 0 0 0 0 0
Nghost:    7129 ave 7129 max 7129 min
Histogram: 1 0 0 0 0 0 0 0 0 0
Neighs:    77664 ave 77664 max 77664 min
Histogram: 1 0 0 0 0 0 0 0 0 0

Total # of neighbors = 77664
Ave neighs/atom = 26.6703
Neighbor list builds = 0
Dangerous builds = 0
	# write_dump all atom ${dumpfile}
        next i
jump SELF loop1
        displace_atoms upper move 0.0 ${ystep1} 0.0 units lattice
        displace_atoms upper move 0.0 0.00288675134594812 0.0 units lattice
        min_style ${style}
        min_style hftn
        minimize ${etol} ${ftol} ${maxiter} ${maxeval}
        minimize 1e-12 ${ftol} ${maxiter} ${maxeval}
        minimize 1e-12 1e-08 ${maxiter} ${maxeval}
        minimize 1e-12 1e-08 10000 ${maxeval}
        minimize 1e-12 1e-08 10000 20000
WARNING: Resetting reneighboring criteria during minimization (../min.cpp:168)
Memory usage per processor = 5.28939 Mbytes
Step Temp PotEng Lx Ly Lz 
      15            0   -17292.904    7.7766452    82.738385    4.4898482 
Loop time of 0.00201492 on 1 procs for 0 steps with 2912 atoms

Minimization stats:
  Stopping criterion = force tolerance
  Energy initial, next-to-last, final = 
        -17292.9038617     -17292.9038617     -17292.9038617
  Force two-norm initial, final = 8.4903e-11 8.4903e-11
  Force max component initial, final = 2.7994e-12 2.7994e-12
  Final line search alpha, max atom move = 0 0
  Iterations, force evaluations = 0 0

Pair  time (%) = 0.00198106 (98.3198)
Neigh time (%) = 0 (0)
Comm  time (%) = 1.59433e-05 (0.791264)
Outpt time (%) = 0 (0)
Other time (%) = 1.79121e-05 (0.888976)

Nlocal:    2912 ave 2912 max 2912 min
Histogram: 1 0 0 0 0 0 0 0 0 0
Nghost:    7129 ave 7129 max 7129 min
Histogram: 1 0 0 0 0 0 0 0 0 0
Neighs:    77664 ave 77664 max 77664 min
Histogram: 1 0 0 0 0 0 0 0 0 0

Total # of neighbors = 77664
Ave neighs/atom = 26.6703
Neighbor list builds = 0
Dangerous builds = 0
	# write_dump all atom ${dumpfile}
        next i
jump SELF loop1
        displace_atoms upper move 0.0 ${ystep1} 0.0 units lattice
        displace_atoms upper move 0.0 0.00288675134594812 0.0 units lattice
        min_style ${style}
        min_style hftn
        minimize ${etol} ${ftol} ${maxiter} ${maxeval}
        minimize 1e-12 ${ftol} ${maxiter} ${maxeval}
        minimize 1e-12 1e-08 ${maxiter} ${maxeval}
        minimize 1e-12 1e-08 10000 ${maxeval}
        minimize 1e-12 1e-08 10000 20000
WARNING: Resetting reneighboring criteria during minimization (../min.cpp:168)
Memory usage per processor = 5.28939 Mbytes
Step Temp PotEng Lx Ly Lz 
      15            0   -17290.304    7.7766452    82.746322    4.4898482 
Loop time of 0.0020971 on 1 procs for 0 steps with 2912 atoms

Minimization stats:
  Stopping criterion = force tolerance
  Energy initial, next-to-last, final = 
        -17290.3036756     -17290.3036756     -17290.3036756
  Force two-norm initial, final = 8.48932e-11 8.48932e-11
  Force max component initial, final = 2.7994e-12 2.7994e-12
  Final line search alpha, max atom move = 0 0
  Iterations, force evaluations = 0 0

Pair  time (%) = 0.00203205 (96.8982)
Neigh time (%) = 0 (0)
Comm  time (%) = 3.39012e-05 (1.61658)
Outpt time (%) = 0 (0)
Other time (%) = 3.11463e-05 (1.48521)

Nlocal:    2912 ave 2912 max 2912 min
Histogram: 1 0 0 0 0 0 0 0 0 0
Nghost:    7129 ave 7129 max 7129 min
Histogram: 1 0 0 0 0 0 0 0 0 0
Neighs:    77664 ave 77664 max 77664 min
Histogram: 1 0 0 0 0 0 0 0 0 0

Total # of neighbors = 77664
Ave neighs/atom = 26.6703
Neighbor list builds = 0
Dangerous builds = 0
	# write_dump all atom ${dumpfile}
        next i
jump SELF loop1
        displace_atoms upper move 0.0 ${ystep1} 0.0 units lattice
        displace_atoms upper move 0.0 0.00288675134594812 0.0 units lattice
        min_style ${style}
        min_style hftn
        minimize ${etol} ${ftol} ${maxiter} ${maxeval}
        minimize 1e-12 ${ftol} ${maxiter} ${maxeval}
        minimize 1e-12 1e-08 ${maxiter} ${maxeval}
        minimize 1e-12 1e-08 10000 ${maxeval}
        minimize 1e-12 1e-08 10000 20000
WARNING: Resetting reneighboring criteria during minimization (../min.cpp:168)
Memory usage per processor = 5.28939 Mbytes
Step Temp PotEng Lx Ly Lz 
      15            0   -17288.041    7.7766452    82.754259    4.4898482 
Loop time of 0.0026909 on 1 procs for 0 steps with 2912 atoms

Minimization stats:
  Stopping criterion = force tolerance
  Energy initial, next-to-last, final = 
        -17288.0414294     -17288.0414294     -17288.0414294
  Force two-norm initial, final = 8.48885e-11 8.48885e-11
  Force max component initial, final = 2.7994e-12 2.7994e-12
  Final line search alpha, max atom move = 0 0
  Iterations, force evaluations = 0 0

Pair  time (%) = 0.00262705 (97.627)
Neigh time (%) = 0 (0)
Comm  time (%) = 3.27996e-05 (1.21891)
Outpt time (%) = 0 (0)
Other time (%) = 3.1056e-05 (1.15411)

Nlocal:    2912 ave 2912 max 2912 min
Histogram: 1 0 0 0 0 0 0 0 0 0
Nghost:    7129 ave 7129 max 7129 min
Histogram: 1 0 0 0 0 0 0 0 0 0
Neighs:    77664 ave 77664 max 77664 min
Histogram: 1 0 0 0 0 0 0 0 0 0

Total # of neighbors = 77664
Ave neighs/atom = 26.6703
Neighbor list builds = 0
Dangerous builds = 0
	# write_dump all atom ${dumpfile}
        next i
jump SELF loop1
        displace_atoms upper move 0.0 ${ystep1} 0.0 units lattice
        displace_atoms upper move 0.0 0.00288675134594812 0.0 units lattice
        min_style ${style}
        min_style hftn
        minimize ${etol} ${ftol} ${maxiter} ${maxeval}
        minimize 1e-12 ${ftol} ${maxiter} ${maxeval}
        minimize 1e-12 1e-08 ${maxiter} ${maxeval}
        minimize 1e-12 1e-08 10000 ${maxeval}
        minimize 1e-12 1e-08 10000 20000
WARNING: Resetting reneighboring criteria during minimization (../min.cpp:168)
Memory usage per processor = 5.28939 Mbytes
Step Temp PotEng Lx Ly Lz 
      15            0   -17286.131    7.7766452    82.762196    4.4898482 
Loop time of 0.0021269 on 1 procs for 0 steps with 2912 atoms

Minimization stats:
  Stopping criterion = force tolerance
  Energy initial, next-to-last, final = 
         -17286.130954      -17286.130954      -17286.130954
  Force two-norm initial, final = 8.48933e-11 8.48933e-11
  Force max component initial, final = 2.7994e-12 2.7994e-12
  Final line search alpha, max atom move = 0 0
  Iterations, force evaluations = 0 0

Pair  time (%) = 0.00206009 (96.8588)
Neigh time (%) = 0 (0)
Comm  time (%) = 3.58024e-05 (1.68331)
Outpt time (%) = 0 (0)
Other time (%) = 3.10068e-05 (1.45784)

Nlocal:    2912 ave 2912 max 2912 min
Histogram: 1 0 0 0 0 0 0 0 0 0
Nghost:    7129 ave 7129 max 7129 min
Histogram: 1 0 0 0 0 0 0 0 0 0
Neighs:    77664 ave 77664 max 77664 min
Histogram: 1 0 0 0 0 0 0 0 0 0

Total # of neighbors = 77664
Ave neighs/atom = 26.6703
Neighbor list builds = 0
Dangerous builds = 0
	# write_dump all atom ${dumpfile}
        next i
jump SELF loop1
        displace_atoms upper move 0.0 ${ystep1} 0.0 units lattice
        displace_atoms upper move 0.0 0.00288675134594812 0.0 units lattice
        min_style ${style}
        min_style hftn
        minimize ${etol} ${ftol} ${maxiter} ${maxeval}
        minimize 1e-12 ${ftol} ${maxiter} ${maxeval}
        minimize 1e-12 1e-08 ${maxiter} ${maxeval}
        minimize 1e-12 1e-08 10000 ${maxeval}
        minimize 1e-12 1e-08 10000 20000
WARNING: Resetting reneighboring criteria during minimization (../min.cpp:168)
Memory usage per processor = 5.28939 Mbytes
Step Temp PotEng Lx Ly Lz 
      15            0   -17284.547    7.7766452    82.770133    4.4898482 
Loop time of 0.00206008 on 1 procs for 0 steps with 2912 atoms

Minimization stats:
  Stopping criterion = force tolerance
  Energy initial, next-to-last, final = 
         -17284.547035      -17284.547035      -17284.547035
  Force two-norm initial, final = 8.48996e-11 8.48996e-11
  Force max component initial, final = 2.7994e-12 2.7994e-12
  Final line search alpha, max atom move = 0 0
  Iterations, force evaluations = 0 0

Pair  time (%) = 0.00199103 (96.6483)
Neigh time (%) = 0 (0)
Comm  time (%) = 3.8065e-05 (1.84774)
Outpt time (%) = 0 (0)
Other time (%) = 3.09825e-05 (1.50395)

Nlocal:    2912 ave 2912 max 2912 min
Histogram: 1 0 0 0 0 0 0 0 0 0
Nghost:    7129 ave 7129 max 7129 min
Histogram: 1 0 0 0 0 0 0 0 0 0
Neighs:    77664 ave 77664 max 77664 min
Histogram: 1 0 0 0 0 0 0 0 0 0

Total # of neighbors = 77664
Ave neighs/atom = 26.6703
Neighbor list builds = 0
Dangerous builds = 0
	# write_dump all atom ${dumpfile}
        next i
jump SELF loop1
        displace_atoms upper move 0.0 ${ystep1} 0.0 units lattice
        displace_atoms upper move 0.0 0.00288675134594812 0.0 units lattice
        min_style ${style}
        min_style hftn
        minimize ${etol} ${ftol} ${maxiter} ${maxeval}
        minimize 1e-12 ${ftol} ${maxiter} ${maxeval}
        minimize 1e-12 1e-08 ${maxiter} ${maxeval}
        minimize 1e-12 1e-08 10000 ${maxeval}
        minimize 1e-12 1e-08 10000 20000
WARNING: Resetting reneighboring criteria during minimization (../min.cpp:168)
Memory usage per processor = 5.28939 Mbytes
Step Temp PotEng Lx Ly Lz 
      15            0    -17283.26    7.7766452     82.77807    4.4898482 
Loop time of 0.00187405 on 1 procs for 0 steps with 2912 atoms

Minimization stats:
  Stopping criterion = force tolerance
  Energy initial, next-to-last, final = 
         -17283.259949      -17283.259949      -17283.259949
  Force two-norm initial, final = 8.49069e-11 8.49069e-11
  Force max component initial, final = 2.7994e-12 2.7994e-12
  Final line search alpha, max atom move = 0 0
  Iterations, force evaluations = 0 0

Pair  time (%) = 0.00179909 (96)
Neigh time (%) = 0 (0)
Comm  time (%) = 3.99662e-05 (2.13261)
Outpt time (%) = 0 (0)
Other time (%) = 3.49955e-05 (1.86737)

Nlocal:    2912 ave 2912 max 2912 min
Histogram: 1 0 0 0 0 0 0 0 0 0
Nghost:    7129 ave 7129 max 7129 min
Histogram: 1 0 0 0 0 0 0 0 0 0
Neighs:    77664 ave 77664 max 77664 min
Histogram: 1 0 0 0 0 0 0 0 0 0

Total # of neighbors = 77664
Ave neighs/atom = 26.6703
Neighbor list builds = 0
Dangerous builds = 0
	# write_dump all atom ${dumpfile}
        next i
jump SELF loop1
        displace_atoms upper move 0.0 ${ystep1} 0.0 units lattice
        displace_atoms upper move 0.0 0.00288675134594812 0.0 units lattice
        min_style ${style}
        min_style hftn
        minimize ${etol} ${ftol} ${maxiter} ${maxeval}
        minimize 1e-12 ${ftol} ${maxiter} ${maxeval}
        minimize 1e-12 1e-08 ${maxiter} ${maxeval}
        minimize 1e-12 1e-08 10000 ${maxeval}
        minimize 1e-12 1e-08 10000 20000
WARNING: Resetting reneighboring criteria during minimization (../min.cpp:168)
Memory usage per processor = 5.28939 Mbytes
Step Temp PotEng Lx Ly Lz 
      15            0    -17282.24    7.7766452    82.786007    4.4898482 
Loop time of 0.00363498 on 1 procs for 0 steps with 2912 atoms

Minimization stats:
  Stopping criterion = force tolerance
  Energy initial, next-to-last, final = 
        -17282.2396407     -17282.2396407     -17282.2396407
  Force two-norm initial, final = 8.49122e-11 8.49122e-11
  Force max component initial, final = 2.7994e-12 2.7994e-12
  Final line search alpha, max atom move = 0 0
  Iterations, force evaluations = 0 0

Pair  time (%) = 0.00356602 (98.103)
Neigh time (%) = 0 (0)
Comm  time (%) = 3.60101e-05 (0.990654)
Outpt time (%) = 0 (0)
Other time (%) = 3.29448e-05 (0.906328)

Nlocal:    2912 ave 2912 max 2912 min
Histogram: 1 0 0 0 0 0 0 0 0 0
Nghost:    7129 ave 7129 max 7129 min
Histogram: 1 0 0 0 0 0 0 0 0 0
Neighs:    77664 ave 77664 max 77664 min
Histogram: 1 0 0 0 0 0 0 0 0 0

Total # of neighbors = 77664
Ave neighs/atom = 26.6703
Neighbor list builds = 0
Dangerous builds = 0
	# write_dump all atom ${dumpfile}
        next i
jump SELF loop1
        displace_atoms upper move 0.0 ${ystep1} 0.0 units lattice
        displace_atoms upper move 0.0 0.00288675134594812 0.0 units lattice
        min_style ${style}
        min_style hftn
        minimize ${etol} ${ftol} ${maxiter} ${maxeval}
        minimize 1e-12 ${ftol} ${maxiter} ${maxeval}
        minimize 1e-12 1e-08 ${maxiter} ${maxeval}
        minimize 1e-12 1e-08 10000 ${maxeval}
        minimize 1e-12 1e-08 10000 20000
WARNING: Resetting reneighboring criteria during minimization (../min.cpp:168)
Memory usage per processor = 5.28939 Mbytes
Step Temp PotEng Lx Ly Lz 
      15            0   -17281.456    7.7766452    82.793944    4.4898482 
Loop time of 0.0029419 on 1 procs for 0 steps with 2912 atoms

Minimization stats:
  Stopping criterion = force tolerance
  Energy initial, next-to-last, final = 
        -17281.4560936     -17281.4560936     -17281.4560936
  Force two-norm initial, final = 8.49193e-11 8.49193e-11
  Force max component initial, final = 2.7994e-12 2.7994e-12
  Final line search alpha, max atom move = 0 0
  Iterations, force evaluations = 0 0

Pair  time (%) = 0.0029099 (98.9123)
Neigh time (%) = 0 (0)
Comm  time (%) = 1.89074e-05 (0.642692)
Outpt time (%) = 0 (0)
Other time (%) = 1.30926e-05 (0.44504)

Nlocal:    2912 ave 2912 max 2912 min
Histogram: 1 0 0 0 0 0 0 0 0 0
Nghost:    7129 ave 7129 max 7129 min
Histogram: 1 0 0 0 0 0 0 0 0 0
Neighs:    77664 ave 77664 max 77664 min
Histogram: 1 0 0 0 0 0 0 0 0 0

Total # of neighbors = 77664
Ave neighs/atom = 26.6703
Neighbor list builds = 0
Dangerous builds = 0
	# write_dump all atom ${dumpfile}
        next i
jump SELF loop1
        displace_atoms upper move 0.0 ${ystep1} 0.0 units lattice
        displace_atoms upper move 0.0 0.00288675134594812 0.0 units lattice
        min_style ${style}
        min_style hftn
        minimize ${etol} ${ftol} ${maxiter} ${maxeval}
        minimize 1e-12 ${ftol} ${maxiter} ${maxeval}
        minimize 1e-12 1e-08 ${maxiter} ${maxeval}
        minimize 1e-12 1e-08 10000 ${maxeval}
        minimize 1e-12 1e-08 10000 20000
WARNING: Resetting reneighboring criteria during minimization (../min.cpp:168)
Memory usage per processor = 5.29063 Mbytes
Step Temp PotEng Lx Ly Lz 
      15            0   -17280.878    7.7766452    82.801881    4.4898482 
Loop time of 0.00207294 on 1 procs for 0 steps with 2912 atoms

Minimization stats:
  Stopping criterion = force tolerance
  Energy initial, next-to-last, final = 
        -17280.8783184     -17280.8783184     -17280.8783184
  Force two-norm initial, final = 8.49268e-11 8.49268e-11
  Force max component initial, final = 2.7994e-12 2.7994e-12
  Final line search alpha, max atom move = 0 0
  Iterations, force evaluations = 0 0

Pair  time (%) = 0.00200903 (96.9173)
Neigh time (%) = 0 (0)
Comm  time (%) = 3.5232e-05 (1.69962)
Outpt time (%) = 0 (0)
Other time (%) = 2.86696e-05 (1.38304)

Nlocal:    2912 ave 2912 max 2912 min
Histogram: 1 0 0 0 0 0 0 0 0 0
Nghost:    7129 ave 7129 max 7129 min
Histogram: 1 0 0 0 0 0 0 0 0 0
Neighs:    77664 ave 77664 max 77664 min
Histogram: 1 0 0 0 0 0 0 0 0 0

Total # of neighbors = 77664
Ave neighs/atom = 26.6703
Neighbor list builds = 0
Dangerous builds = 0
	# write_dump all atom ${dumpfile}
        next i
jump SELF loop1
        displace_atoms upper move 0.0 ${ystep1} 0.0 units lattice
        displace_atoms upper move 0.0 0.00288675134594812 0.0 units lattice
        min_style ${style}
        min_style hftn
        minimize ${etol} ${ftol} ${maxiter} ${maxeval}
        minimize 1e-12 ${ftol} ${maxiter} ${maxeval}
        minimize 1e-12 1e-08 ${maxiter} ${maxeval}
        minimize 1e-12 1e-08 10000 ${maxeval}
        minimize 1e-12 1e-08 10000 20000
WARNING: Resetting reneighboring criteria during minimization (../min.cpp:168)
Memory usage per processor = 5.29063 Mbytes
Step Temp PotEng Lx Ly Lz 
      15            0   -17280.476    7.7766452    82.809818    4.4898482 
Loop time of 0.00199089 on 1 procs for 0 steps with 2912 atoms

Minimization stats:
  Stopping criterion = force tolerance
  Energy initial, next-to-last, final = 
        -17280.4755936     -17280.4755936     -17280.4755936
  Force two-norm initial, final = 8.49326e-11 8.49326e-11
  Force max component initial, final = 2.7994e-12 2.7994e-12
  Final line search alpha, max atom move = 0 0
  Iterations, force evaluations = 0 0

Pair  time (%) = 0.00192603 (96.7424)
Neigh time (%) = 0 (0)
Comm  time (%) = 3.51951e-05 (1.76781)
Outpt time (%) = 0 (0)
Other time (%) = 2.96603e-05 (1.4898)

Nlocal:    2912 ave 2912 max 2912 min
Histogram: 1 0 0 0 0 0 0 0 0 0
Nghost:    7129 ave 7129 max 7129 min
Histogram: 1 0 0 0 0 0 0 0 0 0
Neighs:    77664 ave 77664 max 77664 min
Histogram: 1 0 0 0 0 0 0 0 0 0

Total # of neighbors = 77664
Ave neighs/atom = 26.6703
Neighbor list builds = 0
Dangerous builds = 0
	# write_dump all atom ${dumpfile}
        next i
jump SELF loop1
        displace_atoms upper move 0.0 ${ystep1} 0.0 units lattice
        displace_atoms upper move 0.0 0.00288675134594812 0.0 units lattice
        min_style ${style}
        min_style hftn
        minimize ${etol} ${ftol} ${maxiter} ${maxeval}
        minimize 1e-12 ${ftol} ${maxiter} ${maxeval}
        minimize 1e-12 1e-08 ${maxiter} ${maxeval}
        minimize 1e-12 1e-08 10000 ${maxeval}
        minimize 1e-12 1e-08 10000 20000
WARNING: Resetting reneighboring criteria during minimization (../min.cpp:168)
Memory usage per processor = 5.29063 Mbytes
Step Temp PotEng Lx Ly Lz 
      15            0   -17280.217    7.7766452    82.817755    4.4898482 
Loop time of 0.00214606 on 1 procs for 0 steps with 2912 atoms

Minimization stats:
  Stopping criterion = force tolerance
  Energy initial, next-to-last, final = 
        -17280.2165856     -17280.2165856     -17280.2165856
  Force two-norm initial, final = 8.49397e-11 8.49397e-11
  Force max component initial, final = 2.7994e-12 2.7994e-12
  Final line search alpha, max atom move = 0 0
  Iterations, force evaluations = 0 0

Pair  time (%) = 0.00209992 (97.85)
Neigh time (%) = 0 (0)
Comm  time (%) = 2.89195e-05 (1.34757)
Outpt time (%) = 0 (0)
Other time (%) = 1.72206e-05 (0.802431)

Nlocal:    2912 ave 2912 max 2912 min
Histogram: 1 0 0 0 0 0 0 0 0 0
Nghost:    7129 ave 7129 max 7129 min
Histogram: 1 0 0 0 0 0 0 0 0 0
Neighs:    77664 ave 77664 max 77664 min
Histogram: 1 0 0 0 0 0 0 0 0 0

Total # of neighbors = 77664
Ave neighs/atom = 26.6703
Neighbor list builds = 0
Dangerous builds = 0
	# write_dump all atom ${dumpfile}
        next i
jump SELF loop1
        displace_atoms upper move 0.0 ${ystep1} 0.0 units lattice
        displace_atoms upper move 0.0 0.00288675134594812 0.0 units lattice
        min_style ${style}
        min_style hftn
        minimize ${etol} ${ftol} ${maxiter} ${maxeval}
        minimize 1e-12 ${ftol} ${maxiter} ${maxeval}
        minimize 1e-12 1e-08 ${maxiter} ${maxeval}
        minimize 1e-12 1e-08 10000 ${maxeval}
        minimize 1e-12 1e-08 10000 20000
WARNING: Resetting reneighboring criteria during minimization (../min.cpp:168)
Memory usage per processor = 5.29063 Mbytes
Step Temp PotEng Lx Ly Lz 
      15            0    -17280.07    7.7766452    82.825692    4.4898482 
Loop time of 0.00219197 on 1 procs for 0 steps with 2912 atoms

Minimization stats:
  Stopping criterion = force tolerance
  Energy initial, next-to-last, final = 
        -17280.0699931     -17280.0699931     -17280.0699931
  Force two-norm initial, final = 8.4948e-11 8.4948e-11
  Force max component initial, final = 2.7994e-12 2.7994e-12
  Final line search alpha, max atom move = 0 0
  Iterations, force evaluations = 0 0

Pair  time (%) = 0.00209211 (95.4445)
Neigh time (%) = 0 (0)
Comm  time (%) = 5.29413e-05 (2.41524)
Outpt time (%) = 0 (0)
Other time (%) = 4.69142e-05 (2.14028)

Nlocal:    2912 ave 2912 max 2912 min
Histogram: 1 0 0 0 0 0 0 0 0 0
Nghost:    7129 ave 7129 max 7129 min
Histogram: 1 0 0 0 0 0 0 0 0 0
Neighs:    77664 ave 77664 max 77664 min
Histogram: 1 0 0 0 0 0 0 0 0 0

Total # of neighbors = 77664
Ave neighs/atom = 26.6703
Neighbor list builds = 0
Dangerous builds = 0
	# write_dump all atom ${dumpfile}
        next i
jump SELF loop1
        displace_atoms upper move 0.0 ${ystep1} 0.0 units lattice
        displace_atoms upper move 0.0 0.00288675134594812 0.0 units lattice
        min_style ${style}
        min_style hftn
        minimize ${etol} ${ftol} ${maxiter} ${maxeval}
        minimize 1e-12 ${ftol} ${maxiter} ${maxeval}
        minimize 1e-12 1e-08 ${maxiter} ${maxeval}
        minimize 1e-12 1e-08 10000 ${maxeval}
        minimize 1e-12 1e-08 10000 20000
WARNING: Resetting reneighboring criteria during minimization (../min.cpp:168)
Memory usage per processor = 5.29063 Mbytes
Step Temp PotEng Lx Ly Lz 
      15            0   -17280.004    7.7766452    82.833629    4.4898482 
Loop time of 0.00280605 on 1 procs for 0 steps with 2912 atoms

Minimization stats:
  Stopping criterion = force tolerance
  Energy initial, next-to-last, final = 
        -17280.0039033     -17280.0039033     -17280.0039033
  Force two-norm initial, final = 8.49544e-11 8.49544e-11
  Force max component initial, final = 2.7994e-12 2.7994e-12
  Final line search alpha, max atom move = 0 0
  Iterations, force evaluations = 0 0

Pair  time (%) = 0.0027441 (97.7923)
Neigh time (%) = 0 (0)
Comm  time (%) = 3.2885e-05 (1.17193)
Outpt time (%) = 0 (0)
Other time (%) = 2.90631e-05 (1.03573)

Nlocal:    2912 ave 2912 max 2912 min
Histogram: 1 0 0 0 0 0 0 0 0 0
Nghost:    7129 ave 7129 max 7129 min
Histogram: 1 0 0 0 0 0 0 0 0 0
Neighs:    77664 ave 77664 max 77664 min
Histogram: 1 0 0 0 0 0 0 0 0 0

Total # of neighbors = 77664
Ave neighs/atom = 26.6703
Neighbor list builds = 0
Dangerous builds = 0
	# write_dump all atom ${dumpfile}
        next i
jump SELF loop1
        displace_atoms upper move 0.0 ${ystep1} 0.0 units lattice
        displace_atoms upper move 0.0 0.00288675134594812 0.0 units lattice
        min_style ${style}
        min_style hftn
        minimize ${etol} ${ftol} ${maxiter} ${maxeval}
        minimize 1e-12 ${ftol} ${maxiter} ${maxeval}
        minimize 1e-12 1e-08 ${maxiter} ${maxeval}
        minimize 1e-12 1e-08 10000 ${maxeval}
        minimize 1e-12 1e-08 10000 20000
WARNING: Resetting reneighboring criteria during minimization (../min.cpp:168)
Memory usage per processor = 5.29063 Mbytes
Step Temp PotEng Lx Ly Lz 
      15            0   -17279.986    7.7766452    82.841566    4.4898482 
Loop time of 0.00273612 on 1 procs for 0 steps with 2912 atoms

Minimization stats:
  Stopping criterion = force tolerance
  Energy initial, next-to-last, final = 
        -17279.9863159     -17279.9863159     -17279.9863159
  Force two-norm initial, final = 8.49619e-11 8.49619e-11
  Force max component initial, final = 2.7994e-12 2.7994e-12
  Final line search alpha, max atom move = 0 0
  Iterations, force evaluations = 0 0

Pair  time (%) = 0.00262798 (96.0476)
Neigh time (%) = 0 (0)
Comm  time (%) = 4.77876e-05 (1.74655)
Outpt time (%) = 0 (0)
Other time (%) = 6.03539e-05 (2.20582)

Nlocal:    2912 ave 2912 max 2912 min
Histogram: 1 0 0 0 0 0 0 0 0 0
Nghost:    7129 ave 7129 max 7129 min
Histogram: 1 0 0 0 0 0 0 0 0 0
Neighs:    77664 ave 77664 max 77664 min
Histogram: 1 0 0 0 0 0 0 0 0 0

Total # of neighbors = 77664
Ave neighs/atom = 26.6703
Neighbor list builds = 0
Dangerous builds = 0
	# write_dump all atom ${dumpfile}
        next i
jump SELF loop1
        displace_atoms upper move 0.0 ${ystep1} 0.0 units lattice
        displace_atoms upper move 0.0 0.00288675134594812 0.0 units lattice
        min_style ${style}
        min_style hftn
        minimize ${etol} ${ftol} ${maxiter} ${maxeval}
        minimize 1e-12 ${ftol} ${maxiter} ${maxeval}
        minimize 1e-12 1e-08 ${maxiter} ${maxeval}
        minimize 1e-12 1e-08 10000 ${maxeval}
        minimize 1e-12 1e-08 10000 20000
WARNING: Resetting reneighboring criteria during minimization (../min.cpp:168)
Memory usage per processor = 5.29063 Mbytes
Step Temp PotEng Lx Ly Lz 
      15            0   -17279.986    7.7766452    82.849503    4.4898482 
Loop time of 0.00245909 on 1 procs for 0 steps with 2912 atoms

Minimization stats:
  Stopping criterion = force tolerance
  Energy initial, next-to-last, final = 
        -17279.9856313     -17279.9856313     -17279.9856313
  Force two-norm initial, final = 8.4966e-11 8.4966e-11
  Force max component initial, final = 2.7994e-12 2.7994e-12
  Final line search alpha, max atom move = 0 0
  Iterations, force evaluations = 0 0

Pair  time (%) = 0.00239209 (97.2754)
Neigh time (%) = 0 (0)
Comm  time (%) = 3.39278e-05 (1.37969)
Outpt time (%) = 0 (0)
Other time (%) = 3.30734e-05 (1.34494)

Nlocal:    2912 ave 2912 max 2912 min
Histogram: 1 0 0 0 0 0 0 0 0 0
Nghost:    7129 ave 7129 max 7129 min
Histogram: 1 0 0 0 0 0 0 0 0 0
Neighs:    77664 ave 77664 max 77664 min
Histogram: 1 0 0 0 0 0 0 0 0 0

Total # of neighbors = 77664
Ave neighs/atom = 26.6703
Neighbor list builds = 0
Dangerous builds = 0
	# write_dump all atom ${dumpfile}
        next i
jump SELF loop1
        displace_atoms upper move 0.0 ${ystep1} 0.0 units lattice
        displace_atoms upper move 0.0 0.00288675134594812 0.0 units lattice
        min_style ${style}
        min_style hftn
        minimize ${etol} ${ftol} ${maxiter} ${maxeval}
        minimize 1e-12 ${ftol} ${maxiter} ${maxeval}
        minimize 1e-12 1e-08 ${maxiter} ${maxeval}
        minimize 1e-12 1e-08 10000 ${maxeval}
        minimize 1e-12 1e-08 10000 20000
WARNING: Resetting reneighboring criteria during minimization (../min.cpp:168)
Memory usage per processor = 5.29063 Mbytes
Step Temp PotEng Lx Ly Lz 
      15            0   -17279.986    7.7766452     82.85744    4.4898482 
Loop time of 0.00197094 on 1 procs for 0 steps with 2912 atoms

Minimization stats:
  Stopping criterion = force tolerance
  Energy initial, next-to-last, final = 
        -17279.9856313     -17279.9856313     -17279.9856313
  Force two-norm initial, final = 8.49659e-11 8.49659e-11
  Force max component initial, final = 2.7994e-12 2.7994e-12
  Final line search alpha, max atom move = 0 0
  Iterations, force evaluations = 0 0

[...]
Nghost:    7129 ave 7129 max 7129 min
Histogram: 1 0 0 0 0 0 0 0 0 0
Neighs:    77088 ave 77088 max 77088 min
Histogram: 1 0 0 0 0 0 0 0 0 0

Total # of neighbors = 77088
Ave neighs/atom = 26.4725
Neighbor list builds = 0
Dangerous builds = 0
	# write_dump all atom ${dumpfile}
        next i
jump SELF loop1
        displace_atoms upper move 0.0 ${ystep1} 0.0 units lattice
        displace_atoms upper move 0.0 0.00288675134594812 0.0 units lattice
        min_style ${style}
        min_style hftn
        minimize ${etol} ${ftol} ${maxiter} ${maxeval}
        minimize 1e-12 ${ftol} ${maxiter} ${maxeval}
        minimize 1e-12 1e-08 ${maxiter} ${maxeval}
        minimize 1e-12 1e-08 10000 ${maxeval}
        minimize 1e-12 1e-08 10000 20000
WARNING: Resetting reneighboring criteria during minimization (../min.cpp:168)
Memory usage per processor = 5.29104 Mbytes
Step Temp PotEng Lx Ly Lz 
      15            0   -17279.986    7.7766452    84.802007    4.4898482 
Loop time of 0.00214302 on 1 procs for 0 steps with 2912 atoms

Minimization stats:
  Stopping criterion = force tolerance
  Energy initial, next-to-last, final = 
        -17279.9856313     -17279.9856313     -17279.9856313
  Force two-norm initial, final = 8.49663e-11 8.49663e-11
  Force max component initial, final = 2.7994e-12 2.7994e-12
  Final line search alpha, max atom move = 0 0
  Iterations, force evaluations = 0 0

Pair  time (%) = 0.00207993 (97.0558)
Neigh time (%) = 0 (0)
Comm  time (%) = 3.29753e-05 (1.53873)
Outpt time (%) = 0 (0)
Other time (%) = 3.01186e-05 (1.40543)

Nlocal:    2912 ave 2912 max 2912 min
Histogram: 1 0 0 0 0 0 0 0 0 0
Nghost:    7129 ave 7129 max 7129 min
Histogram: 1 0 0 0 0 0 0 0 0 0
Neighs:    77088 ave 77088 max 77088 min
Histogram: 1 0 0 0 0 0 0 0 0 0

Total # of neighbors = 77088
Ave neighs/atom = 26.4725
Neighbor list builds = 0
Dangerous builds = 0
	# write_dump all atom ${dumpfile}
        next i
jump SELF loop1
        displace_atoms upper move 0.0 ${ystep1} 0.0 units lattice
        displace_atoms upper move 0.0 0.00288675134594812 0.0 units lattice
        min_style ${style}
        min_style hftn
        minimize ${etol} ${ftol} ${maxiter} ${maxeval}
        minimize 1e-12 ${ftol} ${maxiter} ${maxeval}
        minimize 1e-12 1e-08 ${maxiter} ${maxeval}
        minimize 1e-12 1e-08 10000 ${maxeval}
        minimize 1e-12 1e-08 10000 20000
WARNING: Resetting reneighboring criteria during minimization (../min.cpp:168)
Memory usage per processor = 5.29104 Mbytes
Step Temp PotEng Lx Ly Lz 
      15            0   -17279.986    7.7766452    84.809944    4.4898482 
Loop time of 0.00218604 on 1 procs for 0 steps with 2912 atoms

Minimization stats:
  Stopping criterion = force tolerance
  Energy initial, next-to-last, final = 
        -17279.9856313     -17279.9856313     -17279.9856313
  Force two-norm initial, final = 8.49669e-11 8.49669e-11
  Force max component initial, final = 2.7994e-12 2.7994e-12
  Final line search alpha, max atom move = 0 0
  Iterations, force evaluations = 0 0

Pair  time (%) = 0.00212295 (97.1138)
Neigh time (%) = 0 (0)
Comm  time (%) = 3.30962e-05 (1.51398)
Outpt time (%) = 0 (0)
Other time (%) = 2.99977e-05 (1.37224)

Nlocal:    2912 ave 2912 max 2912 min
Histogram: 1 0 0 0 0 0 0 0 0 0
Nghost:    7129 ave 7129 max 7129 min
Histogram: 1 0 0 0 0 0 0 0 0 0
Neighs:    77088 ave 77088 max 77088 min
Histogram: 1 0 0 0 0 0 0 0 0 0

Total # of neighbors = 77088
Ave neighs/atom = 26.4725
Neighbor list builds = 0
Dangerous builds = 0
	# write_dump all atom ${dumpfile}
        next i
jump SELF loop1
        displace_atoms upper move 0.0 ${ystep1} 0.0 units lattice
        displace_atoms upper move 0.0 0.00288675134594812 0.0 units lattice
        min_style ${style}
        min_style hftn
        minimize ${etol} ${ftol} ${maxiter} ${maxeval}
        minimize 1e-12 ${ftol} ${maxiter} ${maxeval}
        minimize 1e-12 1e-08 ${maxiter} ${maxeval}
        minimize 1e-12 1e-08 10000 ${maxeval}
        minimize 1e-12 1e-08 10000 20000
WARNING: Resetting reneighboring criteria during minimization (../min.cpp:168)
Memory usage per processor = 5.29104 Mbytes
Step Temp PotEng Lx Ly Lz 
      15            0   -17279.986    7.7766452    84.817881    4.4898482 
Loop time of 0.00217098 on 1 procs for 0 steps with 2912 atoms

Minimization stats:
  Stopping criterion = force tolerance
  Energy initial, next-to-last, final = 
        -17279.9856313     -17279.9856313     -17279.9856313
  Force two-norm initial, final = 8.49674e-11 8.49674e-11
  Force max component initial, final = 2.7994e-12 2.7994e-12
  Final line search alpha, max atom move = 0 0
  Iterations, force evaluations = 0 0

Pair  time (%) = 0.00210708 (97.0565)
Neigh time (%) = 0 (0)
Comm  time (%) = 3.48557e-05 (1.60553)
Outpt time (%) = 0 (0)
Other time (%) = 2.90461e-05 (1.33792)

Nlocal:    2912 ave 2912 max 2912 min
Histogram: 1 0 0 0 0 0 0 0 0 0
Nghost:    7129 ave 7129 max 7129 min
Histogram: 1 0 0 0 0 0 0 0 0 0
Neighs:    77088 ave 77088 max 77088 min
Histogram: 1 0 0 0 0 0 0 0 0 0

Total # of neighbors = 77088
Ave neighs/atom = 26.4725
Neighbor list builds = 0
Dangerous builds = 0
	# write_dump all atom ${dumpfile}
        next i
jump SELF loop1
        displace_atoms upper move 0.0 ${ystep1} 0.0 units lattice
        displace_atoms upper move 0.0 0.00288675134594812 0.0 units lattice
        min_style ${style}
        min_style hftn
        minimize ${etol} ${ftol} ${maxiter} ${maxeval}
        minimize 1e-12 ${ftol} ${maxiter} ${maxeval}
        minimize 1e-12 1e-08 ${maxiter} ${maxeval}
        minimize 1e-12 1e-08 10000 ${maxeval}
        minimize 1e-12 1e-08 10000 20000
WARNING: Resetting reneighboring criteria during minimization (../min.cpp:168)
Memory usage per processor = 5.29104 Mbytes
Step Temp PotEng Lx Ly Lz 
      15            0   -17279.986    7.7766452    84.825818    4.4898482 
Loop time of 0.00210008 on 1 procs for 0 steps with 2912 atoms

Minimization stats:
  Stopping criterion = force tolerance
  Energy initial, next-to-last, final = 
        -17279.9856313     -17279.9856313     -17279.9856313
  Force two-norm initial, final = 8.49663e-11 8.49663e-11
  Force max component initial, final = 2.7994e-12 2.7994e-12
  Final line search alpha, max atom move = 0 0
  Iterations, force evaluations = 0 0

Pair  time (%) = 0.00203599 (96.948)
Neigh time (%) = 0 (0)
Comm  time (%) = 3.39105e-05 (1.61472)
Outpt time (%) = 0 (0)
Other time (%) = 3.01833e-05 (1.43725)

Nlocal:    2912 ave 2912 max 2912 min
Histogram: 1 0 0 0 0 0 0 0 0 0
Nghost:    7129 ave 7129 max 7129 min
Histogram: 1 0 0 0 0 0 0 0 0 0
Neighs:    77088 ave 77088 max 77088 min
Histogram: 1 0 0 0 0 0 0 0 0 0

Total # of neighbors = 77088
Ave neighs/atom = 26.4725
Neighbor list builds = 0
Dangerous builds = 0
	# write_dump all atom ${dumpfile}
        next i
jump SELF loop1
        displace_atoms upper move 0.0 ${ystep1} 0.0 units lattice
        displace_atoms upper move 0.0 0.00288675134594812 0.0 units lattice
        min_style ${style}
        min_style hftn
        minimize ${etol} ${ftol} ${maxiter} ${maxeval}
        minimize 1e-12 ${ftol} ${maxiter} ${maxeval}
        minimize 1e-12 1e-08 ${maxiter} ${maxeval}
        minimize 1e-12 1e-08 10000 ${maxeval}
        minimize 1e-12 1e-08 10000 20000
WARNING: Resetting reneighboring criteria during minimization (../min.cpp:168)
Memory usage per processor = 5.29104 Mbytes
Step Temp PotEng Lx Ly Lz 
      15            0   -17279.986    7.7766452    84.833755    4.4898482 
Loop time of 0.00246002 on 1 procs for 0 steps with 2912 atoms

Minimization stats:
  Stopping criterion = force tolerance
  Energy initial, next-to-last, final = 
        -17279.9856313     -17279.9856313     -17279.9856313
  Force two-norm initial, final = 8.49669e-11 8.49669e-11
  Force max component initial, final = 2.7994e-12 2.7994e-12
  Final line search alpha, max atom move = 0 0
  Iterations, force evaluations = 0 0

Pair  time (%) = 0.00239392 (97.3133)
Neigh time (%) = 0 (0)
Comm  time (%) = 3.49693e-05 (1.42151)
Outpt time (%) = 0 (0)
Other time (%) = 3.11246e-05 (1.26522)

Nlocal:    2912 ave 2912 max 2912 min
Histogram: 1 0 0 0 0 0 0 0 0 0
Nghost:    7129 ave 7129 max 7129 min
Histogram: 1 0 0 0 0 0 0 0 0 0
Neighs:    77088 ave 77088 max 77088 min
Histogram: 1 0 0 0 0 0 0 0 0 0

Total # of neighbors = 77088
Ave neighs/atom = 26.4725
Neighbor list builds = 0
Dangerous builds = 0
	# write_dump all atom ${dumpfile}
        next i
jump SELF loop1
        displace_atoms upper move 0.0 ${ystep1} 0.0 units lattice
        displace_atoms upper move 0.0 0.00288675134594812 0.0 units lattice
        min_style ${style}
        min_style hftn
        minimize ${etol} ${ftol} ${maxiter} ${maxeval}
        minimize 1e-12 ${ftol} ${maxiter} ${maxeval}
        minimize 1e-12 1e-08 ${maxiter} ${maxeval}
        minimize 1e-12 1e-08 10000 ${maxeval}
        minimize 1e-12 1e-08 10000 20000
WARNING: Resetting reneighboring criteria during minimization (../min.cpp:168)
Memory usage per processor = 5.29104 Mbytes
Step Temp PotEng Lx Ly Lz 
      15            0   -17279.986    7.7766452    84.841692    4.4898482 
Loop time of 0.00168298 on 1 procs for 0 steps with 2912 atoms

Minimization stats:
  Stopping criterion = force tolerance
  Energy initial, next-to-last, final = 
        -17279.9856313     -17279.9856313     -17279.9856313
  Force two-norm initial, final = 8.49674e-11 8.49674e-11
  Force max component initial, final = 2.7994e-12 2.7994e-12
  Final line search alpha, max atom move = 0 0
  Iterations, force evaluations = 0 0

Pair  time (%) = 0.00161888 (96.1916)
Neigh time (%) = 0 (0)
Comm  time (%) = 3.39409e-05 (2.01672)
Outpt time (%) = 0 (0)
Other time (%) = 3.0153e-05 (1.79164)

Nlocal:    2912 ave 2912 max 2912 min
Histogram: 1 0 0 0 0 0 0 0 0 0
Nghost:    7129 ave 7129 max 7129 min
Histogram: 1 0 0 0 0 0 0 0 0 0
Neighs:    77088 ave 77088 max 77088 min
Histogram: 1 0 0 0 0 0 0 0 0 0

Total # of neighbors = 77088
Ave neighs/atom = 26.4725
Neighbor list builds = 0
Dangerous builds = 0
	# write_dump all atom ${dumpfile}
        next i
jump SELF loop1
        displace_atoms upper move 0.0 ${ystep1} 0.0 units lattice
        displace_atoms upper move 0.0 0.00288675134594812 0.0 units lattice
        min_style ${style}
        min_style hftn
        minimize ${etol} ${ftol} ${maxiter} ${maxeval}
        minimize 1e-12 ${ftol} ${maxiter} ${maxeval}
        minimize 1e-12 1e-08 ${maxiter} ${maxeval}
        minimize 1e-12 1e-08 10000 ${maxeval}
        minimize 1e-12 1e-08 10000 20000
WARNING: Resetting reneighboring criteria during minimization (../min.cpp:168)
Memory usage per processor = 5.29104 Mbytes
Step Temp PotEng Lx Ly Lz 
      15            0   -17279.986    7.7766452    84.849629    4.4898482 
Loop time of 0.00215007 on 1 procs for 0 steps with 2912 atoms

Minimization stats:
  Stopping criterion = force tolerance
  Energy initial, next-to-last, final = 
        -17279.9856313     -17279.9856313     -17279.9856313
  Force two-norm initial, final = 8.49663e-11 8.49663e-11
  Force max component initial, final = 2.7994e-12 2.7994e-12
  Final line search alpha, max atom move = 0 0
  Iterations, force evaluations = 0 0

Pair  time (%) = 0.00208507 (96.9768)
Neigh time (%) = 0 (0)
Comm  time (%) = 3.41982e-05 (1.59056)
Outpt time (%) = 0 (0)
Other time (%) = 3.08031e-05 (1.43266)

Nlocal:    2912 ave 2912 max 2912 min
Histogram: 1 0 0 0 0 0 0 0 0 0
Nghost:    7129 ave 7129 max 7129 min
Histogram: 1 0 0 0 0 0 0 0 0 0
Neighs:    77088 ave 77088 max 77088 min
Histogram: 1 0 0 0 0 0 0 0 0 0

Total # of neighbors = 77088
Ave neighs/atom = 26.4725
Neighbor list builds = 0
Dangerous builds = 0
	# write_dump all atom ${dumpfile}
        next i
jump SELF loop1
        displace_atoms upper move 0.0 ${ystep1} 0.0 units lattice
        displace_atoms upper move 0.0 0.00288675134594812 0.0 units lattice
        min_style ${style}
        min_style hftn
        minimize ${etol} ${ftol} ${maxiter} ${maxeval}
        minimize 1e-12 ${ftol} ${maxiter} ${maxeval}
        minimize 1e-12 1e-08 ${maxiter} ${maxeval}
        minimize 1e-12 1e-08 10000 ${maxeval}
        minimize 1e-12 1e-08 10000 20000
WARNING: Resetting reneighboring criteria during minimization (../min.cpp:168)
Memory usage per processor = 5.29104 Mbytes
Step Temp PotEng Lx Ly Lz 
      15            0   -17279.986    7.7766452    84.857566    4.4898482 
Loop time of 0.00219889 on 1 procs for 0 steps with 2912 atoms

Minimization stats:
  Stopping criterion = force tolerance
  Energy initial, next-to-last, final = 
        -17279.9856313     -17279.9856313     -17279.9856313
  Force two-norm initial, final = 8.49665e-11 8.49665e-11
  Force max component initial, final = 2.7994e-12 2.7994e-12
  Final line search alpha, max atom move = 0 0
  Iterations, force evaluations = 0 0

Pair  time (%) = 0.00211611 (96.2352)
Neigh time (%) = 0 (0)
Comm  time (%) = 4.08206e-05 (1.85642)
Outpt time (%) = 0 (0)
Other time (%) = 4.19626e-05 (1.90835)

Nlocal:    2912 ave 2912 max 2912 min
Histogram: 1 0 0 0 0 0 0 0 0 0
Nghost:    7129 ave 7129 max 7129 min
Histogram: 1 0 0 0 0 0 0 0 0 0
Neighs:    77088 ave 77088 max 77088 min
Histogram: 1 0 0 0 0 0 0 0 0 0

Total # of neighbors = 77088
Ave neighs/atom = 26.4725
Neighbor list builds = 0
Dangerous builds = 0
	# write_dump all atom ${dumpfile}
        next i
jump SELF loop1
        displace_atoms upper move 0.0 ${ystep1} 0.0 units lattice
        displace_atoms upper move 0.0 0.00288675134594812 0.0 units lattice
        min_style ${style}
        min_style hftn
        minimize ${etol} ${ftol} ${maxiter} ${maxeval}
        minimize 1e-12 ${ftol} ${maxiter} ${maxeval}
        minimize 1e-12 1e-08 ${maxiter} ${maxeval}
        minimize 1e-12 1e-08 10000 ${maxeval}
        minimize 1e-12 1e-08 10000 20000
WARNING: Resetting reneighboring criteria during minimization (../min.cpp:168)
Memory usage per processor = 5.29104 Mbytes
Step Temp PotEng Lx Ly Lz 
      15            0   -17279.986    7.7766452    84.865503    4.4898482 
Loop time of 0.00201391 on 1 procs for 0 steps with 2912 atoms

Minimization stats:
  Stopping criterion = force tolerance
  Energy initial, next-to-last, final = 
        -17279.9856313     -17279.9856313     -17279.9856313
  Force two-norm initial, final = 8.49674e-11 8.49674e-11
  Force max component initial, final = 2.7994e-12 2.7994e-12
  Final line search alpha, max atom move = 0 0
  Iterations, force evaluations = 0 0

Pair  time (%) = 0.00192812 (95.7401)
Neigh time (%) = 0 (0)
Comm  time (%) = 4.39992e-05 (2.18477)
Outpt time (%) = 0 (0)
Other time (%) = 4.17908e-05 (2.07511)

Nlocal:    2912 ave 2912 max 2912 min
Histogram: 1 0 0 0 0 0 0 0 0 0
Nghost:    7129 ave 7129 max 7129 min
Histogram: 1 0 0 0 0 0 0 0 0 0
Neighs:    77088 ave 77088 max 77088 min
Histogram: 1 0 0 0 0 0 0 0 0 0

Total # of neighbors = 77088
Ave neighs/atom = 26.4725
Neighbor list builds = 0
Dangerous builds = 0
	# write_dump all atom ${dumpfile}
        next i
jump SELF loop1
        displace_atoms upper move 0.0 ${ystep1} 0.0 units lattice
        displace_atoms upper move 0.0 0.00288675134594812 0.0 units lattice
        min_style ${style}
        min_style hftn
        minimize ${etol} ${ftol} ${maxiter} ${maxeval}
        minimize 1e-12 ${ftol} ${maxiter} ${maxeval}
        minimize 1e-12 1e-08 ${maxiter} ${maxeval}
        minimize 1e-12 1e-08 10000 ${maxeval}
        minimize 1e-12 1e-08 10000 20000
WARNING: Resetting reneighboring criteria during minimization (../min.cpp:168)
Memory usage per processor = 5.29104 Mbytes
Step Temp PotEng Lx Ly Lz 
      15            0   -17279.986    7.7766452     84.87344    4.4898482 
Loop time of 0.00217309 on 1 procs for 0 steps with 2912 atoms

Minimization stats:
  Stopping criterion = force tolerance
  Energy initial, next-to-last, final = 
        -17279.9856313     -17279.9856313     -17279.9856313
  Force two-norm initial, final = 8.49663e-11 8.49663e-11
  Force max component initial, final = 2.7994e-12 2.7994e-12
  Final line search alpha, max atom move = 0 0
  Iterations, force evaluations = 0 0

Pair  time (%) = 0.00210494 (96.864)
Neigh time (%) = 0 (0)
Comm  time (%) = 3.50159e-05 (1.61134)
Outpt time (%) = 0 (0)
Other time (%) = 3.31312e-05 (1.52462)

Nlocal:    2912 ave 2912 max 2912 min
Histogram: 1 0 0 0 0 0 0 0 0 0
Nghost:    7129 ave 7129 max 7129 min
Histogram: 1 0 0 0 0 0 0 0 0 0
Neighs:    77088 ave 77088 max 77088 min
Histogram: 1 0 0 0 0 0 0 0 0 0

Total # of neighbors = 77088
Ave neighs/atom = 26.4725
Neighbor list builds = 0
Dangerous builds = 0
	# write_dump all atom ${dumpfile}
        next i
jump SELF loop1
        displace_atoms upper move 0.0 ${ystep1} 0.0 units lattice
        displace_atoms upper move 0.0 0.00288675134594812 0.0 units lattice
        min_style ${style}
        min_style hftn
        minimize ${etol} ${ftol} ${maxiter} ${maxeval}
        minimize 1e-12 ${ftol} ${maxiter} ${maxeval}
        minimize 1e-12 1e-08 ${maxiter} ${maxeval}
        minimize 1e-12 1e-08 10000 ${maxeval}
        minimize 1e-12 1e-08 10000 20000
WARNING: Resetting reneighboring criteria during minimization (../min.cpp:168)
Memory usage per processor = 5.29104 Mbytes
Step Temp PotEng Lx Ly Lz 
      15            0   -17279.986    7.7766452    84.881377    4.4898482 
Loop time of 0.00210299 on 1 procs for 0 steps with 2912 atoms

Minimization stats:
  Stopping criterion = force tolerance
  Energy initial, next-to-last, final = 
        -17279.9856313     -17279.9856313     -17279.9856313
  Force two-norm initial, final = 8.49665e-11 8.49665e-11
  Force max component initial, final = 2.7994e-12 2.7994e-12
  Final line search alpha, max atom move = 0 0
  Iterations, force evaluations = 0 0

Pair  time (%) = 0.0020389 (96.9523)
Neigh time (%) = 0 (0)
Comm  time (%) = 3.29226e-05 (1.56551)
Outpt time (%) = 0 (0)
Other time (%) = 3.11713e-05 (1.48223)

Nlocal:    2912 ave 2912 max 2912 min
Histogram: 1 0 0 0 0 0 0 0 0 0
Nghost:    7129 ave 7129 max 7129 min
Histogram: 1 0 0 0 0 0 0 0 0 0
Neighs:    77088 ave 77088 max 77088 min
Histogram: 1 0 0 0 0 0 0 0 0 0

Total # of neighbors = 77088
Ave neighs/atom = 26.4725
Neighbor list builds = 0
Dangerous builds = 0
	# write_dump all atom ${dumpfile}
        next i
jump SELF loop1

# allow atoms to relax in y-direction, now that two halves have separated
unfix 2
min_style ${style}
min_style hftn
minimize ${etol} ${ftol} ${maxiter} ${maxeval}
minimize 1e-12 ${ftol} ${maxiter} ${maxeval}
minimize 1e-12 1e-08 ${maxiter} ${maxeval}
minimize 1e-12 1e-08 10000 ${maxeval}
minimize 1e-12 1e-08 10000 20000
WARNING: Resetting reneighboring criteria during minimization (../min.cpp:168)
Memory usage per processor = 5.29104 Mbytes
Step Temp PotEng Lx Ly Lz 
      15            0   -17279.986    7.7766452    84.881377    4.4898482 
      16            0   -17279.986    7.7766452    84.881377    4.4898482 
      17            0   -17279.986    7.7766452    84.881377    4.4898482 
Loop time of 1.16996 on 1 procs for 1 steps with 2912 atoms

Minimization stats:
  Stopping criterion = force tolerance
  Energy initial, next-to-last, final = 
        -17279.9856313     -17279.9856313     -17279.9859193
  Force two-norm initial, final = 0.00357281 6.1525e-12
  Force max component initial, final = 0.000315795 5.69712e-13
  Final line search alpha, max atom move = 0 0
  Iterations, force evaluations = 1 495

Pair  time (%) = 1.0766 (92.0208)
Neigh time (%) = 0 (0)
Comm  time (%) = 0.0180709 (1.54458)
Outpt time (%) = 0.000108905 (0.00930844)
Other time (%) = 0.0751728 (6.42527)

Nlocal:    2912 ave 2912 max 2912 min
Histogram: 1 0 0 0 0 0 0 0 0 0
Nghost:    7129 ave 7129 max 7129 min
Histogram: 1 0 0 0 0 0 0 0 0 0
Neighs:    77088 ave 77088 max 77088 min
Histogram: 1 0 0 0 0 0 0 0 0 0

Total # of neighbors = 77088
Ave neighs/atom = 26.4725
Neighbor list builds = 0
Dangerous builds = 0

write_dump all atom ${dumpfile}
write_dump all atom surf_V_brittle_3d.*.dump


