LAMMPS (28 Jun 2014)
# attempt at getting surface energy

#file prefix
variable prefix string surf_V_inter5newnorm
variable dumpfile string ${prefix}.*.dump
variable dumpfile string surf_V_inter5newnorm.*.dump
variable restartfile string ${prefix}.*.equil
variable restartfile string surf_V_inter5newnorm.*.equil

#Mass (g/mol)
variable m equal 1

# lattice constant (in Angstroms) and orientation of axes (given by lattice vectors)
variable rho equal 1.1547
variable x1 equal 1
variable x2 equal 0
variable x3 equal 0
variable y1 equal 0
variable y2 equal 1
variable y3 equal 0
# length of lattice in different directions (using orientation of lattice vectors)
variable ax equal sqrt(${x1}*${x1}+${x2}*${x2}+${x3}*${x3})
variable ax equal sqrt(1*${x1}+${x2}*${x2}+${x3}*${x3})
variable ax equal sqrt(1*1+${x2}*${x2}+${x3}*${x3})
variable ax equal sqrt(1*1+0*${x2}+${x3}*${x3})
variable ax equal sqrt(1*1+0*0+${x3}*${x3})
variable ax equal sqrt(1*1+0*0+0*${x3})
variable ax equal sqrt(1*1+0*0+0*0)
variable ay equal sqrt(${y1}*${y1}+${y2}*${y2}+${y3}*${y3})
variable ay equal sqrt(0*${y1}+${y2}*${y2}+${y3}*${y3})
variable ay equal sqrt(0*0+${y2}*${y2}+${y3}*${y3})
variable ay equal sqrt(0*0+1*${y2}+${y3}*${y3})
variable ay equal sqrt(0*0+1*1+${y3}*${y3})
variable ay equal sqrt(0*0+1*1+0*${y3})
variable ay equal sqrt(0*0+1*1+0*0)
variable az equal 1

# size of box in lattice units
variable lxpos equal 1
variable lxneg equal 0
variable lypos equal 10
variable lyneg equal -1*${lypos}
variable lyneg equal -1*10
variable lzpos equal 1
variable lzneg equal 0

# Define minimization parameters and damping
variable etol equal 1.0e-12
variable ftol equal 1.0e-8
variable maxiter equal 10000
variable maxeval equal 20000
variable style string cg

# boundary conditions
dimension	2
boundary	p s p
atom_style	atomic

# create geometry
units		lj
lattice         hex ${rho}
lattice         hex 1.1547
Lattice spacing in x,y,z = 1 1.73205 1
region		myregion block ${lxneg} ${lxpos} ${lyneg} ${lypos} ${lzneg} ${lzpos} units lattice
region		myregion block 0 ${lxpos} ${lyneg} ${lypos} ${lzneg} ${lzpos} units lattice
region		myregion block 0 1 ${lyneg} ${lypos} ${lzneg} ${lzpos} units lattice
region		myregion block 0 1 -10 ${lypos} ${lzneg} ${lzpos} units lattice
region		myregion block 0 1 -10 10 ${lzneg} ${lzpos} units lattice
region		myregion block 0 1 -10 10 0 ${lzpos} units lattice
region		myregion block 0 1 -10 10 0 1 units lattice
create_box	1 myregion
Created orthogonal box = (0 -17.3205 0) to (1 17.3205 1)
  1 by 1 by 1 MPI processor grid
create_atoms	1 box
Created 41 atoms

# define masses
mass * $m
mass * 1

# my fake/morse potential
pair_style      table linear 3001
pair_coeff      * * vpotential_inter5newnorm dummy
neighbor	0.3 bin
neigh_modify	delay 5

# define groups
region	    upper block INF INF 0.01 ${lypos} INF INF units lattice
region	    upper block INF INF 0.01 10 INF INF units lattice
group		upper region upper
20 atoms in group upper

# Setup output
thermo 1
thermo_style custom step temp pe lx ly lz
thermo_modify norm no

# Compute initial state by relaxing box
min_style ${style}
min_style cg
minimize ${etol} ${ftol} ${maxiter} ${maxeval}
minimize 1e-12 ${ftol} ${maxiter} ${maxeval}
minimize 1e-12 1e-08 ${maxiter} ${maxeval}
minimize 1e-12 1e-08 10000 ${maxeval}
minimize 1e-12 1e-08 10000 20000
WARNING: Resetting reneighboring criteria during minimization (../min.cpp:168)
Memory usage per processor = 3.35952 Mbytes
Step Temp PotEng Lx Ly Lz 
       0            0   -120.99996    1.0000002    34.647952    1.0000002 
       1            0   -120.99996    1.0000002    34.647952    1.0000002 
Loop time of 4.39272e-05 on 1 procs for 1 steps with 41 atoms

Minimization stats:
  Stopping criterion = linesearch alpha is zero
  Energy initial, next-to-last, final = 
        -120.999955904     -120.999955904     -120.999955904
  Force two-norm initial, final = 4.32358e-06 4.32358e-06
  Force max component initial, final = 3.05723e-06 3.05723e-06
  Final line search alpha, max atom move = 0.5 1.52862e-06
  Iterations, force evaluations = 1 2

Pair  time (%) = 2.39058e-05 (54.4213)
Neigh time (%) = 0 (0)
Comm  time (%) = 4.06918e-06 (9.26346)
Outpt time (%) = 0 (0)
Other time (%) = 1.59523e-05 (36.3152)

Nlocal:    41 ave 41 max 41 min
Histogram: 1 0 0 0 0 0 0 0 0 0
Nghost:    185 ave 185 max 185 min
Histogram: 1 0 0 0 0 0 0 0 0 0
Neighs:    359 ave 359 max 359 min
Histogram: 1 0 0 0 0 0 0 0 0 0

Total # of neighbors = 359
Ave neighs/atom = 8.7561
Neighbor list builds = 0
Dangerous builds = 0

# don't allow atoms to relax in y-direction
fix 2 all setforce NULL 0.0 NULL

# Energy curve will have nstep steps
variable nsteps equal 500
variable sstep1 equal 1.0
variable ystep1 equal ${sstep1}/(${ay}*${nsteps})
variable ystep1 equal 1/(${ay}*${nsteps})
variable ystep1 equal 1/(1*${nsteps})
variable ystep1 equal 1/(1*500)

variable i loop ${nsteps}
variable i loop 500
label loop1
        displace_atoms upper move 0.0 ${ystep1} 0.0 units lattice
        displace_atoms upper move 0.0 0.002 0.0 units lattice
        min_style ${style}
        min_style cg
        minimize ${etol} ${ftol} ${maxiter} ${maxeval}
        minimize 1e-12 ${ftol} ${maxiter} ${maxeval}
        minimize 1e-12 1e-08 ${maxiter} ${maxeval}
        minimize 1e-12 1e-08 10000 ${maxeval}
        minimize 1e-12 1e-08 10000 20000
WARNING: Resetting reneighboring criteria during minimization (../min.cpp:168)
Memory usage per processor = 3.35952 Mbytes
Step Temp PotEng Lx Ly Lz 
       1            0   -120.99968    1.0000002    34.651417    1.0000002 
       2            0   -120.99968    1.0000002    34.651417    1.0000002 
Loop time of 3.79387e-05 on 1 procs for 1 steps with 41 atoms

Minimization stats:
  Stopping criterion = linesearch alpha is zero
  Energy initial, next-to-last, final = 
        -120.999678504     -120.999678504     -120.999678504
  Force two-norm initial, final = 2.15316e-18 2.15316e-18
  Force max component initial, final = 1.89905e-18 1.89905e-18
  Final line search alpha, max atom move = 0.5 9.49524e-19
  Iterations, force evaluations = 1 2

Pair  time (%) = 2.30465e-05 (60.7467)
Neigh time (%) = 0 (0)
Comm  time (%) = 3.11225e-06 (8.20336)
Outpt time (%) = 0 (0)
Other time (%) = 1.178e-05 (31.05)

Nlocal:    41 ave 41 max 41 min
Histogram: 1 0 0 0 0 0 0 0 0 0
Nghost:    185 ave 185 max 185 min
Histogram: 1 0 0 0 0 0 0 0 0 0
Neighs:    359 ave 359 max 359 min
Histogram: 1 0 0 0 0 0 0 0 0 0

Total # of neighbors = 359
Ave neighs/atom = 8.7561
Neighbor list builds = 0
Dangerous builds = 0
	# write_dump all atom ${dumpfile}
        next i
jump SELF loop1
        displace_atoms upper move 0.0 ${ystep1} 0.0 units lattice
        displace_atoms upper move 0.0 0.002 0.0 units lattice
        min_style ${style}
        min_style cg
        minimize ${etol} ${ftol} ${maxiter} ${maxeval}
        minimize 1e-12 ${ftol} ${maxiter} ${maxeval}
        minimize 1e-12 1e-08 ${maxiter} ${maxeval}
        minimize 1e-12 1e-08 10000 ${maxeval}
        minimize 1e-12 1e-08 10000 20000
WARNING: Resetting reneighboring criteria during minimization (../min.cpp:168)
Memory usage per processor = 3.35952 Mbytes
Step Temp PotEng Lx Ly Lz 
       2            0   -120.99887    1.0000002    34.654881    1.0000002 
       3            0   -120.99887    1.0000002    34.654881    1.0000002 
Loop time of 3.79335e-05 on 1 procs for 1 steps with 41 atoms

Minimization stats:
  Stopping criterion = linesearch alpha is zero
  Energy initial, next-to-last, final = 
        -120.998868755     -120.998868755     -120.998868755
  Force two-norm initial, final = 6.03425e-18 6.03425e-18
  Force max component initial, final = 5.72764e-18 5.72764e-18
  Final line search alpha, max atom move = 0.5 2.86382e-18
  Iterations, force evaluations = 1 2

Pair  time (%) = 2.41764e-05 (63.7338)
Neigh time (%) = 0 (0)
Comm  time (%) = 3.89526e-06 (10.2687)
Outpt time (%) = 0 (0)
Other time (%) = 9.86177e-06 (25.9976)

Nlocal:    41 ave 41 max 41 min
Histogram: 1 0 0 0 0 0 0 0 0 0
Nghost:    185 ave 185 max 185 min
Histogram: 1 0 0 0 0 0 0 0 0 0
Neighs:    359 ave 359 max 359 min
Histogram: 1 0 0 0 0 0 0 0 0 0

Total # of neighbors = 359
Ave neighs/atom = 8.7561
Neighbor list builds = 0
Dangerous builds = 0
	# write_dump all atom ${dumpfile}
        next i
jump SELF loop1
        displace_atoms upper move 0.0 ${ystep1} 0.0 units lattice
        displace_atoms upper move 0.0 0.002 0.0 units lattice
        min_style ${style}
        min_style cg
        minimize ${etol} ${ftol} ${maxiter} ${maxeval}
        minimize 1e-12 ${ftol} ${maxiter} ${maxeval}
        minimize 1e-12 1e-08 ${maxiter} ${maxeval}
        minimize 1e-12 1e-08 10000 ${maxeval}
        minimize 1e-12 1e-08 10000 20000
WARNING: Resetting reneighboring criteria during minimization (../min.cpp:168)
Memory usage per processor = 3.35952 Mbytes
Step Temp PotEng Lx Ly Lz 
       3            0   -120.99753    1.0000002    34.658345    1.0000002 
       4            0   -120.99753    1.0000002    34.658345    1.0000002 
Loop time of 3.79856e-05 on 1 procs for 1 steps with 41 atoms

Minimization stats:
  Stopping criterion = linesearch alpha is zero
  Energy initial, next-to-last, final = 
        -120.997532764     -120.997532764     -120.997532764
  Force two-norm initial, final = 4.90096e-18 4.90096e-18
  Force max component initial, final = 4.51807e-18 4.51807e-18
  Final line search alpha, max atom move = 0.5 2.25904e-18
  Iterations, force evaluations = 1 2

Pair  time (%) = 2.40947e-05 (63.4311)
Neigh time (%) = 0 (0)
Comm  time (%) = 4.20865e-06 (11.0796)
Outpt time (%) = 0 (0)
Other time (%) = 9.68226e-06 (25.4893)

Nlocal:    41 ave 41 max 41 min
Histogram: 1 0 0 0 0 0 0 0 0 0
Nghost:    185 ave 185 max 185 min
Histogram: 1 0 0 0 0 0 0 0 0 0
Neighs:    359 ave 359 max 359 min
Histogram: 1 0 0 0 0 0 0 0 0 0

Total # of neighbors = 359
Ave neighs/atom = 8.7561
Neighbor list builds = 0
Dangerous builds = 0
	# write_dump all atom ${dumpfile}
        next i
jump SELF loop1
        displace_atoms upper move 0.0 ${ystep1} 0.0 units lattice
        displace_atoms upper move 0.0 0.002 0.0 units lattice
        min_style ${style}
        min_style cg
        minimize ${etol} ${ftol} ${maxiter} ${maxeval}
        minimize 1e-12 ${ftol} ${maxiter} ${maxeval}
        minimize 1e-12 1e-08 ${maxiter} ${maxeval}
        minimize 1e-12 1e-08 10000 ${maxeval}
        minimize 1e-12 1e-08 10000 20000
WARNING: Resetting reneighboring criteria during minimization (../min.cpp:168)
Memory usage per processor = 3.35952 Mbytes
Step Temp PotEng Lx Ly Lz 
       4            0    -120.9957    1.0000002    34.661809    1.0000002 
       5            0    -120.9957    1.0000002    34.661809    1.0000002 
Loop time of 3.79002e-05 on 1 procs for 1 steps with 41 atoms

Minimization stats:
  Stopping criterion = linesearch alpha is zero
  Energy initial, next-to-last, final = 
        -120.995698063     -120.995698063     -120.995698063
  Force two-norm initial, final = 2.2616e-18 2.2616e-18
  Force max component initial, final = 1.89905e-18 1.89905e-18
  Final line search alpha, max atom move = 0.5 9.49524e-19
  Iterations, force evaluations = 1 2

Pair  time (%) = 2.31692e-05 (61.1322)
Neigh time (%) = 0 (0)
Comm  time (%) = 3.83437e-06 (10.117)
Outpt time (%) = 0 (0)
Other time (%) = 1.08966e-05 (28.7508)

Nlocal:    41 ave 41 max 41 min
Histogram: 1 0 0 0 0 0 0 0 0 0
Nghost:    185 ave 185 max 185 min
Histogram: 1 0 0 0 0 0 0 0 0 0
Neighs:    359 ave 359 max 359 min
Histogram: 1 0 0 0 0 0 0 0 0 0

Total # of neighbors = 359
Ave neighs/atom = 8.7561
Neighbor list builds = 0
Dangerous builds = 0
	# write_dump all atom ${dumpfile}
        next i
jump SELF loop1
        displace_atoms upper move 0.0 ${ystep1} 0.0 units lattice
        displace_atoms upper move 0.0 0.002 0.0 units lattice
        min_style ${style}
        min_style cg
        minimize ${etol} ${ftol} ${maxiter} ${maxeval}
        minimize 1e-12 ${ftol} ${maxiter} ${maxeval}
        minimize 1e-12 1e-08 ${maxiter} ${maxeval}
        minimize 1e-12 1e-08 10000 ${maxeval}
        minimize 1e-12 1e-08 10000 20000
WARNING: Resetting reneighboring criteria during minimization (../min.cpp:168)
Memory usage per processor = 3.35952 Mbytes
Step Temp PotEng Lx Ly Lz 
       5            0   -120.99337    1.0000002    34.665273    1.0000002 
       6            0   -120.99337    1.0000002    34.665273    1.0000002 
Loop time of 2.19728e-05 on 1 procs for 1 steps with 41 atoms

Minimization stats:
  Stopping criterion = linesearch alpha is zero
  Energy initial, next-to-last, final = 
        -120.993372898     -120.993372898     -120.993372898
  Force two-norm initial, final = 4.52888e-18 4.52888e-18
  Force max component initial, final = 4.1115e-18 4.1115e-18
  Final line search alpha, max atom move = 0.5 2.05575e-18
  Iterations, force evaluations = 1 2

Pair  time (%) = 1.48177e-05 (67.4365)
Neigh time (%) = 0 (0)
Comm  time (%) = 2.23762e-06 (10.1836)
Outpt time (%) = 0 (0)
Other time (%) = 4.9175e-06 (22.3799)

Nlocal:    41 ave 41 max 41 min
Histogram: 1 0 0 0 0 0 0 0 0 0
Nghost:    185 ave 185 max 185 min
Histogram: 1 0 0 0 0 0 0 0 0 0
Neighs:    359 ave 359 max 359 min
Histogram: 1 0 0 0 0 0 0 0 0 0

Total # of neighbors = 359
Ave neighs/atom = 8.7561
Neighbor list builds = 0
Dangerous builds = 0
	# write_dump all atom ${dumpfile}
        next i
jump SELF loop1
        displace_atoms upper move 0.0 ${ystep1} 0.0 units lattice
        displace_atoms upper move 0.0 0.002 0.0 units lattice
        min_style ${style}
        min_style cg
        minimize ${etol} ${ftol} ${maxiter} ${maxeval}
        minimize 1e-12 ${ftol} ${maxiter} ${maxeval}
        minimize 1e-12 1e-08 ${maxiter} ${maxeval}
        minimize 1e-12 1e-08 10000 ${maxeval}
        minimize 1e-12 1e-08 10000 20000
WARNING: Resetting reneighboring criteria during minimization (../min.cpp:168)
Memory usage per processor = 3.35952 Mbytes
Step Temp PotEng Lx Ly Lz 
       6            0   -120.99058    1.0000002    34.668737    1.0000002 
       7            0   -120.99058    1.0000002    34.668737    1.0000002 
Loop time of 3.79395e-05 on 1 procs for 1 steps with 41 atoms

Minimization stats:
  Stopping criterion = linesearch alpha is zero
  Energy initial, next-to-last, final = 
        -120.990578934     -120.990578934     -120.990578934
  Force two-norm initial, final = 3.92401e-18 3.92401e-18
  Force max component initial, final = 3.43387e-18 3.43387e-18
  Final line search alpha, max atom move = 0.5 1.71694e-18
  Iterations, force evaluations = 1 2

Pair  time (%) = 2.30492e-05 (60.7524)
Neigh time (%) = 0 (0)
Comm  time (%) = 4.07116e-06 (10.7307)
Outpt time (%) = 0 (0)
Other time (%) = 1.08192e-05 (28.5169)

Nlocal:    41 ave 41 max 41 min
Histogram: 1 0 0 0 0 0 0 0 0 0
Nghost:    185 ave 185 max 185 min
Histogram: 1 0 0 0 0 0 0 0 0 0
Neighs:    359 ave 359 max 359 min
Histogram: 1 0 0 0 0 0 0 0 0 0

Total # of neighbors = 359
Ave neighs/atom = 8.7561
Neighbor list builds = 0
Dangerous builds = 0
	# write_dump all atom ${dumpfile}
        next i
jump SELF loop1
        displace_atoms upper move 0.0 ${ystep1} 0.0 units lattice
        displace_atoms upper move 0.0 0.002 0.0 units lattice
        min_style ${style}
        min_style cg
        minimize ${etol} ${ftol} ${maxiter} ${maxeval}
        minimize 1e-12 ${ftol} ${maxiter} ${maxeval}
        minimize 1e-12 1e-08 ${maxiter} ${maxeval}
        minimize 1e-12 1e-08 10000 ${maxeval}
        minimize 1e-12 1e-08 10000 20000
WARNING: Resetting reneighboring criteria during minimization (../min.cpp:168)
Memory usage per processor = 3.35952 Mbytes
Step Temp PotEng Lx Ly Lz 
       7            0   -120.98733    1.0000002    34.672201    1.0000002 
       8            0   -120.98733    1.0000002    34.672201    1.0000002 
Loop time of 5.09411e-05 on 1 procs for 1 steps with 41 atoms

Minimization stats:
  Stopping criterion = linesearch alpha is zero
  Energy initial, next-to-last, final = 
        -120.987330804     -120.987330804     -120.987330804
  Force two-norm initial, final = 3.09892e-17 3.09892e-17
  Force max component initial, final = 2.58565e-17 2.58565e-17
  Final line search alpha, max atom move = 0.5 1.29283e-17
  Iterations, force evaluations = 1 2

Pair  time (%) = 3.40729e-05 (66.8868)
Neigh time (%) = 0 (0)
Comm  time (%) = 5.10504e-06 (10.0215)
Outpt time (%) = 0 (0)
Other time (%) = 1.17632e-05 (23.0917)

Nlocal:    41 ave 41 max 41 min
Histogram: 1 0 0 0 0 0 0 0 0 0
Nghost:    185 ave 185 max 185 min
Histogram: 1 0 0 0 0 0 0 0 0 0
Neighs:    359 ave 359 max 359 min
Histogram: 1 0 0 0 0 0 0 0 0 0

Total # of neighbors = 359
Ave neighs/atom = 8.7561
Neighbor list builds = 0
Dangerous builds = 0
	# write_dump all atom ${dumpfile}
        next i
jump SELF loop1
        displace_atoms upper move 0.0 ${ystep1} 0.0 units lattice
        displace_atoms upper move 0.0 0.002 0.0 units lattice
        min_style ${style}
        min_style cg
        minimize ${etol} ${ftol} ${maxiter} ${maxeval}
        minimize 1e-12 ${ftol} ${maxiter} ${maxeval}
        minimize 1e-12 1e-08 ${maxiter} ${maxeval}
        minimize 1e-12 1e-08 10000 ${maxeval}
        minimize 1e-12 1e-08 10000 20000
WARNING: Resetting reneighboring criteria during minimization (../min.cpp:168)
Memory usage per processor = 3.35952 Mbytes
Step Temp PotEng Lx Ly Lz 
       8            0   -120.98364    1.0000002    34.675665    1.0000002 
       9            0   -120.98364    1.0000002    34.675665    1.0000002 
Loop time of 3.79686e-05 on 1 procs for 1 steps with 41 atoms

Minimization stats:
  Stopping criterion = linesearch alpha is zero
  Energy initial, next-to-last, final = 
        -120.983640945     -120.983640945     -120.983640945
  Force two-norm initial, final = 2.74209e-17 2.74209e-17
  Force max component initial, final = 2.58565e-17 2.58565e-17
  Final line search alpha, max atom move = 0.5 1.29283e-17
  Iterations, force evaluations = 1 2

Pair  time (%) = 2.52819e-05 (66.5863)
Neigh time (%) = 0 (0)
Comm  time (%) = 4.15253e-06 (10.9368)
Outpt time (%) = 0 (0)
Other time (%) = 8.53417e-06 (22.4769)

Nlocal:    41 ave 41 max 41 min
Histogram: 1 0 0 0 0 0 0 0 0 0
Nghost:    185 ave 185 max 185 min
Histogram: 1 0 0 0 0 0 0 0 0 0
Neighs:    359 ave 359 max 359 min
Histogram: 1 0 0 0 0 0 0 0 0 0

Total # of neighbors = 359
Ave neighs/atom = 8.7561
Neighbor list builds = 0
Dangerous builds = 0
	# write_dump all atom ${dumpfile}
        next i
jump SELF loop1
        displace_atoms upper move 0.0 ${ystep1} 0.0 units lattice
        displace_atoms upper move 0.0 0.002 0.0 units lattice
        min_style ${style}
        min_style cg
        minimize ${etol} ${ftol} ${maxiter} ${maxeval}
        minimize 1e-12 ${ftol} ${maxiter} ${maxeval}
        minimize 1e-12 1e-08 ${maxiter} ${maxeval}
        minimize 1e-12 1e-08 10000 ${maxeval}
        minimize 1e-12 1e-08 10000 20000
WARNING: Resetting reneighboring criteria during minimization (../min.cpp:168)
Memory usage per processor = 3.35952 Mbytes
Step Temp PotEng Lx Ly Lz 
       9            0   -120.97953    1.0000002    34.679129    1.0000002 
      10            0   -120.97953    1.0000002    34.679129    1.0000002 
Loop time of 3.803e-05 on 1 procs for 1 steps with 41 atoms

Minimization stats:
  Stopping criterion = linesearch alpha is zero
  Energy initial, next-to-last, final = 
        -120.979529325     -120.979529325     -120.979529325
  Force two-norm initial, final = 3.47618e-17 3.47618e-17
  Force max component initial, final = 2.58565e-17 2.58565e-17
  Final line search alpha, max atom move = 0.5 1.29283e-17
  Iterations, force evaluations = 1 2

Pair  time (%) = 2.47509e-05 (65.0827)
Neigh time (%) = 0 (0)
Comm  time (%) = 5.28269e-06 (13.8909)
Outpt time (%) = 0 (0)
Other time (%) = 7.99634e-06 (21.0264)

Nlocal:    41 ave 41 max 41 min
Histogram: 1 0 0 0 0 0 0 0 0 0
Nghost:    185 ave 185 max 185 min
Histogram: 1 0 0 0 0 0 0 0 0 0
Neighs:    359 ave 359 max 359 min
Histogram: 1 0 0 0 0 0 0 0 0 0

Total # of neighbors = 359
Ave neighs/atom = 8.7561
Neighbor list builds = 0
Dangerous builds = 0
	# write_dump all atom ${dumpfile}
        next i
jump SELF loop1
        displace_atoms upper move 0.0 ${ystep1} 0.0 units lattice
        displace_atoms upper move 0.0 0.002 0.0 units lattice
        min_style ${style}
        min_style cg
        minimize ${etol} ${ftol} ${maxiter} ${maxeval}
        minimize 1e-12 ${ftol} ${maxiter} ${maxeval}
        minimize 1e-12 1e-08 ${maxiter} ${maxeval}
        minimize 1e-12 1e-08 10000 ${maxeval}
        minimize 1e-12 1e-08 10000 20000
WARNING: Resetting reneighboring criteria during minimization (../min.cpp:168)
Memory usage per processor = 3.35952 Mbytes
Step Temp PotEng Lx Ly Lz 
      10            0   -120.97501    1.0000002    34.682593    1.0000002 
      11            0   -120.97501    1.0000002    34.682593    1.0000002 
Loop time of 3.6984e-05 on 1 procs for 1 steps with 41 atoms

Minimization stats:
  Stopping criterion = linesearch alpha is zero
  Energy initial, next-to-last, final = 
        -120.975007363     -120.975007363     -120.975007363
  Force two-norm initial, final = 3.46646e-17 3.46646e-17
  Force max component initial, final = 2.58565e-17 2.58565e-17
  Final line search alpha, max atom move = 0.5 1.29283e-17
  Iterations, force evaluations = 1 2

Pair  time (%) = 2.30898e-05 (62.4319)
Neigh time (%) = 0 (0)
Comm  time (%) = 4.15242e-06 (11.2276)
Outpt time (%) = 0 (0)
Other time (%) = 9.74175e-06 (26.3405)

Nlocal:    41 ave 41 max 41 min
Histogram: 1 0 0 0 0 0 0 0 0 0
Nghost:    185 ave 185 max 185 min
Histogram: 1 0 0 0 0 0 0 0 0 0
Neighs:    359 ave 359 max 359 min
Histogram: 1 0 0 0 0 0 0 0 0 0

Total # of neighbors = 359
Ave neighs/atom = 8.7561
Neighbor list builds = 0
Dangerous builds = 0
	# write_dump all atom ${dumpfile}
        next i
jump SELF loop1
        displace_atoms upper move 0.0 ${ystep1} 0.0 units lattice
        displace_atoms upper move 0.0 0.002 0.0 units lattice
        min_style ${style}
        min_style cg
        minimize ${etol} ${ftol} ${maxiter} ${maxeval}
        minimize 1e-12 ${ftol} ${maxiter} ${maxeval}
        minimize 1e-12 1e-08 ${maxiter} ${maxeval}
        minimize 1e-12 1e-08 10000 ${maxeval}
        minimize 1e-12 1e-08 10000 20000
WARNING: Resetting reneighboring criteria during minimization (../min.cpp:168)
Memory usage per processor = 3.35952 Mbytes
Step Temp PotEng Lx Ly Lz 
      11            0   -120.97009    1.0000002    34.686058    1.0000002 
      12            0   -120.97009    1.0000002    34.686058    1.0000002 
Loop time of 3.69924e-05 on 1 procs for 1 steps with 41 atoms

Minimization stats:
  Stopping criterion = linesearch alpha is zero
  Energy initial, next-to-last, final = 
        -120.970089341     -120.970089341     -120.970089341
  Force two-norm initial, final = 3.69495e-17 3.69495e-17
  Force max component initial, final = 2.63952e-17 2.63952e-17
  Final line search alpha, max atom move = 0.5 1.31976e-17
  Iterations, force evaluations = 1 2

Pair  time (%) = 2.41147e-05 (65.1884)
Neigh time (%) = 0 (0)
Comm  time (%) = 3.24869e-06 (8.78204)
Outpt time (%) = 0 (0)
Other time (%) = 9.62894e-06 (26.0295)

Nlocal:    41 ave 41 max 41 min
Histogram: 1 0 0 0 0 0 0 0 0 0
Nghost:    185 ave 185 max 185 min
Histogram: 1 0 0 0 0 0 0 0 0 0
Neighs:    359 ave 359 max 359 min
Histogram: 1 0 0 0 0 0 0 0 0 0

Total # of neighbors = 359
Ave neighs/atom = 8.7561
Neighbor list builds = 0
Dangerous builds = 0
	# write_dump all atom ${dumpfile}
        next i
jump SELF loop1
        displace_atoms upper move 0.0 ${ystep1} 0.0 units lattice
        displace_atoms upper move 0.0 0.002 0.0 units lattice
        min_style ${style}
        min_style cg
        minimize ${etol} ${ftol} ${maxiter} ${maxeval}
        minimize 1e-12 ${ftol} ${maxiter} ${maxeval}
        minimize 1e-12 1e-08 ${maxiter} ${maxeval}
        minimize 1e-12 1e-08 10000 ${maxeval}
        minimize 1e-12 1e-08 10000 20000
WARNING: Resetting reneighboring criteria during minimization (../min.cpp:168)
Memory usage per processor = 3.35952 Mbytes
Step Temp PotEng Lx Ly Lz 
      12            0   -120.96479    1.0000002    34.689522    1.0000002 
      13            0   -120.96479    1.0000002    34.689522    1.0000002 
Loop time of 5.09938e-05 on 1 procs for 1 steps with 41 atoms

Minimization stats:
  Stopping criterion = linesearch alpha is zero
  Energy initial, next-to-last, final = 
        -120.964791927     -120.964791927     -120.964791927
  Force two-norm initial, final = 3.11243e-17 3.11243e-17
  Force max component initial, final = 2.58565e-17 2.58565e-17
  Final line search alpha, max atom move = 0.5 1.29283e-17
  Iterations, force evaluations = 1 2

Pair  time (%) = 3.39132e-05 (66.5046)
Neigh time (%) = 0 (0)
Comm  time (%) = 4.30888e-06 (8.44982)
Outpt time (%) = 0 (0)
Other time (%) = 1.27717e-05 (25.0456)

Nlocal:    41 ave 41 max 41 min
Histogram: 1 0 0 0 0 0 0 0 0 0
Nghost:    185 ave 185 max 185 min
Histogram: 1 0 0 0 0 0 0 0 0 0
Neighs:    359 ave 359 max 359 min
Histogram: 1 0 0 0 0 0 0 0 0 0

Total # of neighbors = 359
Ave neighs/atom = 8.7561
Neighbor list builds = 0
Dangerous builds = 0
	# write_dump all atom ${dumpfile}
        next i
jump SELF loop1
        displace_atoms upper move 0.0 ${ystep1} 0.0 units lattice
        displace_atoms upper move 0.0 0.002 0.0 units lattice
        min_style ${style}
        min_style cg
        minimize ${etol} ${ftol} ${maxiter} ${maxeval}
        minimize 1e-12 ${ftol} ${maxiter} ${maxeval}
        minimize 1e-12 1e-08 ${maxiter} ${maxeval}
        minimize 1e-12 1e-08 10000 ${maxeval}
        minimize 1e-12 1e-08 10000 20000
WARNING: Resetting reneighboring criteria during minimization (../min.cpp:168)
Memory usage per processor = 3.35952 Mbytes
Step Temp PotEng Lx Ly Lz 
      13            0   -120.95913    1.0000002    34.692986    1.0000002 
      14            0   -120.95913    1.0000002    34.692986    1.0000002 
Loop time of 3.80811e-05 on 1 procs for 1 steps with 41 atoms

Minimization stats:
  Stopping criterion = linesearch alpha is zero
  Energy initial, next-to-last, final = 
        -120.959127939     -120.959127939     -120.959127939
  Force two-norm initial, final = 3.68915e-17 3.68915e-17
  Force max component initial, final = 2.63139e-17 2.63139e-17
  Final line search alpha, max atom move = 0.5 1.3157e-17
  Iterations, force evaluations = 1 2

Pair  time (%) = 2.29969e-05 (60.3893)
Neigh time (%) = 0 (0)
Comm  time (%) = 2.96673e-06 (7.79056)
Outpt time (%) = 0 (0)
Other time (%) = 1.21174e-05 (31.8201)

Nlocal:    41 ave 41 max 41 min
Histogram: 1 0 0 0 0 0 0 0 0 0
Nghost:    185 ave 185 max 185 min
Histogram: 1 0 0 0 0 0 0 0 0 0
Neighs:    359 ave 359 max 359 min
Histogram: 1 0 0 0 0 0 0 0 0 0

Total # of neighbors = 359
Ave neighs/atom = 8.7561
Neighbor list builds = 0
Dangerous builds = 0
	# write_dump all atom ${dumpfile}
        next i
jump SELF loop1
        displace_atoms upper move 0.0 ${ystep1} 0.0 units lattice
        displace_atoms upper move 0.0 0.002 0.0 units lattice
        min_style ${style}
        min_style cg
        minimize ${etol} ${ftol} ${maxiter} ${maxeval}
        minimize 1e-12 ${ftol} ${maxiter} ${maxeval}
        minimize 1e-12 1e-08 ${maxiter} ${maxeval}
        minimize 1e-12 1e-08 10000 ${maxeval}
        minimize 1e-12 1e-08 10000 20000
WARNING: Resetting reneighboring criteria during minimization (../min.cpp:168)
Memory usage per processor = 3.35952 Mbytes
Step Temp PotEng Lx Ly Lz 
      14            0   -120.95311    1.0000002     34.69645    1.0000002 
      15            0   -120.95311    1.0000002     34.69645    1.0000002 
Loop time of 3.79028e-05 on 1 procs for 1 steps with 41 atoms

Minimization stats:
  Stopping criterion = linesearch alpha is zero
  Energy initial, next-to-last, final = 
        -120.953107839     -120.953107839     -120.953107839
  Force two-norm initial, final = 3.01181e-17 3.01181e-17
  Force max component initial, final = 2.58565e-17 2.58565e-17
  Final line search alpha, max atom move = 0.5 1.29283e-17
  Iterations, force evaluations = 1 2

Pair  time (%) = 2.28859e-05 (60.3803)
Neigh time (%) = 0 (0)
Comm  time (%) = 4.17512e-06 (11.0153)
Outpt time (%) = 0 (0)
Other time (%) = 1.08419e-05 (28.6044)

Nlocal:    41 ave 41 max 41 min
Histogram: 1 0 0 0 0 0 0 0 0 0
Nghost:    185 ave 185 max 185 min
Histogram: 1 0 0 0 0 0 0 0 0 0
Neighs:    359 ave 359 max 359 min
Histogram: 1 0 0 0 0 0 0 0 0 0

Total # of neighbors = 359
Ave neighs/atom = 8.7561
Neighbor list builds = 0
Dangerous builds = 0
	# write_dump all atom ${dumpfile}
        next i
jump SELF loop1
        displace_atoms upper move 0.0 ${ystep1} 0.0 units lattice
        displace_atoms upper move 0.0 0.002 0.0 units lattice
        min_style ${style}
        min_style cg
        minimize ${etol} ${ftol} ${maxiter} ${maxeval}
        minimize 1e-12 ${ftol} ${maxiter} ${maxeval}
        minimize 1e-12 1e-08 ${maxiter} ${maxeval}
        minimize 1e-12 1e-08 10000 ${maxeval}
        minimize 1e-12 1e-08 10000 20000
WARNING: Resetting reneighboring criteria during minimization (../min.cpp:168)
Memory usage per processor = 3.35952 Mbytes
Step Temp PotEng Lx Ly Lz 
      15            0   -120.94675    1.0000002    34.699914    1.0000002 
      16            0   -120.94675    1.0000002    34.699914    1.0000002 
Loop time of 3.58864e-05 on 1 procs for 1 steps with 41 atoms

Minimization stats:
  Stopping criterion = linesearch alpha is zero
  Energy initial, next-to-last, final = 
        -120.946748121     -120.946748121     -120.946748121
  Force two-norm initial, final = 4.773e-17 4.773e-17
  Force max component initial, final = 3.73999e-17 3.73999e-17
  Final line search alpha, max atom move = 0.5 1.86999e-17
  Iterations, force evaluations = 1 2

Pair  time (%) = 2.40818e-05 (67.1056)
Neigh time (%) = 0 (0)
Comm  time (%) = 4.70597e-06 (13.1135)
Outpt time (%) = 0 (0)
Other time (%) = 7.09866e-06 (19.7809)

Nlocal:    41 ave 41 max 41 min
Histogram: 1 0 0 0 0 0 0 0 0 0
Nghost:    185 ave 185 max 185 min
Histogram: 1 0 0 0 0 0 0 0 0 0
Neighs:    359 ave 359 max 359 min
Histogram: 1 0 0 0 0 0 0 0 0 0

Total # of neighbors = 359
Ave neighs/atom = 8.7561
Neighbor list builds = 0
Dangerous builds = 0
	# write_dump all atom ${dumpfile}
        next i
jump SELF loop1
        displace_atoms upper move 0.0 ${ystep1} 0.0 units lattice
        displace_atoms upper move 0.0 0.002 0.0 units lattice
        min_style ${style}
        min_style cg
        minimize ${etol} ${ftol} ${maxiter} ${maxeval}
        minimize 1e-12 ${ftol} ${maxiter} ${maxeval}
        minimize 1e-12 1e-08 ${maxiter} ${maxeval}
        minimize 1e-12 1e-08 10000 ${maxeval}
        minimize 1e-12 1e-08 10000 20000
WARNING: Resetting reneighboring criteria during minimization (../min.cpp:168)
Memory usage per processor = 3.35952 Mbytes
Step Temp PotEng Lx Ly Lz 
      16            0   -120.94006    1.0000002    34.703378    1.0000002 
      17            0   -120.94006    1.0000002    34.703378    1.0000002 
Loop time of 3.29763e-05 on 1 procs for 1 steps with 41 atoms

Minimization stats:
  Stopping criterion = linesearch alpha is zero
  Energy initial, next-to-last, final = 
         -120.94006125      -120.94006125      -120.94006125
  Force two-norm initial, final = 3.03493e-17 3.03493e-17
  Force max component initial, final = 2.96546e-17 2.96546e-17
  Final line search alpha, max atom move = 0.5 1.48273e-17
  Iterations, force evaluations = 1 2

Pair  time (%) = 2.32585e-05 (70.531)
Neigh time (%) = 0 (0)
Comm  time (%) = 4.01307e-06 (12.1696)
Outpt time (%) = 0 (0)
Other time (%) = 5.7047e-06 (17.2994)

Nlocal:    41 ave 41 max 41 min
Histogram: 1 0 0 0 0 0 0 0 0 0
Nghost:    185 ave 185 max 185 min
Histogram: 1 0 0 0 0 0 0 0 0 0
Neighs:    359 ave 359 max 359 min
Histogram: 1 0 0 0 0 0 0 0 0 0

Total # of neighbors = 359
Ave neighs/atom = 8.7561
Neighbor list builds = 0
Dangerous builds = 0
	# write_dump all atom ${dumpfile}
        next i
jump SELF loop1
        displace_atoms upper move 0.0 ${ystep1} 0.0 units lattice
        displace_atoms upper move 0.0 0.002 0.0 units lattice
        min_style ${style}
        min_style cg
        minimize ${etol} ${ftol} ${maxiter} ${maxeval}
        minimize 1e-12 ${ftol} ${maxiter} ${maxeval}
        minimize 1e-12 1e-08 ${maxiter} ${maxeval}
        minimize 1e-12 1e-08 10000 ${maxeval}
        minimize 1e-12 1e-08 10000 20000
WARNING: Resetting reneighboring criteria during minimization (../min.cpp:168)
Memory usage per processor = 3.35952 Mbytes
Step Temp PotEng Lx Ly Lz 
      17            0   -120.93306    1.0000002    34.706842    1.0000002 
      18            0   -120.93306    1.0000002    34.706842    1.0000002 
Loop time of 3.60524e-05 on 1 procs for 1 steps with 41 atoms

Minimization stats:
  Stopping criterion = linesearch alpha is zero
  Energy initial, next-to-last, final = 
        -120.933062621     -120.933062621     -120.933062621
  Force two-norm initial, final = 3.82307e-17 3.82307e-17
  Force max component initial, final = 2.96546e-17 2.96546e-17
  Final line search alpha, max atom move = 0.5 1.48273e-17
  Iterations, force evaluations = 1 2

Pair  time (%) = 2.48182e-05 (68.8393)
Neigh time (%) = 0 (0)
Comm  time (%) = 4.17884e-06 (11.591)
Outpt time (%) = 0 (0)
Other time (%) = 7.05535e-06 (19.5697)

Nlocal:    41 ave 41 max 41 min
Histogram: 1 0 0 0 0 0 0 0 0 0
Nghost:    185 ave 185 max 185 min
Histogram: 1 0 0 0 0 0 0 0 0 0
Neighs:    359 ave 359 max 359 min
Histogram: 1 0 0 0 0 0 0 0 0 0

Total # of neighbors = 359
Ave neighs/atom = 8.7561
Neighbor list builds = 0
Dangerous builds = 0
	# write_dump all atom ${dumpfile}
        next i
jump SELF loop1
        displace_atoms upper move 0.0 ${ystep1} 0.0 units lattice
        displace_atoms upper move 0.0 0.002 0.0 units lattice
        min_style ${style}
        min_style cg
        minimize ${etol} ${ftol} ${maxiter} ${maxeval}
        minimize 1e-12 ${ftol} ${maxiter} ${maxeval}
        minimize 1e-12 1e-08 ${maxiter} ${maxeval}
        minimize 1e-12 1e-08 10000 ${maxeval}
        minimize 1e-12 1e-08 10000 20000
WARNING: Resetting reneighboring criteria during minimization (../min.cpp:168)
Memory usage per processor = 3.35952 Mbytes
Step Temp PotEng Lx Ly Lz 
      18            0   -120.92578    1.0000002    34.710306    1.0000002 
      19            0   -120.92578    1.0000002    34.710306    1.0000002 
Loop time of 3.5957e-05 on 1 procs for 1 steps with 41 atoms

Minimization stats:
  Stopping criterion = linesearch alpha is zero
  Energy initial, next-to-last, final = 
        -120.925781255     -120.925781255     -120.925781255
  Force two-norm initial, final = 3.06913e-17 3.06913e-17
  Force max component initial, final = 2.96546e-17 2.96546e-17
  Final line search alpha, max atom move = 0.5 1.48273e-17
  Iterations, force evaluations = 1 2

Pair  time (%) = 2.4247e-05 (67.4333)
Neigh time (%) = 0 (0)
Comm  time (%) = 4.03635e-06 (11.2255)
Outpt time (%) = 0 (0)
Other time (%) = 7.67363e-06 (21.3412)

Nlocal:    41 ave 41 max 41 min
Histogram: 1 0 0 0 0 0 0 0 0 0
Nghost:    185 ave 185 max 185 min
Histogram: 1 0 0 0 0 0 0 0 0 0
Neighs:    359 ave 359 max 359 min
Histogram: 1 0 0 0 0 0 0 0 0 0

Total # of neighbors = 359
Ave neighs/atom = 8.7561
Neighbor list builds = 0
Dangerous builds = 0
	# write_dump all atom ${dumpfile}
        next i
jump SELF loop1
        displace_atoms upper move 0.0 ${ystep1} 0.0 units lattice
        displace_atoms upper move 0.0 0.002 0.0 units lattice
        min_style ${style}
        min_style cg
        minimize ${etol} ${ftol} ${maxiter} ${maxeval}
        minimize 1e-12 ${ftol} ${maxiter} ${maxeval}
        minimize 1e-12 1e-08 ${maxiter} ${maxeval}
        minimize 1e-12 1e-08 10000 ${maxeval}
        minimize 1e-12 1e-08 10000 20000
WARNING: Resetting reneighboring criteria during minimization (../min.cpp:168)
Memory usage per processor = 3.35952 Mbytes
Step Temp PotEng Lx Ly Lz 
      19            0   -120.91823    1.0000002     34.71377    1.0000002 
      20            0   -120.91823    1.0000002     34.71377    1.0000002 
Loop time of 3.5014e-05 on 1 procs for 1 steps with 41 atoms

Minimization stats:
  Stopping criterion = linesearch alpha is zero
  Energy initial, next-to-last, final = 
        -120.918226531     -120.918226531     -120.918226531
  Force two-norm initial, final = 3.47144e-17 3.47144e-17
  Force max component initial, final = 2.96546e-17 2.96546e-17
  Final line search alpha, max atom move = 0.5 1.48273e-17
  Iterations, force evaluations = 1 2

Pair  time (%) = 2.37029e-05 (67.6954)
Neigh time (%) = 0 (0)
Comm  time (%) = 4.37861e-06 (12.5053)
Outpt time (%) = 0 (0)
Other time (%) = 6.93253e-06 (19.7993)

Nlocal:    41 ave 41 max 41 min
Histogram: 1 0 0 0 0 0 0 0 0 0
Nghost:    185 ave 185 max 185 min
Histogram: 1 0 0 0 0 0 0 0 0 0
Neighs:    359 ave 359 max 359 min
Histogram: 1 0 0 0 0 0 0 0 0 0

Total # of neighbors = 359
Ave neighs/atom = 8.7561
Neighbor list builds = 0
Dangerous builds = 0
	# write_dump all atom ${dumpfile}
        next i
jump SELF loop1
        displace_atoms upper move 0.0 ${ystep1} 0.0 units lattice
        displace_atoms upper move 0.0 0.002 0.0 units lattice
        min_style ${style}
        min_style cg
        minimize ${etol} ${ftol} ${maxiter} ${maxeval}
        minimize 1e-12 ${ftol} ${maxiter} ${maxeval}
        minimize 1e-12 1e-08 ${maxiter} ${maxeval}
        minimize 1e-12 1e-08 10000 ${maxeval}
        minimize 1e-12 1e-08 10000 20000
WARNING: Resetting reneighboring criteria during minimization (../min.cpp:168)
Memory usage per processor = 3.35952 Mbytes
Step Temp PotEng Lx Ly Lz 
      20            0    -120.9104    1.0000002    34.717234    1.0000002 
      21            0    -120.9104    1.0000002    34.717234    1.0000002 
Loop time of 5.64614e-08 on 1 procs for 1 steps with 41 atoms

Minimization stats:
  Stopping criterion = linesearch alpha is zero
  Energy initial, next-to-last, final = 
         -120.91040232      -120.91040232      -120.91040232
  Force two-norm initial, final = 3.0195e-17 3.0195e-17
  Force max component initial, final = 2.96546e-17 2.96546e-17
  Final line search alpha, max atom move = 0.5 1.48273e-17
  Iterations, force evaluations = 1 2

Pair  time (%) = 1.69384e-07 (300)
Neigh time (%) = 0 (0)
Comm  time (%) = 3.38769e-07 (600)
Outpt time (%) = 0 (0)
Other time (%) = -4.51691e-07 (-800)

Nlocal:    41 ave 41 max 41 min
Histogram: 1 0 0 0 0 0 0 0 0 0
Nghost:    185 ave 185 max 185 min
Histogram: 1 0 0 0 0 0 0 0 0 0
Neighs:    359 ave 359 max 359 min
Histogram: 1 0 0 0 0 0 0 0 0 0

Total # of neighbors = 359
Ave neighs/atom = 8.7561
Neighbor list builds = 0
Dangerous builds = 0
	# write_dump all atom ${dumpfile}
        next i
jump SELF loop1
        displace_atoms upper move 0.0 ${ystep1} 0.0 units lattice
        displace_atoms upper move 0.0 0.002 0.0 units lattice
        min_style ${style}
        min_style cg
        minimize ${etol} ${ftol} ${maxiter} ${maxeval}
        minimize 1e-12 ${ftol} ${maxiter} ${maxeval}
        minimize 1e-12 1e-08 ${maxiter} ${maxeval}
        minimize 1e-12 1e-08 10000 ${maxeval}
        minimize 1e-12 1e-08 10000 20000
WARNING: Resetting reneighboring criteria during minimization (../min.cpp:168)
Memory usage per processor = 3.35952 Mbytes
Step Temp PotEng Lx Ly Lz 
      21            0   -120.90231    1.0000002    34.720699    1.0000002 
      22            0   -120.90231    1.0000002    34.720699    1.0000002 
Loop time of 0.000237977 on 1 procs for 1 steps with 41 atoms

Minimization stats:
  Stopping criterion = linesearch alpha is zero
  Energy initial, next-to-last, final = 
        -120.902312087     -120.902312087     -120.902312087
  Force two-norm initial, final = 3.068e-17 3.068e-17
  Force max component initial, final = 2.96546e-17 2.96546e-17
  Final line search alpha, max atom move = 0.5 1.48273e-17
  Iterations, force evaluations = 1 2

Pair  time (%) = 5.89376e-05 (24.7661)
Neigh time (%) = 0 (0)
Comm  time (%) = 7.50482e-05 (31.5359)
Outpt time (%) = 0 (0)
Other time (%) = 0.000103991 (43.6981)

Nlocal:    41 ave 41 max 41 min
Histogram: 1 0 0 0 0 0 0 0 0 0
Nghost:    185 ave 185 max 185 min
Histogram: 1 0 0 0 0 0 0 0 0 0
Neighs:    359 ave 359 max 359 min
Histogram: 1 0 0 0 0 0 0 0 0 0

Total # of neighbors = 359
Ave neighs/atom = 8.7561
Neighbor list builds = 0
Dangerous builds = 0
	# write_dump all atom ${dumpfile}
        next i
jump SELF loop1
        displace_atoms upper move 0.0 ${ystep1} 0.0 units lattice
        displace_atoms upper move 0.0 0.002 0.0 units lattice
        min_style ${style}
        min_style cg
        minimize ${etol} ${ftol} ${maxiter} ${maxeval}
        minimize 1e-12 ${ftol} ${maxiter} ${maxeval}
        minimize 1e-12 1e-08 ${maxiter} ${maxeval}
        minimize 1e-12 1e-08 10000 ${maxeval}
        minimize 1e-12 1e-08 10000 20000
WARNING: Resetting reneighboring criteria during minimization (../min.cpp:168)
Memory usage per processor = 3.35952 Mbytes
Step Temp PotEng Lx Ly Lz 
      22            0   -120.89396    1.0000002    34.724163    1.0000002 
      23            0   -120.89396    1.0000002    34.724163    1.0000002 
Loop time of 0.000120986 on 1 procs for 1 steps with 41 atoms

Minimization stats:
  Stopping criterion = linesearch alpha is zero
  Energy initial, next-to-last, final = 
        -120.893959297     -120.893959297     -120.893959297
  Force two-norm initial, final = 3.16478e-17 3.16478e-17
  Force max component initial, final = 2.96546e-17 2.96546e-17
  Final line search alpha, max atom move = 0.5 1.48273e-17
  Iterations, force evaluations = 1 2

Pair  time (%) = 5.97565e-05 (49.3911)
Neigh time (%) = 0 (0)
Comm  time (%) = 1.89819e-05 (15.6893)
Outpt time (%) = 0 (0)
Other time (%) = 4.22481e-05 (34.9197)

Nlocal:    41 ave 41 max 41 min
Histogram: 1 0 0 0 0 0 0 0 0 0
Nghost:    185 ave 185 max 185 min
Histogram: 1 0 0 0 0 0 0 0 0 0
Neighs:    359 ave 359 max 359 min
Histogram: 1 0 0 0 0 0 0 0 0 0

Total # of neighbors = 359
Ave neighs/atom = 8.7561
Neighbor list builds = 0
Dangerous builds = 0
	# write_dump all atom ${dumpfile}
        next i
jump SELF loop1
        displace_atoms upper move 0.0 ${ystep1} 0.0 units lattice
        displace_atoms upper move 0.0 0.002 0.0 units lattice
        min_style ${style}
        min_style cg
        minimize ${etol} ${ftol} ${maxiter} ${maxeval}
        minimize 1e-12 ${ftol} ${maxiter} ${maxeval}
        minimize 1e-12 1e-08 ${maxiter} ${maxeval}
        minimize 1e-12 1e-08 10000 ${maxeval}
        minimize 1e-12 1e-08 10000 20000
WARNING: Resetting reneighboring criteria during minimization (../min.cpp:168)
Memory usage per processor = 3.35952 Mbytes
Step Temp PotEng Lx Ly Lz 
      23            0   -120.88535    1.0000002    34.727627    1.0000002 
      24            0   -120.88535    1.0000002    34.727627    1.0000002 
Loop time of 3.7033e-05 on 1 procs for 1 steps with 41 atoms

Minimization stats:
  Stopping criterion = linesearch alpha is zero
  Energy initial, next-to-last, final = 
        -120.885347491     -120.885347491     -120.885347491
  Force two-norm initial, final = 3.36943e-17 3.36943e-17
  Force max component initial, final = 2.96546e-17 2.96546e-17
  Final line search alpha, max atom move = 0.5 1.48273e-17
  Iterations, force evaluations = 1 2

Pair  time (%) = 2.38988e-05 (64.5338)
Neigh time (%) = 0 (0)
Comm  time (%) = 3.0552e-06 (8.24995)
Outpt time (%) = 0 (0)
Other time (%) = 1.0079e-05 (27.2163)

Nlocal:    41 ave 41 max 41 min
Histogram: 1 0 0 0 0 0 0 0 0 0
Nghost:    185 ave 185 max 185 min
Histogram: 1 0 0 0 0 0 0 0 0 0
Neighs:    359 ave 359 max 359 min
Histogram: 1 0 0 0 0 0 0 0 0 0

Total # of neighbors = 359
Ave neighs/atom = 8.7561
Neighbor list builds = 0
Dangerous builds = 0
	# write_dump all atom ${dumpfile}
        next i
jump SELF loop1
        displace_atoms upper move 0.0 ${ystep1} 0.0 units lattice
        displace_atoms upper move 0.0 0.002 0.0 units lattice
        min_style ${style}
        min_style cg
        minimize ${etol} ${ftol} ${maxiter} ${maxeval}
        minimize 1e-12 ${ftol} ${maxiter} ${maxeval}
        minimize 1e-12 1e-08 ${maxiter} ${maxeval}
        minimize 1e-12 1e-08 10000 ${maxeval}
        minimize 1e-12 1e-08 10000 20000
WARNING: Resetting reneighboring criteria during minimization (../min.cpp:168)
Memory usage per processor = 3.35952 Mbytes
Step Temp PotEng Lx Ly Lz 
      24            0   -120.87648    1.0000002    34.731091    1.0000002 
      25            0   -120.87648    1.0000002    34.731091    1.0000002 
Loop time of 3.79418e-05 on 1 procs for 1 steps with 41 atoms

Minimization stats:
  Stopping criterion = linesearch alpha is zero
  Energy initial, next-to-last, final = 
        -120.876480225     -120.876480225     -120.876480225
  Force two-norm initial, final = 3.00541e-17 3.00541e-17
  Force max component initial, final = 2.96546e-17 2.96546e-17
  Final line search alpha, max atom move = 0.5 1.48273e-17
  Iterations, force evaluations = 1 2

Pair  time (%) = 2.30559e-05 (60.7665)
Neigh time (%) = 0 (0)
Comm  time (%) = 4.08478e-06 (10.7659)
Outpt time (%) = 0 (0)
Other time (%) = 1.08011e-05 (28.4676)

Nlocal:    41 ave 41 max 41 min
Histogram: 1 0 0 0 0 0 0 0 0 0
Nghost:    185 ave 185 max 185 min
Histogram: 1 0 0 0 0 0 0 0 0 0
Neighs:    359 ave 359 max 359 min
Histogram: 1 0 0 0 0 0 0 0 0 0

Total # of neighbors = 359
Ave neighs/atom = 8.7561
Neighbor list builds = 0
Dangerous builds = 0
	# write_dump all atom ${dumpfile}
        next i
jump SELF loop1
        displace_atoms upper move 0.0 ${ystep1} 0.0 units lattice
        displace_atoms upper move 0.0 0.002 0.0 units lattice
        min_style ${style}
        min_style cg
        minimize ${etol} ${ftol} ${maxiter} ${maxeval}
        minimize 1e-12 ${ftol} ${maxiter} ${maxeval}
        minimize 1e-12 1e-08 ${maxiter} ${maxeval}
        minimize 1e-12 1e-08 10000 ${maxeval}
        minimize 1e-12 1e-08 10000 20000
WARNING: Resetting reneighboring criteria during minimization (../min.cpp:168)
Memory usage per processor = 3.35952 Mbytes
Step Temp PotEng Lx Ly Lz 
      25            0   -120.86736    1.0000002    34.734555    1.0000002 
      26            0   -120.86736    1.0000002    34.734555    1.0000002 
Loop time of 3.79082e-05 on 1 procs for 1 steps with 41 atoms

Minimization stats:
  Stopping criterion = linesearch alpha is zero
  Energy initial, next-to-last, final = 
        -120.867361132     -120.867361132     -120.867361132
  Force two-norm initial, final = 3.08383e-17 3.08383e-17
  Force max component initial, final = 2.96546e-17 2.96546e-17
  Final line search alpha, max atom move = 0.5 1.48273e-17
  Iterations, force evaluations = 1 2

Pair  time (%) = 2.51008e-05 (66.2146)
Neigh time (%) = 0 (0)
Comm  time (%) = 3.79025e-06 (9.9985)
Outpt time (%) = 0 (0)
Other time (%) = 9.01718e-06 (23.7869)

Nlocal:    41 ave 41 max 41 min
Histogram: 1 0 0 0 0 0 0 0 0 0
Nghost:    185 ave 185 max 185 min
Histogram: 1 0 0 0 0 0 0 0 0 0
Neighs:    359 ave 359 max 359 min
Histogram: 1 0 0 0 0 0 0 0 0 0

Total # of neighbors = 359
Ave neighs/atom = 8.7561
Neighbor list builds = 0
Dangerous builds = 0
	# write_dump all atom ${dumpfile}
        next i
jump SELF loop1
        displace_atoms upper move 0.0 ${ystep1} 0.0 units lattice
        displace_atoms upper move 0.0 0.002 0.0 units lattice
        min_style ${style}
        min_style cg
        minimize ${etol} ${ftol} ${maxiter} ${maxeval}
        minimize 1e-12 ${ftol} ${maxiter} ${maxeval}
        minimize 1e-12 1e-08 ${maxiter} ${maxeval}
        minimize 1e-12 1e-08 10000 ${maxeval}
        minimize 1e-12 1e-08 10000 20000
WARNING: Resetting reneighboring criteria during minimization (../min.cpp:168)
Memory usage per processor = 3.35952 Mbytes
Step Temp PotEng Lx Ly Lz 
      26            0   -120.85799    1.0000002    34.738019    1.0000002 
      27            0   -120.85799    1.0000002    34.738019    1.0000002 
Loop time of 3.7016e-05 on 1 procs for 1 steps with 41 atoms

Minimization stats:
  Stopping criterion = linesearch alpha is zero
  Energy initial, next-to-last, final = 
         -120.85799387      -120.85799387      -120.85799387
  Force two-norm initial, final = 2.97729e-17 2.97729e-17
  Force max component initial, final = 2.96546e-17 2.96546e-17
  Final line search alpha, max atom move = 0.5 1.48273e-17
  Iterations, force evaluations = 1 2

Pair  time (%) = 2.27088e-05 (61.3486)
Neigh time (%) = 0 (0)
Comm  time (%) = 4.34415e-06 (11.7359)
Outpt time (%) = 0 (0)
Other time (%) = 9.96306e-06 (26.9155)

Nlocal:    41 ave 41 max 41 min
Histogram: 1 0 0 0 0 0 0 0 0 0
Nghost:    185 ave 185 max 185 min
Histogram: 1 0 0 0 0 0 0 0 0 0
Neighs:    359 ave 359 max 359 min
Histogram: 1 0 0 0 0 0 0 0 0 0

Total # of neighbors = 359
Ave neighs/atom = 8.7561
Neighbor list builds = 0
Dangerous builds = 0
	# write_dump all atom ${dumpfile}
        next i
jump SELF loop1
        displace_atoms upper move 0.0 ${ystep1} 0.0 units lattice
        displace_atoms upper move 0.0 0.002 0.0 units lattice
        min_style ${style}
        min_style cg
        minimize ${etol} ${ftol} ${maxiter} ${maxeval}
        minimize 1e-12 ${ftol} ${maxiter} ${maxeval}
        minimize 1e-12 1e-08 ${maxiter} ${maxeval}
        minimize 1e-12 1e-08 10000 ${maxeval}
        minimize 1e-12 1e-08 10000 20000
WARNING: Resetting reneighboring criteria during minimization (../min.cpp:168)
Memory usage per processor = 3.35952 Mbytes
Step Temp PotEng Lx Ly Lz 
      27            0   -120.84838    1.0000002    34.741483    1.0000002 
      28            0   -120.84838    1.0000002    34.741483    1.0000002 
Loop time of 5.4978e-05 on 1 procs for 1 steps with 41 atoms

Minimization stats:
  Stopping criterion = linesearch alpha is zero
  Energy initial, next-to-last, final = 
        -120.848382077     -120.848382077     -120.848382077
  Force two-norm initial, final = 4.29486e-17 4.29486e-17
  Force max component initial, final = 3.10675e-17 3.10675e-17
  Final line search alpha, max atom move = 0.5 1.55337e-17
  Iterations, force evaluations = 1 2

Pair  time (%) = 3.67858e-05 (66.9102)
Neigh time (%) = 0 (0)
Comm  time (%) = 6.33881e-06 (11.5297)
Outpt time (%) = 0 (0)
Other time (%) = 1.18533e-05 (21.5601)

Nlocal:    41 ave 41 max 41 min
Histogram: 1 0 0 0 0 0 0 0 0 0
Nghost:    185 ave 185 max 185 min
Histogram: 1 0 0 0 0 0 0 0 0 0
Neighs:    359 ave 359 max 359 min
Histogram: 1 0 0 0 0 0 0 0 0 0

Total # of neighbors = 359
Ave neighs/atom = 8.7561
Neighbor list builds = 0
Dangerous builds = 0
	# write_dump all atom ${dumpfile}
        next i
jump SELF loop1
        displace_atoms upper move 0.0 ${ystep1} 0.0 units lattice
        displace_atoms upper move 0.0 0.002 0.0 units lattice
        min_style ${style}
        min_style cg
        minimize ${etol} ${ftol} ${maxiter} ${maxeval}
        minimize 1e-12 ${ftol} ${maxiter} ${maxeval}
        minimize 1e-12 1e-08 ${maxiter} ${maxeval}
        minimize 1e-12 1e-08 10000 ${maxeval}
        minimize 1e-12 1e-08 10000 20000
WARNING: Resetting reneighboring criteria during minimization (../min.cpp:168)
Memory usage per processor = 3.35952 Mbytes
Step Temp PotEng Lx Ly Lz 
      28            0   -120.83853    1.0000002    34.744947    1.0000002 
      29            0   -120.83853    1.0000002    34.744947    1.0000002 
Loop time of 1.00466e-06 on 1 procs for 1 steps with 41 atoms

Minimization stats:
  Stopping criterion = linesearch alpha is zero
  Energy initial, next-to-last, final = 
        -120.838529504     -120.838529504     -120.838529504
  Force two-norm initial, final = 3.61046e-17 3.61046e-17
  Force max component initial, final = 2.96546e-17 2.96546e-17
  Final line search alpha, max atom move = 0.5 1.48273e-17
  Iterations, force evaluations = 1 2

Pair  time (%) = 6.0536e-08 (6.02549)
Neigh time (%) = 0 (0)
Comm  time (%) = 1.12096e-06 (111.576)
Outpt time (%) = 0 (0)
Other time (%) = -1.76835e-07 (-17.6014)

Nlocal:    41 ave 41 max 41 min
Histogram: 1 0 0 0 0 0 0 0 0 0
Nghost:    185 ave 185 max 185 min
Histogram: 1 0 0 0 0 0 0 0 0 0
Neighs:    359 ave 359 max 359 min
Histogram: 1 0 0 0 0 0 0 0 0 0

Total # of neighbors = 359
Ave neighs/atom = 8.7561
Neighbor list builds = 0
Dangerous builds = 0
	# write_dump all atom ${dumpfile}
        next i
jump SELF loop1
        displace_atoms upper move 0.0 ${ystep1} 0.0 units lattice
        displace_atoms upper move 0.0 0.002 0.0 units lattice
        min_style ${style}
        min_style cg
        minimize ${etol} ${ftol} ${maxiter} ${maxeval}
        minimize 1e-12 ${ftol} ${maxiter} ${maxeval}
        minimize 1e-12 1e-08 ${maxiter} ${maxeval}
        minimize 1e-12 1e-08 10000 ${maxeval}
        minimize 1e-12 1e-08 10000 20000
WARNING: Resetting reneighboring criteria during minimization (../min.cpp:168)
Memory usage per processor = 3.35952 Mbytes
Step Temp PotEng Lx Ly Lz 
      29            0   -120.82844    1.0000002    34.748411    1.0000002 
      30            0   -120.82844    1.0000002    34.748411    1.0000002 
Loop time of 4.00202e-05 on 1 procs for 1 steps with 41 atoms

Minimization stats:
  Stopping criterion = linesearch alpha is zero
  Energy initial, next-to-last, final = 
        -120.828439892     -120.828439892     -120.828439892
  Force two-norm initial, final = 2.96547e-17 2.96547e-17
  Force max component initial, final = 2.96546e-17 2.96546e-17
  Final line search alpha, max atom move = 0.5 1.48273e-17
  Iterations, force evaluations = 1 2

Pair  time (%) = 2.61386e-05 (65.3135)
Neigh time (%) = 0 (0)
Comm  time (%) = 3.91225e-06 (9.77569)
Outpt time (%) = 0 (0)
Other time (%) = 9.96934e-06 (24.9108)

Nlocal:    41 ave 41 max 41 min
Histogram: 1 0 0 0 0 0 0 0 0 0
Nghost:    185 ave 185 max 185 min
Histogram: 1 0 0 0 0 0 0 0 0 0
Neighs:    359 ave 359 max 359 min
Histogram: 1 0 0 0 0 0 0 0 0 0

Total # of neighbors = 359
Ave neighs/atom = 8.7561
Neighbor list builds = 0
Dangerous builds = 0
	# write_dump all atom ${dumpfile}
        next i
jump SELF loop1
        displace_atoms upper move 0.0 ${ystep1} 0.0 units lattice
        displace_atoms upper move 0.0 0.002 0.0 units lattice
        min_style ${style}
        min_style cg
        minimize ${etol} ${ftol} ${maxiter} ${maxeval}
        minimize 1e-12 ${ftol} ${maxiter} ${maxeval}
        minimize 1e-12 1e-08 ${maxiter} ${maxeval}
        minimize 1e-12 1e-08 10000 ${maxeval}
        minimize 1e-12 1e-08 10000 20000
WARNING: Resetting reneighboring criteria during minimization (../min.cpp:168)
Memory usage per processor = 3.35952 Mbytes
Step Temp PotEng Lx Ly Lz 
      30            0   -120.81812    1.0000002    34.751876    1.0000002 
      31            0   -120.81812    1.0000002    34.751876    1.0000002 
Loop time of 3.79551e-05 on 1 procs for 1 steps with 41 atoms

Minimization stats:
  Stopping criterion = linesearch alpha is zero
  Energy initial, next-to-last, final = 
         -120.81811706      -120.81811706      -120.81811706
  Force two-norm initial, final = 4.34537e-17 4.34537e-17
  Force max component initial, final = 3.1762e-17 3.1762e-17
  Final line search alpha, max atom move = 0.5 1.5881e-17
  Iterations, force evaluations = 1 2

Pair  time (%) = 2.40494e-05 (63.3628)
Neigh time (%) = 0 (0)
Comm  time (%) = 3.11784e-06 (8.21453)
Outpt time (%) = 0 (0)
Other time (%) = 1.07879e-05 (28.4227)

Nlocal:    41 ave 41 max 41 min
Histogram: 1 0 0 0 0 0 0 0 0 0
Nghost:    185 ave 185 max 185 min
Histogram: 1 0 0 0 0 0 0 0 0 0
Neighs:    359 ave 359 max 359 min
Histogram: 1 0 0 0 0 0 0 0 0 0

Total # of neighbors = 359
Ave neighs/atom = 8.7561
Neighbor list builds = 0
Dangerous builds = 0
	# write_dump all atom ${dumpfile}
        next i
jump SELF loop1
        displace_atoms upper move 0.0 ${ystep1} 0.0 units lattice
        displace_atoms upper move 0.0 0.002 0.0 units lattice
        min_style ${style}
        min_style cg
        minimize ${etol} ${ftol} ${maxiter} ${maxeval}
        minimize 1e-12 ${ftol} ${maxiter} ${maxeval}
        minimize 1e-12 1e-08 ${maxiter} ${maxeval}
        minimize 1e-12 1e-08 10000 ${maxeval}
        minimize 1e-12 1e-08 10000 20000
WARNING: Resetting reneighboring criteria during minimization (../min.cpp:168)
Memory usage per processor = 3.35952 Mbytes
Step Temp PotEng Lx Ly Lz 
      31            0   -120.80756    1.0000002     34.75534    1.0000002 
      32            0   -120.80756    1.0000002     34.75534    1.0000002 
Loop time of 3.80549e-05 on 1 procs for 1 steps with 41 atoms

Minimization stats:
  Stopping criterion = linesearch alpha is zero
  Energy initial, next-to-last, final = 
        -120.807564762     -120.807564762     -120.807564762
  Force two-norm initial, final = 3.43259e-17 3.43259e-17
  Force max component initial, final = 2.96546e-17 2.96546e-17
  Final line search alpha, max atom move = 0.5 1.48273e-17
  Iterations, force evaluations = 1 2

Pair  time (%) = 2.38718e-05 (62.7299)
Neigh time (%) = 0 (0)
Comm  time (%) = 4.00119e-06 (10.5143)
Outpt time (%) = 0 (0)
Other time (%) = 1.01819e-05 (26.7559)

Nlocal:    41 ave 41 max 41 min
Histogram: 1 0 0 0 0 0 0 0 0 0
Nghost:    185 ave 185 max 185 min
Histogram: 1 0 0 0 0 0 0 0 0 0
Neighs:    359 ave 359 max 359 min
Histogram: 1 0 0 0 0 0 0 0 0 0

Total # of neighbors = 359
Ave neighs/atom = 8.7561
Neighbor list builds = 0
Dangerous builds = 0
	# write_dump all atom ${dumpfile}
        next i
jump SELF loop1
        displace_atoms upper move 0.0 ${ystep1} 0.0 units lattice
        displace_atoms upper move 0.0 0.002 0.0 units lattice
        min_style ${style}
        min_style cg
        minimize ${etol} ${ftol} ${maxiter} ${maxeval}
        minimize 1e-12 ${ftol} ${maxiter} ${maxeval}
        minimize 1e-12 1e-08 ${maxiter} ${maxeval}
        minimize 1e-12 1e-08 10000 ${maxeval}
        minimize 1e-12 1e-08 10000 20000
WARNING: Resetting reneighboring criteria during minimization (../min.cpp:168)
Memory usage per processor = 3.35952 Mbytes
Step Temp PotEng Lx Ly Lz 
      32            0   -120.79679    1.0000002    34.758804    1.0000002 
      33            0   -120.79679    1.0000002    34.758804    1.0000002 
Loop time of 3.70168e-05 on 1 procs for 1 steps with 41 atoms

Minimization stats:
  Stopping criterion = linesearch alpha is zero
  Energy initial, next-to-last, final = 
        -120.796786902     -120.796786902     -120.796786902
  Force two-norm initial, final = 5.0363e-17 5.0363e-17
  Force max component initial, final = 4.07067e-17 4.07067e-17
  Final line search alpha, max atom move = 0.5 2.03534e-17
  Iterations, force evaluations = 1 2

Pair  time (%) = 2.37115e-05 (64.056)
Neigh time (%) = 0 (0)
Comm  time (%) = 4.39584e-06 (11.8753)
Outpt time (%) = 0 (0)
Other time (%) = 8.9095e-06 (24.0688)

Nlocal:    41 ave 41 max 41 min
Histogram: 1 0 0 0 0 0 0 0 0 0
Nghost:    185 ave 185 max 185 min
Histogram: 1 0 0 0 0 0 0 0 0 0
Neighs:    359 ave 359 max 359 min
Histogram: 1 0 0 0 0 0 0 0 0 0

Total # of neighbors = 359
Ave neighs/atom = 8.7561
Neighbor list builds = 0
Dangerous builds = 0
	# write_dump all atom ${dumpfile}
        next i
jump SELF loop1
        displace_atoms upper move 0.0 ${ystep1} 0.0 units lattice
        displace_atoms upper move 0.0 0.002 0.0 units lattice
        min_style ${style}
        min_style cg
        minimize ${etol} ${ftol} ${maxiter} ${maxeval}
        minimize 1e-12 ${ftol} ${maxiter} ${maxeval}
        minimize 1e-12 1e-08 ${maxiter} ${maxeval}
        minimize 1e-12 1e-08 10000 ${maxeval}
        minimize 1e-12 1e-08 10000 20000
WARNING: Resetting reneighboring criteria during minimization (../min.cpp:168)
Memory usage per processor = 3.35952 Mbytes
Step Temp PotEng Lx Ly Lz 
      33            0   -120.78579    1.0000002    34.762268    1.0000002 
      34            0   -120.78579    1.0000002    34.762268    1.0000002 
Loop time of 3.70271e-05 on 1 procs for 1 steps with 41 atoms

Minimization stats:
  Stopping criterion = linesearch alpha is zero
  Energy initial, next-to-last, final = 
        -120.785787302     -120.785787302     -120.785787302
  Force two-norm initial, final = 3.68683e-17 3.68683e-17
  Force max component initial, final = 2.96546e-17 2.96546e-17
  Final line search alpha, max atom move = 0.5 1.48273e-17
  Iterations, force evaluations = 1 2

Pair  time (%) = 2.29736e-05 (62.0455)
Neigh time (%) = 0 (0)
Comm  time (%) = 3.87384e-06 (10.4622)
Outpt time (%) = 0 (0)
Other time (%) = 1.01796e-05 (27.4923)

Nlocal:    41 ave 41 max 41 min
Histogram: 1 0 0 0 0 0 0 0 0 0
Nghost:    185 ave 185 max 185 min
Histogram: 1 0 0 0 0 0 0 0 0 0
Neighs:    359 ave 359 max 359 min
Histogram: 1 0 0 0 0 0 0 0 0 0

Total # of neighbors = 359
Ave neighs/atom = 8.7561
Neighbor list builds = 0
Dangerous builds = 0
	# write_dump all atom ${dumpfile}
        next i
jump SELF loop1
        displace_atoms upper move 0.0 ${ystep1} 0.0 units lattice
        displace_atoms upper move 0.0 0.002 0.0 units lattice
        min_style ${style}
        min_style cg
        minimize ${etol} ${ftol} ${maxiter} ${maxeval}
        minimize 1e-12 ${ftol} ${maxiter} ${maxeval}
        minimize 1e-12 1e-08 ${maxiter} ${maxeval}
        minimize 1e-12 1e-08 10000 ${maxeval}
        minimize 1e-12 1e-08 10000 20000
WARNING: Resetting reneighboring criteria during minimization (../min.cpp:168)
Memory usage per processor = 3.35952 Mbytes
Step Temp PotEng Lx Ly Lz 
      34            0   -120.77457    1.0000002    34.765732    1.0000002 
      35            0   -120.77457    1.0000002    34.765732    1.0000002 
Loop time of 3.59711e-05 on 1 procs for 1 steps with 41 atoms

Minimization stats:
  Stopping criterion = linesearch alpha is zero
  Energy initial, next-to-last, final = 
        -120.774569889     -120.774569889     -120.774569889
  Force two-norm initial, final = 5.04589e-17 5.04589e-17
  Force max component initial, final = 4.08253e-17 4.08253e-17
  Final line search alpha, max atom move = 0.5 2.04126e-17
  Iterations, force evaluations = 1 2

Pair  time (%) = 2.52894e-05 (70.3048)
Neigh time (%) = 0 (0)
Comm  time (%) = 4.16744e-06 (11.5855)
Outpt time (%) = 0 (0)
Other time (%) = 6.51425e-06 (18.1097)

Nlocal:    41 ave 41 max 41 min
Histogram: 1 0 0 0 0 0 0 0 0 0
Nghost:    185 ave 185 max 185 min
Histogram: 1 0 0 0 0 0 0 0 0 0
Neighs:    359 ave 359 max 359 min
Histogram: 1 0 0 0 0 0 0 0 0 0

Total # of neighbors = 359
Ave neighs/atom = 8.7561
Neighbor list builds = 0
Dangerous builds = 0
	# write_dump all atom ${dumpfile}
        next i
jump SELF loop1
        displace_atoms upper move 0.0 ${ystep1} 0.0 units lattice
        displace_atoms upper move 0.0 0.002 0.0 units lattice
        min_style ${style}
        min_style cg
        minimize ${etol} ${ftol} ${maxiter} ${maxeval}
        minimize 1e-12 ${ftol} ${maxiter} ${maxeval}
        minimize 1e-12 1e-08 ${maxiter} ${maxeval}
        minimize 1e-12 1e-08 10000 ${maxeval}
        minimize 1e-12 1e-08 10000 20000
WARNING: Resetting reneighboring criteria during minimization (../min.cpp:168)
Memory usage per processor = 3.35952 Mbytes
Step Temp PotEng Lx Ly Lz 
      35            0   -120.76314    1.0000002    34.769196    1.0000002 
      36            0   -120.76314    1.0000002    34.769196    1.0000002 
Loop time of 3.5114e-05 on 1 procs for 1 steps with 41 atoms

Minimization stats:
  Stopping criterion = linesearch alpha is zero
  Energy initial, next-to-last, final = 
        -120.763138555     -120.763138555     -120.763138555
  Force two-norm initial, final = 4.73909e-17 4.73909e-17
  Force max component initial, final = 3.69662e-17 3.69662e-17
  Final line search alpha, max atom move = 0.5 1.84831e-17
  Iterations, force evaluations = 1 2

Pair  time (%) = 2.40029e-05 (68.3569)
Neigh time (%) = 0 (0)
Comm  time (%) = 3.54811e-06 (10.1045)
Outpt time (%) = 0 (0)
Other time (%) = 7.56304e-06 (21.5385)

Nlocal:    41 ave 41 max 41 min
Histogram: 1 0 0 0 0 0 0 0 0 0
Nghost:    185 ave 185 max 185 min
Histogram: 1 0 0 0 0 0 0 0 0 0
Neighs:    359 ave 359 max 359 min
Histogram: 1 0 0 0 0 0 0 0 0 0

Total # of neighbors = 359
Ave neighs/atom = 8.7561
Neighbor list builds = 0
Dangerous builds = 0
	# write_dump all atom ${dumpfile}
        next i
jump SELF loop1
        displace_atoms upper move 0.0 ${ystep1} 0.0 units lattice
        displace_atoms upper move 0.0 0.002 0.0 units lattice
        min_style ${style}
        min_style cg
        minimize ${etol} ${ftol} ${maxiter} ${maxeval}
        minimize 1e-12 ${ftol} ${maxiter} ${maxeval}
        minimize 1e-12 1e-08 ${maxiter} ${maxeval}
        minimize 1e-12 1e-08 10000 ${maxeval}
        minimize 1e-12 1e-08 10000 20000
WARNING: Resetting reneighboring criteria during minimization (../min.cpp:168)
Memory usage per processor = 3.35952 Mbytes
Step Temp PotEng Lx Ly Lz 
      36            0    -120.7515    1.0000002     34.77266    1.0000002 
      37            0    -120.7515    1.0000002     34.77266    1.0000002 
Loop time of 3.49438e-05 on 1 procs for 1 steps with 41 atoms

Minimization stats:
  Stopping criterion = linesearch alpha is zero
  Energy initial, next-to-last, final = 
        -120.751497299     -120.751497299     -120.751497299
  Force two-norm initial, final = 3.22518e-17 3.22518e-17
  Force max component initial, final = 2.96546e-17 2.96546e-17
  Final line search alpha, max atom move = 0.5 1.48273e-17
  Iterations, force evaluations = 1 2

Pair  time (%) = 2.32075e-05 (66.4138)
Neigh time (%) = 0 (0)
Comm  time (%) = 3.91109e-06 (11.1925)
Outpt time (%) = 0 (0)
Other time (%) = 7.82521e-06 (22.3937)

Nlocal:    41 ave 41 max 41 min
Histogram: 1 0 0 0 0 0 0 0 0 0
Nghost:    185 ave 185 max 185 min
Histogram: 1 0 0 0 0 0 0 0 0 0
Neighs:    359 ave 359 max 359 min
Histogram: 1 0 0 0 0 0 0 0 0 0

Total # of neighbors = 359
Ave neighs/atom = 8.7561
Neighbor list builds = 0
Dangerous builds = 0
	# write_dump all atom ${dumpfile}
        next i
jump SELF loop1
        displace_atoms upper move 0.0 ${ystep1} 0.0 units lattice
        displace_atoms upper move 0.0 0.002 0.0 units lattice
        min_style ${style}
        min_style cg
        minimize ${etol} ${ftol} ${maxiter} ${maxeval}
        minimize 1e-12 ${ftol} ${maxiter} ${maxeval}
        minimize 1e-12 1e-08 ${maxiter} ${maxeval}
        minimize 1e-12 1e-08 10000 ${maxeval}
        minimize 1e-12 1e-08 10000 20000
WARNING: Resetting reneighboring criteria during minimization (../min.cpp:168)
Memory usage per processor = 3.35952 Mbytes
Step Temp PotEng Lx Ly Lz 
      37            0   -120.73965    1.0000002    34.776124    1.0000002 
      38            0   -120.73965    1.0000002    34.776124    1.0000002 
Loop time of 0.000453929 on 1 procs for 1 steps with 41 atoms

Minimization stats:
  Stopping criterion = linesearch alpha is zero
  Energy initial, next-to-last, final = 
        -120.739650027     -120.739650027     -120.739650027
  Force two-norm initial, final = 5.90944e-17 5.90944e-17
  Force max component initial, final = 5.11151e-17 5.11151e-17
  Final line search alpha, max atom move = 0.5 2.55575e-17
  Iterations, force evaluations = 1 2

Pair  time (%) = 2.70011e-05 (5.94832)
Neigh time (%) = 0 (0)
Comm  time (%) = 4.77921e-05 (10.5285)
Outpt time (%) = 0 (0)
Other time (%) = 0.000379135 (83.5231)

Nlocal:    41 ave 41 max 41 min
Histogram: 1 0 0 0 0 0 0 0 0 0
Nghost:    185 ave 185 max 185 min
Histogram: 1 0 0 0 0 0 0 0 0 0
Neighs:    359 ave 359 max 359 min
Histogram: 1 0 0 0 0 0 0 0 0 0

Total # of neighbors = 359
Ave neighs/atom = 8.7561
Neighbor list builds = 0
Dangerous builds = 0
	# write_dump all atom ${dumpfile}
        next i
jump SELF loop1
        displace_atoms upper move 0.0 ${ystep1} 0.0 units lattice
        displace_atoms upper move 0.0 0.002 0.0 units lattice
        min_style ${style}
        min_style cg
        minimize ${etol} ${ftol} ${maxiter} ${maxeval}
        minimize 1e-12 ${ftol} ${maxiter} ${maxeval}
        minimize 1e-12 1e-08 ${maxiter} ${maxeval}
        minimize 1e-12 1e-08 10000 ${maxeval}
        minimize 1e-12 1e-08 10000 20000
WARNING: Resetting reneighboring criteria during minimization (../min.cpp:168)
Memory usage per processor = 3.35952 Mbytes
Step Temp PotEng Lx Ly Lz 
      38            0    -120.7276    1.0000002    34.779588    1.0000002 
      39            0    -120.7276    1.0000002    34.779588    1.0000002 
Loop time of 3.50706e-05 on 1 procs for 1 steps with 41 atoms

Minimization stats:
  Stopping criterion = linesearch alpha is zero
  Energy initial, next-to-last, final = 
        -120.727600782     -120.727600782     -120.727600782
  Force two-norm initial, final = 5.19169e-17 5.19169e-17
  Force max component initial, final = 4.26142e-17 4.26142e-17
  Final line search alpha, max atom move = 0.5 2.13071e-17
  Iterations, force evaluations = 1 2

Pair  time (%) = 2.28727e-05 (65.2191)
Neigh time (%) = 0 (0)
Comm  time (%) = 3.95661e-06 (11.2818)
Outpt time (%) = 0 (0)
Other time (%) = 8.24127e-06 (23.4991)

Nlocal:    41 ave 41 max 41 min
Histogram: 1 0 0 0 0 0 0 0 0 0
Nghost:    185 ave 185 max 185 min
Histogram: 1 0 0 0 0 0 0 0 0 0
Neighs:    359 ave 359 max 359 min
Histogram: 1 0 0 0 0 0 0 0 0 0

Total # of neighbors = 359
Ave neighs/atom = 8.7561
Neighbor list builds = 0
Dangerous builds = 0
	# write_dump all atom ${dumpfile}
        next i
jump SELF loop1
        displace_atoms upper move 0.0 ${ystep1} 0.0 units lattice
        displace_atoms upper move 0.0 0.002 0.0 units lattice
        min_style ${style}
        min_style cg
        minimize ${etol} ${ftol} ${maxiter} ${maxeval}
        minimize 1e-12 ${ftol} ${maxiter} ${maxeval}
        minimize 1e-12 1e-08 ${maxiter} ${maxeval}
        minimize 1e-12 1e-08 10000 ${maxeval}
        minimize 1e-12 1e-08 10000 20000
WARNING: Resetting reneighboring criteria during minimization (../min.cpp:168)
Memory usage per processor = 3.35952 Mbytes
Step Temp PotEng Lx Ly Lz 
      39            0   -120.71535    1.0000002    34.783052    1.0000002 
      40            0   -120.71535    1.0000002    34.783052    1.0000002 
Loop time of 6.10889e-05 on 1 procs for 1 steps with 41 atoms

Minimization stats:
  Stopping criterion = linesearch alpha is zero
  Energy initial, next-to-last, final = 
        -120.715352752     -120.715352752     -120.715352752
  Force two-norm initial, final = 5.94699e-17 5.94699e-17
  Force max component initial, final = 5.15487e-17 5.15487e-17
  Final line search alpha, max atom move = 0.5 2.57744e-17
  Iterations, force evaluations = 1 2

Pair  time (%) = 3.11718e-05 (51.027)
Neigh time (%) = 0 (0)
Comm  time (%) = 6.30983e-06 (10.3289)
Outpt time (%) = 0 (0)
Other time (%) = 2.36073e-05 (38.6441)

Nlocal:    41 ave 41 max 41 min
Histogram: 1 0 0 0 0 0 0 0 0 0
Nghost:    185 ave 185 max 185 min
Histogram: 1 0 0 0 0 0 0 0 0 0
Neighs:    359 ave 359 max 359 min
Histogram: 1 0 0 0 0 0 0 0 0 0

Total # of neighbors = 359
Ave neighs/atom = 8.7561
Neighbor list builds = 0
Dangerous builds = 0
	# write_dump all atom ${dumpfile}
        next i
jump SELF loop1
        displace_atoms upper move 0.0 ${ystep1} 0.0 units lattice
        displace_atoms upper move 0.0 0.002 0.0 units lattice
        min_style ${style}
        min_style cg
        minimize ${etol} ${ftol} ${maxiter} ${maxeval}
        minimize 1e-12 ${ftol} ${maxiter} ${maxeval}
        minimize 1e-12 1e-08 ${maxiter} ${maxeval}
        minimize 1e-12 1e-08 10000 ${maxeval}
        minimize 1e-12 1e-08 10000 20000
WARNING: Resetting reneighboring criteria during minimization (../min.cpp:168)
Memory usage per processor = 3.35952 Mbytes
Step Temp PotEng Lx Ly Lz 
      40            0   -120.70291    1.0000002    34.786517    1.0000002 
      41            0   -120.70291    1.0000002    34.786517    1.0000002 
Loop time of 3.98837e-05 on 1 procs for 1 steps with 41 atoms

Minimization stats:
  Stopping criterion = linesearch alpha is zero
  Energy initial, next-to-last, final = 
        -120.702910455     -120.702910455     -120.702910455
  Force two-norm initial, final = 3.05561e-17 3.05561e-17
  Force max component initial, final = 2.96546e-17 2.96546e-17
  Final line search alpha, max atom move = 0.5 1.48273e-17
  Iterations, force evaluations = 1 2

Pair  time (%) = 2.62588e-05 (65.8384)
Neigh time (%) = 0 (0)
Comm  time (%) = 5.10598e-06 (12.8022)
Outpt time (%) = 0 (0)
Other time (%) = 8.51892e-06 (21.3594)

Nlocal:    41 ave 41 max 41 min
Histogram: 1 0 0 0 0 0 0 0 0 0
Nghost:    185 ave 185 max 185 min
Histogram: 1 0 0 0 0 0 0 0 0 0
Neighs:    359 ave 359 max 359 min
Histogram: 1 0 0 0 0 0 0 0 0 0

Total # of neighbors = 359
Ave neighs/atom = 8.7561
Neighbor list builds = 0
Dangerous builds = 0
	# write_dump all atom ${dumpfile}
        next i
jump SELF loop1
        displace_atoms upper move 0.0 ${ystep1} 0.0 units lattice
        displace_atoms upper move 0.0 0.002 0.0 units lattice
        min_style ${style}
        min_style cg
        minimize ${etol} ${ftol} ${maxiter} ${maxeval}
        minimize 1e-12 ${ftol} ${maxiter} ${maxeval}
        minimize 1e-12 1e-08 ${maxiter} ${maxeval}
        minimize 1e-12 1e-08 10000 ${maxeval}
        minimize 1e-12 1e-08 10000 20000
WARNING: Resetting reneighboring criteria during minimization (../min.cpp:168)
Memory usage per processor = 3.35952 Mbytes
Step Temp PotEng Lx Ly Lz 
      41            0   -120.69028    1.0000002    34.789981    1.0000002 
      42            0   -120.69028    1.0000002    34.789981    1.0000002 
Loop time of 4.00321e-05 on 1 procs for 1 steps with 41 atoms

Minimization stats:
  Stopping criterion = linesearch alpha is zero
  Energy initial, next-to-last, final = 
        -120.690278246     -120.690278246     -120.690278246
  Force two-norm initial, final = 3.57375e-17 3.57375e-17
  Force max component initial, final = 2.96546e-17 2.96546e-17
  Final line search alpha, max atom move = 0.5 1.48273e-17
  Iterations, force evaluations = 1 2

Pair  time (%) = 2.59889e-05 (64.9202)
Neigh time (%) = 0 (0)
Comm  time (%) = 3.85125e-06 (9.62041)
Outpt time (%) = 0 (0)
Other time (%) = 1.01919e-05 (25.4594)

Nlocal:    41 ave 41 max 41 min
Histogram: 1 0 0 0 0 0 0 0 0 0
Nghost:    185 ave 185 max 185 min
Histogram: 1 0 0 0 0 0 0 0 0 0
Neighs:    359 ave 359 max 359 min
Histogram: 1 0 0 0 0 0 0 0 0 0

Total # of neighbors = 359
Ave neighs/atom = 8.7561
Neighbor list builds = 0
Dangerous builds = 0
	# write_dump all atom ${dumpfile}
        next i
jump SELF loop1
        displace_atoms upper move 0.0 ${ystep1} 0.0 units lattice
        displace_atoms upper move 0.0 0.002 0.0 units lattice
        min_style ${style}
        min_style cg
        minimize ${etol} ${ftol} ${maxiter} ${maxeval}
        minimize 1e-12 ${ftol} ${maxiter} ${maxeval}
        minimize 1e-12 1e-08 ${maxiter} ${maxeval}
        minimize 1e-12 1e-08 10000 ${maxeval}
        minimize 1e-12 1e-08 10000 20000
WARNING: Resetting reneighboring criteria during minimization (../min.cpp:168)
Memory usage per processor = 3.35952 Mbytes
Step Temp PotEng Lx Ly Lz 
      42            0   -120.67746    1.0000002    34.793445    1.0000002 
      43            0   -120.67746    1.0000002    34.793445    1.0000002 
Loop time of 5.50855e-05 on 1 procs for 1 steps with 41 atoms

Minimization stats:
  Stopping criterion = linesearch alpha is zero
  Energy initial, next-to-last, final = 
        -120.677460171     -120.677460171     -120.677460171
  Force two-norm initial, final = 3.87142e-17 3.87142e-17
  Force max component initial, final = 2.96546e-17 2.96546e-17
  Final line search alpha, max atom move = 0.5 1.48273e-17
  Iterations, force evaluations = 1 2

Pair  time (%) = 2.61492e-05 (47.4702)
Neigh time (%) = 0 (0)
Comm  time (%) = 3.93344e-06 (7.14061)
Outpt time (%) = 0 (0)
Other time (%) = 2.50029e-05 (45.3892)

Nlocal:    41 ave 41 max 41 min
Histogram: 1 0 0 0 0 0 0 0 0 0
Nghost:    185 ave 185 max 185 min
Histogram: 1 0 0 0 0 0 0 0 0 0
Neighs:    359 ave 359 max 359 min
Histogram: 1 0 0 0 0 0 0 0 0 0

Total # of neighbors = 359
Ave neighs/atom = 8.7561
Neighbor list builds = 0
Dangerous builds = 0
	# write_dump all atom ${dumpfile}
        next i
jump SELF loop1
        displace_atoms upper move 0.0 ${ystep1} 0.0 units lattice
        displace_atoms upper move 0.0 0.002 0.0 units lattice
        min_style ${style}
        min_style cg
        minimize ${etol} ${ftol} ${maxiter} ${maxeval}
        minimize 1e-12 ${ftol} ${maxiter} ${maxeval}
        minimize 1e-12 1e-08 ${maxiter} ${maxeval}
        minimize 1e-12 1e-08 10000 ${maxeval}
        minimize 1e-12 1e-08 10000 20000
WARNING: Resetting reneighboring criteria during minimization (../min.cpp:168)
Memory usage per processor = 3.35952 Mbytes
Step Temp PotEng Lx Ly Lz 
      43            0   -120.66446    1.0000002    34.796909    1.0000002 
      44            0   -120.66446    1.0000002    34.796909    1.0000002 
Loop time of 4.20259e-05 on 1 procs for 1 steps with 41 atoms

Minimization stats:
  Stopping criterion = linesearch alpha is zero
  Energy initial, next-to-last, final = 
        -120.664459921     -120.664459921     -120.664459921
  Force two-norm initial, final = 4.93174e-17 4.93174e-17
  Force max component initial, final = 3.94057e-17 3.94057e-17
  Final line search alpha, max atom move = 0.5 1.97028e-17
  Iterations, force evaluations = 1 2

Pair  time (%) = 2.59705e-05 (61.7964)
Neigh time (%) = 0 (0)
Comm  time (%) = 5.00644e-06 (11.9127)
Outpt time (%) = 0 (0)
Other time (%) = 1.1049e-05 (26.2909)

Nlocal:    41 ave 41 max 41 min
Histogram: 1 0 0 0 0 0 0 0 0 0
Nghost:    185 ave 185 max 185 min
Histogram: 1 0 0 0 0 0 0 0 0 0
Neighs:    359 ave 359 max 359 min
Histogram: 1 0 0 0 0 0 0 0 0 0

Total # of neighbors = 359
Ave neighs/atom = 8.7561
Neighbor list builds = 0
Dangerous builds = 0
	# write_dump all atom ${dumpfile}
        next i
jump SELF loop1
        displace_atoms upper move 0.0 ${ystep1} 0.0 units lattice
        displace_atoms upper move 0.0 0.002 0.0 units lattice
        min_style ${style}
        min_style cg
        minimize ${etol} ${ftol} ${maxiter} ${maxeval}
        minimize 1e-12 ${ftol} ${maxiter} ${maxeval}
        minimize 1e-12 1e-08 ${maxiter} ${maxeval}
        minimize 1e-12 1e-08 10000 ${maxeval}
        minimize 1e-12 1e-08 10000 20000
WARNING: Resetting reneighboring criteria during minimization (../min.cpp:168)
Memory usage per processor = 3.35952 Mbytes
Step Temp PotEng Lx Ly Lz 
      44            0   -120.65128    1.0000002    34.800373    1.0000002 
      45            0   -120.65128    1.0000002    34.800373    1.0000002 
Loop time of 0.000128093 on 1 procs for 1 steps with 41 atoms

Minimization stats:
  Stopping criterion = linesearch alpha is zero
  Energy initial, next-to-last, final = 
        -120.651281178     -120.651281178     -120.651281178
  Force two-norm initial, final = 3.01648e-17 3.01648e-17
  Force max component initial, final = 2.96546e-17 2.96546e-17
  Final line search alpha, max atom move = 0.5 1.48273e-17
  Iterations, force evaluations = 1 2

Pair  time (%) = 3.80074e-05 (29.6717)
Neigh time (%) = 0 (0)
Comm  time (%) = 4.72891e-06 (3.69178)
Outpt time (%) = 0 (0)
Other time (%) = 8.53566e-05 (66.6365)

Nlocal:    41 ave 41 max 41 min
Histogram: 1 0 0 0 0 0 0 0 0 0
Nghost:    185 ave 185 max 185 min
Histogram: 1 0 0 0 0 0 0 0 0 0
Neighs:    359 ave 359 max 359 min
Histogram: 1 0 0 0 0 0 0 0 0 0

Total # of neighbors = 359
Ave neighs/atom = 8.7561
Neighbor list builds = 0
Dangerous builds = 0
	# write_dump all atom ${dumpfile}
        next i
jump SELF loop1
        displace_atoms upper move 0.0 ${ystep1} 0.0 units lattice
        displace_atoms upper move 0.0 0.002 0.0 units lattice
        min_style ${style}
        min_style cg
        minimize ${etol} ${ftol} ${maxiter} ${maxeval}
        minimize 1e-12 ${ftol} ${maxiter} ${maxeval}
        minimize 1e-12 1e-08 ${maxiter} ${maxeval}
        minimize 1e-12 1e-08 10000 ${maxeval}
[...]
        min_style cg
        minimize ${etol} ${ftol} ${maxiter} ${maxeval}
        minimize 1e-12 ${ftol} ${maxiter} ${maxeval}
        minimize 1e-12 1e-08 ${maxiter} ${maxeval}
        minimize 1e-12 1e-08 10000 ${maxeval}
        minimize 1e-12 1e-08 10000 20000
WARNING: Resetting reneighboring criteria during minimization (../min.cpp:168)
Memory usage per processor = 3.35955 Mbytes
Step Temp PotEng Lx Ly Lz 
     490            0   -118.99996    1.0000002    36.345363    1.0000002 
     491            0   -118.99996    1.0000002    36.345363    1.0000002 
Loop time of 3.69975e-05 on 1 procs for 1 steps with 41 atoms

Minimization stats:
  Stopping criterion = linesearch alpha is zero
  Energy initial, next-to-last, final = 
        -118.999956633     -118.999956633     -118.999956633
  Force two-norm initial, final = 8.15033e-07 8.15033e-07
  Force max component initial, final = 5.36883e-07 5.36883e-07
  Final line search alpha, max atom move = 0.5 2.68442e-07
  Iterations, force evaluations = 1 2

Pair  time (%) = 2.18456e-05 (59.0461)
Neigh time (%) = 0 (0)
Comm  time (%) = 4.09456e-06 (11.0671)
Outpt time (%) = 0 (0)
Other time (%) = 1.10574e-05 (29.8868)

Nlocal:    41 ave 41 max 41 min
Histogram: 1 0 0 0 0 0 0 0 0 0
Nghost:    185 ave 185 max 185 min
Histogram: 1 0 0 0 0 0 0 0 0 0
Neighs:    349 ave 349 max 349 min
Histogram: 1 0 0 0 0 0 0 0 0 0

Total # of neighbors = 349
Ave neighs/atom = 8.5122
Neighbor list builds = 0
Dangerous builds = 0
	# write_dump all atom ${dumpfile}
        next i
jump SELF loop1
        displace_atoms upper move 0.0 ${ystep1} 0.0 units lattice
        displace_atoms upper move 0.0 0.002 0.0 units lattice
        min_style ${style}
        min_style cg
        minimize ${etol} ${ftol} ${maxiter} ${maxeval}
        minimize 1e-12 ${ftol} ${maxiter} ${maxeval}
        minimize 1e-12 1e-08 ${maxiter} ${maxeval}
        minimize 1e-12 1e-08 10000 ${maxeval}
        minimize 1e-12 1e-08 10000 20000
WARNING: Resetting reneighboring criteria during minimization (../min.cpp:168)
Memory usage per processor = 3.35955 Mbytes
Step Temp PotEng Lx Ly Lz 
     491            0   -118.99996    1.0000002    36.348827    1.0000002 
     492            0   -118.99996    1.0000002    36.348827    1.0000002 
Loop time of 3.90904e-05 on 1 procs for 1 steps with 41 atoms

Minimization stats:
  Stopping criterion = linesearch alpha is zero
  Energy initial, next-to-last, final = 
        -118.999956633     -118.999956633     -118.999956633
  Force two-norm initial, final = 8.15033e-07 8.15033e-07
  Force max component initial, final = 5.36883e-07 5.36883e-07
  Final line search alpha, max atom move = 0.5 2.68442e-07
  Iterations, force evaluations = 1 2

Pair  time (%) = 2.40712e-05 (61.5783)
Neigh time (%) = 0 (0)
Comm  time (%) = 2.68465e-06 (6.86781)
Outpt time (%) = 0 (0)
Other time (%) = 1.23346e-05 (31.5539)

Nlocal:    41 ave 41 max 41 min
Histogram: 1 0 0 0 0 0 0 0 0 0
Nghost:    185 ave 185 max 185 min
Histogram: 1 0 0 0 0 0 0 0 0 0
Neighs:    349 ave 349 max 349 min
Histogram: 1 0 0 0 0 0 0 0 0 0

Total # of neighbors = 349
Ave neighs/atom = 8.5122
Neighbor list builds = 0
Dangerous builds = 0
	# write_dump all atom ${dumpfile}
        next i
jump SELF loop1
        displace_atoms upper move 0.0 ${ystep1} 0.0 units lattice
        displace_atoms upper move 0.0 0.002 0.0 units lattice
        min_style ${style}
        min_style cg
        minimize ${etol} ${ftol} ${maxiter} ${maxeval}
        minimize 1e-12 ${ftol} ${maxiter} ${maxeval}
        minimize 1e-12 1e-08 ${maxiter} ${maxeval}
        minimize 1e-12 1e-08 10000 ${maxeval}
        minimize 1e-12 1e-08 10000 20000
WARNING: Resetting reneighboring criteria during minimization (../min.cpp:168)
Memory usage per processor = 3.35955 Mbytes
Step Temp PotEng Lx Ly Lz 
     492            0   -118.99996    1.0000002    36.352291    1.0000002 
     493            0   -118.99996    1.0000002    36.352291    1.0000002 
Loop time of 3.69425e-05 on 1 procs for 1 steps with 41 atoms

Minimization stats:
  Stopping criterion = linesearch alpha is zero
  Energy initial, next-to-last, final = 
        -118.999956633     -118.999956633     -118.999956633
  Force two-norm initial, final = 8.15033e-07 8.15033e-07
  Force max component initial, final = 5.36883e-07 5.36883e-07
  Final line search alpha, max atom move = 0.5 2.68442e-07
  Iterations, force evaluations = 1 2

Pair  time (%) = 2.41576e-05 (65.3923)
Neigh time (%) = 0 (0)
Comm  time (%) = 3.90375e-06 (10.5671)
Outpt time (%) = 0 (0)
Other time (%) = 8.88121e-06 (24.0406)

Nlocal:    41 ave 41 max 41 min
Histogram: 1 0 0 0 0 0 0 0 0 0
Nghost:    185 ave 185 max 185 min
Histogram: 1 0 0 0 0 0 0 0 0 0
Neighs:    349 ave 349 max 349 min
Histogram: 1 0 0 0 0 0 0 0 0 0

Total # of neighbors = 349
Ave neighs/atom = 8.5122
Neighbor list builds = 0
Dangerous builds = 0
	# write_dump all atom ${dumpfile}
        next i
jump SELF loop1
        displace_atoms upper move 0.0 ${ystep1} 0.0 units lattice
        displace_atoms upper move 0.0 0.002 0.0 units lattice
        min_style ${style}
        min_style cg
        minimize ${etol} ${ftol} ${maxiter} ${maxeval}
        minimize 1e-12 ${ftol} ${maxiter} ${maxeval}
        minimize 1e-12 1e-08 ${maxiter} ${maxeval}
        minimize 1e-12 1e-08 10000 ${maxeval}
        minimize 1e-12 1e-08 10000 20000
WARNING: Resetting reneighboring criteria during minimization (../min.cpp:168)
Memory usage per processor = 3.35955 Mbytes
Step Temp PotEng Lx Ly Lz 
     493            0   -118.99996    1.0000002    36.355755    1.0000002 
     494            0   -118.99996    1.0000002    36.355755    1.0000002 
Loop time of 3.69904e-05 on 1 procs for 1 steps with 41 atoms

Minimization stats:
  Stopping criterion = linesearch alpha is zero
  Energy initial, next-to-last, final = 
        -118.999956633     -118.999956633     -118.999956633
  Force two-norm initial, final = 8.15033e-07 8.15033e-07
  Force max component initial, final = 5.36883e-07 5.36883e-07
  Final line search alpha, max atom move = 0.5 2.68442e-07
  Iterations, force evaluations = 1 2

Pair  time (%) = 2.3109e-05 (62.4731)
Neigh time (%) = 0 (0)
Comm  time (%) = 4.19084e-06 (11.3295)
Outpt time (%) = 0 (0)
Other time (%) = 9.69053e-06 (26.1974)

Nlocal:    41 ave 41 max 41 min
Histogram: 1 0 0 0 0 0 0 0 0 0
Nghost:    185 ave 185 max 185 min
Histogram: 1 0 0 0 0 0 0 0 0 0
Neighs:    349 ave 349 max 349 min
Histogram: 1 0 0 0 0 0 0 0 0 0

Total # of neighbors = 349
Ave neighs/atom = 8.5122
Neighbor list builds = 0
Dangerous builds = 0
	# write_dump all atom ${dumpfile}
        next i
jump SELF loop1
        displace_atoms upper move 0.0 ${ystep1} 0.0 units lattice
        displace_atoms upper move 0.0 0.002 0.0 units lattice
        min_style ${style}
        min_style cg
        minimize ${etol} ${ftol} ${maxiter} ${maxeval}
        minimize 1e-12 ${ftol} ${maxiter} ${maxeval}
        minimize 1e-12 1e-08 ${maxiter} ${maxeval}
        minimize 1e-12 1e-08 10000 ${maxeval}
        minimize 1e-12 1e-08 10000 20000
WARNING: Resetting reneighboring criteria during minimization (../min.cpp:168)
Memory usage per processor = 3.35955 Mbytes
Step Temp PotEng Lx Ly Lz 
     494            0   -118.99996    1.0000002    36.359219    1.0000002 
     495            0   -118.99996    1.0000002    36.359219    1.0000002 
Loop time of 3.69092e-05 on 1 procs for 1 steps with 41 atoms

Minimization stats:
  Stopping criterion = linesearch alpha is zero
  Energy initial, next-to-last, final = 
        -118.999956633     -118.999956633     -118.999956633
  Force two-norm initial, final = 8.15033e-07 8.15033e-07
  Force max component initial, final = 5.36883e-07 5.36883e-07
  Final line search alpha, max atom move = 0.5 2.68442e-07
  Iterations, force evaluations = 1 2

Pair  time (%) = 2.30576e-05 (62.471)
Neigh time (%) = 0 (0)
Comm  time (%) = 3.6112e-06 (9.78401)
Outpt time (%) = 0 (0)
Other time (%) = 1.02405e-05 (27.745)

Nlocal:    41 ave 41 max 41 min
Histogram: 1 0 0 0 0 0 0 0 0 0
Nghost:    185 ave 185 max 185 min
Histogram: 1 0 0 0 0 0 0 0 0 0
Neighs:    349 ave 349 max 349 min
Histogram: 1 0 0 0 0 0 0 0 0 0

Total # of neighbors = 349
Ave neighs/atom = 8.5122
Neighbor list builds = 0
Dangerous builds = 0
	# write_dump all atom ${dumpfile}
        next i
jump SELF loop1
        displace_atoms upper move 0.0 ${ystep1} 0.0 units lattice
        displace_atoms upper move 0.0 0.002 0.0 units lattice
        min_style ${style}
        min_style cg
        minimize ${etol} ${ftol} ${maxiter} ${maxeval}
        minimize 1e-12 ${ftol} ${maxiter} ${maxeval}
        minimize 1e-12 1e-08 ${maxiter} ${maxeval}
        minimize 1e-12 1e-08 10000 ${maxeval}
        minimize 1e-12 1e-08 10000 20000
WARNING: Resetting reneighboring criteria during minimization (../min.cpp:168)
Memory usage per processor = 3.35955 Mbytes
Step Temp PotEng Lx Ly Lz 
     495            0   -118.99996    1.0000002    36.362683    1.0000002 
     496            0   -118.99996    1.0000002    36.362683    1.0000002 
Loop time of 3.68973e-05 on 1 procs for 1 steps with 41 atoms

Minimization stats:
  Stopping criterion = linesearch alpha is zero
  Energy initial, next-to-last, final = 
        -118.999956633     -118.999956633     -118.999956633
  Force two-norm initial, final = 8.15033e-07 8.15033e-07
  Force max component initial, final = 5.36883e-07 5.36883e-07
  Final line search alpha, max atom move = 0.5 2.68442e-07
  Iterations, force evaluations = 1 2

Pair  time (%) = 2.31141e-05 (62.6446)
Neigh time (%) = 0 (0)
Comm  time (%) = 3.67803e-06 (9.96829)
Outpt time (%) = 0 (0)
Other time (%) = 1.01051e-05 (27.3871)

Nlocal:    41 ave 41 max 41 min
Histogram: 1 0 0 0 0 0 0 0 0 0
Nghost:    185 ave 185 max 185 min
Histogram: 1 0 0 0 0 0 0 0 0 0
Neighs:    349 ave 349 max 349 min
Histogram: 1 0 0 0 0 0 0 0 0 0

Total # of neighbors = 349
Ave neighs/atom = 8.5122
Neighbor list builds = 0
Dangerous builds = 0
	# write_dump all atom ${dumpfile}
        next i
jump SELF loop1
        displace_atoms upper move 0.0 ${ystep1} 0.0 units lattice
        displace_atoms upper move 0.0 0.002 0.0 units lattice
        min_style ${style}
        min_style cg
        minimize ${etol} ${ftol} ${maxiter} ${maxeval}
        minimize 1e-12 ${ftol} ${maxiter} ${maxeval}
        minimize 1e-12 1e-08 ${maxiter} ${maxeval}
        minimize 1e-12 1e-08 10000 ${maxeval}
        minimize 1e-12 1e-08 10000 20000
WARNING: Resetting reneighboring criteria during minimization (../min.cpp:168)
Memory usage per processor = 3.35955 Mbytes
Step Temp PotEng Lx Ly Lz 
     496            0   -118.99996    1.0000002    36.366147    1.0000002 
     497            0   -118.99996    1.0000002    36.366147    1.0000002 
Loop time of 3.70976e-05 on 1 procs for 1 steps with 41 atoms

Minimization stats:
  Stopping criterion = linesearch alpha is zero
  Energy initial, next-to-last, final = 
        -118.999956633     -118.999956633     -118.999956633
  Force two-norm initial, final = 8.15033e-07 8.15033e-07
  Force max component initial, final = 5.36883e-07 5.36883e-07
  Final line search alpha, max atom move = 0.5 2.68442e-07
  Iterations, force evaluations = 1 2

Pair  time (%) = 2.39537e-05 (64.5695)
Neigh time (%) = 0 (0)
Comm  time (%) = 3.92669e-06 (10.5848)
Outpt time (%) = 0 (0)
Other time (%) = 9.21718e-06 (24.8458)

Nlocal:    41 ave 41 max 41 min
Histogram: 1 0 0 0 0 0 0 0 0 0
Nghost:    185 ave 185 max 185 min
Histogram: 1 0 0 0 0 0 0 0 0 0
Neighs:    349 ave 349 max 349 min
Histogram: 1 0 0 0 0 0 0 0 0 0

Total # of neighbors = 349
Ave neighs/atom = 8.5122
Neighbor list builds = 0
Dangerous builds = 0
	# write_dump all atom ${dumpfile}
        next i
jump SELF loop1
        displace_atoms upper move 0.0 ${ystep1} 0.0 units lattice
        displace_atoms upper move 0.0 0.002 0.0 units lattice
        min_style ${style}
        min_style cg
        minimize ${etol} ${ftol} ${maxiter} ${maxeval}
        minimize 1e-12 ${ftol} ${maxiter} ${maxeval}
        minimize 1e-12 1e-08 ${maxiter} ${maxeval}
        minimize 1e-12 1e-08 10000 ${maxeval}
        minimize 1e-12 1e-08 10000 20000
WARNING: Resetting reneighboring criteria during minimization (../min.cpp:168)
Memory usage per processor = 3.35955 Mbytes
Step Temp PotEng Lx Ly Lz 
     497            0   -118.99996    1.0000002    36.369611    1.0000002 
     498            0   -118.99996    1.0000002    36.369611    1.0000002 
Loop time of 3.70628e-05 on 1 procs for 1 steps with 41 atoms

Minimization stats:
  Stopping criterion = linesearch alpha is zero
  Energy initial, next-to-last, final = 
        -118.999956633     -118.999956633     -118.999956633
  Force two-norm initial, final = 8.15033e-07 8.15033e-07
  Force max component initial, final = 5.36883e-07 5.36883e-07
  Final line search alpha, max atom move = 0.5 2.68442e-07
  Iterations, force evaluations = 1 2

Pair  time (%) = 2.2803e-05 (61.5252)
Neigh time (%) = 0 (0)
Comm  time (%) = 4.05556e-06 (10.9424)
Outpt time (%) = 0 (0)
Other time (%) = 1.02043e-05 (27.5324)

Nlocal:    41 ave 41 max 41 min
Histogram: 1 0 0 0 0 0 0 0 0 0
Nghost:    185 ave 185 max 185 min
Histogram: 1 0 0 0 0 0 0 0 0 0
Neighs:    349 ave 349 max 349 min
Histogram: 1 0 0 0 0 0 0 0 0 0

Total # of neighbors = 349
Ave neighs/atom = 8.5122
Neighbor list builds = 0
Dangerous builds = 0
	# write_dump all atom ${dumpfile}
        next i
jump SELF loop1
        displace_atoms upper move 0.0 ${ystep1} 0.0 units lattice
        displace_atoms upper move 0.0 0.002 0.0 units lattice
        min_style ${style}
        min_style cg
        minimize ${etol} ${ftol} ${maxiter} ${maxeval}
        minimize 1e-12 ${ftol} ${maxiter} ${maxeval}
        minimize 1e-12 1e-08 ${maxiter} ${maxeval}
        minimize 1e-12 1e-08 10000 ${maxeval}
        minimize 1e-12 1e-08 10000 20000
WARNING: Resetting reneighboring criteria during minimization (../min.cpp:168)
Memory usage per processor = 3.35955 Mbytes
Step Temp PotEng Lx Ly Lz 
     498            0   -118.99996    1.0000002    36.373075    1.0000002 
     499            0   -118.99996    1.0000002    36.373075    1.0000002 
Loop time of 3.79772e-05 on 1 procs for 1 steps with 41 atoms

Minimization stats:
  Stopping criterion = linesearch alpha is zero
  Energy initial, next-to-last, final = 
        -118.999956633     -118.999956633     -118.999956633
  Force two-norm initial, final = 8.15033e-07 8.15033e-07
  Force max component initial, final = 5.36883e-07 5.36883e-07
  Final line search alpha, max atom move = 0.5 2.68442e-07
  Iterations, force evaluations = 1 2

Pair  time (%) = 2.19237e-05 (57.7285)
Neigh time (%) = 0 (0)
Comm  time (%) = 4.25079e-06 (11.193)
Outpt time (%) = 0 (0)
Other time (%) = 1.18028e-05 (31.0785)

Nlocal:    41 ave 41 max 41 min
Histogram: 1 0 0 0 0 0 0 0 0 0
Nghost:    185 ave 185 max 185 min
Histogram: 1 0 0 0 0 0 0 0 0 0
Neighs:    349 ave 349 max 349 min
Histogram: 1 0 0 0 0 0 0 0 0 0

Total # of neighbors = 349
Ave neighs/atom = 8.5122
Neighbor list builds = 0
Dangerous builds = 0
	# write_dump all atom ${dumpfile}
        next i
jump SELF loop1
        displace_atoms upper move 0.0 ${ystep1} 0.0 units lattice
        displace_atoms upper move 0.0 0.002 0.0 units lattice
        min_style ${style}
        min_style cg
        minimize ${etol} ${ftol} ${maxiter} ${maxeval}
        minimize 1e-12 ${ftol} ${maxiter} ${maxeval}
        minimize 1e-12 1e-08 ${maxiter} ${maxeval}
        minimize 1e-12 1e-08 10000 ${maxeval}
        minimize 1e-12 1e-08 10000 20000
WARNING: Resetting reneighboring criteria during minimization (../min.cpp:168)
Memory usage per processor = 3.35955 Mbytes
Step Temp PotEng Lx Ly Lz 
     499            0   -118.99996    1.0000002     36.37654    1.0000002 
     500            0   -118.99996    1.0000002     36.37654    1.0000002 
Loop time of 1.04669e-06 on 1 procs for 1 steps with 41 atoms

Minimization stats:
  Stopping criterion = linesearch alpha is zero
  Energy initial, next-to-last, final = 
        -118.999956633     -118.999956633     -118.999956633
  Force two-norm initial, final = 8.15033e-07 8.15033e-07
  Force max component initial, final = 5.36883e-07 5.36883e-07
  Final line search alpha, max atom move = 0.5 2.68442e-07
  Iterations, force evaluations = 1 2

Pair  time (%) = 1.40048e-07 (13.38)
Neigh time (%) = 0 (0)
Comm  time (%) = 2.80095e-07 (26.7601)
Outpt time (%) = 0 (0)
Other time (%) = 6.26547e-07 (59.8599)

Nlocal:    41 ave 41 max 41 min
Histogram: 1 0 0 0 0 0 0 0 0 0
Nghost:    185 ave 185 max 185 min
Histogram: 1 0 0 0 0 0 0 0 0 0
Neighs:    349 ave 349 max 349 min
Histogram: 1 0 0 0 0 0 0 0 0 0

Total # of neighbors = 349
Ave neighs/atom = 8.5122
Neighbor list builds = 0
Dangerous builds = 0
	# write_dump all atom ${dumpfile}
        next i
jump SELF loop1
        displace_atoms upper move 0.0 ${ystep1} 0.0 units lattice
        displace_atoms upper move 0.0 0.002 0.0 units lattice
        min_style ${style}
        min_style cg
        minimize ${etol} ${ftol} ${maxiter} ${maxeval}
        minimize 1e-12 ${ftol} ${maxiter} ${maxeval}
        minimize 1e-12 1e-08 ${maxiter} ${maxeval}
        minimize 1e-12 1e-08 10000 ${maxeval}
        minimize 1e-12 1e-08 10000 20000
WARNING: Resetting reneighboring criteria during minimization (../min.cpp:168)
Memory usage per processor = 3.35955 Mbytes
Step Temp PotEng Lx Ly Lz 
     500            0   -118.99996    1.0000002    36.380004    1.0000002 
     501            0   -118.99996    1.0000002    36.380004    1.0000002 
Loop time of 3.89386e-05 on 1 procs for 1 steps with 41 atoms

Minimization stats:
  Stopping criterion = linesearch alpha is zero
  Energy initial, next-to-last, final = 
        -118.999956633     -118.999956633     -118.999956633
  Force two-norm initial, final = 8.15033e-07 8.15033e-07
  Force max component initial, final = 5.36883e-07 5.36883e-07
  Final line search alpha, max atom move = 0.5 2.68442e-07
  Iterations, force evaluations = 1 2

Pair  time (%) = 2.40924e-05 (61.8728)
Neigh time (%) = 0 (0)
Comm  time (%) = 3.20398e-06 (8.22829)
Outpt time (%) = 0 (0)
Other time (%) = 1.16422e-05 (29.8989)

Nlocal:    41 ave 41 max 41 min
Histogram: 1 0 0 0 0 0 0 0 0 0
Nghost:    185 ave 185 max 185 min
Histogram: 1 0 0 0 0 0 0 0 0 0
Neighs:    349 ave 349 max 349 min
Histogram: 1 0 0 0 0 0 0 0 0 0

Total # of neighbors = 349
Ave neighs/atom = 8.5122
Neighbor list builds = 0
Dangerous builds = 0
	# write_dump all atom ${dumpfile}
        next i
jump SELF loop1

unfix 2
min_style ${style}
min_style cg
minimize ${etol} ${ftol} ${maxiter} ${maxeval}
minimize 1e-12 ${ftol} ${maxiter} ${maxeval}
minimize 1e-12 1e-08 ${maxiter} ${maxeval}
minimize 1e-12 1e-08 10000 ${maxeval}
minimize 1e-12 1e-08 10000 20000
WARNING: Resetting reneighboring criteria during minimization (../min.cpp:168)
Memory usage per processor = 3.35955 Mbytes
Step Temp PotEng Lx Ly Lz 
     501            0   -118.99996    1.0000002    36.380004    1.0000002 
     502            0   -118.99996    1.0000002    36.380004    1.0000002 
Loop time of 3.79869e-05 on 1 procs for 1 steps with 41 atoms

Minimization stats:
  Stopping criterion = linesearch alpha is zero
  Energy initial, next-to-last, final = 
        -118.999956633     -118.999956633     -118.999956633
  Force two-norm initial, final = 6.16854e-06 6.16854e-06
  Force max component initial, final = 3.05723e-06 3.05723e-06
  Final line search alpha, max atom move = 0.5 1.52862e-06
  Iterations, force evaluations = 1 2

Pair  time (%) = 2.40983e-05 (63.4385)
Neigh time (%) = 0 (0)
Comm  time (%) = 4.21586e-06 (11.0982)
Outpt time (%) = 0 (0)
Other time (%) = 9.67272e-06 (25.4633)

Nlocal:    41 ave 41 max 41 min
Histogram: 1 0 0 0 0 0 0 0 0 0
Nghost:    185 ave 185 max 185 min
Histogram: 1 0 0 0 0 0 0 0 0 0
Neighs:    349 ave 349 max 349 min
Histogram: 1 0 0 0 0 0 0 0 0 0

Total # of neighbors = 349
Ave neighs/atom = 8.5122
Neighbor list builds = 0
Dangerous builds = 0

