LAMMPS (28 Jun 2014)
# attempt at getting surface energy

#file prefix
variable prefix string surf_V_brittle_3d
variable dumpfile string ${prefix}.*.dump
variable dumpfile string surf_V_brittle_3d.*.dump
variable restartfile string ${prefix}.*.equil
variable restartfile string surf_V_brittle_3d.*.equil

#Mass (g/mol)
variable m equal 1.0

# lattice constant (in Angstroms) and orientation of axes (given by lattice vectors)
variable rho equal 1.0
variable x1 equal 1
variable x2 equal 1
variable x3 equal -2
variable y1 equal 1
variable y2 equal 1
variable y3 equal 1
variable z1 equal 1
variable z2 equal -1
variable z3 equal 0
# length of lattice in different directions (using orientation of lattice vectors)
variable ax equal sqrt(${x1}*${x1}+${x2}*${x2}+${x3}*${x3})
variable ax equal sqrt(1*${x1}+${x2}*${x2}+${x3}*${x3})
variable ax equal sqrt(1*1+${x2}*${x2}+${x3}*${x3})
variable ax equal sqrt(1*1+1*${x2}+${x3}*${x3})
variable ax equal sqrt(1*1+1*1+${x3}*${x3})
variable ax equal sqrt(1*1+1*1+-2*${x3})
variable ax equal sqrt(1*1+1*1+-2*-2)
variable ay equal sqrt(${y1}*${y1}+${y2}*${y2}+${y3}*${y3})
variable ay equal sqrt(1*${y1}+${y2}*${y2}+${y3}*${y3})
variable ay equal sqrt(1*1+${y2}*${y2}+${y3}*${y3})
variable ay equal sqrt(1*1+1*${y2}+${y3}*${y3})
variable ay equal sqrt(1*1+1*1+${y3}*${y3})
variable ay equal sqrt(1*1+1*1+1*${y3})
variable ay equal sqrt(1*1+1*1+1*1)
variable az equal sqrt(${z1}*${z1}+${z2}*${z2}+${z3}*${z3})
variable az equal sqrt(1*${z1}+${z2}*${z2}+${z3}*${z3})
variable az equal sqrt(1*1+${z2}*${z2}+${z3}*${z3})
variable az equal sqrt(1*1+-1*${z2}+${z3}*${z3})
variable az equal sqrt(1*1+-1*-1+${z3}*${z3})
variable az equal sqrt(1*1+-1*-1+0*${z3})
variable az equal sqrt(1*1+-1*-1+0*0)

# size of box in lattice units
variable lxpos equal 2
variable lxneg equal 0
variable lypos equal 15
variable lyneg equal -1*${lypos}
variable lyneg equal -1*15
variable lzpos equal 2
variable lzneg equal 0

# boundary conditions
dimension	3
boundary	p s p
atom_style	atomic

# Define minimization parameters and damping
variable etol equal 1.0e-12
variable ftol equal 1.0e-8
variable maxiter equal 10000
variable maxeval equal 20000
variable style string hftn

# create geometry
units		lj
lattice         hcp 1.0 orient x 1 0 0 orient y 0 0 1 orient z 0 -1 0
Lattice spacing in x,y,z = 1.12246 1.83297 1.94416
region		myregion block ${lxneg} ${lxpos} ${lyneg} ${lypos} ${lzneg} ${lzpos} units lattice
region		myregion block 0 ${lxpos} ${lyneg} ${lypos} ${lzneg} ${lzpos} units lattice
region		myregion block 0 2 ${lyneg} ${lypos} ${lzneg} ${lzpos} units lattice
region		myregion block 0 2 -15 ${lypos} ${lzneg} ${lzpos} units lattice
region		myregion block 0 2 -15 15 ${lzneg} ${lzpos} units lattice
region		myregion block 0 2 -15 15 0 ${lzpos} units lattice
region		myregion block 0 2 -15 15 0 2 units lattice
create_box	1 myregion
Created orthogonal box = (0 -27.4946 0) to (2.24492 27.4946 3.88832)
  1 by 1 by 1 MPI processor grid
create_atoms	1 box
Created 488 atoms
write_dump all atom init.dump

# define masses
mass * $m
mass * 1

# my fake/morse potential
pair_style      table linear 3001
pair_coeff      * * vpotential_brittle3d dummy
neighbor	0.3 bin
neigh_modify	delay 5

# define groups. Nudge to separate planes cleanly
region	    upper block INF INF 0.01 ${lypos} INF INF units lattice
region	    upper block INF INF 0.01 15 INF INF units lattice
group		upper region upper
240 atoms in group upper

# Setup output
thermo 1
thermo_style custom step temp pe lx ly lz
thermo_modify norm no

# Compute initial state by relaxing box
fix 3 all box/relax x 0.0
min_style ${style}
min_style hftn
minimize ${etol} ${ftol} ${maxiter} ${maxeval}
minimize 1e-12 ${ftol} ${maxiter} ${maxeval}
minimize 1e-12 1e-08 ${maxiter} ${maxeval}
minimize 1e-12 1e-08 10000 ${maxeval}
minimize 1e-12 1e-08 10000 20000
WARNING: Resetting reneighboring criteria during minimization (../min.cpp:168)
Memory usage per processor = 5.02109 Mbytes
Step Temp PotEng Lx Ly Lz 
       0            0   -2903.9976    2.2449241    55.000183    3.8883226 
       1            0   -2903.9976    2.2449241    55.000183    3.8883226 
       2            0   -2903.9976    2.2449241    55.000183    3.8883226 
       3            0   -2903.9976    2.2449241    55.000183    3.8883226 
       4            0   -2903.9976    2.2449241    55.000183    3.8883226 
       5            0   -2903.9976    2.2449241    55.000183    3.8883226 
       6            0   -2903.9976    2.2449241    55.000183    3.8883226 
       7            0   -2903.9976    2.2449241    55.000183    3.8883226 
       8            0   -2903.9976    2.2449241    55.000183    3.8883226 
       9            0   -2903.9976    2.2449241    55.000183    3.8883226 
      10            0   -2903.9976    2.2449241    55.000183    3.8883226 
      11            0   -2903.9976    2.2449241    55.000183    3.8883226 
      12            0   -2903.9976    2.2449241    55.000183    3.8883226 
      13            0   -2903.9976    2.2449241    55.000183    3.8883226 
      14            0   -2903.9976    2.2449241    55.000183    3.8883226 
Loop time of 0.0385861 on 1 procs for 13 steps with 488 atoms

Minimization stats:
  Stopping criterion = trust region too small
  Energy initial, next-to-last, final = 
        -2903.99758526     -2903.99758526     -2903.99758526
  Force two-norm initial, final = 0.140665 0.140665
  Force max component initial, final = 0.140659 0.140659
  Final line search alpha, max atom move = 0 0
  Iterations, force evaluations = 13 82

Pair  time (%) = 0.029082 (75.3692)
Neigh time (%) = 0 (0)
Comm  time (%) = 0.00416355 (10.7903)
Outpt time (%) = 0.00180125 (4.66815)
Other time (%) = 0.00353925 (9.17235)

Nlocal:    488 ave 488 max 488 min
Histogram: 1 0 0 0 0 0 0 0 0 0
Nghost:    3081 ave 3081 max 3081 min
Histogram: 1 0 0 0 0 0 0 0 0 0
Neighs:    13456 ave 13456 max 13456 min
Histogram: 1 0 0 0 0 0 0 0 0 0

Total # of neighbors = 13456
Ave neighs/atom = 27.5738
Neighbor list builds = 0
Dangerous builds = 0
unfix 3

# don't allow atoms to relax in y-direction
fix 2 all setforce NULL 0.0 NULL

# GSF energy curve will have 100*2 steps
variable nsteps equal 300
variable sstep1 equal 1.5
variable ystep1 equal ${sstep1}/(${ay}*${nsteps})
variable ystep1 equal 1.5/(${ay}*${nsteps})
variable ystep1 equal 1.5/(1.73205080756888*${nsteps})
variable ystep1 equal 1.5/(1.73205080756888*300)

variable i loop ${nsteps}
variable i loop 300
label loop1
        displace_atoms upper move 0.0 ${ystep1} 0.0 units lattice
        displace_atoms upper move 0.0 0.00288675134594812 0.0 units lattice
        min_style ${style}
        min_style hftn
        minimize ${etol} ${ftol} ${maxiter} ${maxeval}
        minimize 1e-12 ${ftol} ${maxiter} ${maxeval}
        minimize 1e-12 1e-08 ${maxiter} ${maxeval}
        minimize 1e-12 1e-08 10000 ${maxeval}
        minimize 1e-12 1e-08 10000 20000
WARNING: Resetting reneighboring criteria during minimization (../min.cpp:168)
Memory usage per processor = 5.02109 Mbytes
Step Temp PotEng Lx Ly Lz 
      14            0   -2903.9791    2.2449241    55.005475    3.8883226 
Loop time of 0.000364104 on 1 procs for 0 steps with 488 atoms

Minimization stats:
  Stopping criterion = force tolerance
  Energy initial, next-to-last, final = 
        -2903.97910811     -2903.97910811     -2903.97910811
  Force two-norm initial, final = 1.29809e-12 1.29809e-12
  Force max component initial, final = 7.76571e-14 7.76571e-14
  Final line search alpha, max atom move = 0 0
  Iterations, force evaluations = 0 0

Pair  time (%) = 0.000341945 (93.914)
Neigh time (%) = 0 (0)
Comm  time (%) = 1.40114e-05 (3.84818)
Outpt time (%) = 0 (0)
Other time (%) = 8.14791e-06 (2.2378)

Nlocal:    488 ave 488 max 488 min
Histogram: 1 0 0 0 0 0 0 0 0 0
Nghost:    3081 ave 3081 max 3081 min
Histogram: 1 0 0 0 0 0 0 0 0 0
Neighs:    13456 ave 13456 max 13456 min
Histogram: 1 0 0 0 0 0 0 0 0 0

Total # of neighbors = 13456
Ave neighs/atom = 27.5738
Neighbor list builds = 0
Dangerous builds = 0
	# write_dump all atom ${dumpfile}
        next i
jump SELF loop1
        displace_atoms upper move 0.0 ${ystep1} 0.0 units lattice
        displace_atoms upper move 0.0 0.00288675134594812 0.0 units lattice
        min_style ${style}
        min_style hftn
        minimize ${etol} ${ftol} ${maxiter} ${maxeval}
        minimize 1e-12 ${ftol} ${maxiter} ${maxeval}
        minimize 1e-12 1e-08 ${maxiter} ${maxeval}
        minimize 1e-12 1e-08 10000 ${maxeval}
        minimize 1e-12 1e-08 10000 20000
WARNING: Resetting reneighboring criteria during minimization (../min.cpp:168)
Memory usage per processor = 5.02109 Mbytes
Step Temp PotEng Lx Ly Lz 
      14            0   -2903.9257    2.2449241    55.010766    3.8883226 
Loop time of 0.000364105 on 1 procs for 0 steps with 488 atoms

Minimization stats:
  Stopping criterion = force tolerance
  Energy initial, next-to-last, final = 
        -2903.92567597     -2903.92567597     -2903.92567597
  Force two-norm initial, final = 1.29572e-12 1.29572e-12
  Force max component initial, final = 7.76571e-14 7.76571e-14
  Final line search alpha, max atom move = 0 0
  Iterations, force evaluations = 0 0

Pair  time (%) = 0.0003429 (94.176)
Neigh time (%) = 0 (0)
Comm  time (%) = 1.4013e-05 (3.84862)
Outpt time (%) = 0 (0)
Other time (%) = 7.1926e-06 (1.97542)

Nlocal:    488 ave 488 max 488 min
Histogram: 1 0 0 0 0 0 0 0 0 0
Nghost:    3081 ave 3081 max 3081 min
Histogram: 1 0 0 0 0 0 0 0 0 0
Neighs:    13456 ave 13456 max 13456 min
Histogram: 1 0 0 0 0 0 0 0 0 0

Total # of neighbors = 13456
Ave neighs/atom = 27.5738
Neighbor list builds = 0
Dangerous builds = 0
	# write_dump all atom ${dumpfile}
        next i
jump SELF loop1
        displace_atoms upper move 0.0 ${ystep1} 0.0 units lattice
        displace_atoms upper move 0.0 0.00288675134594812 0.0 units lattice
        min_style ${style}
        min_style hftn
        minimize ${etol} ${ftol} ${maxiter} ${maxeval}
        minimize 1e-12 ${ftol} ${maxiter} ${maxeval}
        minimize 1e-12 1e-08 ${maxiter} ${maxeval}
        minimize 1e-12 1e-08 10000 ${maxeval}
        minimize 1e-12 1e-08 10000 20000
WARNING: Resetting reneighboring criteria during minimization (../min.cpp:168)
Memory usage per processor = 5.02109 Mbytes
Step Temp PotEng Lx Ly Lz 
      14            0   -2903.8401    2.2449241    55.016057    3.8883226 
Loop time of 0.00036491 on 1 procs for 0 steps with 488 atoms

Minimization stats:
  Stopping criterion = force tolerance
  Energy initial, next-to-last, final = 
        -2903.84006392     -2903.84006392     -2903.84006392
  Force two-norm initial, final = 1.29697e-12 1.29697e-12
  Force max component initial, final = 7.76571e-14 7.76571e-14
  Final line search alpha, max atom move = 0 0
  Iterations, force evaluations = 0 0

Pair  time (%) = 0.00034299 (93.9928)
Neigh time (%) = 0 (0)
Comm  time (%) = 1.29546e-05 (3.55007)
Outpt time (%) = 0 (0)
Other time (%) = 8.96631e-06 (2.45713)

Nlocal:    488 ave 488 max 488 min
Histogram: 1 0 0 0 0 0 0 0 0 0
Nghost:    3081 ave 3081 max 3081 min
Histogram: 1 0 0 0 0 0 0 0 0 0
Neighs:    13456 ave 13456 max 13456 min
Histogram: 1 0 0 0 0 0 0 0 0 0

Total # of neighbors = 13456
Ave neighs/atom = 27.5738
Neighbor list builds = 0
Dangerous builds = 0
	# write_dump all atom ${dumpfile}
        next i
jump SELF loop1
        displace_atoms upper move 0.0 ${ystep1} 0.0 units lattice
        displace_atoms upper move 0.0 0.00288675134594812 0.0 units lattice
        min_style ${style}
        min_style hftn
        minimize ${etol} ${ftol} ${maxiter} ${maxeval}
        minimize 1e-12 ${ftol} ${maxiter} ${maxeval}
        minimize 1e-12 1e-08 ${maxiter} ${maxeval}
        minimize 1e-12 1e-08 10000 ${maxeval}
        minimize 1e-12 1e-08 10000 20000
WARNING: Resetting reneighboring criteria during minimization (../min.cpp:168)
Memory usage per processor = 5.02109 Mbytes
Step Temp PotEng Lx Ly Lz 
      14            0   -2903.7247    2.2449241    55.021349    3.8883226 
Loop time of 0.000382098 on 1 procs for 0 steps with 488 atoms

Minimization stats:
  Stopping criterion = force tolerance
  Energy initial, next-to-last, final = 
        -2903.72466737     -2903.72466737     -2903.72466737
  Force two-norm initial, final = 1.29641e-12 1.29641e-12
  Force max component initial, final = 7.76571e-14 7.76571e-14
  Final line search alpha, max atom move = 0 0
  Iterations, force evaluations = 0 0

Pair  time (%) = 0.000359939 (94.2006)
Neigh time (%) = 0 (0)
Comm  time (%) = 1.48793e-05 (3.8941)
Outpt time (%) = 0 (0)
Other time (%) = 7.28015e-06 (1.90531)

Nlocal:    488 ave 488 max 488 min
Histogram: 1 0 0 0 0 0 0 0 0 0
Nghost:    3081 ave 3081 max 3081 min
Histogram: 1 0 0 0 0 0 0 0 0 0
Neighs:    13456 ave 13456 max 13456 min
Histogram: 1 0 0 0 0 0 0 0 0 0

Total # of neighbors = 13456
Ave neighs/atom = 27.5738
Neighbor list builds = 0
Dangerous builds = 0
	# write_dump all atom ${dumpfile}
        next i
jump SELF loop1
        displace_atoms upper move 0.0 ${ystep1} 0.0 units lattice
        displace_atoms upper move 0.0 0.00288675134594812 0.0 units lattice
        min_style ${style}
        min_style hftn
        minimize ${etol} ${ftol} ${maxiter} ${maxeval}
        minimize 1e-12 ${ftol} ${maxiter} ${maxeval}
        minimize 1e-12 1e-08 ${maxiter} ${maxeval}
        minimize 1e-12 1e-08 10000 ${maxeval}
        minimize 1e-12 1e-08 10000 20000
WARNING: Resetting reneighboring criteria during minimization (../min.cpp:168)
Memory usage per processor = 5.02109 Mbytes
Step Temp PotEng Lx Ly Lz 
      14            0   -2903.5821    2.2449241     55.02664    3.8883226 
Loop time of 0.000364077 on 1 procs for 0 steps with 488 atoms

Minimization stats:
  Stopping criterion = force tolerance
  Energy initial, next-to-last, final = 
        -2903.58208613     -2903.58208613     -2903.58208613
  Force two-norm initial, final = 1.29468e-12 1.29468e-12
  Force max component initial, final = 7.76571e-14 7.76571e-14
  Final line search alpha, max atom move = 0 0
  Iterations, force evaluations = 0 0

Pair  time (%) = 0.000341918 (93.9136)
Neigh time (%) = 0 (0)
Comm  time (%) = 1.39576e-05 (3.83369)
Outpt time (%) = 0 (0)
Other time (%) = 8.20169e-06 (2.25273)

Nlocal:    488 ave 488 max 488 min
Histogram: 1 0 0 0 0 0 0 0 0 0
Nghost:    3081 ave 3081 max 3081 min
Histogram: 1 0 0 0 0 0 0 0 0 0
Neighs:    13456 ave 13456 max 13456 min
Histogram: 1 0 0 0 0 0 0 0 0 0

Total # of neighbors = 13456
Ave neighs/atom = 27.5738
Neighbor list builds = 0
Dangerous builds = 0
	# write_dump all atom ${dumpfile}
        next i
jump SELF loop1
        displace_atoms upper move 0.0 ${ystep1} 0.0 units lattice
        displace_atoms upper move 0.0 0.00288675134594812 0.0 units lattice
        min_style ${style}
        min_style hftn
        minimize ${etol} ${ftol} ${maxiter} ${maxeval}
        minimize 1e-12 ${ftol} ${maxiter} ${maxeval}
        minimize 1e-12 1e-08 ${maxiter} ${maxeval}
        minimize 1e-12 1e-08 10000 ${maxeval}
        minimize 1e-12 1e-08 10000 20000
WARNING: Resetting reneighboring criteria during minimization (../min.cpp:168)
Memory usage per processor = 5.02109 Mbytes
Step Temp PotEng Lx Ly Lz 
      14            0   -2903.4145    2.2449241    55.031931    3.8883226 
Loop time of 0.000355034 on 1 procs for 0 steps with 488 atoms

Minimization stats:
  Stopping criterion = force tolerance
  Energy initial, next-to-last, final = 
        -2903.41449629     -2903.41449629     -2903.41449629
  Force two-norm initial, final = 1.29723e-12 1.29723e-12
  Force max component initial, final = 7.76571e-14 7.76571e-14
  Final line search alpha, max atom move = 0 0
  Iterations, force evaluations = 0 0

Pair  time (%) = 0.000331113 (93.2623)
Neigh time (%) = 0 (0)
Comm  time (%) = 1.58374e-05 (4.46081)
Outpt time (%) = 0 (0)
Other time (%) = 8.08365e-06 (2.27687)

Nlocal:    488 ave 488 max 488 min
Histogram: 1 0 0 0 0 0 0 0 0 0
Nghost:    3081 ave 3081 max 3081 min
Histogram: 1 0 0 0 0 0 0 0 0 0
Neighs:    13456 ave 13456 max 13456 min
Histogram: 1 0 0 0 0 0 0 0 0 0

Total # of neighbors = 13456
Ave neighs/atom = 27.5738
Neighbor list builds = 0
Dangerous builds = 0
	# write_dump all atom ${dumpfile}
        next i
jump SELF loop1
        displace_atoms upper move 0.0 ${ystep1} 0.0 units lattice
        displace_atoms upper move 0.0 0.00288675134594812 0.0 units lattice
        min_style ${style}
        min_style hftn
        minimize ${etol} ${ftol} ${maxiter} ${maxeval}
        minimize 1e-12 ${ftol} ${maxiter} ${maxeval}
        minimize 1e-12 1e-08 ${maxiter} ${maxeval}
        minimize 1e-12 1e-08 10000 ${maxeval}
        minimize 1e-12 1e-08 10000 20000
WARNING: Resetting reneighboring criteria during minimization (../min.cpp:168)
Memory usage per processor = 5.02109 Mbytes
Step Temp PotEng Lx Ly Lz 
      14            0   -2903.2241    2.2449241    55.037223    3.8883226 
Loop time of 0.000362952 on 1 procs for 0 steps with 488 atoms

Minimization stats:
  Stopping criterion = force tolerance
  Energy initial, next-to-last, final = 
        -2903.22413111     -2903.22413111     -2903.22413111
  Force two-norm initial, final = 1.29816e-12 1.29816e-12
  Force max component initial, final = 7.76571e-14 7.76571e-14
  Final line search alpha, max atom move = 0 0
  Iterations, force evaluations = 0 0

Pair  time (%) = 0.000341985 (94.2231)
Neigh time (%) = 0 (0)
Comm  time (%) = 1.31381e-05 (3.61977)
Outpt time (%) = 0 (0)
Other time (%) = 7.82928e-06 (2.15711)

Nlocal:    488 ave 488 max 488 min
Histogram: 1 0 0 0 0 0 0 0 0 0
Nghost:    3081 ave 3081 max 3081 min
Histogram: 1 0 0 0 0 0 0 0 0 0
Neighs:    13456 ave 13456 max 13456 min
Histogram: 1 0 0 0 0 0 0 0 0 0

Total # of neighbors = 13456
Ave neighs/atom = 27.5738
Neighbor list builds = 0
Dangerous builds = 0
	# write_dump all atom ${dumpfile}
        next i
jump SELF loop1
        displace_atoms upper move 0.0 ${ystep1} 0.0 units lattice
        displace_atoms upper move 0.0 0.00288675134594812 0.0 units lattice
        min_style ${style}
        min_style hftn
        minimize ${etol} ${ftol} ${maxiter} ${maxeval}
        minimize 1e-12 ${ftol} ${maxiter} ${maxeval}
        minimize 1e-12 1e-08 ${maxiter} ${maxeval}
        minimize 1e-12 1e-08 10000 ${maxeval}
        minimize 1e-12 1e-08 10000 20000
WARNING: Resetting reneighboring criteria during minimization (../min.cpp:168)
Memory usage per processor = 5.02109 Mbytes
Step Temp PotEng Lx Ly Lz 
      14            0   -2903.0129    2.2449241    55.042514    3.8883226 
Loop time of 0.00036205 on 1 procs for 0 steps with 488 atoms

Minimization stats:
  Stopping criterion = force tolerance
  Energy initial, next-to-last, final = 
        -2903.01293067     -2903.01293067     -2903.01293067
  Force two-norm initial, final = 1.29556e-12 1.29556e-12
  Force max component initial, final = 7.76571e-14 7.76571e-14
  Final line search alpha, max atom move = 0 0
  Iterations, force evaluations = 0 0

Pair  time (%) = 0.000342083 (94.485)
Neigh time (%) = 0 (0)
Comm  time (%) = 1.28561e-05 (3.55092)
Outpt time (%) = 0 (0)
Other time (%) = 7.11111e-06 (1.96413)

Nlocal:    488 ave 488 max 488 min
Histogram: 1 0 0 0 0 0 0 0 0 0
Nghost:    3081 ave 3081 max 3081 min
Histogram: 1 0 0 0 0 0 0 0 0 0
Neighs:    13456 ave 13456 max 13456 min
Histogram: 1 0 0 0 0 0 0 0 0 0

Total # of neighbors = 13456
Ave neighs/atom = 27.5738
Neighbor list builds = 0
Dangerous builds = 0
	# write_dump all atom ${dumpfile}
        next i
jump SELF loop1
        displace_atoms upper move 0.0 ${ystep1} 0.0 units lattice
        displace_atoms upper move 0.0 0.00288675134594812 0.0 units lattice
        min_style ${style}
        min_style hftn
        minimize ${etol} ${ftol} ${maxiter} ${maxeval}
        minimize 1e-12 ${ftol} ${maxiter} ${maxeval}
        minimize 1e-12 1e-08 ${maxiter} ${maxeval}
        minimize 1e-12 1e-08 10000 ${maxeval}
        minimize 1e-12 1e-08 10000 20000
WARNING: Resetting reneighboring criteria during minimization (../min.cpp:168)
Memory usage per processor = 5.02109 Mbytes
Step Temp PotEng Lx Ly Lz 
      14            0   -2902.7829    2.2449241    55.047805    3.8883226 
Loop time of 0.000362983 on 1 procs for 0 steps with 488 atoms

Minimization stats:
  Stopping criterion = force tolerance
  Energy initial, next-to-last, final = 
        -2902.78289399     -2902.78289399     -2902.78289399
  Force two-norm initial, final = 1.29864e-12 1.29864e-12
  Force max component initial, final = 7.76571e-14 7.76571e-14
  Final line search alpha, max atom move = 0 0
  Iterations, force evaluations = 0 0

Pair  time (%) = 0.000342015 (94.2236)
Neigh time (%) = 0 (0)
Comm  time (%) = 1.39599e-05 (3.8459)
Outpt time (%) = 0 (0)
Other time (%) = 7.00727e-06 (1.93047)

Nlocal:    488 ave 488 max 488 min
Histogram: 1 0 0 0 0 0 0 0 0 0
Nghost:    3081 ave 3081 max 3081 min
Histogram: 1 0 0 0 0 0 0 0 0 0
Neighs:    13456 ave 13456 max 13456 min
Histogram: 1 0 0 0 0 0 0 0 0 0

Total # of neighbors = 13456
Ave neighs/atom = 27.5738
Neighbor list builds = 0
Dangerous builds = 0
	# write_dump all atom ${dumpfile}
        next i
jump SELF loop1
        displace_atoms upper move 0.0 ${ystep1} 0.0 units lattice
        displace_atoms upper move 0.0 0.00288675134594812 0.0 units lattice
        min_style ${style}
        min_style hftn
        minimize ${etol} ${ftol} ${maxiter} ${maxeval}
        minimize 1e-12 ${ftol} ${maxiter} ${maxeval}
        minimize 1e-12 1e-08 ${maxiter} ${maxeval}
        minimize 1e-12 1e-08 10000 ${maxeval}
        minimize 1e-12 1e-08 10000 20000
WARNING: Resetting reneighboring criteria during minimization (../min.cpp:168)
Memory usage per processor = 5.02109 Mbytes
Step Temp PotEng Lx Ly Lz 
      14            0   -2902.5357    2.2449241    55.053097    3.8883226 
Loop time of 0.000364978 on 1 procs for 0 steps with 488 atoms

Minimization stats:
  Stopping criterion = force tolerance
  Energy initial, next-to-last, final = 
        -2902.53573526     -2902.53573526     -2902.53573526
  Force two-norm initial, final = 1.29852e-12 1.29852e-12
  Force max component initial, final = 7.76571e-14 7.76571e-14
  Final line search alpha, max atom move = 0 0
  Iterations, force evaluations = 0 0

Pair  time (%) = 0.000342103 (93.7326)
Neigh time (%) = 0 (0)
Comm  time (%) = 1.40889e-05 (3.86022)
Outpt time (%) = 0 (0)
Other time (%) = 8.78563e-06 (2.40717)

Nlocal:    488 ave 488 max 488 min
Histogram: 1 0 0 0 0 0 0 0 0 0
Nghost:    3081 ave 3081 max 3081 min
Histogram: 1 0 0 0 0 0 0 0 0 0
Neighs:    13456 ave 13456 max 13456 min
Histogram: 1 0 0 0 0 0 0 0 0 0

Total # of neighbors = 13456
Ave neighs/atom = 27.5738
Neighbor list builds = 0
Dangerous builds = 0
	# write_dump all atom ${dumpfile}
        next i
jump SELF loop1
        displace_atoms upper move 0.0 ${ystep1} 0.0 units lattice
        displace_atoms upper move 0.0 0.00288675134594812 0.0 units lattice
        min_style ${style}
        min_style hftn
        minimize ${etol} ${ftol} ${maxiter} ${maxeval}
        minimize 1e-12 ${ftol} ${maxiter} ${maxeval}
        minimize 1e-12 1e-08 ${maxiter} ${maxeval}
        minimize 1e-12 1e-08 10000 ${maxeval}
        minimize 1e-12 1e-08 10000 20000
WARNING: Resetting reneighboring criteria during minimization (../min.cpp:168)
Memory usage per processor = 5.02109 Mbytes
Step Temp PotEng Lx Ly Lz 
      14            0   -2902.2732    2.2449241    55.058388    3.8883226 
Loop time of 0.000364902 on 1 procs for 0 steps with 488 atoms

Minimization stats:
  Stopping criterion = force tolerance
  Energy initial, next-to-last, final = 
        -2902.27317173     -2902.27317173     -2902.27317173
  Force two-norm initial, final = 1.29517e-12 1.29517e-12
  Force max component initial, final = 7.76571e-14 7.76571e-14
  Final line search alpha, max atom move = 0 0
  Iterations, force evaluations = 0 0

Pair  time (%) = 0.000342981 (93.9926)
Neigh time (%) = 0 (0)
Comm  time (%) = 1.39369e-05 (3.81936)
Outpt time (%) = 0 (0)
Other time (%) = 7.98411e-06 (2.18802)

Nlocal:    488 ave 488 max 488 min
Histogram: 1 0 0 0 0 0 0 0 0 0
Nghost:    3081 ave 3081 max 3081 min
Histogram: 1 0 0 0 0 0 0 0 0 0
Neighs:    13456 ave 13456 max 13456 min
Histogram: 1 0 0 0 0 0 0 0 0 0

Total # of neighbors = 13456
Ave neighs/atom = 27.5738
Neighbor list builds = 0
Dangerous builds = 0
	# write_dump all atom ${dumpfile}
        next i
jump SELF loop1
        displace_atoms upper move 0.0 ${ystep1} 0.0 units lattice
        displace_atoms upper move 0.0 0.00288675134594812 0.0 units lattice
        min_style ${style}
        min_style hftn
        minimize ${etol} ${ftol} ${maxiter} ${maxeval}
        minimize 1e-12 ${ftol} ${maxiter} ${maxeval}
        minimize 1e-12 1e-08 ${maxiter} ${maxeval}
        minimize 1e-12 1e-08 10000 ${maxeval}
        minimize 1e-12 1e-08 10000 20000
WARNING: Resetting reneighboring criteria during minimization (../min.cpp:168)
Memory usage per processor = 5.02109 Mbytes
Step Temp PotEng Lx Ly Lz 
      14            0   -2901.9968    2.2449241    55.063679    3.8883226 
Loop time of 0.000315106 on 1 procs for 0 steps with 488 atoms

Minimization stats:
  Stopping criterion = force tolerance
  Energy initial, next-to-last, final = 
        -2901.99679574     -2901.99679574     -2901.99679574
  Force two-norm initial, final = 1.29671e-12 1.29671e-12
  Force max component initial, final = 7.76571e-14 7.76571e-14
  Final line search alpha, max atom move = 0 0
  Iterations, force evaluations = 0 0

Pair  time (%) = 0.000302947 (96.1412)
Neigh time (%) = 0 (0)
Comm  time (%) = 6.87712e-06 (2.18248)
Outpt time (%) = 0 (0)
Other time (%) = 5.28223e-06 (1.67633)

Nlocal:    488 ave 488 max 488 min
Histogram: 1 0 0 0 0 0 0 0 0 0
Nghost:    3081 ave 3081 max 3081 min
Histogram: 1 0 0 0 0 0 0 0 0 0
Neighs:    13456 ave 13456 max 13456 min
Histogram: 1 0 0 0 0 0 0 0 0 0

Total # of neighbors = 13456
Ave neighs/atom = 27.5738
Neighbor list builds = 0
Dangerous builds = 0
	# write_dump all atom ${dumpfile}
        next i
jump SELF loop1
        displace_atoms upper move 0.0 ${ystep1} 0.0 units lattice
        displace_atoms upper move 0.0 0.00288675134594812 0.0 units lattice
        min_style ${style}
        min_style hftn
        minimize ${etol} ${ftol} ${maxiter} ${maxeval}
        minimize 1e-12 ${ftol} ${maxiter} ${maxeval}
        minimize 1e-12 1e-08 ${maxiter} ${maxeval}
        minimize 1e-12 1e-08 10000 ${maxeval}
        minimize 1e-12 1e-08 10000 20000
WARNING: Resetting reneighboring criteria during minimization (../min.cpp:168)
Memory usage per processor = 5.02109 Mbytes
Step Temp PotEng Lx Ly Lz 
      14            0   -2901.7074    2.2449241    55.068971    3.8883226 
Loop time of 0.00022203 on 1 procs for 0 steps with 488 atoms

Minimization stats:
  Stopping criterion = force tolerance
  Energy initial, next-to-last, final = 
        -2901.70742638     -2901.70742638     -2901.70742638
  Force two-norm initial, final = 1.30132e-12 1.30132e-12
  Force max component initial, final = 8.20455e-14 8.20455e-14
  Final line search alpha, max atom move = 0 0
  Iterations, force evaluations = 0 0

Pair  time (%) = 0.000210109 (94.6309)
Neigh time (%) = 0 (0)
Comm  time (%) = 6.94557e-06 (3.12822)
Outpt time (%) = 0 (0)
Other time (%) = 4.97536e-06 (2.24085)

Nlocal:    488 ave 488 max 488 min
Histogram: 1 0 0 0 0 0 0 0 0 0
Nghost:    3081 ave 3081 max 3081 min
Histogram: 1 0 0 0 0 0 0 0 0 0
Neighs:    13456 ave 13456 max 13456 min
Histogram: 1 0 0 0 0 0 0 0 0 0

Total # of neighbors = 13456
Ave neighs/atom = 27.5738
Neighbor list builds = 0
Dangerous builds = 0
	# write_dump all atom ${dumpfile}
        next i
jump SELF loop1
        displace_atoms upper move 0.0 ${ystep1} 0.0 units lattice
        displace_atoms upper move 0.0 0.00288675134594812 0.0 units lattice
        min_style ${style}
        min_style hftn
        minimize ${etol} ${ftol} ${maxiter} ${maxeval}
        minimize 1e-12 ${ftol} ${maxiter} ${maxeval}
        minimize 1e-12 1e-08 ${maxiter} ${maxeval}
        minimize 1e-12 1e-08 10000 ${maxeval}
        minimize 1e-12 1e-08 10000 20000
WARNING: Resetting reneighboring criteria during minimization (../min.cpp:168)
Memory usage per processor = 5.02109 Mbytes
Step Temp PotEng Lx Ly Lz 
      14            0   -2901.3756    2.2449241    55.074262    3.8883226 
Loop time of 0.000373059 on 1 procs for 0 steps with 488 atoms

Minimization stats:
  Stopping criterion = force tolerance
  Energy initial, next-to-last, final = 
        -2901.37559154     -2901.37559154     -2901.37559154
  Force two-norm initial, final = 1.29883e-12 1.29883e-12
  Force max component initial, final = 8.12683e-14 8.12683e-14
  Final line search alpha, max atom move = 0 0
  Iterations, force evaluations = 0 0

Pair  time (%) = 0.0003509 (94.0601)
Neigh time (%) = 0 (0)
Comm  time (%) = 1.38606e-05 (3.7154)
Outpt time (%) = 0 (0)
Other time (%) = 8.29867e-06 (2.22449)

Nlocal:    488 ave 488 max 488 min
Histogram: 1 0 0 0 0 0 0 0 0 0
Nghost:    3081 ave 3081 max 3081 min
Histogram: 1 0 0 0 0 0 0 0 0 0
Neighs:    13456 ave 13456 max 13456 min
Histogram: 1 0 0 0 0 0 0 0 0 0

Total # of neighbors = 13456
Ave neighs/atom = 27.5738
Neighbor list builds = 0
Dangerous builds = 0
	# write_dump all atom ${dumpfile}
        next i
jump SELF loop1
        displace_atoms upper move 0.0 ${ystep1} 0.0 units lattice
        displace_atoms upper move 0.0 0.00288675134594812 0.0 units lattice
        min_style ${style}
        min_style hftn
        minimize ${etol} ${ftol} ${maxiter} ${maxeval}
        minimize 1e-12 ${ftol} ${maxiter} ${maxeval}
        minimize 1e-12 1e-08 ${maxiter} ${maxeval}
        minimize 1e-12 1e-08 10000 ${maxeval}
        minimize 1e-12 1e-08 10000 20000
WARNING: Resetting reneighboring criteria during minimization (../min.cpp:168)
Memory usage per processor = 5.02109 Mbytes
Step Temp PotEng Lx Ly Lz 
      14            0    -2900.987    2.2449241    55.079553    3.8883226 
Loop time of 0.00114405 on 1 procs for 0 steps with 488 atoms

Minimization stats:
  Stopping criterion = force tolerance
  Energy initial, next-to-last, final = 
        -2900.98704452     -2900.98704452     -2900.98704452
  Force two-norm initial, final = 1.29922e-12 1.29922e-12
  Force max component initial, final = 8.0378e-14 8.0378e-14
  Final line search alpha, max atom move = 0 0
  Iterations, force evaluations = 0 0

Pair  time (%) = 0.00110709 (96.7687)
Neigh time (%) = 0 (0)
Comm  time (%) = 2.30151e-05 (2.01171)
Outpt time (%) = 0 (0)
Other time (%) = 1.39521e-05 (1.21954)

Nlocal:    488 ave 488 max 488 min
Histogram: 1 0 0 0 0 0 0 0 0 0
Nghost:    3081 ave 3081 max 3081 min
Histogram: 1 0 0 0 0 0 0 0 0 0
Neighs:    13456 ave 13456 max 13456 min
Histogram: 1 0 0 0 0 0 0 0 0 0

Total # of neighbors = 13456
Ave neighs/atom = 27.5738
Neighbor list builds = 0
Dangerous builds = 0
	# write_dump all atom ${dumpfile}
        next i
jump SELF loop1
        displace_atoms upper move 0.0 ${ystep1} 0.0 units lattice
        displace_atoms upper move 0.0 0.00288675134594812 0.0 units lattice
        min_style ${style}
        min_style hftn
        minimize ${etol} ${ftol} ${maxiter} ${maxeval}
        minimize 1e-12 ${ftol} ${maxiter} ${maxeval}
        minimize 1e-12 1e-08 ${maxiter} ${maxeval}
        minimize 1e-12 1e-08 10000 ${maxeval}
        minimize 1e-12 1e-08 10000 20000
WARNING: Resetting reneighboring criteria during minimization (../min.cpp:168)
Memory usage per processor = 5.02109 Mbytes
Step Temp PotEng Lx Ly Lz 
      14            0   -2900.5452    2.2449241    55.084845    3.8883226 
Loop time of 0.000365029 on 1 procs for 0 steps with 488 atoms

Minimization stats:
  Stopping criterion = force tolerance
  Energy initial, next-to-last, final = 
        -2900.54517552     -2900.54517552     -2900.54517552
  Force two-norm initial, final = 1.2978e-12 1.2978e-12
  Force max component initial, final = 7.76571e-14 7.76571e-14
  Final line search alpha, max atom move = 0 0
  Iterations, force evaluations = 0 0

Pair  time (%) = 0.000343108 (93.9947)
Neigh time (%) = 0 (0)
Comm  time (%) = 1.2953e-05 (3.54847)
Outpt time (%) = 0 (0)
Other time (%) = 8.96794e-06 (2.45678)

Nlocal:    488 ave 488 max 488 min
Histogram: 1 0 0 0 0 0 0 0 0 0
Nghost:    3081 ave 3081 max 3081 min
Histogram: 1 0 0 0 0 0 0 0 0 0
Neighs:    13456 ave 13456 max 13456 min
Histogram: 1 0 0 0 0 0 0 0 0 0

Total # of neighbors = 13456
Ave neighs/atom = 27.5738
Neighbor list builds = 0
Dangerous builds = 0
	# write_dump all atom ${dumpfile}
        next i
jump SELF loop1
        displace_atoms upper move 0.0 ${ystep1} 0.0 units lattice
        displace_atoms upper move 0.0 0.00288675134594812 0.0 units lattice
        min_style ${style}
        min_style hftn
        minimize ${etol} ${ftol} ${maxiter} ${maxeval}
        minimize 1e-12 ${ftol} ${maxiter} ${maxeval}
        minimize 1e-12 1e-08 ${maxiter} ${maxeval}
        minimize 1e-12 1e-08 10000 ${maxeval}
        minimize 1e-12 1e-08 10000 20000
WARNING: Resetting reneighboring criteria during minimization (../min.cpp:168)
Memory usage per processor = 5.02109 Mbytes
Step Temp PotEng Lx Ly Lz 
      14            0   -2900.0534    2.2449241    55.090136    3.8883226 
Loop time of 0.000391043 on 1 procs for 0 steps with 488 atoms

Minimization stats:
  Stopping criterion = force tolerance
  Energy initial, next-to-last, final = 
        -2900.05337697     -2900.05337697     -2900.05337697
  Force two-norm initial, final = 1.29659e-12 1.29659e-12
  Force max component initial, final = 7.9222e-14 7.9222e-14
  Final line search alpha, max atom move = 0 0
  Iterations, force evaluations = 0 0

Pair  time (%) = 0.000370076 (94.6381)
Neigh time (%) = 0 (0)
Comm  time (%) = 1.39474e-05 (3.56671)
Outpt time (%) = 0 (0)
Other time (%) = 7.01996e-06 (1.79519)

Nlocal:    488 ave 488 max 488 min
Histogram: 1 0 0 0 0 0 0 0 0 0
Nghost:    3081 ave 3081 max 3081 min
Histogram: 1 0 0 0 0 0 0 0 0 0
Neighs:    13456 ave 13456 max 13456 min
Histogram: 1 0 0 0 0 0 0 0 0 0

Total # of neighbors = 13456
Ave neighs/atom = 27.5738
Neighbor list builds = 0
Dangerous builds = 0
	# write_dump all atom ${dumpfile}
        next i
jump SELF loop1
        displace_atoms upper move 0.0 ${ystep1} 0.0 units lattice
        displace_atoms upper move 0.0 0.00288675134594812 0.0 units lattice
        min_style ${style}
        min_style hftn
        minimize ${etol} ${ftol} ${maxiter} ${maxeval}
        minimize 1e-12 ${ftol} ${maxiter} ${maxeval}
        minimize 1e-12 1e-08 ${maxiter} ${maxeval}
        minimize 1e-12 1e-08 10000 ${maxeval}
        minimize 1e-12 1e-08 10000 20000
WARNING: Resetting reneighboring criteria during minimization (../min.cpp:168)
Memory usage per processor = 5.02109 Mbytes
Step Temp PotEng Lx Ly Lz 
      14            0   -2899.5151    2.2449241    55.095427    3.8883226 
Loop time of 0.000369104 on 1 procs for 0 steps with 488 atoms

Minimization stats:
  Stopping criterion = force tolerance
  Energy initial, next-to-last, final = 
        -2899.51508182     -2899.51508182     -2899.51508182
  Force two-norm initial, final = 1.29978e-12 1.29978e-12
  Force max component initial, final = 7.84438e-14 7.84438e-14
  Final line search alpha, max atom move = 0 0
  Iterations, force evaluations = 0 0

Pair  time (%) = 0.000346945 (93.9965)
Neigh time (%) = 0 (0)
Comm  time (%) = 1.50043e-05 (4.06506)
Outpt time (%) = 0 (0)
Other time (%) = 7.155e-06 (1.93848)

Nlocal:    488 ave 488 max 488 min
Histogram: 1 0 0 0 0 0 0 0 0 0
Nghost:    3081 ave 3081 max 3081 min
Histogram: 1 0 0 0 0 0 0 0 0 0
Neighs:    13456 ave 13456 max 13456 min
Histogram: 1 0 0 0 0 0 0 0 0 0

Total # of neighbors = 13456
Ave neighs/atom = 27.5738
Neighbor list builds = 0
Dangerous builds = 0
	# write_dump all atom ${dumpfile}
        next i
jump SELF loop1
        displace_atoms upper move 0.0 ${ystep1} 0.0 units lattice
        displace_atoms upper move 0.0 0.00288675134594812 0.0 units lattice
        min_style ${style}
        min_style hftn
        minimize ${etol} ${ftol} ${maxiter} ${maxeval}
        minimize 1e-12 ${ftol} ${maxiter} ${maxeval}
        minimize 1e-12 1e-08 ${maxiter} ${maxeval}
        minimize 1e-12 1e-08 10000 ${maxeval}
        minimize 1e-12 1e-08 10000 20000
WARNING: Resetting reneighboring criteria during minimization (../min.cpp:168)
Memory usage per processor = 5.02109 Mbytes
Step Temp PotEng Lx Ly Lz 
      14            0   -2898.9338    2.2449241    55.100719    3.8883226 
Loop time of 0.000354075 on 1 procs for 0 steps with 488 atoms

Minimization stats:
  Stopping criterion = force tolerance
  Energy initial, next-to-last, final = 
        -2898.93376528     -2898.93376528     -2898.93376528
  Force two-norm initial, final = 1.29777e-12 1.29777e-12
  Force max component initial, final = 7.76571e-14 7.76571e-14
  Final line search alpha, max atom move = 0 0
  Iterations, force evaluations = 0 0

Pair  time (%) = 0.000342883 (96.839)
Neigh time (%) = 0 (0)
Comm  time (%) = 7.11286e-06 (2.00885)
Outpt time (%) = 0 (0)
Other time (%) = 4.07931e-06 (1.1521)

Nlocal:    488 ave 488 max 488 min
Histogram: 1 0 0 0 0 0 0 0 0 0
Nghost:    3081 ave 3081 max 3081 min
Histogram: 1 0 0 0 0 0 0 0 0 0
Neighs:    13456 ave 13456 max 13456 min
Histogram: 1 0 0 0 0 0 0 0 0 0

Total # of neighbors = 13456
Ave neighs/atom = 27.5738
Neighbor list builds = 0
Dangerous builds = 0
	# write_dump all atom ${dumpfile}
        next i
jump SELF loop1
        displace_atoms upper move 0.0 ${ystep1} 0.0 units lattice
        displace_atoms upper move 0.0 0.00288675134594812 0.0 units lattice
        min_style ${style}
        min_style hftn
        minimize ${etol} ${ftol} ${maxiter} ${maxeval}
        minimize 1e-12 ${ftol} ${maxiter} ${maxeval}
        minimize 1e-12 1e-08 ${maxiter} ${maxeval}
        minimize 1e-12 1e-08 10000 ${maxeval}
        minimize 1e-12 1e-08 10000 20000
WARNING: Resetting reneighboring criteria during minimization (../min.cpp:168)
Memory usage per processor = 5.02109 Mbytes
Step Temp PotEng Lx Ly Lz 
      14            0   -2898.3129    2.2449241     55.10601    3.8883226 
Loop time of 0.000364 on 1 procs for 0 steps with 488 atoms

Minimization stats:
  Stopping criterion = force tolerance
  Energy initial, next-to-last, final = 
        -2898.31294001     -2898.31294001     -2898.31294001
  Force two-norm initial, final = 1.29512e-12 1.29512e-12
  Force max component initial, final = 7.76571e-14 7.76571e-14
  Final line search alpha, max atom move = 0 0
  Iterations, force evaluations = 0 0

Pair  time (%) = 0.000343033 (94.2398)
Neigh time (%) = 0 (0)
Comm  time (%) = 1.30405e-05 (3.58256)
Outpt time (%) = 0 (0)
Other time (%) = 7.92672e-06 (2.17767)

Nlocal:    488 ave 488 max 488 min
Histogram: 1 0 0 0 0 0 0 0 0 0
Nghost:    3081 ave 3081 max 3081 min
Histogram: 1 0 0 0 0 0 0 0 0 0
Neighs:    13456 ave 13456 max 13456 min
Histogram: 1 0 0 0 0 0 0 0 0 0

Total # of neighbors = 13456
Ave neighs/atom = 27.5738
Neighbor list builds = 0
Dangerous builds = 0
	# write_dump all atom ${dumpfile}
        next i
jump SELF loop1
        displace_atoms upper move 0.0 ${ystep1} 0.0 units lattice
        displace_atoms upper move 0.0 0.00288675134594812 0.0 units lattice
        min_style ${style}
        min_style hftn
        minimize ${etol} ${ftol} ${maxiter} ${maxeval}
        minimize 1e-12 ${ftol} ${maxiter} ${maxeval}
        minimize 1e-12 1e-08 ${maxiter} ${maxeval}
        minimize 1e-12 1e-08 10000 ${maxeval}
        minimize 1e-12 1e-08 10000 20000
WARNING: Resetting reneighboring criteria during minimization (../min.cpp:168)
Memory usage per processor = 5.02109 Mbytes
Step Temp PotEng Lx Ly Lz 
      14            0   -2897.6562    2.2449241    55.111301    3.8883226 
Loop time of 0.00036195 on 1 procs for 0 steps with 488 atoms

Minimization stats:
  Stopping criterion = force tolerance
  Energy initial, next-to-last, final = 
        -2897.65615721     -2897.65615721     -2897.65615721
  Force two-norm initial, final = 1.2988e-12 1.2988e-12
  Force max component initial, final = 7.76571e-14 7.76571e-14
  Final line search alpha, max atom move = 0 0
  Iterations, force evaluations = 0 0

Pair  time (%) = 0.000340982 (94.2071)
Neigh time (%) = 0 (0)
Comm  time (%) = 1.50398e-05 (4.15522)
Outpt time (%) = 0 (0)
Other time (%) = 5.92752e-06 (1.63766)

Nlocal:    488 ave 488 max 488 min
Histogram: 1 0 0 0 0 0 0 0 0 0
Nghost:    3081 ave 3081 max 3081 min
Histogram: 1 0 0 0 0 0 0 0 0 0
Neighs:    13456 ave 13456 max 13456 min
Histogram: 1 0 0 0 0 0 0 0 0 0

Total # of neighbors = 13456
Ave neighs/atom = 27.5738
Neighbor list builds = 0
Dangerous builds = 0
	# write_dump all atom ${dumpfile}
        next i
jump SELF loop1
        displace_atoms upper move 0.0 ${ystep1} 0.0 units lattice
        displace_atoms upper move 0.0 0.00288675134594812 0.0 units lattice
        min_style ${style}
        min_style hftn
        minimize ${etol} ${ftol} ${maxiter} ${maxeval}
        minimize 1e-12 ${ftol} ${maxiter} ${maxeval}
        minimize 1e-12 1e-08 ${maxiter} ${maxeval}
        minimize 1e-12 1e-08 10000 ${maxeval}
        minimize 1e-12 1e-08 10000 20000
WARNING: Resetting reneighboring criteria during minimization (../min.cpp:168)
Memory usage per processor = 5.02109 Mbytes
Step Temp PotEng Lx Ly Lz 
      14            0   -2896.9669    2.2449241    55.116593    3.8883226 
Loop time of 0.000307959 on 1 procs for 0 steps with 488 atoms

Minimization stats:
  Stopping criterion = force tolerance
  Energy initial, next-to-last, final = 
        -2896.96694664     -2896.96694664     -2896.96694664
  Force two-norm initial, final = 1.29701e-12 1.29701e-12
  Force max component initial, final = 7.76571e-14 7.76571e-14
  Final line search alpha, max atom move = 0 0
  Iterations, force evaluations = 0 0

Pair  time (%) = 0.000207992 (67.5388)
Neigh time (%) = 0 (0)
Comm  time (%) = 9.31427e-05 (30.2452)
Outpt time (%) = 0 (0)
Other time (%) = 6.8245e-06 (2.21604)

Nlocal:    488 ave 488 max 488 min
Histogram: 1 0 0 0 0 0 0 0 0 0
Nghost:    3081 ave 3081 max 3081 min
Histogram: 1 0 0 0 0 0 0 0 0 0
Neighs:    13456 ave 13456 max 13456 min
Histogram: 1 0 0 0 0 0 0 0 0 0

Total # of neighbors = 13456
Ave neighs/atom = 27.5738
Neighbor list builds = 0
Dangerous builds = 0
	# write_dump all atom ${dumpfile}
        next i
jump SELF loop1
        displace_atoms upper move 0.0 ${ystep1} 0.0 units lattice
        displace_atoms upper move 0.0 0.00288675134594812 0.0 units lattice
        min_style ${style}
        min_style hftn
        minimize ${etol} ${ftol} ${maxiter} ${maxeval}
        minimize 1e-12 ${ftol} ${maxiter} ${maxeval}
        minimize 1e-12 1e-08 ${maxiter} ${maxeval}
        minimize 1e-12 1e-08 10000 ${maxeval}
        minimize 1e-12 1e-08 10000 20000
WARNING: Resetting reneighboring criteria during minimization (../min.cpp:168)
Memory usage per processor = 5.02109 Mbytes
Step Temp PotEng Lx Ly Lz 
      14            0    -2896.249    2.2449241    55.121884    3.8883226 
Loop time of 0.000364016 on 1 procs for 0 steps with 488 atoms

Minimization stats:
  Stopping criterion = force tolerance
  Energy initial, next-to-last, final = 
        -2896.24896576     -2896.24896576     -2896.24896576
  Force two-norm initial, final = 1.29392e-12 1.29392e-12
  Force max component initial, final = 7.76571e-14 7.76571e-14
  Final line search alpha, max atom move = 0 0
  Iterations, force evaluations = 0 0

Pair  time (%) = 0.000342095 (93.978)
Neigh time (%) = 0 (0)
Comm  time (%) = 1.50726e-05 (4.14066)
Outpt time (%) = 0 (0)
Other time (%) = 6.84825e-06 (1.88131)

Nlocal:    488 ave 488 max 488 min
Histogram: 1 0 0 0 0 0 0 0 0 0
Nghost:    3081 ave 3081 max 3081 min
Histogram: 1 0 0 0 0 0 0 0 0 0
Neighs:    13456 ave 13456 max 13456 min
Histogram: 1 0 0 0 0 0 0 0 0 0

Total # of neighbors = 13456
Ave neighs/atom = 27.5738
Neighbor list builds = 0
Dangerous builds = 0
	# write_dump all atom ${dumpfile}
        next i
jump SELF loop1
        displace_atoms upper move 0.0 ${ystep1} 0.0 units lattice
        displace_atoms upper move 0.0 0.00288675134594812 0.0 units lattice
        min_style ${style}
        min_style hftn
        minimize ${etol} ${ftol} ${maxiter} ${maxeval}
        minimize 1e-12 ${ftol} ${maxiter} ${maxeval}
        minimize 1e-12 1e-08 ${maxiter} ${maxeval}
        minimize 1e-12 1e-08 10000 ${maxeval}
        minimize 1e-12 1e-08 10000 20000
WARNING: Resetting reneighboring criteria during minimization (../min.cpp:168)
Memory usage per processor = 5.02109 Mbytes
Step Temp PotEng Lx Ly Lz 
      14            0   -2895.5059    2.2449241    55.127175    3.8883226 
Loop time of 0.000364958 on 1 procs for 0 steps with 488 atoms

Minimization stats:
  Stopping criterion = force tolerance
  Energy initial, next-to-last, final = 
        -2895.50588591     -2895.50588591     -2895.50588591
  Force two-norm initial, final = 1.29743e-12 1.29743e-12
  Force max component initial, final = 7.76571e-14 7.76571e-14
  Final line search alpha, max atom move = 0 0
  Iterations, force evaluations = 0 0

Pair  time (%) = 0.00035299 (96.7209)
Neigh time (%) = 0 (0)
Comm  time (%) = 6.94278e-06 (1.90235)
Outpt time (%) = 0 (0)
Other time (%) = 5.02449e-06 (1.37673)

Nlocal:    488 ave 488 max 488 min
Histogram: 1 0 0 0 0 0 0 0 0 0
Nghost:    3081 ave 3081 max 3081 min
Histogram: 1 0 0 0 0 0 0 0 0 0
Neighs:    13456 ave 13456 max 13456 min
Histogram: 1 0 0 0 0 0 0 0 0 0

Total # of neighbors = 13456
Ave neighs/atom = 27.5738
Neighbor list builds = 0
Dangerous builds = 0
	# write_dump all atom ${dumpfile}
        next i
jump SELF loop1
        displace_atoms upper move 0.0 ${ystep1} 0.0 units lattice
        displace_atoms upper move 0.0 0.00288675134594812 0.0 units lattice
        min_style ${style}
        min_style hftn
        minimize ${etol} ${ftol} ${maxiter} ${maxeval}
        minimize 1e-12 ${ftol} ${maxiter} ${maxeval}
        minimize 1e-12 1e-08 ${maxiter} ${maxeval}
        minimize 1e-12 1e-08 10000 ${maxeval}
        minimize 1e-12 1e-08 10000 20000
WARNING: Resetting reneighboring criteria during minimization (../min.cpp:168)
Memory usage per processor = 5.02109 Mbytes
Step Temp PotEng Lx Ly Lz 
      14            0   -2894.7414    2.2449241    55.132467    3.8883226 
Loop time of 0.000384091 on 1 procs for 0 steps with 488 atoms

Minimization stats:
  Stopping criterion = force tolerance
  Energy initial, next-to-last, final = 
        -2894.74138742     -2894.74138742     -2894.74138742
  Force two-norm initial, final = 1.29678e-12 1.29678e-12
  Force max component initial, final = 7.76571e-14 7.76571e-14
  Final line search alpha, max atom move = 0 0
  Iterations, force evaluations = 0 0

Pair  time (%) = 0.000361932 (94.2307)
Neigh time (%) = 0 (0)
Comm  time (%) = 1.49573e-05 (3.8942)
Outpt time (%) = 0 (0)
Other time (%) = 7.20203e-06 (1.87509)

Nlocal:    488 ave 488 max 488 min
Histogram: 1 0 0 0 0 0 0 0 0 0
Nghost:    3081 ave 3081 max 3081 min
Histogram: 1 0 0 0 0 0 0 0 0 0
Neighs:    13456 ave 13456 max 13456 min
Histogram: 1 0 0 0 0 0 0 0 0 0

Total # of neighbors = 13456
Ave neighs/atom = 27.5738
Neighbor list builds = 0
Dangerous builds = 0
	# write_dump all atom ${dumpfile}
        next i
jump SELF loop1
        displace_atoms upper move 0.0 ${ystep1} 0.0 units lattice
        displace_atoms upper move 0.0 0.00288675134594812 0.0 units lattice
        min_style ${style}
        min_style hftn
        minimize ${etol} ${ftol} ${maxiter} ${maxeval}
        minimize 1e-12 ${ftol} ${maxiter} ${maxeval}
        minimize 1e-12 1e-08 ${maxiter} ${maxeval}
        minimize 1e-12 1e-08 10000 ${maxeval}
        minimize 1e-12 1e-08 10000 20000
WARNING: Resetting reneighboring criteria during minimization (../min.cpp:168)
Memory usage per processor = 5.02109 Mbytes
Step Temp PotEng Lx Ly Lz 
      14            0   -2893.9591    2.2449241    55.137758    3.8883226 
Loop time of 0.00100904 on 1 procs for 0 steps with 488 atoms

Minimization stats:
  Stopping criterion = force tolerance
  Energy initial, next-to-last, final = 
        -2893.95914141     -2893.95914141     -2893.95914141
  Force two-norm initial, final = 1.29325e-12 1.29325e-12
  Force max component initial, final = 7.76571e-14 7.76571e-14
  Final line search alpha, max atom move = 0 0
  Iterations, force evaluations = 0 0

Pair  time (%) = 0.000985882 (97.7048)
Neigh time (%) = 0 (0)
Comm  time (%) = 1.39625e-05 (1.38374)
Outpt time (%) = 0 (0)
Other time (%) = 9.19681e-06 (0.911441)

Nlocal:    488 ave 488 max 488 min
Histogram: 1 0 0 0 0 0 0 0 0 0
Nghost:    3081 ave 3081 max 3081 min
Histogram: 1 0 0 0 0 0 0 0 0 0
Neighs:    13456 ave 13456 max 13456 min
Histogram: 1 0 0 0 0 0 0 0 0 0

Total # of neighbors = 13456
Ave neighs/atom = 27.5738
Neighbor list builds = 0
Dangerous builds = 0
	# write_dump all atom ${dumpfile}
        next i
jump SELF loop1
        displace_atoms upper move 0.0 ${ystep1} 0.0 units lattice
        displace_atoms upper move 0.0 0.00288675134594812 0.0 units lattice
        min_style ${style}
        min_style hftn
        minimize ${etol} ${ftol} ${maxiter} ${maxeval}
        minimize 1e-12 ${ftol} ${maxiter} ${maxeval}
        minimize 1e-12 1e-08 ${maxiter} ${maxeval}
        minimize 1e-12 1e-08 10000 ${maxeval}
        minimize 1e-12 1e-08 10000 20000
WARNING: Resetting reneighboring criteria during minimization (../min.cpp:168)
Memory usage per processor = 5.02109 Mbytes
Step Temp PotEng Lx Ly Lz 
      14            0   -2893.1629    2.2449241    55.143049    3.8883226 
Loop time of 0.00420903 on 1 procs for 0 steps with 488 atoms

Minimization stats:
  Stopping criterion = force tolerance
  Energy initial, next-to-last, final = 
        -2893.16293689     -2893.16293689     -2893.16293689
  Force two-norm initial, final = 1.29663e-12 1.29663e-12
  Force max component initial, final = 7.76571e-14 7.76571e-14
  Final line search alpha, max atom move = 0 0
  Iterations, force evaluations = 0 0

Pair  time (%) = 0.000295068 (7.01034)
Neigh time (%) = 0 (0)
Comm  time (%) = 0.00390679 (92.8192)
Outpt time (%) = 0 (0)
Other time (%) = 7.17293e-06 (0.170417)

Nlocal:    488 ave 488 max 488 min
Histogram: 1 0 0 0 0 0 0 0 0 0
Nghost:    3081 ave 3081 max 3081 min
Histogram: 1 0 0 0 0 0 0 0 0 0
Neighs:    13456 ave 13456 max 13456 min
Histogram: 1 0 0 0 0 0 0 0 0 0

Total # of neighbors = 13456
Ave neighs/atom = 27.5738
Neighbor list builds = 0
Dangerous builds = 0
	# write_dump all atom ${dumpfile}
        next i
jump SELF loop1
        displace_atoms upper move 0.0 ${ystep1} 0.0 units lattice
        displace_atoms upper move 0.0 0.00288675134594812 0.0 units lattice
        min_style ${style}
        min_style hftn
        minimize ${etol} ${ftol} ${maxiter} ${maxeval}
        minimize 1e-12 ${ftol} ${maxiter} ${maxeval}
        minimize 1e-12 1e-08 ${maxiter} ${maxeval}
        minimize 1e-12 1e-08 10000 ${maxeval}
        minimize 1e-12 1e-08 10000 20000
WARNING: Resetting reneighboring criteria during minimization (../min.cpp:168)
Memory usage per processor = 5.02109 Mbytes
Step Temp PotEng Lx Ly Lz 
      14            0   -2892.3565    2.2449241    55.148341    3.8883226 
Loop time of 0.000399921 on 1 procs for 0 steps with 488 atoms

Minimization stats:
  Stopping criterion = force tolerance
  Energy initial, next-to-last, final = 
        -2892.35654784     -2892.35654784     -2892.35654784
  Force two-norm initial, final = 1.29572e-12 1.29572e-12
  Force max component initial, final = 7.76571e-14 7.76571e-14
  Final line search alpha, max atom move = 0 0
  Iterations, force evaluations = 0 0

Pair  time (%) = 0.000348065 (87.0336)
Neigh time (%) = 0 (0)
Comm  time (%) = 2.58812e-05 (6.47159)
Outpt time (%) = 0 (0)
Other time (%) = 2.59742e-05 (6.49485)

Nlocal:    488 ave 488 max 488 min
Histogram: 1 0 0 0 0 0 0 0 0 0
Nghost:    3081 ave 3081 max 3081 min
Histogram: 1 0 0 0 0 0 0 0 0 0
Neighs:    13456 ave 13456 max 13456 min
Histogram: 1 0 0 0 0 0 0 0 0 0

Total # of neighbors = 13456
Ave neighs/atom = 27.5738
Neighbor list builds = 0
Dangerous builds = 0
	# write_dump all atom ${dumpfile}
        next i
jump SELF loop1
        displace_atoms upper move 0.0 ${ystep1} 0.0 units lattice
        displace_atoms upper move 0.0 0.00288675134594812 0.0 units lattice
        min_style ${style}
        min_style hftn
        minimize ${etol} ${ftol} ${maxiter} ${maxeval}
        minimize 1e-12 ${ftol} ${maxiter} ${maxeval}
        minimize 1e-12 1e-08 ${maxiter} ${maxeval}
        minimize 1e-12 1e-08 10000 ${maxeval}
        minimize 1e-12 1e-08 10000 20000
WARNING: Resetting reneighboring criteria during minimization (../min.cpp:168)
Memory usage per processor = 5.02109 Mbytes
Step Temp PotEng Lx Ly Lz 
      14            0   -2891.5438    2.2449241    55.153632    3.8883226 
Loop time of 0.000215012 on 1 procs for 0 steps with 488 atoms

Minimization stats:
  Stopping criterion = force tolerance
  Energy initial, next-to-last, final = 
        -2891.54377812     -2891.54377812     -2891.54377812
  Force two-norm initial, final = 1.2928e-12 1.2928e-12
  Force max component initial, final = 7.76571e-14 7.76571e-14
  Final line search alpha, max atom move = 0 0
  Iterations, force evaluations = 0 0

Pair  time (%) = 0.000193045 (89.7832)
Neigh time (%) = 0 (0)
Comm  time (%) = 1.6031e-05 (7.45584)
Outpt time (%) = 0 (0)
Other time (%) = 5.93637e-06 (2.76094)

Nlocal:    488 ave 488 max 488 min
Histogram: 1 0 0 0 0 0 0 0 0 0
Nghost:    3081 ave 3081 max 3081 min
Histogram: 1 0 0 0 0 0 0 0 0 0
Neighs:    13456 ave 13456 max 13456 min
Histogram: 1 0 0 0 0 0 0 0 0 0

Total # of neighbors = 13456
Ave neighs/atom = 27.5738
Neighbor list builds = 0
Dangerous builds = 0
	# write_dump all atom ${dumpfile}
        next i
jump SELF loop1
        displace_atoms upper move 0.0 ${ystep1} 0.0 units lattice
        displace_atoms upper move 0.0 0.00288675134594812 0.0 units lattice
        min_style ${style}
        min_style hftn
        minimize ${etol} ${ftol} ${maxiter} ${maxeval}
        minimize 1e-12 ${ftol} ${maxiter} ${maxeval}
        minimize 1e-12 1e-08 ${maxiter} ${maxeval}
        minimize 1e-12 1e-08 10000 ${maxeval}
        minimize 1e-12 1e-08 10000 20000
WARNING: Resetting reneighboring criteria during minimization (../min.cpp:168)
Memory usage per processor = 5.02109 Mbytes
Step Temp PotEng Lx Ly Lz 
      14            0   -2890.7285    2.2449241    55.158923    3.8883226 
Loop time of 0.000373095 on 1 procs for 0 steps with 488 atoms

Minimization stats:
  Stopping criterion = force tolerance
  Energy initial, next-to-last, final = 
        -2890.72847373     -2890.72847373     -2890.72847373
  Force two-norm initial, final = 1.29571e-12 1.29571e-12
  Force max component initial, final = 7.76571e-14 7.76571e-14
  Final line search alpha, max atom move = 0 0
  Iterations, force evaluations = 0 0

Pair  time (%) = 0.000351889 (94.3163)
Neigh time (%) = 0 (0)
Comm  time (%) = 1.29323e-05 (3.46624)
Outpt time (%) = 0 (0)
Other time (%) = 8.27329e-06 (2.21748)

Nlocal:    488 ave 488 max 488 min
Histogram: 1 0 0 0 0 0 0 0 0 0
Nghost:    3081 ave 3081 max 3081 min
Histogram: 1 0 0 0 0 0 0 0 0 0
Neighs:    13456 ave 13456 max 13456 min
Histogram: 1 0 0 0 0 0 0 0 0 0

Total # of neighbors = 13456
Ave neighs/atom = 27.5738
Neighbor list builds = 0
Dangerous builds = 0
	# write_dump all atom ${dumpfile}
        next i
jump SELF loop1
        displace_atoms upper move 0.0 ${ystep1} 0.0 units lattice
        displace_atoms upper move 0.0 0.00288675134594812 0.0 units lattice
        min_style ${style}
        min_style hftn
        minimize ${etol} ${ftol} ${maxiter} ${maxeval}
        minimize 1e-12 ${ftol} ${maxiter} ${maxeval}
        minimize 1e-12 1e-08 ${maxiter} ${maxeval}
        minimize 1e-12 1e-08 10000 ${maxeval}
        minimize 1e-12 1e-08 10000 20000
WARNING: Resetting reneighboring criteria during minimization (../min.cpp:168)
Memory usage per processor = 5.02109 Mbytes
Step Temp PotEng Lx Ly Lz 
      14            0   -2889.9145    2.2449241    55.164215    3.8883226 
Loop time of 0.000379905 on 1 procs for 0 steps with 488 atoms

Minimization stats:
  Stopping criterion = force tolerance
  Energy initial, next-to-last, final = 
        -2889.91452334     -2889.91452334     -2889.91452334
  Force two-norm initial, final = 1.29477e-12 1.29477e-12
  Force max component initial, final = 7.76571e-14 7.76571e-14
  Final line search alpha, max atom move = 0 0
  Iterations, force evaluations = 0 0

Pair  time (%) = 0.00035603 (93.7156)
Neigh time (%) = 0 (0)
Comm  time (%) = 1.51156e-05 (3.97878)
Outpt time (%) = 0 (0)
Other time (%) = 8.75909e-06 (2.3056)

Nlocal:    488 ave 488 max 488 min
Histogram: 1 0 0 0 0 0 0 0 0 0
Nghost:    3081 ave 3081 max 3081 min
Histogram: 1 0 0 0 0 0 0 0 0 0
Neighs:    13456 ave 13456 max 13456 min
Histogram: 1 0 0 0 0 0 0 0 0 0

Total # of neighbors = 13456
Ave neighs/atom = 27.5738
Neighbor list builds = 0
Dangerous builds = 0
	# write_dump all atom ${dumpfile}
        next i
jump SELF loop1
        displace_atoms upper move 0.0 ${ystep1} 0.0 units lattice
        displace_atoms upper move 0.0 0.00288675134594812 0.0 units lattice
        min_style ${style}
        min_style hftn
        minimize ${etol} ${ftol} ${maxiter} ${maxeval}
        minimize 1e-12 ${ftol} ${maxiter} ${maxeval}
        minimize 1e-12 1e-08 ${maxiter} ${maxeval}
        minimize 1e-12 1e-08 10000 ${maxeval}
        minimize 1e-12 1e-08 10000 20000
WARNING: Resetting reneighboring criteria during minimization (../min.cpp:168)
Memory usage per processor = 5.02109 Mbytes
Step Temp PotEng Lx Ly Lz 
      14            0   -2889.1058    2.2449241    55.169506    3.8883226 
Loop time of 0.000382045 on 1 procs for 0 steps with 488 atoms

Minimization stats:
  Stopping criterion = force tolerance
  Energy initial, next-to-last, final = 
        -2889.10580804     -2889.10580804     -2889.10580804
  Force two-norm initial, final = 1.29218e-12 1.29218e-12
  Force max component initial, final = 7.76571e-14 7.76571e-14
  Final line search alpha, max atom move = 0 0
  Iterations, force evaluations = 0 0

Pair  time (%) = 0.000359078 (93.9883)
Neigh time (%) = 0 (0)
Comm  time (%) = 1.59187e-05 (4.16672)
Outpt time (%) = 0 (0)
Other time (%) = 7.04848e-06 (1.84493)

Nlocal:    488 ave 488 max 488 min
Histogram: 1 0 0 0 0 0 0 0 0 0
Nghost:    3081 ave 3081 max 3081 min
Histogram: 1 0 0 0 0 0 0 0 0 0
Neighs:    13456 ave 13456 max 13456 min
Histogram: 1 0 0 0 0 0 0 0 0 0

Total # of neighbors = 13456
Ave neighs/atom = 27.5738
Neighbor list builds = 0
Dangerous builds = 0
	# write_dump all atom ${dumpfile}
        next i
jump SELF loop1
        displace_atoms upper move 0.0 ${ystep1} 0.0 units lattice
        displace_atoms upper move 0.0 0.00288675134594812 0.0 units lattice
        min_style ${style}
        min_style hftn
        minimize ${etol} ${ftol} ${maxiter} ${maxeval}
        minimize 1e-12 ${ftol} ${maxiter} ${maxeval}
        minimize 1e-12 1e-08 ${maxiter} ${maxeval}
        minimize 1e-12 1e-08 10000 ${maxeval}
        minimize 1e-12 1e-08 10000 20000
WARNING: Resetting reneighboring criteria during minimization (../min.cpp:168)
Memory usage per processor = 5.02109 Mbytes
Step Temp PotEng Lx Ly Lz 
      14            0   -2888.3063    2.2449241    55.174797    3.8883226 
Loop time of 0.000435081 on 1 procs for 0 steps with 488 atoms

Minimization stats:
  Stopping criterion = force tolerance
  Energy initial, next-to-last, final = 
        -2888.30627215     -2888.30627215     -2888.30627215
  Force two-norm initial, final = 1.29484e-12 1.29484e-12
  Force max component initial, final = 7.76571e-14 7.76571e-14
  Final line search alpha, max atom move = 0 0
  Iterations, force evaluations = 0 0

Pair  time (%) = 0.000391901 (90.0755)
Neigh time (%) = 0 (0)
Comm  time (%) = 2.2869e-05 (5.25626)
Outpt time (%) = 0 (0)
Other time (%) = 2.03107e-05 (4.66827)

Nlocal:    488 ave 488 max 488 min
Histogram: 1 0 0 0 0 0 0 0 0 0
Nghost:    3081 ave 3081 max 3081 min
Histogram: 1 0 0 0 0 0 0 0 0 0
Neighs:    13360 ave 13360 max 13360 min
Histogram: 1 0 0 0 0 0 0 0 0 0

Total # of neighbors = 13360
Ave neighs/atom = 27.377
Neighbor list builds = 0
Dangerous builds = 0
	# write_dump all atom ${dumpfile}
        next i
jump SELF loop1
        displace_atoms upper move 0.0 ${ystep1} 0.0 units lattice
        displace_atoms upper move 0.0 0.00288675134594812 0.0 units lattice
        min_style ${style}
        min_style hftn
        minimize ${etol} ${ftol} ${maxiter} ${maxeval}
        minimize 1e-12 ${ftol} ${maxiter} ${maxeval}
        minimize 1e-12 1e-08 ${maxiter} ${maxeval}
        minimize 1e-12 1e-08 10000 ${maxeval}
        minimize 1e-12 1e-08 10000 20000
WARNING: Resetting reneighboring criteria during minimization (../min.cpp:168)
Memory usage per processor = 5.02109 Mbytes
Step Temp PotEng Lx Ly Lz 
      14            0   -2887.5199    2.2449241    55.180089    3.8883226 
Loop time of 0.000390933 on 1 procs for 0 steps with 488 atoms

Minimization stats:
  Stopping criterion = force tolerance
  Energy initial, next-to-last, final = 
        -2887.51990372     -2887.51990372     -2887.51990372
  Force two-norm initial, final = 1.29395e-12 1.29395e-12
  Force max component initial, final = 7.76571e-14 7.76571e-14
  Final line search alpha, max atom move = 0 0
  Iterations, force evaluations = 0 0

Pair  time (%) = 0.000368966 (94.3808)
Neigh time (%) = 0 (0)
Comm  time (%) = 1.49197e-05 (3.81643)
Outpt time (%) = 0 (0)
Other time (%) = 7.04755e-06 (1.80275)

Nlocal:    488 ave 488 max 488 min
Histogram: 1 0 0 0 0 0 0 0 0 0
Nghost:    3081 ave 3081 max 3081 min
Histogram: 1 0 0 0 0 0 0 0 0 0
Neighs:    13360 ave 13360 max 13360 min
Histogram: 1 0 0 0 0 0 0 0 0 0

Total # of neighbors = 13360
Ave neighs/atom = 27.377
Neighbor list builds = 0
Dangerous builds = 0
	# write_dump all atom ${dumpfile}
        next i
jump SELF loop1
        displace_atoms upper move 0.0 ${ystep1} 0.0 units lattice
        displace_atoms upper move 0.0 0.00288675134594812 0.0 units lattice
        min_style ${style}
        min_style hftn
        minimize ${etol} ${ftol} ${maxiter} ${maxeval}
        minimize 1e-12 ${ftol} ${maxiter} ${maxeval}
        minimize 1e-12 1e-08 ${maxiter} ${maxeval}
        minimize 1e-12 1e-08 10000 ${maxeval}
        minimize 1e-12 1e-08 10000 20000
WARNING: Resetting reneighboring criteria during minimization (../min.cpp:168)
Memory usage per processor = 5.02109 Mbytes
Step Temp PotEng Lx Ly Lz 
      14            0   -2886.7506    2.2449241     55.18538    3.8883226 
Loop time of 0.000551037 on 1 procs for 0 steps with 488 atoms

Minimization stats:
  Stopping criterion = force tolerance
  Energy initial, next-to-last, final = 
        -2886.75064838     -2886.75064838     -2886.75064838
  Force two-norm initial, final = 1.29168e-12 1.29168e-12
  Force max component initial, final = 7.76571e-14 7.76571e-14
  Final line search alpha, max atom move = 0 0
  Iterations, force evaluations = 0 0

Pair  time (%) = 0.000511964 (92.9091)
Neigh time (%) = 0 (0)
Comm  time (%) = 2.80166e-05 (5.08434)
Outpt time (%) = 0 (0)
Other time (%) = 1.10569e-05 (2.00656)

Nlocal:    488 ave 488 max 488 min
Histogram: 1 0 0 0 0 0 0 0 0 0
Nghost:    3081 ave 3081 max 3081 min
Histogram: 1 0 0 0 0 0 0 0 0 0
Neighs:    13360 ave 13360 max 13360 min
Histogram: 1 0 0 0 0 0 0 0 0 0

Total # of neighbors = 13360
Ave neighs/atom = 27.377
Neighbor list builds = 0
Dangerous builds = 0
	# write_dump all atom ${dumpfile}
        next i
jump SELF loop1
        displace_atoms upper move 0.0 ${ystep1} 0.0 units lattice
        displace_atoms upper move 0.0 0.00288675134594812 0.0 units lattice
        min_style ${style}
        min_style hftn
        minimize ${etol} ${ftol} ${maxiter} ${maxeval}
        minimize 1e-12 ${ftol} ${maxiter} ${maxeval}
        minimize 1e-12 1e-08 ${maxiter} ${maxeval}
        minimize 1e-12 1e-08 10000 ${maxeval}
        minimize 1e-12 1e-08 10000 20000
WARNING: Resetting reneighboring criteria during minimization (../min.cpp:168)
Memory usage per processor = 5.02109 Mbytes
Step Temp PotEng Lx Ly Lz 
      14            0   -2886.0025    2.2449241    55.190671    3.8883226 
Loop time of 0.000392077 on 1 procs for 0 steps with 488 atoms

Minimization stats:
  Stopping criterion = force tolerance
  Energy initial, next-to-last, final = 
        -2886.00252763     -2886.00252763     -2886.00252763
  Force two-norm initial, final = 1.29399e-12 1.29399e-12
  Force max component initial, final = 7.76571e-14 7.76571e-14
  Final line search alpha, max atom move = 0 0
  Iterations, force evaluations = 0 0

Pair  time (%) = 0.000368918 (94.0932)
Neigh time (%) = 0 (0)
Comm  time (%) = 1.50622e-05 (3.84163)
Outpt time (%) = 0 (0)
Other time (%) = 8.09715e-06 (2.06519)

Nlocal:    488 ave 488 max 488 min
Histogram: 1 0 0 0 0 0 0 0 0 0
Nghost:    3081 ave 3081 max 3081 min
Histogram: 1 0 0 0 0 0 0 0 0 0
Neighs:    13360 ave 13360 max 13360 min
Histogram: 1 0 0 0 0 0 0 0 0 0

Total # of neighbors = 13360
Ave neighs/atom = 27.377
Neighbor list builds = 0
Dangerous builds = 0
	# write_dump all atom ${dumpfile}
        next i
jump SELF loop1
        displace_atoms upper move 0.0 ${ystep1} 0.0 units lattice
        displace_atoms upper move 0.0 0.00288675134594812 0.0 units lattice
        min_style ${style}
        min_style hftn
        minimize ${etol} ${ftol} ${maxiter} ${maxeval}
        minimize 1e-12 ${ftol} ${maxiter} ${maxeval}
        minimize 1e-12 1e-08 ${maxiter} ${maxeval}
        minimize 1e-12 1e-08 10000 ${maxeval}
        minimize 1e-12 1e-08 10000 20000
WARNING: Resetting reneighboring criteria during minimization (../min.cpp:168)
Memory usage per processor = 5.02109 Mbytes
Step Temp PotEng Lx Ly Lz 
      14            0   -2885.2797    2.2449241    55.195963    3.8883226 
Loop time of 0.000390924 on 1 procs for 0 steps with 488 atoms

Minimization stats:
  Stopping criterion = force tolerance
  Energy initial, next-to-last, final = 
          -2885.279665       -2885.279665       -2885.279665
  Force two-norm initial, final = 1.29368e-12 1.29368e-12
  Force max component initial, final = 7.76571e-14 7.76571e-14
  Final line search alpha, max atom move = 0 0
  Iterations, force evaluations = 0 0

Pair  time (%) = 0.00035089 (89.7591)
Neigh time (%) = 0 (0)
Comm  time (%) = 2.09478e-05 (5.35853)
Outpt time (%) = 0 (0)
Other time (%) = 1.90862e-05 (4.88232)

Nlocal:    488 ave 488 max 488 min
Histogram: 1 0 0 0 0 0 0 0 0 0
Nghost:    3081 ave 3081 max 3081 min
Histogram: 1 0 0 0 0 0 0 0 0 0
Neighs:    13360 ave 13360 max 13360 min
Histogram: 1 0 0 0 0 0 0 0 0 0

Total # of neighbors = 13360
Ave neighs/atom = 27.377
Neighbor list builds = 0
Dangerous builds = 0
	# write_dump all atom ${dumpfile}
        next i
jump SELF loop1
        displace_atoms upper move 0.0 ${ystep1} 0.0 units lattice
        displace_atoms upper move 0.0 0.00288675134594812 0.0 units lattice
        min_style ${style}
        min_style hftn
        minimize ${etol} ${ftol} ${maxiter} ${maxeval}
        minimize 1e-12 ${ftol} ${maxiter} ${maxeval}
        minimize 1e-12 1e-08 ${maxiter} ${maxeval}
        minimize 1e-12 1e-08 10000 ${maxeval}
        minimize 1e-12 1e-08 10000 20000
WARNING: Resetting reneighboring criteria during minimization (../min.cpp:168)
Memory usage per processor = 5.02181 Mbytes
Step Temp PotEng Lx Ly Lz 
      14            0   -2884.5861    2.2449241    55.201254    3.8883226 
Loop time of 0.000335009 on 1 procs for 0 steps with 488 atoms

Minimization stats:
  Stopping criterion = force tolerance
  Energy initial, next-to-last, final = 
        -2884.58608239     -2884.58608239     -2884.58608239
  Force two-norm initial, final = 1.29109e-12 1.29109e-12
  Force max component initial, final = 7.76571e-14 7.76571e-14
  Final line search alpha, max atom move = 0 0
  Iterations, force evaluations = 0 0

Pair  time (%) = 0.000312041 (93.1443)
Neigh time (%) = 0 (0)
Comm  time (%) = 1.50531e-05 (4.49334)
Outpt time (%) = 0 (0)
Other time (%) = 7.91415e-06 (2.36237)

Nlocal:    488 ave 488 max 488 min
Histogram: 1 0 0 0 0 0 0 0 0 0
Nghost:    3081 ave 3081 max 3081 min
Histogram: 1 0 0 0 0 0 0 0 0 0
Neighs:    13360 ave 13360 max 13360 min
Histogram: 1 0 0 0 0 0 0 0 0 0

Total # of neighbors = 13360
Ave neighs/atom = 27.377
Neighbor list builds = 0
Dangerous builds = 0
	# write_dump all atom ${dumpfile}
        next i
jump SELF loop1
        displace_atoms upper move 0.0 ${ystep1} 0.0 units lattice
        displace_atoms upper move 0.0 0.00288675134594812 0.0 units lattice
        min_style ${style}
        min_style hftn
        minimize ${etol} ${ftol} ${maxiter} ${maxeval}
        minimize 1e-12 ${ftol} ${maxiter} ${maxeval}
        minimize 1e-12 1e-08 ${maxiter} ${maxeval}
        minimize 1e-12 1e-08 10000 ${maxeval}
        minimize 1e-12 1e-08 10000 20000
WARNING: Resetting reneighboring criteria during minimization (../min.cpp:168)
Memory usage per processor = 5.02181 Mbytes
Step Temp PotEng Lx Ly Lz 
      14            0   -2883.9259    2.2449241    55.206545    3.8883226 
Loop time of 0.000346986 on 1 procs for 0 steps with 488 atoms

Minimization stats:
  Stopping criterion = force tolerance
  Energy initial, next-to-last, final = 
        -2883.92587729     -2883.92587729     -2883.92587729
  Force two-norm initial, final = 1.29298e-12 1.29298e-12
  Force max component initial, final = 7.76571e-14 7.76571e-14
  Final line search alpha, max atom move = 0 0
  Iterations, force evaluations = 0 0

Pair  time (%) = 0.000324065 (93.3943)
Neigh time (%) = 0 (0)
Comm  time (%) = 1.51321e-05 (4.36103)
Outpt time (%) = 0 (0)
Other time (%) = 7.78877e-06 (2.2447)

Nlocal:    488 ave 488 max 488 min
Histogram: 1 0 0 0 0 0 0 0 0 0
Nghost:    3081 ave 3081 max 3081 min
Histogram: 1 0 0 0 0 0 0 0 0 0
Neighs:    13360 ave 13360 max 13360 min
Histogram: 1 0 0 0 0 0 0 0 0 0

Total # of neighbors = 13360
Ave neighs/atom = 27.377
Neighbor list builds = 0
Dangerous builds = 0
	# write_dump all atom ${dumpfile}
        next i
jump SELF loop1
        displace_atoms upper move 0.0 ${ystep1} 0.0 units lattice
        displace_atoms upper move 0.0 0.00288675134594812 0.0 units lattice
        min_style ${style}
        min_style hftn
        minimize ${etol} ${ftol} ${maxiter} ${maxeval}
        minimize 1e-12 ${ftol} ${maxiter} ${maxeval}
        minimize 1e-12 1e-08 ${maxiter} ${maxeval}
        minimize 1e-12 1e-08 10000 ${maxeval}
        minimize 1e-12 1e-08 10000 20000
WARNING: Resetting reneighboring criteria during minimization (../min.cpp:168)
Memory usage per processor = 5.02181 Mbytes
Step Temp PotEng Lx Ly Lz 
      14            0   -2883.3032    2.2449241    55.211837    3.8883226 
Loop time of 0.00039109 on 1 procs for 0 steps with 488 atoms

Minimization stats:
  Stopping criterion = force tolerance
  Energy initial, next-to-last, final = 
        -2883.30318504     -2883.30318504     -2883.30318504
  Force two-norm initial, final = 1.29302e-12 1.29302e-12
  Force max component initial, final = 7.76571e-14 7.76571e-14
  Final line search alpha, max atom move = 0 0
  Iterations, force evaluations = 0 0

Pair  time (%) = 0.000368931 (94.334)
Neigh time (%) = 0 (0)
Comm  time (%) = 1.40413e-05 (3.5903)
Outpt time (%) = 0 (0)
Other time (%) = 8.11799e-06 (2.07573)

Nlocal:    488 ave 488 max 488 min
Histogram: 1 0 0 0 0 0 0 0 0 0
Nghost:    3081 ave 3081 max 3081 min
Histogram: 1 0 0 0 0 0 0 0 0 0
Neighs:    13360 ave 13360 max 13360 min
Histogram: 1 0 0 0 0 0 0 0 0 0

Total # of neighbors = 13360
Ave neighs/atom = 27.377
Neighbor list builds = 0
Dangerous builds = 0
	# write_dump all atom ${dumpfile}
        next i
jump SELF loop1
        displace_atoms upper move 0.0 ${ystep1} 0.0 units lattice
        displace_atoms upper move 0.0 0.00288675134594812 0.0 units lattice
        min_style ${style}
        min_style hftn
        minimize ${etol} ${ftol} ${maxiter} ${maxeval}
        minimize 1e-12 ${ftol} ${maxiter} ${maxeval}
        minimize 1e-12 1e-08 ${maxiter} ${maxeval}
        minimize 1e-12 1e-08 10000 ${maxeval}
        minimize 1e-12 1e-08 10000 20000
WARNING: Resetting reneighboring criteria during minimization (../min.cpp:168)
Memory usage per processor = 5.02181 Mbytes
Step Temp PotEng Lx Ly Lz 
      14            0   -2882.7222    2.2449241    55.217128    3.8883226 
Loop time of 0.000320101 on 1 procs for 0 steps with 488 atoms

Minimization stats:
  Stopping criterion = force tolerance
  Energy initial, next-to-last, final = 
        -2882.72216488     -2882.72216488     -2882.72216488
  Force two-norm initial, final = 1.28947e-12 1.28947e-12
  Force max component initial, final = 7.76571e-14 7.76571e-14
  Final line search alpha, max atom move = 0 0
  Iterations, force evaluations = 0 0

Pair  time (%) = 0.000297895 (93.0629)
Neigh time (%) = 0 (0)
Comm  time (%) = 1.50648e-05 (4.70628)
Outpt time (%) = 0 (0)
Other time (%) = 7.1408e-06 (2.2308)

Nlocal:    488 ave 488 max 488 min
Histogram: 1 0 0 0 0 0 0 0 0 0
Nghost:    3081 ave 3081 max 3081 min
Histogram: 1 0 0 0 0 0 0 0 0 0
Neighs:    13360 ave 13360 max 13360 min
Histogram: 1 0 0 0 0 0 0 0 0 0

Total # of neighbors = 13360
Ave neighs/atom = 27.377
Neighbor list builds = 0
Dangerous builds = 0
	# write_dump all atom ${dumpfile}
        next i
jump SELF loop1
        displace_atoms upper move 0.0 ${ystep1} 0.0 units lattice
        displace_atoms upper move 0.0 0.00288675134594812 0.0 units lattice
        min_style ${style}
        min_style hftn
        minimize ${etol} ${ftol} ${maxiter} ${maxeval}
        minimize 1e-12 ${ftol} ${maxiter} ${maxeval}
        minimize 1e-12 1e-08 ${maxiter} ${maxeval}
        minimize 1e-12 1e-08 10000 ${maxeval}
        minimize 1e-12 1e-08 10000 20000
WARNING: Resetting reneighboring criteria during minimization (../min.cpp:168)
Memory usage per processor = 5.02181 Mbytes
Step Temp PotEng Lx Ly Lz 
      14            0    -2882.187    2.2449241    55.222419    3.8883226 
Loop time of 0.000370071 on 1 procs for 0 steps with 488 atoms

Minimization stats:
  Stopping criterion = force tolerance
  Energy initial, next-to-last, final = 
        -2882.18700213     -2882.18700213     -2882.18700213
  Force two-norm initial, final = 1.29206e-12 1.29206e-12
  Force max component initial, final = 7.76571e-14 7.76571e-14
  Final line search alpha, max atom move = 0 0
  Iterations, force evaluations = 0 0

Pair  time (%) = 0.000340044 (91.8861)
Neigh time (%) = 0 (0)
Comm  time (%) = 1.41159e-05 (3.81439)
Outpt time (%) = 0 (0)
Other time (%) = 1.59112e-05 (4.2995)

Nlocal:    488 ave 488 max 488 min
Histogram: 1 0 0 0 0 0 0 0 0 0
Nghost:    3081 ave 3081 max 3081 min
Histogram: 1 0 0 0 0 0 0 0 0 0
Neighs:    13360 ave 13360 max 13360 min
Histogram: 1 0 0 0 0 0 0 0 0 0

Total # of neighbors = 13360
Ave neighs/atom = 27.377
Neighbor list builds = 0
Dangerous builds = 0
	# write_dump all atom ${dumpfile}
        next i
jump SELF loop1
        displace_atoms upper move 0.0 ${ystep1} 0.0 units lattice
        displace_atoms upper move 0.0 0.00288675134594812 0.0 units lattice
        min_style ${style}
        min_style hftn
        minimize ${etol} ${ftol} ${maxiter} ${maxeval}
        minimize 1e-12 ${ftol} ${maxiter} ${maxeval}
        minimize 1e-12 1e-08 ${maxiter} ${maxeval}
        minimize 1e-12 1e-08 10000 ${maxeval}
        minimize 1e-12 1e-08 10000 20000
WARNING: Resetting reneighboring criteria during minimization (../min.cpp:168)
Memory usage per processor = 5.02181 Mbytes
Step Temp PotEng Lx Ly Lz 
      14            0   -2881.7019    2.2449241    55.227711    3.8883226 
Loop time of 0.000237888 on 1 procs for 0 steps with 488 atoms

Minimization stats:
  Stopping criterion = force tolerance
  Energy initial, next-to-last, final = 
        -2881.70190371     -2881.70190371     -2881.70190371
  Force two-norm initial, final = 1.2929e-12 1.2929e-12
  Force max component initial, final = 7.76571e-14 7.76571e-14
  Final line search alpha, max atom move = 0 0
  Iterations, force evaluations = 0 0

Pair  time (%) = 0.00016094 (67.6536)
Neigh time (%) = 0 (0)
Comm  time (%) = 5.31133e-05 (22.327)
Outpt time (%) = 0 (0)
Other time (%) = 2.38348e-05 (10.0193)

Nlocal:    488 ave 488 max 488 min
Histogram: 1 0 0 0 0 0 0 0 0 0
Nghost:    3081 ave 3081 max 3081 min
Histogram: 1 0 0 0 0 0 0 0 0 0
Neighs:    13360 ave 13360 max 13360 min
Histogram: 1 0 0 0 0 0 0 0 0 0

Total # of neighbors = 13360
Ave neighs/atom = 27.377
Neighbor list builds = 0
Dangerous builds = 0
	# write_dump all atom ${dumpfile}
        next i
jump SELF loop1
        displace_atoms upper move 0.0 ${ystep1} 0.0 units lattice
        displace_atoms upper move 0.0 0.00288675134594812 0.0 units lattice
        min_style ${style}
        min_style hftn
        minimize ${etol} ${ftol} ${maxiter} ${maxeval}
        minimize 1e-12 ${ftol} ${maxiter} ${maxeval}
        minimize 1e-12 1e-08 ${maxiter} ${maxeval}
        minimize 1e-12 1e-08 10000 ${maxeval}
        minimize 1e-12 1e-08 10000 20000
WARNING: Resetting reneighboring criteria during minimization (../min.cpp:168)
Memory usage per processor = 5.02181 Mbytes
Step Temp PotEng Lx Ly Lz 
      14            0   -2881.2711    2.2449241    55.233002    3.8883226 
Loop time of 0.000363002 on 1 procs for 0 steps with 488 atoms

Minimization stats:
  Stopping criterion = force tolerance
  Energy initial, next-to-last, final = 
        -2881.27109816     -2881.27109816     -2881.27109816
  Force two-norm initial, final = 1.28832e-12 1.28832e-12
  Force max component initial, final = 7.76571e-14 7.76571e-14
  Final line search alpha, max atom move = 0 0
  Iterations, force evaluations = 0 0

Pair  time (%) = 0.000341081 (93.9612)
Neigh time (%) = 0 (0)
Comm  time (%) = 1.28058e-05 (3.52775)
Outpt time (%) = 0 (0)
Other time (%) = 9.11509e-06 (2.51103)

Nlocal:    488 ave 488 max 488 min
Histogram: 1 0 0 0 0 0 0 0 0 0
Nghost:    3081 ave 3081 max 3081 min
Histogram: 1 0 0 0 0 0 0 0 0 0
Neighs:    13360 ave 13360 max 13360 min
Histogram: 1 0 0 0 0 0 0 0 0 0

Total # of neighbors = 13360
Ave neighs/atom = 27.377
Neighbor list builds = 0
Dangerous builds = 0
	# write_dump all atom ${dumpfile}
        next i
jump SELF loop1
        displace_atoms upper move 0.0 ${ystep1} 0.0 units lattice
        displace_atoms upper move 0.0 0.00288675134594812 0.0 units lattice
        min_style ${style}
        min_style hftn
        minimize ${etol} ${ftol} ${maxiter} ${maxeval}
        minimize 1e-12 ${ftol} ${maxiter} ${maxeval}
        minimize 1e-12 1e-08 ${maxiter} ${maxeval}
        minimize 1e-12 1e-08 10000 ${maxeval}
        minimize 1e-12 1e-08 10000 20000
WARNING: Resetting reneighboring criteria during minimization (../min.cpp:168)
Memory usage per processor = 5.02181 Mbytes
Step Temp PotEng Lx Ly Lz 
      14            0   -2880.8988    2.2449241    55.238293    3.8883226 
Loop time of 0.000861073 on 1 procs for 0 steps with 488 atoms

Minimization stats:
  Stopping criterion = force tolerance
  Energy initial, next-to-last, final = 
        -2880.89883245     -2880.89883245     -2880.89883245
  Force two-norm initial, final = 1.29262e-12 1.29262e-12
  Force max component initial, final = 7.76571e-14 7.76571e-14
  Final line search alpha, max atom move = 0 0
  Iterations, force evaluations = 0 0

Pair  time (%) = 0.000830914 (96.4975)
Neigh time (%) = 0 (0)
Comm  time (%) = 1.89531e-05 (2.2011)
Outpt time (%) = 0 (0)
Other time (%) = 1.12063e-05 (1.30143)

Nlocal:    488 ave 488 max 488 min
Histogram: 1 0 0 0 0 0 0 0 0 0
Nghost:    3081 ave 3081 max 3081 min
Histogram: 1 0 0 0 0 0 0 0 0 0
Neighs:    13360 ave 13360 max 13360 min
Histogram: 1 0 0 0 0 0 0 0 0 0

Total # of neighbors = 13360
Ave neighs/atom = 27.377
Neighbor list builds = 0
Dangerous builds = 0
	# write_dump all atom ${dumpfile}
        next i
jump SELF loop1
        displace_atoms upper move 0.0 ${ystep1} 0.0 units lattice
[...]
Nghost:    3081 ave 3081 max 3081 min
Histogram: 1 0 0 0 0 0 0 0 0 0
Neighs:    13248 ave 13248 max 13248 min
Histogram: 1 0 0 0 0 0 0 0 0 0

Total # of neighbors = 13248
Ave neighs/atom = 27.1475
Neighbor list builds = 0
Dangerous builds = 0
	# write_dump all atom ${dumpfile}
        next i
jump SELF loop1
        displace_atoms upper move 0.0 ${ystep1} 0.0 units lattice
        displace_atoms upper move 0.0 0.00288675134594812 0.0 units lattice
        min_style ${style}
        min_style hftn
        minimize ${etol} ${ftol} ${maxiter} ${maxeval}
        minimize 1e-12 ${ftol} ${maxiter} ${maxeval}
        minimize 1e-12 1e-08 ${maxiter} ${maxeval}
        minimize 1e-12 1e-08 10000 ${maxeval}
        minimize 1e-12 1e-08 10000 20000
WARNING: Resetting reneighboring criteria during minimization (../min.cpp:168)
Memory usage per processor = 5.02181 Mbytes
Step Temp PotEng Lx Ly Lz 
      14            0   -2879.9976    2.2449241    56.534671    3.8883226 
Loop time of 0.000393038 on 1 procs for 0 steps with 488 atoms

Minimization stats:
  Stopping criterion = force tolerance
  Energy initial, next-to-last, final = 
        -2879.99760522     -2879.99760522     -2879.99760522
  Force two-norm initial, final = 1.29189e-12 1.29189e-12
  Force max component initial, final = 7.76571e-14 7.76571e-14
  Final line search alpha, max atom move = 0 0
  Iterations, force evaluations = 0 0

Pair  time (%) = 0.000369925 (94.1194)
Neigh time (%) = 0 (0)
Comm  time (%) = 1.38383e-05 (3.52085)
Outpt time (%) = 0 (0)
Other time (%) = 9.27469e-06 (2.35974)

Nlocal:    488 ave 488 max 488 min
Histogram: 1 0 0 0 0 0 0 0 0 0
Nghost:    3081 ave 3081 max 3081 min
Histogram: 1 0 0 0 0 0 0 0 0 0
Neighs:    13248 ave 13248 max 13248 min
Histogram: 1 0 0 0 0 0 0 0 0 0

Total # of neighbors = 13248
Ave neighs/atom = 27.1475
Neighbor list builds = 0
Dangerous builds = 0
	# write_dump all atom ${dumpfile}
        next i
jump SELF loop1
        displace_atoms upper move 0.0 ${ystep1} 0.0 units lattice
        displace_atoms upper move 0.0 0.00288675134594812 0.0 units lattice
        min_style ${style}
        min_style hftn
        minimize ${etol} ${ftol} ${maxiter} ${maxeval}
        minimize 1e-12 ${ftol} ${maxiter} ${maxeval}
        minimize 1e-12 1e-08 ${maxiter} ${maxeval}
        minimize 1e-12 1e-08 10000 ${maxeval}
        minimize 1e-12 1e-08 10000 20000
WARNING: Resetting reneighboring criteria during minimization (../min.cpp:168)
Memory usage per processor = 5.02181 Mbytes
Step Temp PotEng Lx Ly Lz 
      14            0   -2879.9976    2.2449241    56.539962    3.8883226 
Loop time of 0.000831077 on 1 procs for 0 steps with 488 atoms

Minimization stats:
  Stopping criterion = force tolerance
  Energy initial, next-to-last, final = 
        -2879.99760522     -2879.99760522     -2879.99760522
  Force two-norm initial, final = 1.29138e-12 1.29138e-12
  Force max component initial, final = 7.76571e-14 7.76571e-14
  Final line search alpha, max atom move = 0 0
  Iterations, force evaluations = 0 0

Pair  time (%) = 0.000507918 (61.1156)
Neigh time (%) = 0 (0)
Comm  time (%) = 0.000315018 (37.9048)
Outpt time (%) = 0 (0)
Other time (%) = 8.14139e-06 (0.979619)

Nlocal:    488 ave 488 max 488 min
Histogram: 1 0 0 0 0 0 0 0 0 0
Nghost:    3081 ave 3081 max 3081 min
Histogram: 1 0 0 0 0 0 0 0 0 0
Neighs:    13248 ave 13248 max 13248 min
Histogram: 1 0 0 0 0 0 0 0 0 0

Total # of neighbors = 13248
Ave neighs/atom = 27.1475
Neighbor list builds = 0
Dangerous builds = 0
	# write_dump all atom ${dumpfile}
        next i
jump SELF loop1
        displace_atoms upper move 0.0 ${ystep1} 0.0 units lattice
        displace_atoms upper move 0.0 0.00288675134594812 0.0 units lattice
        min_style ${style}
        min_style hftn
        minimize ${etol} ${ftol} ${maxiter} ${maxeval}
        minimize 1e-12 ${ftol} ${maxiter} ${maxeval}
        minimize 1e-12 1e-08 ${maxiter} ${maxeval}
        minimize 1e-12 1e-08 10000 ${maxeval}
        minimize 1e-12 1e-08 10000 20000
WARNING: Resetting reneighboring criteria during minimization (../min.cpp:168)
Memory usage per processor = 5.02181 Mbytes
Step Temp PotEng Lx Ly Lz 
      14            0   -2879.9976    2.2449241    56.545254    3.8883226 
Loop time of 0.00035893 on 1 procs for 0 steps with 488 atoms

Minimization stats:
  Stopping criterion = force tolerance
  Energy initial, next-to-last, final = 
        -2879.99760522     -2879.99760522     -2879.99760522
  Force two-norm initial, final = 1.29203e-12 1.29203e-12
  Force max component initial, final = 7.76571e-14 7.76571e-14
  Final line search alpha, max atom move = 0 0
  Iterations, force evaluations = 0 0

Pair  time (%) = 0.000337009 (93.8927)
Neigh time (%) = 0 (0)
Comm  time (%) = 1.39073e-05 (3.87466)
Outpt time (%) = 0 (0)
Other time (%) = 8.01357e-06 (2.23263)

Nlocal:    488 ave 488 max 488 min
Histogram: 1 0 0 0 0 0 0 0 0 0
Nghost:    3081 ave 3081 max 3081 min
Histogram: 1 0 0 0 0 0 0 0 0 0
Neighs:    13248 ave 13248 max 13248 min
Histogram: 1 0 0 0 0 0 0 0 0 0

Total # of neighbors = 13248
Ave neighs/atom = 27.1475
Neighbor list builds = 0
Dangerous builds = 0
	# write_dump all atom ${dumpfile}
        next i
jump SELF loop1
        displace_atoms upper move 0.0 ${ystep1} 0.0 units lattice
        displace_atoms upper move 0.0 0.00288675134594812 0.0 units lattice
        min_style ${style}
        min_style hftn
        minimize ${etol} ${ftol} ${maxiter} ${maxeval}
        minimize 1e-12 ${ftol} ${maxiter} ${maxeval}
        minimize 1e-12 1e-08 ${maxiter} ${maxeval}
        minimize 1e-12 1e-08 10000 ${maxeval}
        minimize 1e-12 1e-08 10000 20000
WARNING: Resetting reneighboring criteria during minimization (../min.cpp:168)
Memory usage per processor = 5.02181 Mbytes
Step Temp PotEng Lx Ly Lz 
      14            0   -2879.9976    2.2449241    56.550545    3.8883226 
Loop time of 0.000367889 on 1 procs for 0 steps with 488 atoms

Minimization stats:
  Stopping criterion = force tolerance
  Energy initial, next-to-last, final = 
        -2879.99760522     -2879.99760522     -2879.99760522
  Force two-norm initial, final = 1.29189e-12 1.29189e-12
  Force max component initial, final = 7.76571e-14 7.76571e-14
  Final line search alpha, max atom move = 0 0
  Iterations, force evaluations = 0 0

Pair  time (%) = 0.000345968 (94.0414)
Neigh time (%) = 0 (0)
Comm  time (%) = 1.50051e-05 (4.07871)
Outpt time (%) = 0 (0)
Other time (%) = 6.91577e-06 (1.87985)

Nlocal:    488 ave 488 max 488 min
Histogram: 1 0 0 0 0 0 0 0 0 0
Nghost:    3081 ave 3081 max 3081 min
Histogram: 1 0 0 0 0 0 0 0 0 0
Neighs:    13248 ave 13248 max 13248 min
Histogram: 1 0 0 0 0 0 0 0 0 0

Total # of neighbors = 13248
Ave neighs/atom = 27.1475
Neighbor list builds = 0
Dangerous builds = 0
	# write_dump all atom ${dumpfile}
        next i
jump SELF loop1
        displace_atoms upper move 0.0 ${ystep1} 0.0 units lattice
        displace_atoms upper move 0.0 0.00288675134594812 0.0 units lattice
        min_style ${style}
        min_style hftn
        minimize ${etol} ${ftol} ${maxiter} ${maxeval}
        minimize 1e-12 ${ftol} ${maxiter} ${maxeval}
        minimize 1e-12 1e-08 ${maxiter} ${maxeval}
        minimize 1e-12 1e-08 10000 ${maxeval}
        minimize 1e-12 1e-08 10000 20000
WARNING: Resetting reneighboring criteria during minimization (../min.cpp:168)
Memory usage per processor = 5.02181 Mbytes
Step Temp PotEng Lx Ly Lz 
      14            0   -2879.9976    2.2449241    56.555836    3.8883226 
Loop time of 0.000795984 on 1 procs for 0 steps with 488 atoms

Minimization stats:
  Stopping criterion = force tolerance
  Energy initial, next-to-last, final = 
        -2879.99760522     -2879.99760522     -2879.99760522
  Force two-norm initial, final = 1.29138e-12 1.29138e-12
  Force max component initial, final = 7.76571e-14 7.76571e-14
  Final line search alpha, max atom move = 0 0
  Iterations, force evaluations = 0 0

Pair  time (%) = 0.000717063 (90.0851)
Neigh time (%) = 0 (0)
Comm  time (%) = 4.27847e-05 (5.37507)
Outpt time (%) = 0 (0)
Other time (%) = 3.61361e-05 (4.53981)

Nlocal:    488 ave 488 max 488 min
Histogram: 1 0 0 0 0 0 0 0 0 0
Nghost:    3081 ave 3081 max 3081 min
Histogram: 1 0 0 0 0 0 0 0 0 0
Neighs:    13248 ave 13248 max 13248 min
Histogram: 1 0 0 0 0 0 0 0 0 0

Total # of neighbors = 13248
Ave neighs/atom = 27.1475
Neighbor list builds = 0
Dangerous builds = 0
	# write_dump all atom ${dumpfile}
        next i
jump SELF loop1
        displace_atoms upper move 0.0 ${ystep1} 0.0 units lattice
        displace_atoms upper move 0.0 0.00288675134594812 0.0 units lattice
        min_style ${style}
        min_style hftn
        minimize ${etol} ${ftol} ${maxiter} ${maxeval}
        minimize 1e-12 ${ftol} ${maxiter} ${maxeval}
        minimize 1e-12 1e-08 ${maxiter} ${maxeval}
        minimize 1e-12 1e-08 10000 ${maxeval}
        minimize 1e-12 1e-08 10000 20000
WARNING: Resetting reneighboring criteria during minimization (../min.cpp:168)
Memory usage per processor = 5.02181 Mbytes
Step Temp PotEng Lx Ly Lz 
      14            0   -2879.9976    2.2449241    56.561128    3.8883226 
Loop time of 0.000382958 on 1 procs for 0 steps with 488 atoms

Minimization stats:
  Stopping criterion = force tolerance
  Energy initial, next-to-last, final = 
        -2879.99760522     -2879.99760522     -2879.99760522
  Force two-norm initial, final = 1.29203e-12 1.29203e-12
  Force max component initial, final = 7.76571e-14 7.76571e-14
  Final line search alpha, max atom move = 0 0
  Iterations, force evaluations = 0 0

Pair  time (%) = 0.000371037 (96.8871)
Neigh time (%) = 0 (0)
Comm  time (%) = 7.10785e-06 (1.85604)
Outpt time (%) = 0 (0)
Other time (%) = 4.81308e-06 (1.25682)

Nlocal:    488 ave 488 max 488 min
Histogram: 1 0 0 0 0 0 0 0 0 0
Nghost:    3081 ave 3081 max 3081 min
Histogram: 1 0 0 0 0 0 0 0 0 0
Neighs:    13248 ave 13248 max 13248 min
Histogram: 1 0 0 0 0 0 0 0 0 0

Total # of neighbors = 13248
Ave neighs/atom = 27.1475
Neighbor list builds = 0
Dangerous builds = 0
	# write_dump all atom ${dumpfile}
        next i
jump SELF loop1
        displace_atoms upper move 0.0 ${ystep1} 0.0 units lattice
        displace_atoms upper move 0.0 0.00288675134594812 0.0 units lattice
        min_style ${style}
        min_style hftn
        minimize ${etol} ${ftol} ${maxiter} ${maxeval}
        minimize 1e-12 ${ftol} ${maxiter} ${maxeval}
        minimize 1e-12 1e-08 ${maxiter} ${maxeval}
        minimize 1e-12 1e-08 10000 ${maxeval}
        minimize 1e-12 1e-08 10000 20000
WARNING: Resetting reneighboring criteria during minimization (../min.cpp:168)
Memory usage per processor = 5.02181 Mbytes
Step Temp PotEng Lx Ly Lz 
      14            0   -2879.9976    2.2449241    56.566419    3.8883226 
Loop time of 0.000355099 on 1 procs for 0 steps with 488 atoms

Minimization stats:
  Stopping criterion = force tolerance
  Energy initial, next-to-last, final = 
        -2879.99760522     -2879.99760522     -2879.99760522
  Force two-norm initial, final = 1.29189e-12 1.29189e-12
  Force max component initial, final = 7.76571e-14 7.76571e-14
  Final line search alpha, max atom move = 0 0
  Iterations, force evaluations = 0 0

Pair  time (%) = 0.000331894 (93.465)
Neigh time (%) = 0 (0)
Comm  time (%) = 1.59221e-05 (4.48385)
Outpt time (%) = 0 (0)
Other time (%) = 7.28364e-06 (2.05116)

Nlocal:    488 ave 488 max 488 min
Histogram: 1 0 0 0 0 0 0 0 0 0
Nghost:    3081 ave 3081 max 3081 min
Histogram: 1 0 0 0 0 0 0 0 0 0
Neighs:    13248 ave 13248 max 13248 min
Histogram: 1 0 0 0 0 0 0 0 0 0

Total # of neighbors = 13248
Ave neighs/atom = 27.1475
Neighbor list builds = 0
Dangerous builds = 0
	# write_dump all atom ${dumpfile}
        next i
jump SELF loop1
        displace_atoms upper move 0.0 ${ystep1} 0.0 units lattice
        displace_atoms upper move 0.0 0.00288675134594812 0.0 units lattice
        min_style ${style}
        min_style hftn
        minimize ${etol} ${ftol} ${maxiter} ${maxeval}
        minimize 1e-12 ${ftol} ${maxiter} ${maxeval}
        minimize 1e-12 1e-08 ${maxiter} ${maxeval}
        minimize 1e-12 1e-08 10000 ${maxeval}
        minimize 1e-12 1e-08 10000 20000
WARNING: Resetting reneighboring criteria during minimization (../min.cpp:168)
Memory usage per processor = 5.02181 Mbytes
Step Temp PotEng Lx Ly Lz 
      14            0   -2879.9976    2.2449241     56.57171    3.8883226 
Loop time of 0.000392974 on 1 procs for 0 steps with 488 atoms

Minimization stats:
  Stopping criterion = force tolerance
  Energy initial, next-to-last, final = 
        -2879.99760522     -2879.99760522     -2879.99760522
  Force two-norm initial, final = 1.29138e-12 1.29138e-12
  Force max component initial, final = 7.76571e-14 7.76571e-14
  Final line search alpha, max atom move = 0 0
  Iterations, force evaluations = 0 0

Pair  time (%) = 0.000351032 (89.3272)
Neigh time (%) = 0 (0)
Comm  time (%) = 2.21862e-05 (5.64572)
Outpt time (%) = 0 (0)
Other time (%) = 1.97551e-05 (5.02708)

Nlocal:    488 ave 488 max 488 min
Histogram: 1 0 0 0 0 0 0 0 0 0
Nghost:    3081 ave 3081 max 3081 min
Histogram: 1 0 0 0 0 0 0 0 0 0
Neighs:    13248 ave 13248 max 13248 min
Histogram: 1 0 0 0 0 0 0 0 0 0

Total # of neighbors = 13248
Ave neighs/atom = 27.1475
Neighbor list builds = 0
Dangerous builds = 0
	# write_dump all atom ${dumpfile}
        next i
jump SELF loop1
        displace_atoms upper move 0.0 ${ystep1} 0.0 units lattice
        displace_atoms upper move 0.0 0.00288675134594812 0.0 units lattice
        min_style ${style}
        min_style hftn
        minimize ${etol} ${ftol} ${maxiter} ${maxeval}
        minimize 1e-12 ${ftol} ${maxiter} ${maxeval}
        minimize 1e-12 1e-08 ${maxiter} ${maxeval}
        minimize 1e-12 1e-08 10000 ${maxeval}
        minimize 1e-12 1e-08 10000 20000
WARNING: Resetting reneighboring criteria during minimization (../min.cpp:168)
Memory usage per processor = 5.02181 Mbytes
Step Temp PotEng Lx Ly Lz 
      14            0   -2879.9976    2.2449241    56.577002    3.8883226 
Loop time of 0.000360032 on 1 procs for 0 steps with 488 atoms

Minimization stats:
  Stopping criterion = force tolerance
  Energy initial, next-to-last, final = 
        -2879.99760522     -2879.99760522     -2879.99760522
  Force two-norm initial, final = 1.29203e-12 1.29203e-12
  Force max component initial, final = 7.76571e-14 7.76571e-14
  Final line search alpha, max atom move = 0 0
  Iterations, force evaluations = 0 0

Pair  time (%) = 0.000336919 (93.5803)
Neigh time (%) = 0 (0)
Comm  time (%) = 1.39653e-05 (3.87891)
Outpt time (%) = 0 (0)
Other time (%) = 9.14768e-06 (2.5408)

Nlocal:    488 ave 488 max 488 min
Histogram: 1 0 0 0 0 0 0 0 0 0
Nghost:    3081 ave 3081 max 3081 min
Histogram: 1 0 0 0 0 0 0 0 0 0
Neighs:    13248 ave 13248 max 13248 min
Histogram: 1 0 0 0 0 0 0 0 0 0

Total # of neighbors = 13248
Ave neighs/atom = 27.1475
Neighbor list builds = 0
Dangerous builds = 0
	# write_dump all atom ${dumpfile}
        next i
jump SELF loop1
        displace_atoms upper move 0.0 ${ystep1} 0.0 units lattice
        displace_atoms upper move 0.0 0.00288675134594812 0.0 units lattice
        min_style ${style}
        min_style hftn
        minimize ${etol} ${ftol} ${maxiter} ${maxeval}
        minimize 1e-12 ${ftol} ${maxiter} ${maxeval}
        minimize 1e-12 1e-08 ${maxiter} ${maxeval}
        minimize 1e-12 1e-08 10000 ${maxeval}
        minimize 1e-12 1e-08 10000 20000
WARNING: Resetting reneighboring criteria during minimization (../min.cpp:168)
Memory usage per processor = 5.02181 Mbytes
Step Temp PotEng Lx Ly Lz 
      14            0   -2879.9976    2.2449241    56.582293    3.8883226 
Loop time of 0.000360008 on 1 procs for 0 steps with 488 atoms

Minimization stats:
  Stopping criterion = force tolerance
  Energy initial, next-to-last, final = 
        -2879.99760522     -2879.99760522     -2879.99760522
  Force two-norm initial, final = 1.29189e-12 1.29189e-12
  Force max component initial, final = 7.76571e-14 7.76571e-14
  Final line search alpha, max atom move = 0 0
  Iterations, force evaluations = 0 0

Pair  time (%) = 0.00032002 (88.8925)
Neigh time (%) = 0 (0)
Comm  time (%) = 2.01559e-05 (5.59875)
Outpt time (%) = 0 (0)
Other time (%) = 1.98318e-05 (5.50872)

Nlocal:    488 ave 488 max 488 min
Histogram: 1 0 0 0 0 0 0 0 0 0
Nghost:    3081 ave 3081 max 3081 min
Histogram: 1 0 0 0 0 0 0 0 0 0
Neighs:    13248 ave 13248 max 13248 min
Histogram: 1 0 0 0 0 0 0 0 0 0

Total # of neighbors = 13248
Ave neighs/atom = 27.1475
Neighbor list builds = 0
Dangerous builds = 0
	# write_dump all atom ${dumpfile}
        next i
jump SELF loop1
        displace_atoms upper move 0.0 ${ystep1} 0.0 units lattice
        displace_atoms upper move 0.0 0.00288675134594812 0.0 units lattice
        min_style ${style}
        min_style hftn
        minimize ${etol} ${ftol} ${maxiter} ${maxeval}
        minimize 1e-12 ${ftol} ${maxiter} ${maxeval}
        minimize 1e-12 1e-08 ${maxiter} ${maxeval}
        minimize 1e-12 1e-08 10000 ${maxeval}
        minimize 1e-12 1e-08 10000 20000
WARNING: Resetting reneighboring criteria during minimization (../min.cpp:168)
Memory usage per processor = 5.02181 Mbytes
Step Temp PotEng Lx Ly Lz 
      14            0   -2879.9976    2.2449241    56.587584    3.8883226 
Loop time of 0.000367987 on 1 procs for 0 steps with 488 atoms

Minimization stats:
  Stopping criterion = force tolerance
  Energy initial, next-to-last, final = 
        -2879.99760522     -2879.99760522     -2879.99760522
  Force two-norm initial, final = 1.28875e-12 1.28875e-12
  Force max component initial, final = 7.76571e-14 7.76571e-14
  Final line search alpha, max atom move = 0 0
  Iterations, force evaluations = 0 0

Pair  time (%) = 0.000346066 (94.043)
Neigh time (%) = 0 (0)
Comm  time (%) = 1.49611e-05 (4.06567)
Outpt time (%) = 0 (0)
Other time (%) = 6.95989e-06 (1.89134)

Nlocal:    488 ave 488 max 488 min
Histogram: 1 0 0 0 0 0 0 0 0 0
Nghost:    3081 ave 3081 max 3081 min
Histogram: 1 0 0 0 0 0 0 0 0 0
Neighs:    13248 ave 13248 max 13248 min
Histogram: 1 0 0 0 0 0 0 0 0 0

Total # of neighbors = 13248
Ave neighs/atom = 27.1475
Neighbor list builds = 0
Dangerous builds = 0
	# write_dump all atom ${dumpfile}
        next i
jump SELF loop1

# allow atoms to relax in y-direction, now that two halves have separated
unfix 2
min_style ${style}
min_style hftn
minimize ${etol} ${ftol} ${maxiter} ${maxeval}
minimize 1e-12 ${ftol} ${maxiter} ${maxeval}
minimize 1e-12 1e-08 ${maxiter} ${maxeval}
minimize 1e-12 1e-08 10000 ${maxeval}
minimize 1e-12 1e-08 10000 20000
WARNING: Resetting reneighboring criteria during minimization (../min.cpp:168)
Memory usage per processor = 5.02181 Mbytes
Step Temp PotEng Lx Ly Lz 
      14            0   -2879.9976    2.2449241    56.587584    3.8883226 
      15            0   -2879.9977    2.2449241    56.587584    3.8883226 
      16            0   -2879.9977    2.2449241    56.587584    3.8883226 
Loop time of 0.0899329 on 1 procs for 1 steps with 488 atoms

Minimization stats:
  Stopping criterion = force tolerance
  Energy initial, next-to-last, final = 
        -2879.99760522     -2879.99760522     -2879.99765294
  Force two-norm initial, final = 0.00178641 7.47041e-12
  Force max component initial, final = 0.000315795 6.31489e-13
  Final line search alpha, max atom move = 0 0
  Iterations, force evaluations = 1 213

Pair  time (%) = 0.0755005 (83.952)
Neigh time (%) = 0 (0)
Comm  time (%) = 0.00864263 (9.61009)
Outpt time (%) = 7.60169e-05 (0.0845262)
Other time (%) = 0.00571376 (6.35336)

Nlocal:    488 ave 488 max 488 min
Histogram: 1 0 0 0 0 0 0 0 0 0
Nghost:    3081 ave 3081 max 3081 min
Histogram: 1 0 0 0 0 0 0 0 0 0
Neighs:    13248 ave 13248 max 13248 min
Histogram: 1 0 0 0 0 0 0 0 0 0

Total # of neighbors = 13248
Ave neighs/atom = 27.1475
Neighbor list builds = 0
Dangerous builds = 0

write_dump all atom ${dumpfile}
write_dump all atom surf_V_brittle_3d.*.dump


