LAMMPS (28 Jun 2014)
# attempt at getting surface energy

#file prefix
variable prefix string surf_V_inter2new
variable dumpfile string ${prefix}.*.dump
variable dumpfile string surf_V_inter2new.*.dump
variable restartfile string ${prefix}.*.equil
variable restartfile string surf_V_inter2new.*.equil

#Mass (g/mol)
variable m equal 1

# lattice constant (in Angstroms) and orientation of axes (given by lattice vectors)
variable rho equal 0.9165
variable x1 equal 1
variable x2 equal 0
variable x3 equal 0
variable y1 equal 0
variable y2 equal 1
variable y3 equal 0
# length of lattice in different directions (using orientation of lattice vectors)
variable ax equal sqrt(${x1}*${x1}+${x2}*${x2}+${x3}*${x3})
variable ax equal sqrt(1*${x1}+${x2}*${x2}+${x3}*${x3})
variable ax equal sqrt(1*1+${x2}*${x2}+${x3}*${x3})
variable ax equal sqrt(1*1+0*${x2}+${x3}*${x3})
variable ax equal sqrt(1*1+0*0+${x3}*${x3})
variable ax equal sqrt(1*1+0*0+0*${x3})
variable ax equal sqrt(1*1+0*0+0*0)
variable ay equal sqrt(${y1}*${y1}+${y2}*${y2}+${y3}*${y3})
variable ay equal sqrt(0*${y1}+${y2}*${y2}+${y3}*${y3})
variable ay equal sqrt(0*0+${y2}*${y2}+${y3}*${y3})
variable ay equal sqrt(0*0+1*${y2}+${y3}*${y3})
variable ay equal sqrt(0*0+1*1+${y3}*${y3})
variable ay equal sqrt(0*0+1*1+0*${y3})
variable ay equal sqrt(0*0+1*1+0*0)
variable az equal 1

# size of box in lattice units
variable lxpos equal 1
variable lxneg equal 0
variable lypos equal 10
variable lyneg equal -1*${lypos}
variable lyneg equal -1*10
variable lzpos equal 1
variable lzneg equal 0

# Define minimization parameters and damping
variable etol equal 1.0e-12
variable ftol equal 1.0e-8
variable maxiter equal 10000
variable maxeval equal 20000
variable style string cg

# boundary conditions
dimension	2
boundary	p s p
atom_style	atomic

# create geometry
units		lj
lattice         hex ${rho}
lattice         hex 0.9165
Lattice spacing in x,y,z = 1.12245 1.94415 1.12245
region		myregion block ${lxneg} ${lxpos} ${lyneg} ${lypos} ${lzneg} ${lzpos} units lattice
region		myregion block 0 ${lxpos} ${lyneg} ${lypos} ${lzneg} ${lzpos} units lattice
region		myregion block 0 1 ${lyneg} ${lypos} ${lzneg} ${lzpos} units lattice
region		myregion block 0 1 -10 ${lypos} ${lzneg} ${lzpos} units lattice
region		myregion block 0 1 -10 10 ${lzneg} ${lzpos} units lattice
region		myregion block 0 1 -10 10 0 ${lzpos} units lattice
region		myregion block 0 1 -10 10 0 1 units lattice
create_box	1 myregion
Created orthogonal box = (0 -19.4415 0) to (1.12245 19.4415 1.12245)
  1 by 1 by 1 MPI processor grid
create_atoms	1 box
Created 41 atoms

# define masses
mass * $m
mass * 1

# my fake/morse potential
pair_style      table linear 3001
pair_coeff      * * vpotential_inter2new dummy
neighbor	0.3 bin
neigh_modify	delay 5

# define groups
region	    upper block INF INF 0.01 ${lypos} INF INF units lattice
region	    upper block INF INF 0.01 10 INF INF units lattice
group		upper region upper
20 atoms in group upper

# Setup output
thermo 1
thermo_style custom step temp pe lx ly lz
thermo_modify norm no

# Compute initial state by relaxing box
min_style ${style}
min_style cg
minimize ${etol} ${ftol} ${maxiter} ${maxeval}
minimize 1e-12 ${ftol} ${maxiter} ${maxeval}
minimize 1e-12 1e-08 ${maxiter} ${maxeval}
minimize 1e-12 1e-08 10000 ${maxeval}
minimize 1e-12 1e-08 10000 20000
WARNING: Resetting reneighboring criteria during minimization (../min.cpp:168)
Memory usage per processor = 3.35962 Mbytes
Step Temp PotEng Lx Ly Lz 
       0            0   -120.99996    1.1224537    38.890715    1.1224537 
       1            0   -120.99996    1.1224537    38.890715    1.1224537 
       2            0   -120.99996    1.1224537    38.890715    1.1224537 
Loop time of 0.000256011 on 1 procs for 2 steps with 41 atoms

Minimization stats:
  Stopping criterion = linesearch alpha is zero
  Energy initial, next-to-last, final = 
        -120.999963848     -120.999964932     -120.999964932
  Force two-norm initial, final = 0.000550698 0.00322436
  Force max component initial, final = 0.000389403 0.00179508
  Final line search alpha, max atom move = 0.000976562 1.75301e-06
  Iterations, force evaluations = 2 15

Pair  time (%) = 0.000175436 (68.5268)
Neigh time (%) = 0 (0)
Comm  time (%) = 4.1669e-05 (16.2762)
Outpt time (%) = 7.89727e-06 (3.08473)
Other time (%) = 3.10087e-05 (12.1122)

Nlocal:    41 ave 41 max 41 min
Histogram: 1 0 0 0 0 0 0 0 0 0
Nghost:    185 ave 185 max 185 min
Histogram: 1 0 0 0 0 0 0 0 0 0
Neighs:    359 ave 359 max 359 min
Histogram: 1 0 0 0 0 0 0 0 0 0

Total # of neighbors = 359
Ave neighs/atom = 8.7561
Neighbor list builds = 0
Dangerous builds = 0

# don't allow atoms to relax in y-direction
fix 2 all setforce NULL 0.0 NULL

# Energy curve will have nstep steps
variable nsteps equal 500
variable sstep1 equal 1.0
variable ystep1 equal ${sstep1}/(${ay}*${nsteps})
variable ystep1 equal 1/(${ay}*${nsteps})
variable ystep1 equal 1/(1*${nsteps})
variable ystep1 equal 1/(1*500)

variable i loop ${nsteps}
variable i loop 500
label loop1
        displace_atoms upper move 0.0 ${ystep1} 0.0 units lattice
        displace_atoms upper move 0.0 0.002 0.0 units lattice
        min_style ${style}
        min_style cg
        minimize ${etol} ${ftol} ${maxiter} ${maxeval}
        minimize 1e-12 ${ftol} ${maxiter} ${maxeval}
        minimize 1e-12 1e-08 ${maxiter} ${maxeval}
        minimize 1e-12 1e-08 10000 ${maxeval}
        minimize 1e-12 1e-08 10000 20000
WARNING: Resetting reneighboring criteria during minimization (../min.cpp:168)
Memory usage per processor = 3.35962 Mbytes
Step Temp PotEng Lx Ly Lz 
       2            0   -120.99969    1.1224537      38.8947    1.1224537 
       3            0   -120.99969    1.1224537      38.8947    1.1224537 
Loop time of 4.10621e-05 on 1 procs for 1 steps with 41 atoms

Minimization stats:
  Stopping criterion = linesearch alpha is zero
  Energy initial, next-to-last, final = 
        -120.999690069     -120.999690069     -120.999690069
  Force two-norm initial, final = 1.80447e-18 1.80447e-18
  Force max component initial, final = 1.30104e-18 1.30104e-18
  Final line search alpha, max atom move = 0.5 6.50521e-19
  Iterations, force evaluations = 1 2

Pair  time (%) = 2.60789e-05 (63.5108)
Neigh time (%) = 0 (0)
Comm  time (%) = 2.7928e-06 (6.80141)
Outpt time (%) = 0 (0)
Other time (%) = 1.21904e-05 (29.6878)

Nlocal:    41 ave 41 max 41 min
Histogram: 1 0 0 0 0 0 0 0 0 0
Nghost:    185 ave 185 max 185 min
Histogram: 1 0 0 0 0 0 0 0 0 0
Neighs:    359 ave 359 max 359 min
Histogram: 1 0 0 0 0 0 0 0 0 0

Total # of neighbors = 359
Ave neighs/atom = 8.7561
Neighbor list builds = 0
Dangerous builds = 0
	# write_dump all atom ${dumpfile}
        next i
jump SELF loop1
        displace_atoms upper move 0.0 ${ystep1} 0.0 units lattice
        displace_atoms upper move 0.0 0.002 0.0 units lattice
        min_style ${style}
        min_style cg
        minimize ${etol} ${ftol} ${maxiter} ${maxeval}
        minimize 1e-12 ${ftol} ${maxiter} ${maxeval}
        minimize 1e-12 1e-08 ${maxiter} ${maxeval}
        minimize 1e-12 1e-08 10000 ${maxeval}
        minimize 1e-12 1e-08 10000 20000
WARNING: Resetting reneighboring criteria during minimization (../min.cpp:168)
Memory usage per processor = 3.35962 Mbytes
Step Temp PotEng Lx Ly Lz 
       3            0   -120.99888    1.1224537    38.898588    1.1224537 
       4            0   -120.99888    1.1224537    38.898588    1.1224537 
Loop time of -1.54832e-08 on 1 procs for 1 steps with 41 atoms

Minimization stats:
  Stopping criterion = linesearch alpha is zero
  Energy initial, next-to-last, final = 
        -120.998878952     -120.998878952     -120.998878952
  Force two-norm initial, final = 5.10231e-18 5.10231e-18
  Force max component initial, final = 4.93312e-18 4.93312e-18
  Final line search alpha, max atom move = 0.5 2.46656e-18
  Iterations, force evaluations = 1 2

Pair  time (%) = -4.64497e-08 (300)
Neigh time (%) = 0 (-0)
Comm  time (%) = -9.28994e-08 (600)
Outpt time (%) = 0 (-0)
Other time (%) = 1.23866e-07 (-800)

Nlocal:    41 ave 41 max 41 min
Histogram: 1 0 0 0 0 0 0 0 0 0
Nghost:    185 ave 185 max 185 min
Histogram: 1 0 0 0 0 0 0 0 0 0
Neighs:    359 ave 359 max 359 min
Histogram: 1 0 0 0 0 0 0 0 0 0

Total # of neighbors = 359
Ave neighs/atom = 8.7561
Neighbor list builds = 0
Dangerous builds = 0
	# write_dump all atom ${dumpfile}
        next i
jump SELF loop1
        displace_atoms upper move 0.0 ${ystep1} 0.0 units lattice
        displace_atoms upper move 0.0 0.002 0.0 units lattice
        min_style ${style}
        min_style cg
        minimize ${etol} ${ftol} ${maxiter} ${maxeval}
        minimize 1e-12 ${ftol} ${maxiter} ${maxeval}
        minimize 1e-12 1e-08 ${maxiter} ${maxeval}
        minimize 1e-12 1e-08 10000 ${maxeval}
        minimize 1e-12 1e-08 10000 20000
WARNING: Resetting reneighboring criteria during minimization (../min.cpp:168)
Memory usage per processor = 3.35962 Mbytes
Step Temp PotEng Lx Ly Lz 
       4            0   -120.99755    1.1224537    38.902477    1.1224537 
       5            0   -120.99755    1.1224537    38.902477    1.1224537 
Loop time of 4.10936e-05 on 1 procs for 1 steps with 41 atoms

Minimization stats:
  Stopping criterion = linesearch alpha is zero
  Energy initial, next-to-last, final = 
         -120.99754844      -120.99754844      -120.99754844
  Force two-norm initial, final = 3.05639e-18 3.05639e-18
  Force max component initial, final = 2.76472e-18 2.76472e-18
  Final line search alpha, max atom move = 0.5 1.38236e-18
  Iterations, force evaluations = 1 2

Pair  time (%) = 2.70805e-05 (65.8997)
Neigh time (%) = 0 (0)
Comm  time (%) = 4.84218e-06 (11.7833)
Outpt time (%) = 0 (0)
Other time (%) = 9.17085e-06 (22.317)

Nlocal:    41 ave 41 max 41 min
Histogram: 1 0 0 0 0 0 0 0 0 0
Nghost:    185 ave 185 max 185 min
Histogram: 1 0 0 0 0 0 0 0 0 0
Neighs:    359 ave 359 max 359 min
Histogram: 1 0 0 0 0 0 0 0 0 0

Total # of neighbors = 359
Ave neighs/atom = 8.7561
Neighbor list builds = 0
Dangerous builds = 0
	# write_dump all atom ${dumpfile}
        next i
jump SELF loop1
        displace_atoms upper move 0.0 ${ystep1} 0.0 units lattice
        displace_atoms upper move 0.0 0.002 0.0 units lattice
        min_style ${style}
        min_style cg
        minimize ${etol} ${ftol} ${maxiter} ${maxeval}
        minimize 1e-12 ${ftol} ${maxiter} ${maxeval}
        minimize 1e-12 1e-08 ${maxiter} ${maxeval}
        minimize 1e-12 1e-08 10000 ${maxeval}
        minimize 1e-12 1e-08 10000 20000
WARNING: Resetting reneighboring criteria during minimization (../min.cpp:168)
Memory usage per processor = 3.35962 Mbytes
Step Temp PotEng Lx Ly Lz 
       5            0   -120.99571    1.1224537    38.906365    1.1224537 
       6            0   -120.99571    1.1224537    38.906365    1.1224537 
Loop time of 6.04196e-08 on 1 procs for 1 steps with 41 atoms

Minimization stats:
  Stopping criterion = linesearch alpha is zero
  Energy initial, next-to-last, final = 
        -120.995712014     -120.995712014     -120.995712014
  Force two-norm initial, final = 1.48313e-17 1.48313e-17
  Force max component initial, final = 1.25767e-17 1.25767e-17
  Final line search alpha, max atom move = 0.5 6.28837e-18
  Iterations, force evaluations = 1 2

Pair  time (%) = 1.81259e-07 (300)
Neigh time (%) = 0 (0)
Comm  time (%) = 3.62517e-07 (600)
Outpt time (%) = 0 (0)
Other time (%) = -4.83356e-07 (-800)

Nlocal:    41 ave 41 max 41 min
Histogram: 1 0 0 0 0 0 0 0 0 0
Nghost:    185 ave 185 max 185 min
Histogram: 1 0 0 0 0 0 0 0 0 0
Neighs:    359 ave 359 max 359 min
Histogram: 1 0 0 0 0 0 0 0 0 0

Total # of neighbors = 359
Ave neighs/atom = 8.7561
Neighbor list builds = 0
Dangerous builds = 0
	# write_dump all atom ${dumpfile}
        next i
jump SELF loop1
        displace_atoms upper move 0.0 ${ystep1} 0.0 units lattice
        displace_atoms upper move 0.0 0.002 0.0 units lattice
        min_style ${style}
        min_style cg
        minimize ${etol} ${ftol} ${maxiter} ${maxeval}
        minimize 1e-12 ${ftol} ${maxiter} ${maxeval}
        minimize 1e-12 1e-08 ${maxiter} ${maxeval}
        minimize 1e-12 1e-08 10000 ${maxeval}
        minimize 1e-12 1e-08 10000 20000
WARNING: Resetting reneighboring criteria during minimization (../min.cpp:168)
Memory usage per processor = 3.35962 Mbytes
Step Temp PotEng Lx Ly Lz 
       6            0   -120.99339    1.1224537    38.910253    1.1224537 
       7            0   -120.99339    1.1224537    38.910253    1.1224537 
Loop time of 2.99234e-05 on 1 procs for 1 steps with 41 atoms

Minimization stats:
  Stopping criterion = linesearch alpha is zero
  Energy initial, next-to-last, final = 
        -120.993389112     -120.993389112     -120.993389112
  Force two-norm initial, final = 1.70736e-17 1.70736e-17
  Force max component initial, final = 1.25767e-17 1.25767e-17
  Final line search alpha, max atom move = 0.5 6.28837e-18
  Iterations, force evaluations = 1 2

Pair  time (%) = 1.99475e-05 (66.662)
Neigh time (%) = 0 (0)
Comm  time (%) = 3.15951e-06 (10.5587)
Outpt time (%) = 0 (0)
Other time (%) = 6.81635e-06 (22.7793)

Nlocal:    41 ave 41 max 41 min
Histogram: 1 0 0 0 0 0 0 0 0 0
Nghost:    185 ave 185 max 185 min
Histogram: 1 0 0 0 0 0 0 0 0 0
Neighs:    359 ave 359 max 359 min
Histogram: 1 0 0 0 0 0 0 0 0 0

Total # of neighbors = 359
Ave neighs/atom = 8.7561
Neighbor list builds = 0
Dangerous builds = 0
	# write_dump all atom ${dumpfile}
        next i
jump SELF loop1
        displace_atoms upper move 0.0 ${ystep1} 0.0 units lattice
        displace_atoms upper move 0.0 0.002 0.0 units lattice
        min_style ${style}
        min_style cg
        minimize ${etol} ${ftol} ${maxiter} ${maxeval}
        minimize 1e-12 ${ftol} ${maxiter} ${maxeval}
        minimize 1e-12 1e-08 ${maxiter} ${maxeval}
        minimize 1e-12 1e-08 10000 ${maxeval}
        minimize 1e-12 1e-08 10000 20000
WARNING: Resetting reneighboring criteria during minimization (../min.cpp:168)
Memory usage per processor = 3.35962 Mbytes
Step Temp PotEng Lx Ly Lz 
       7            0    -120.9906    1.1224537    38.914142    1.1224537 
       8            0    -120.9906    1.1224537    38.914142    1.1224537 
Loop time of 4.09965e-05 on 1 procs for 1 steps with 41 atoms

Minimization stats:
  Stopping criterion = linesearch alpha is zero
  Energy initial, next-to-last, final = 
        -120.990596162     -120.990596162     -120.990596162
  Force two-norm initial, final = 1.56563e-17 1.56563e-17
  Force max component initial, final = 1.25767e-17 1.25767e-17
  Final line search alpha, max atom move = 0.5 6.28837e-18
  Iterations, force evaluations = 1 2

Pair  time (%) = 2.58819e-05 (63.1321)
Neigh time (%) = 0 (0)
Comm  time (%) = 2.87581e-06 (7.01477)
Outpt time (%) = 0 (0)
Other time (%) = 1.22387e-05 (29.8532)

Nlocal:    41 ave 41 max 41 min
Histogram: 1 0 0 0 0 0 0 0 0 0
Nghost:    185 ave 185 max 185 min
Histogram: 1 0 0 0 0 0 0 0 0 0
Neighs:    359 ave 359 max 359 min
Histogram: 1 0 0 0 0 0 0 0 0 0

Total # of neighbors = 359
Ave neighs/atom = 8.7561
Neighbor list builds = 0
Dangerous builds = 0
	# write_dump all atom ${dumpfile}
        next i
jump SELF loop1
        displace_atoms upper move 0.0 ${ystep1} 0.0 units lattice
        displace_atoms upper move 0.0 0.002 0.0 units lattice
        min_style ${style}
        min_style cg
        minimize ${etol} ${ftol} ${maxiter} ${maxeval}
        minimize 1e-12 ${ftol} ${maxiter} ${maxeval}
        minimize 1e-12 1e-08 ${maxiter} ${maxeval}
        minimize 1e-12 1e-08 10000 ${maxeval}
        minimize 1e-12 1e-08 10000 20000
WARNING: Resetting reneighboring criteria during minimization (../min.cpp:168)
Memory usage per processor = 3.35962 Mbytes
Step Temp PotEng Lx Ly Lz 
       8            0   -120.98735    1.1224537     38.91803    1.1224537 
       9            0   -120.98735    1.1224537     38.91803    1.1224537 
Loop time of 4.11166e-05 on 1 procs for 1 steps with 41 atoms

Minimization stats:
  Stopping criterion = linesearch alpha is zero
  Energy initial, next-to-last, final = 
         -120.98734878      -120.98734878      -120.98734878
  Force two-norm initial, final = 1.62112e-17 1.62112e-17
  Force max component initial, final = 1.51788e-17 1.51788e-17
  Final line search alpha, max atom move = 0.5 7.58942e-18
  Iterations, force evaluations = 1 2

Pair  time (%) = 2.62423e-05 (63.8242)
Neigh time (%) = 0 (0)
Comm  time (%) = 3.1197e-06 (7.58744)
Outpt time (%) = 0 (0)
Other time (%) = 1.17546e-05 (28.5884)

Nlocal:    41 ave 41 max 41 min
Histogram: 1 0 0 0 0 0 0 0 0 0
Nghost:    185 ave 185 max 185 min
Histogram: 1 0 0 0 0 0 0 0 0 0
Neighs:    359 ave 359 max 359 min
Histogram: 1 0 0 0 0 0 0 0 0 0

Total # of neighbors = 359
Ave neighs/atom = 8.7561
Neighbor list builds = 0
Dangerous builds = 0
	# write_dump all atom ${dumpfile}
        next i
jump SELF loop1
        displace_atoms upper move 0.0 ${ystep1} 0.0 units lattice
        displace_atoms upper move 0.0 0.002 0.0 units lattice
        min_style ${style}
        min_style cg
        minimize ${etol} ${ftol} ${maxiter} ${maxeval}
        minimize 1e-12 ${ftol} ${maxiter} ${maxeval}
        minimize 1e-12 1e-08 ${maxiter} ${maxeval}
        minimize 1e-12 1e-08 10000 ${maxeval}
        minimize 1e-12 1e-08 10000 20000
WARNING: Resetting reneighboring criteria during minimization (../min.cpp:168)
Memory usage per processor = 3.35962 Mbytes
Step Temp PotEng Lx Ly Lz 
       9            0   -120.98366    1.1224537    38.921918    1.1224537 
      10            0   -120.98366    1.1224537    38.921918    1.1224537 
Loop time of 5.10366e-05 on 1 procs for 1 steps with 41 atoms

Minimization stats:
  Stopping criterion = linesearch alpha is zero
  Energy initial, next-to-last, final = 
        -120.983662255     -120.983662255     -120.983662255
  Force two-norm initial, final = 2.94715e-17 2.94715e-17
  Force max component initial, final = 2.52619e-17 2.52619e-17
  Final line search alpha, max atom move = 0.5 1.2631e-17
  Iterations, force evaluations = 1 2

Pair  time (%) = 3.5929e-05 (70.3986)
Neigh time (%) = 0 (0)
Comm  time (%) = 2.71795e-06 (5.32549)
Outpt time (%) = 0 (0)
Other time (%) = 1.23896e-05 (24.2759)

Nlocal:    41 ave 41 max 41 min
Histogram: 1 0 0 0 0 0 0 0 0 0
Nghost:    185 ave 185 max 185 min
Histogram: 1 0 0 0 0 0 0 0 0 0
Neighs:    359 ave 359 max 359 min
Histogram: 1 0 0 0 0 0 0 0 0 0

Total # of neighbors = 359
Ave neighs/atom = 8.7561
Neighbor list builds = 0
Dangerous builds = 0
	# write_dump all atom ${dumpfile}
        next i
jump SELF loop1
        displace_atoms upper move 0.0 ${ystep1} 0.0 units lattice
        displace_atoms upper move 0.0 0.002 0.0 units lattice
        min_style ${style}
        min_style cg
        minimize ${etol} ${ftol} ${maxiter} ${maxeval}
        minimize 1e-12 ${ftol} ${maxiter} ${maxeval}
        minimize 1e-12 1e-08 ${maxiter} ${maxeval}
        minimize 1e-12 1e-08 10000 ${maxeval}
        minimize 1e-12 1e-08 10000 20000
WARNING: Resetting reneighboring criteria during minimization (../min.cpp:168)
Memory usage per processor = 3.35962 Mbytes
Step Temp PotEng Lx Ly Lz 
      10            0   -120.97955    1.1224537    38.925807    1.1224537 
      11            0   -120.97955    1.1224537    38.925807    1.1224537 
Loop time of 4.09116e-05 on 1 procs for 1 steps with 41 atoms

Minimization stats:
  Stopping criterion = linesearch alpha is zero
  Energy initial, next-to-last, final = 
        -120.979550066     -120.979550066     -120.979550066
  Force two-norm initial, final = 3.11605e-17 3.11605e-17
  Force max component initial, final = 2.72135e-17 2.72135e-17
  Final line search alpha, max atom move = 0.5 1.36067e-17
  Iterations, force evaluations = 1 2

Pair  time (%) = 2.61042e-05 (63.8062)
Neigh time (%) = 0 (0)
Comm  time (%) = 3.32016e-06 (8.11546)
Outpt time (%) = 0 (0)
Other time (%) = 1.14873e-05 (28.0783)

Nlocal:    41 ave 41 max 41 min
Histogram: 1 0 0 0 0 0 0 0 0 0
Nghost:    185 ave 185 max 185 min
Histogram: 1 0 0 0 0 0 0 0 0 0
Neighs:    359 ave 359 max 359 min
Histogram: 1 0 0 0 0 0 0 0 0 0

Total # of neighbors = 359
Ave neighs/atom = 8.7561
Neighbor list builds = 0
Dangerous builds = 0
	# write_dump all atom ${dumpfile}
        next i
jump SELF loop1
        displace_atoms upper move 0.0 ${ystep1} 0.0 units lattice
        displace_atoms upper move 0.0 0.002 0.0 units lattice
        min_style ${style}
        min_style cg
        minimize ${etol} ${ftol} ${maxiter} ${maxeval}
        minimize 1e-12 ${ftol} ${maxiter} ${maxeval}
        minimize 1e-12 1e-08 ${maxiter} ${maxeval}
        minimize 1e-12 1e-08 10000 ${maxeval}
        minimize 1e-12 1e-08 10000 20000
WARNING: Resetting reneighboring criteria during minimization (../min.cpp:168)
Memory usage per processor = 3.35962 Mbytes
Step Temp PotEng Lx Ly Lz 
      11            0   -120.97503    1.1224537    38.929695    1.1224537 
      12            0   -120.97503    1.1224537    38.929695    1.1224537 
Loop time of 4.10452e-05 on 1 procs for 1 steps with 41 atoms

Minimization stats:
  Stopping criterion = linesearch alpha is zero
  Energy initial, next-to-last, final = 
        -120.975028663     -120.975028663     -120.975028663
  Force two-norm initial, final = 2.85476e-17 2.85476e-17
  Force max component initial, final = 2.41777e-17 2.41777e-17
  Final line search alpha, max atom move = 0.5 1.20889e-17
  Iterations, force evaluations = 1 2

Pair  time (%) = 2.69358e-05 (65.6247)
Neigh time (%) = 0 (0)
Comm  time (%) = 2.55287e-06 (6.21965)
Outpt time (%) = 0 (0)
Other time (%) = 1.15565e-05 (28.1556)

Nlocal:    41 ave 41 max 41 min
Histogram: 1 0 0 0 0 0 0 0 0 0
Nghost:    185 ave 185 max 185 min
Histogram: 1 0 0 0 0 0 0 0 0 0
Neighs:    359 ave 359 max 359 min
Histogram: 1 0 0 0 0 0 0 0 0 0

Total # of neighbors = 359
Ave neighs/atom = 8.7561
Neighbor list builds = 0
Dangerous builds = 0
	# write_dump all atom ${dumpfile}
        next i
jump SELF loop1
        displace_atoms upper move 0.0 ${ystep1} 0.0 units lattice
        displace_atoms upper move 0.0 0.002 0.0 units lattice
        min_style ${style}
        min_style cg
        minimize ${etol} ${ftol} ${maxiter} ${maxeval}
        minimize 1e-12 ${ftol} ${maxiter} ${maxeval}
        minimize 1e-12 1e-08 ${maxiter} ${maxeval}
        minimize 1e-12 1e-08 10000 ${maxeval}
        minimize 1e-12 1e-08 10000 20000
WARNING: Resetting reneighboring criteria during minimization (../min.cpp:168)
Memory usage per processor = 3.35962 Mbytes
Step Temp PotEng Lx Ly Lz 
      12            0   -120.97011    1.1224537    38.933583    1.1224537 
      13            0   -120.97011    1.1224537    38.933583    1.1224537 
Loop time of 4.09993e-05 on 1 procs for 1 steps with 41 atoms

Minimization stats:
  Stopping criterion = linesearch alpha is zero
  Energy initial, next-to-last, final = 
        -120.970112426     -120.970112426     -120.970112426
  Force two-norm initial, final = 2.25651e-17 2.25651e-17
  Force max component initial, final = 1.66967e-17 1.66967e-17
  Final line search alpha, max atom move = 0.5 8.34836e-18
  Iterations, force evaluations = 1 2

Pair  time (%) = 2.58904e-05 (63.1485)
Neigh time (%) = 0 (0)
Comm  time (%) = 4.08478e-06 (9.96306)
Outpt time (%) = 0 (0)
Other time (%) = 1.10241e-05 (26.8884)

Nlocal:    41 ave 41 max 41 min
Histogram: 1 0 0 0 0 0 0 0 0 0
Nghost:    185 ave 185 max 185 min
Histogram: 1 0 0 0 0 0 0 0 0 0
Neighs:    359 ave 359 max 359 min
Histogram: 1 0 0 0 0 0 0 0 0 0

Total # of neighbors = 359
Ave neighs/atom = 8.7561
Neighbor list builds = 0
Dangerous builds = 0
	# write_dump all atom ${dumpfile}
        next i
jump SELF loop1
        displace_atoms upper move 0.0 ${ystep1} 0.0 units lattice
        displace_atoms upper move 0.0 0.002 0.0 units lattice
        min_style ${style}
        min_style cg
        minimize ${etol} ${ftol} ${maxiter} ${maxeval}
        minimize 1e-12 ${ftol} ${maxiter} ${maxeval}
        minimize 1e-12 1e-08 ${maxiter} ${maxeval}
        minimize 1e-12 1e-08 10000 ${maxeval}
        minimize 1e-12 1e-08 10000 20000
WARNING: Resetting reneighboring criteria during minimization (../min.cpp:168)
Memory usage per processor = 3.35962 Mbytes
Step Temp PotEng Lx Ly Lz 
      13            0   -120.96482    1.1224537    38.937471    1.1224537 
      14            0   -120.96482    1.1224537    38.937471    1.1224537 
Loop time of 4.10527e-05 on 1 procs for 1 steps with 41 atoms

Minimization stats:
  Stopping criterion = linesearch alpha is zero
  Energy initial, next-to-last, final = 
        -120.964815371     -120.964815371     -120.964815371
  Force two-norm initial, final = 1.68277e-17 1.68277e-17
  Force max component initial, final = 1.51788e-17 1.51788e-17
  Final line search alpha, max atom move = 0.5 7.58942e-18
  Iterations, force evaluations = 1 2

Pair  time (%) = 2.70044e-05 (65.7798)
Neigh time (%) = 0 (0)
Comm  time (%) = 3.6438e-06 (8.87591)
Outpt time (%) = 0 (0)
Other time (%) = 1.04045e-05 (25.3443)

Nlocal:    41 ave 41 max 41 min
Histogram: 1 0 0 0 0 0 0 0 0 0
Nghost:    185 ave 185 max 185 min
Histogram: 1 0 0 0 0 0 0 0 0 0
Neighs:    359 ave 359 max 359 min
Histogram: 1 0 0 0 0 0 0 0 0 0

Total # of neighbors = 359
Ave neighs/atom = 8.7561
Neighbor list builds = 0
Dangerous builds = 0
	# write_dump all atom ${dumpfile}
        next i
jump SELF loop1
        displace_atoms upper move 0.0 ${ystep1} 0.0 units lattice
        displace_atoms upper move 0.0 0.002 0.0 units lattice
        min_style ${style}
        min_style cg
        minimize ${etol} ${ftol} ${maxiter} ${maxeval}
        minimize 1e-12 ${ftol} ${maxiter} ${maxeval}
        minimize 1e-12 1e-08 ${maxiter} ${maxeval}
        minimize 1e-12 1e-08 10000 ${maxeval}
        minimize 1e-12 1e-08 10000 20000
WARNING: Resetting reneighboring criteria during minimization (../min.cpp:168)
Memory usage per processor = 3.35962 Mbytes
Step Temp PotEng Lx Ly Lz 
      14            0   -120.95915    1.1224537     38.94136    1.1224537 
      15            0   -120.95915    1.1224537     38.94136    1.1224537 
Loop time of 5.40994e-05 on 1 procs for 1 steps with 41 atoms

Minimization stats:
  Stopping criterion = linesearch alpha is zero
  Energy initial, next-to-last, final = 
        -120.959151201     -120.959151201     -120.959151201
  Force two-norm initial, final = 2.62916e-17 2.62916e-17
  Force max component initial, final = 2.14672e-17 2.14672e-17
  Final line search alpha, max atom move = 0.5 1.07336e-17
  Iterations, force evaluations = 1 2

Pair  time (%) = 3.71635e-05 (68.6949)
Neigh time (%) = 0 (0)
Comm  time (%) = 4.99468e-06 (9.23242)
Outpt time (%) = 0 (0)
Other time (%) = 1.19412e-05 (22.0727)

Nlocal:    41 ave 41 max 41 min
Histogram: 1 0 0 0 0 0 0 0 0 0
Nghost:    185 ave 185 max 185 min
Histogram: 1 0 0 0 0 0 0 0 0 0
Neighs:    359 ave 359 max 359 min
Histogram: 1 0 0 0 0 0 0 0 0 0

Total # of neighbors = 359
Ave neighs/atom = 8.7561
Neighbor list builds = 0
Dangerous builds = 0
	# write_dump all atom ${dumpfile}
        next i
jump SELF loop1
        displace_atoms upper move 0.0 ${ystep1} 0.0 units lattice
        displace_atoms upper move 0.0 0.002 0.0 units lattice
        min_style ${style}
        min_style cg
        minimize ${etol} ${ftol} ${maxiter} ${maxeval}
        minimize 1e-12 ${ftol} ${maxiter} ${maxeval}
        minimize 1e-12 1e-08 ${maxiter} ${maxeval}
        minimize 1e-12 1e-08 10000 ${maxeval}
        minimize 1e-12 1e-08 10000 20000
WARNING: Resetting reneighboring criteria during minimization (../min.cpp:168)
Memory usage per processor = 3.35962 Mbytes
Step Temp PotEng Lx Ly Lz 
      15            0   -120.95313    1.1224537    38.945248    1.1224537 
      16            0   -120.95313    1.1224537    38.945248    1.1224537 
Loop time of 1.17579e-08 on 1 procs for 1 steps with 41 atoms

Minimization stats:
  Stopping criterion = linesearch alpha is zero
  Energy initial, next-to-last, final = 
        -120.953133304     -120.953133304     -120.953133304
  Force two-norm initial, final = 1.96091e-17 1.96091e-17
  Force max component initial, final = 1.51788e-17 1.51788e-17
  Final line search alpha, max atom move = 0.5 7.58942e-18
  Iterations, force evaluations = 1 2

Pair  time (%) = 3.52738e-08 (300)
Neigh time (%) = 0 (0)
Comm  time (%) = 7.05477e-08 (600)
Outpt time (%) = 0 (0)
Other time (%) = -9.40636e-08 (-800)

Nlocal:    41 ave 41 max 41 min
Histogram: 1 0 0 0 0 0 0 0 0 0
Nghost:    185 ave 185 max 185 min
Histogram: 1 0 0 0 0 0 0 0 0 0
Neighs:    359 ave 359 max 359 min
Histogram: 1 0 0 0 0 0 0 0 0 0

Total # of neighbors = 359
Ave neighs/atom = 8.7561
Neighbor list builds = 0
Dangerous builds = 0
	# write_dump all atom ${dumpfile}
        next i
jump SELF loop1
        displace_atoms upper move 0.0 ${ystep1} 0.0 units lattice
        displace_atoms upper move 0.0 0.002 0.0 units lattice
        min_style ${style}
        min_style cg
        minimize ${etol} ${ftol} ${maxiter} ${maxeval}
        minimize 1e-12 ${ftol} ${maxiter} ${maxeval}
        minimize 1e-12 1e-08 ${maxiter} ${maxeval}
        minimize 1e-12 1e-08 10000 ${maxeval}
        minimize 1e-12 1e-08 10000 20000
WARNING: Resetting reneighboring criteria during minimization (../min.cpp:168)
Memory usage per processor = 3.35962 Mbytes
Step Temp PotEng Lx Ly Lz 
      16            0   -120.94677    1.1224537    38.949136    1.1224537 
      17            0   -120.94677    1.1224537    38.949136    1.1224537 
Loop time of 4.09917e-05 on 1 procs for 1 steps with 41 atoms

Minimization stats:
  Stopping criterion = linesearch alpha is zero
  Energy initial, next-to-last, final = 
        -120.946774753     -120.946774753     -120.946774753
  Force two-norm initial, final = 1.52444e-17 1.52444e-17
  Force max component initial, final = 1.51788e-17 1.51788e-17
  Final line search alpha, max atom move = 0.5 7.58942e-18
  Iterations, force evaluations = 1 2

Pair  time (%) = 2.58213e-05 (62.9915)
Neigh time (%) = 0 (0)
Comm  time (%) = 5.18467e-06 (12.6481)
Outpt time (%) = 0 (0)
Other time (%) = 9.98576e-06 (24.3604)

Nlocal:    41 ave 41 max 41 min
Histogram: 1 0 0 0 0 0 0 0 0 0
Nghost:    185 ave 185 max 185 min
Histogram: 1 0 0 0 0 0 0 0 0 0
Neighs:    359 ave 359 max 359 min
Histogram: 1 0 0 0 0 0 0 0 0 0

Total # of neighbors = 359
Ave neighs/atom = 8.7561
Neighbor list builds = 0
Dangerous builds = 0
	# write_dump all atom ${dumpfile}
        next i
jump SELF loop1
        displace_atoms upper move 0.0 ${ystep1} 0.0 units lattice
        displace_atoms upper move 0.0 0.002 0.0 units lattice
        min_style ${style}
        min_style cg
        minimize ${etol} ${ftol} ${maxiter} ${maxeval}
        minimize 1e-12 ${ftol} ${maxiter} ${maxeval}
        minimize 1e-12 1e-08 ${maxiter} ${maxeval}
        minimize 1e-12 1e-08 10000 ${maxeval}
        minimize 1e-12 1e-08 10000 20000
WARNING: Resetting reneighboring criteria during minimization (../min.cpp:168)
Memory usage per processor = 3.35962 Mbytes
Step Temp PotEng Lx Ly Lz 
      17            0   -120.94009    1.1224537    38.953025    1.1224537 
      18            0   -120.94009    1.1224537    38.953025    1.1224537 
Loop time of 4.0966e-05 on 1 procs for 1 steps with 41 atoms

Minimization stats:
  Stopping criterion = linesearch alpha is zero
  Energy initial, next-to-last, final = 
        -120.940088362     -120.940088362     -120.940088362
  Force two-norm initial, final = 2.03127e-17 2.03127e-17
  Force max component initial, final = 1.51788e-17 1.51788e-17
  Final line search alpha, max atom move = 0.5 7.58942e-18
  Iterations, force evaluations = 1 2

Pair  time (%) = 2.69364e-05 (65.7531)
Neigh time (%) = 0 (0)
Comm  time (%) = 3.26941e-06 (7.98079)
Outpt time (%) = 0 (0)
Other time (%) = 1.07602e-05 (26.2661)

Nlocal:    41 ave 41 max 41 min
Histogram: 1 0 0 0 0 0 0 0 0 0
Nghost:    185 ave 185 max 185 min
Histogram: 1 0 0 0 0 0 0 0 0 0
Neighs:    359 ave 359 max 359 min
Histogram: 1 0 0 0 0 0 0 0 0 0

Total # of neighbors = 359
Ave neighs/atom = 8.7561
Neighbor list builds = 0
Dangerous builds = 0
	# write_dump all atom ${dumpfile}
        next i
jump SELF loop1
        displace_atoms upper move 0.0 ${ystep1} 0.0 units lattice
        displace_atoms upper move 0.0 0.002 0.0 units lattice
        min_style ${style}
        min_style cg
        minimize ${etol} ${ftol} ${maxiter} ${maxeval}
        minimize 1e-12 ${ftol} ${maxiter} ${maxeval}
        minimize 1e-12 1e-08 ${maxiter} ${maxeval}
        minimize 1e-12 1e-08 10000 ${maxeval}
        minimize 1e-12 1e-08 10000 20000
WARNING: Resetting reneighboring criteria during minimization (../min.cpp:168)
Memory usage per processor = 3.35962 Mbytes
Step Temp PotEng Lx Ly Lz 
      18            0   -120.93311    1.1224537    38.956913    1.1224537 
      19            0   -120.93311    1.1224537    38.956913    1.1224537 
Loop time of 3.99472e-05 on 1 procs for 1 steps with 41 atoms

Minimization stats:
  Stopping criterion = linesearch alpha is zero
  Energy initial, next-to-last, final = 
        -120.933105023     -120.933105023     -120.933105023
  Force two-norm initial, final = 2.59386e-17 2.59386e-17
  Force max component initial, final = 2.10335e-17 2.10335e-17
  Final line search alpha, max atom move = 0.5 1.05168e-17
  Iterations, force evaluations = 1 2

Pair  time (%) = 2.63104e-05 (65.863)
Neigh time (%) = 0 (0)
Comm  time (%) = 4.25568e-06 (10.6533)
Outpt time (%) = 0 (0)
Other time (%) = 9.3811e-06 (23.4837)

Nlocal:    41 ave 41 max 41 min
Histogram: 1 0 0 0 0 0 0 0 0 0
Nghost:    185 ave 185 max 185 min
Histogram: 1 0 0 0 0 0 0 0 0 0
Neighs:    355 ave 355 max 355 min
Histogram: 1 0 0 0 0 0 0 0 0 0

Total # of neighbors = 355
Ave neighs/atom = 8.65854
Neighbor list builds = 0
Dangerous builds = 0
	# write_dump all atom ${dumpfile}
        next i
jump SELF loop1
        displace_atoms upper move 0.0 ${ystep1} 0.0 units lattice
        displace_atoms upper move 0.0 0.002 0.0 units lattice
        min_style ${style}
        min_style cg
        minimize ${etol} ${ftol} ${maxiter} ${maxeval}
        minimize 1e-12 ${ftol} ${maxiter} ${maxeval}
        minimize 1e-12 1e-08 ${maxiter} ${maxeval}
        minimize 1e-12 1e-08 10000 ${maxeval}
        minimize 1e-12 1e-08 10000 20000
WARNING: Resetting reneighboring criteria during minimization (../min.cpp:168)
Memory usage per processor = 3.35962 Mbytes
Step Temp PotEng Lx Ly Lz 
      19            0   -120.92596    1.1224537    38.960801    1.1224537 
      20            0   -120.92596    1.1224537    38.960801    1.1224537 
Loop time of 4.10741e-05 on 1 procs for 1 steps with 41 atoms

Minimization stats:
  Stopping criterion = linesearch alpha is zero
  Energy initial, next-to-last, final = 
        -120.925957978     -120.925957978     -120.925957978
  Force two-norm initial, final = 1.52547e-17 1.52547e-17
  Force max component initial, final = 1.51788e-17 1.51788e-17
  Final line search alpha, max atom move = 0.5 7.58942e-18
  Iterations, force evaluations = 1 2

Pair  time (%) = 2.61149e-05 (63.5799)
Neigh time (%) = 0 (0)
Comm  time (%) = 2.86475e-06 (6.97458)
Outpt time (%) = 0 (0)
Other time (%) = 1.20945e-05 (29.4456)

Nlocal:    41 ave 41 max 41 min
Histogram: 1 0 0 0 0 0 0 0 0 0
Nghost:    185 ave 185 max 185 min
Histogram: 1 0 0 0 0 0 0 0 0 0
Neighs:    355 ave 355 max 355 min
Histogram: 1 0 0 0 0 0 0 0 0 0

Total # of neighbors = 355
Ave neighs/atom = 8.65854
Neighbor list builds = 0
Dangerous builds = 0
	# write_dump all atom ${dumpfile}
        next i
jump SELF loop1
        displace_atoms upper move 0.0 ${ystep1} 0.0 units lattice
        displace_atoms upper move 0.0 0.002 0.0 units lattice
        min_style ${style}
        min_style cg
        minimize ${etol} ${ftol} ${maxiter} ${maxeval}
        minimize 1e-12 ${ftol} ${maxiter} ${maxeval}
        minimize 1e-12 1e-08 ${maxiter} ${maxeval}
        minimize 1e-12 1e-08 10000 ${maxeval}
        minimize 1e-12 1e-08 10000 20000
WARNING: Resetting reneighboring criteria during minimization (../min.cpp:168)
Memory usage per processor = 3.35962 Mbytes
Step Temp PotEng Lx Ly Lz 
      20            0   -120.91867    1.1224537    38.964689    1.1224537 
      21            0   -120.91867    1.1224537    38.964689    1.1224537 
Loop time of 3.99693e-05 on 1 procs for 1 steps with 41 atoms

Minimization stats:
  Stopping criterion = linesearch alpha is zero
  Energy initial, next-to-last, final = 
        -120.918674225     -120.918674225     -120.918674225
  Force two-norm initial, final = 4.09623e-17 4.09623e-17
  Force max component initial, final = 4.03323e-17 4.03323e-17
  Final line search alpha, max atom move = 0.5 2.01662e-17
  Iterations, force evaluations = 1 2

Pair  time (%) = 2.59465e-05 (64.9161)
Neigh time (%) = 0 (0)
Comm  time (%) = 4.24322e-06 (10.6162)
Outpt time (%) = 0 (0)
Other time (%) = 9.77959e-06 (24.4677)

Nlocal:    41 ave 41 max 41 min
Histogram: 1 0 0 0 0 0 0 0 0 0
Nghost:    185 ave 185 max 185 min
Histogram: 1 0 0 0 0 0 0 0 0 0
Neighs:    355 ave 355 max 355 min
Histogram: 1 0 0 0 0 0 0 0 0 0

Total # of neighbors = 355
Ave neighs/atom = 8.65854
Neighbor list builds = 0
Dangerous builds = 0
	# write_dump all atom ${dumpfile}
        next i
jump SELF loop1
        displace_atoms upper move 0.0 ${ystep1} 0.0 units lattice
        displace_atoms upper move 0.0 0.002 0.0 units lattice
        min_style ${style}
        min_style cg
        minimize ${etol} ${ftol} ${maxiter} ${maxeval}
        minimize 1e-12 ${ftol} ${maxiter} ${maxeval}
        minimize 1e-12 1e-08 ${maxiter} ${maxeval}
        minimize 1e-12 1e-08 10000 ${maxeval}
        minimize 1e-12 1e-08 10000 20000
WARNING: Resetting reneighboring criteria during minimization (../min.cpp:168)
Memory usage per processor = 3.35962 Mbytes
Step Temp PotEng Lx Ly Lz 
      21            0   -120.91126    1.1224537    38.968578    1.1224537 
      22            0   -120.91126    1.1224537    38.968578    1.1224537 
Loop time of 4.1911e-05 on 1 procs for 1 steps with 41 atoms

Minimization stats:
  Stopping criterion = linesearch alpha is zero
  Energy initial, next-to-last, final = 
        -120.911255101     -120.911255101     -120.911255101
  Force two-norm initial, final = 6.26354e-17 6.26354e-17
  Force max component initial, final = 4.79217e-17 4.79217e-17
  Final line search alpha, max atom move = 0.5 2.39609e-17
  Iterations, force evaluations = 1 2

Pair  time (%) = 2.79103e-05 (66.5943)
Neigh time (%) = 0 (0)
Comm  time (%) = 3.0715e-06 (7.32862)
Outpt time (%) = 0 (0)
Other time (%) = 1.09292e-05 (26.0771)

Nlocal:    41 ave 41 max 41 min
Histogram: 1 0 0 0 0 0 0 0 0 0
Nghost:    185 ave 185 max 185 min
Histogram: 1 0 0 0 0 0 0 0 0 0
Neighs:    355 ave 355 max 355 min
Histogram: 1 0 0 0 0 0 0 0 0 0

Total # of neighbors = 355
Ave neighs/atom = 8.65854
Neighbor list builds = 0
Dangerous builds = 0
	# write_dump all atom ${dumpfile}
        next i
jump SELF loop1
        displace_atoms upper move 0.0 ${ystep1} 0.0 units lattice
        displace_atoms upper move 0.0 0.002 0.0 units lattice
        min_style ${style}
        min_style cg
        minimize ${etol} ${ftol} ${maxiter} ${maxeval}
        minimize 1e-12 ${ftol} ${maxiter} ${maxeval}
        minimize 1e-12 1e-08 ${maxiter} ${maxeval}
        minimize 1e-12 1e-08 10000 ${maxeval}
        minimize 1e-12 1e-08 10000 20000
WARNING: Resetting reneighboring criteria during minimization (../min.cpp:168)
Memory usage per processor = 3.35962 Mbytes
Step Temp PotEng Lx Ly Lz 
      22            0    -120.9037    1.1224537    38.972466    1.1224537 
      23            0    -120.9037    1.1224537    38.972466    1.1224537 
Loop time of 3.99452e-05 on 1 procs for 1 steps with 41 atoms

Minimization stats:
  Stopping criterion = linesearch alpha is zero
  Energy initial, next-to-last, final = 
        -120.903702053     -120.903702053     -120.903702053
  Force two-norm initial, final = 4.05005e-17 4.05005e-17
  Force max component initial, final = 4.03323e-17 4.03323e-17
  Final line search alpha, max atom move = 0.5 2.01662e-17
  Iterations, force evaluations = 1 2

Pair  time (%) = 2.63047e-05 (65.852)
Neigh time (%) = 0 (0)
Comm  time (%) = 5.29061e-06 (13.2447)
Outpt time (%) = 0 (0)
Other time (%) = 8.34989e-06 (20.9033)

Nlocal:    41 ave 41 max 41 min
Histogram: 1 0 0 0 0 0 0 0 0 0
Nghost:    185 ave 185 max 185 min
Histogram: 1 0 0 0 0 0 0 0 0 0
Neighs:    355 ave 355 max 355 min
Histogram: 1 0 0 0 0 0 0 0 0 0

Total # of neighbors = 355
Ave neighs/atom = 8.65854
Neighbor list builds = 0
Dangerous builds = 0
	# write_dump all atom ${dumpfile}
        next i
jump SELF loop1
        displace_atoms upper move 0.0 ${ystep1} 0.0 units lattice
        displace_atoms upper move 0.0 0.002 0.0 units lattice
        min_style ${style}
        min_style cg
        minimize ${etol} ${ftol} ${maxiter} ${maxeval}
        minimize 1e-12 ${ftol} ${maxiter} ${maxeval}
        minimize 1e-12 1e-08 ${maxiter} ${maxeval}
        minimize 1e-12 1e-08 10000 ${maxeval}
        minimize 1e-12 1e-08 10000 20000
WARNING: Resetting reneighboring criteria during minimization (../min.cpp:168)
Memory usage per processor = 3.35962 Mbytes
Step Temp PotEng Lx Ly Lz 
      23            0   -120.89602    1.1224537    38.976354    1.1224537 
      24            0   -120.89602    1.1224537    38.976354    1.1224537 
Loop time of 4.00327e-05 on 1 procs for 1 steps with 41 atoms

Minimization stats:
  Stopping criterion = linesearch alpha is zero
  Energy initial, next-to-last, final = 
        -120.896016089     -120.896016089     -120.896016089
  Force two-norm initial, final = 5.2501e-17 5.2501e-17
  Force max component initial, final = 4.03323e-17 4.03323e-17
  Final line search alpha, max atom move = 0.5 2.01662e-17
  Iterations, force evaluations = 1 2

Pair  time (%) = 2.58515e-05 (64.5761)
Neigh time (%) = 0 (0)
Comm  time (%) = 3.81493e-06 (9.52954)
Outpt time (%) = 0 (0)
Other time (%) = 1.03662e-05 (25.8944)

Nlocal:    41 ave 41 max 41 min
Histogram: 1 0 0 0 0 0 0 0 0 0
Nghost:    185 ave 185 max 185 min
Histogram: 1 0 0 0 0 0 0 0 0 0
Neighs:    355 ave 355 max 355 min
Histogram: 1 0 0 0 0 0 0 0 0 0

Total # of neighbors = 355
Ave neighs/atom = 8.65854
Neighbor list builds = 0
Dangerous builds = 0
	# write_dump all atom ${dumpfile}
        next i
jump SELF loop1
        displace_atoms upper move 0.0 ${ystep1} 0.0 units lattice
        displace_atoms upper move 0.0 0.002 0.0 units lattice
        min_style ${style}
        min_style cg
        minimize ${etol} ${ftol} ${maxiter} ${maxeval}
        minimize 1e-12 ${ftol} ${maxiter} ${maxeval}
        minimize 1e-12 1e-08 ${maxiter} ${maxeval}
        minimize 1e-12 1e-08 10000 ${maxeval}
        minimize 1e-12 1e-08 10000 20000
WARNING: Resetting reneighboring criteria during minimization (../min.cpp:168)
Memory usage per processor = 3.35962 Mbytes
Step Temp PotEng Lx Ly Lz 
      24            0    -120.8882    1.1224537    38.980243    1.1224537 
      25            0    -120.8882    1.1224537    38.980243    1.1224537 
Loop time of 6.99094e-05 on 1 procs for 1 steps with 41 atoms

Minimization stats:
  Stopping criterion = linesearch alpha is zero
  Energy initial, next-to-last, final = 
        -120.888198947     -120.888198947     -120.888198947
  Force two-norm initial, final = 6.50725e-17 6.50725e-17
  Force max component initial, final = 5.10659e-17 5.10659e-17
  Final line search alpha, max atom move = 0.5 2.5533e-17
  Iterations, force evaluations = 1 2

Pair  time (%) = 2.59981e-05 (37.1883)
Neigh time (%) = 0 (0)
Comm  time (%) = 4.86954e-06 (6.9655)
Outpt time (%) = 0 (0)
Other time (%) = 3.90417e-05 (55.8462)

Nlocal:    41 ave 41 max 41 min
Histogram: 1 0 0 0 0 0 0 0 0 0
Nghost:    185 ave 185 max 185 min
Histogram: 1 0 0 0 0 0 0 0 0 0
Neighs:    355 ave 355 max 355 min
Histogram: 1 0 0 0 0 0 0 0 0 0

Total # of neighbors = 355
Ave neighs/atom = 8.65854
Neighbor list builds = 0
Dangerous builds = 0
	# write_dump all atom ${dumpfile}
        next i
jump SELF loop1
        displace_atoms upper move 0.0 ${ystep1} 0.0 units lattice
        displace_atoms upper move 0.0 0.002 0.0 units lattice
        min_style ${style}
        min_style cg
        minimize ${etol} ${ftol} ${maxiter} ${maxeval}
        minimize 1e-12 ${ftol} ${maxiter} ${maxeval}
        minimize 1e-12 1e-08 ${maxiter} ${maxeval}
        minimize 1e-12 1e-08 10000 ${maxeval}
        minimize 1e-12 1e-08 10000 20000
WARNING: Resetting reneighboring criteria during minimization (../min.cpp:168)
Memory usage per processor = 3.35962 Mbytes
Step Temp PotEng Lx Ly Lz 
      25            0   -120.88025    1.1224537    38.984131    1.1224537 
      26            0   -120.88025    1.1224537    38.984131    1.1224537 
Loop time of 4.09883e-05 on 1 procs for 1 steps with 41 atoms

Minimization stats:
  Stopping criterion = linesearch alpha is zero
  Energy initial, next-to-last, final = 
        -120.880252126     -120.880252126     -120.880252126
  Force two-norm initial, final = 5.22244e-17 5.22244e-17
  Force max component initial, final = 4.03323e-17 4.03323e-17
  Final line search alpha, max atom move = 0.5 2.01662e-17
  Iterations, force evaluations = 1 2

Pair  time (%) = 2.67648e-05 (65.2986)
Neigh time (%) = 0 (0)
Comm  time (%) = 3.16463e-06 (7.72082)
Outpt time (%) = 0 (0)
Other time (%) = 1.10589e-05 (26.9805)

Nlocal:    41 ave 41 max 41 min
Histogram: 1 0 0 0 0 0 0 0 0 0
Nghost:    185 ave 185 max 185 min
Histogram: 1 0 0 0 0 0 0 0 0 0
Neighs:    355 ave 355 max 355 min
Histogram: 1 0 0 0 0 0 0 0 0 0

Total # of neighbors = 355
Ave neighs/atom = 8.65854
Neighbor list builds = 0
Dangerous builds = 0
	# write_dump all atom ${dumpfile}
        next i
jump SELF loop1
        displace_atoms upper move 0.0 ${ystep1} 0.0 units lattice
        displace_atoms upper move 0.0 0.002 0.0 units lattice
        min_style ${style}
        min_style cg
        minimize ${etol} ${ftol} ${maxiter} ${maxeval}
        minimize 1e-12 ${ftol} ${maxiter} ${maxeval}
        minimize 1e-12 1e-08 ${maxiter} ${maxeval}
        minimize 1e-12 1e-08 10000 ${maxeval}
        minimize 1e-12 1e-08 10000 20000
WARNING: Resetting reneighboring criteria during minimization (../min.cpp:168)
Memory usage per processor = 3.35962 Mbytes
Step Temp PotEng Lx Ly Lz 
      26            0   -120.87218    1.1224537    38.988019    1.1224537 
      27            0   -120.87218    1.1224537    38.988019    1.1224537 
Loop time of 4.10554e-05 on 1 procs for 1 steps with 41 atoms

Minimization stats:
  Stopping criterion = linesearch alpha is zero
  Energy initial, next-to-last, final = 
        -120.872177085     -120.872177085     -120.872177085
  Force two-norm initial, final = 6.40987e-17 6.40987e-17
  Force max component initial, final = 4.98191e-17 4.98191e-17
  Final line search alpha, max atom move = 0.5 2.49095e-17
  Iterations, force evaluations = 1 2

Pair  time (%) = 2.60585e-05 (63.4716)
Neigh time (%) = 0 (0)
Comm  time (%) = 2.75206e-06 (6.70328)
Outpt time (%) = 0 (0)
Other time (%) = 1.22448e-05 (29.8251)

Nlocal:    41 ave 41 max 41 min
Histogram: 1 0 0 0 0 0 0 0 0 0
Nghost:    185 ave 185 max 185 min
Histogram: 1 0 0 0 0 0 0 0 0 0
Neighs:    355 ave 355 max 355 min
Histogram: 1 0 0 0 0 0 0 0 0 0

Total # of neighbors = 355
Ave neighs/atom = 8.65854
Neighbor list builds = 0
Dangerous builds = 0
	# write_dump all atom ${dumpfile}
        next i
jump SELF loop1
        displace_atoms upper move 0.0 ${ystep1} 0.0 units lattice
        displace_atoms upper move 0.0 0.002 0.0 units lattice
        min_style ${style}
        min_style cg
        minimize ${etol} ${ftol} ${maxiter} ${maxeval}
        minimize 1e-12 ${ftol} ${maxiter} ${maxeval}
        minimize 1e-12 1e-08 ${maxiter} ${maxeval}
        minimize 1e-12 1e-08 10000 ${maxeval}
        minimize 1e-12 1e-08 10000 20000
WARNING: Resetting reneighboring criteria during minimization (../min.cpp:168)
Memory usage per processor = 3.35962 Mbytes
Step Temp PotEng Lx Ly Lz 
      27            0   -120.86398    1.1224537    38.991908    1.1224537 
      28            0   -120.86398    1.1224537    38.991908    1.1224537 
Loop time of 4.10161e-05 on 1 procs for 1 steps with 41 atoms

Minimization stats:
  Stopping criterion = linesearch alpha is zero
  Energy initial, next-to-last, final = 
        -120.863975295     -120.863975295     -120.863975295
  Force two-norm initial, final = 4.77061e-17 4.77061e-17
  Force max component initial, final = 4.03323e-17 4.03323e-17
  Final line search alpha, max atom move = 0.5 2.01662e-17
  Iterations, force evaluations = 1 2

Pair  time (%) = 2.59409e-05 (63.2457)
Neigh time (%) = 0 (0)
Comm  time (%) = 2.7552e-06 (6.71736)
Outpt time (%) = 0 (0)
Other time (%) = 1.232e-05 (30.037)

Nlocal:    41 ave 41 max 41 min
Histogram: 1 0 0 0 0 0 0 0 0 0
Nghost:    185 ave 185 max 185 min
Histogram: 1 0 0 0 0 0 0 0 0 0
Neighs:    355 ave 355 max 355 min
Histogram: 1 0 0 0 0 0 0 0 0 0

Total # of neighbors = 355
Ave neighs/atom = 8.65854
Neighbor list builds = 0
Dangerous builds = 0
	# write_dump all atom ${dumpfile}
        next i
jump SELF loop1
        displace_atoms upper move 0.0 ${ystep1} 0.0 units lattice
        displace_atoms upper move 0.0 0.002 0.0 units lattice
        min_style ${style}
        min_style cg
        minimize ${etol} ${ftol} ${maxiter} ${maxeval}
        minimize 1e-12 ${ftol} ${maxiter} ${maxeval}
        minimize 1e-12 1e-08 ${maxiter} ${maxeval}
        minimize 1e-12 1e-08 10000 ${maxeval}
        minimize 1e-12 1e-08 10000 20000
WARNING: Resetting reneighboring criteria during minimization (../min.cpp:168)
Memory usage per processor = 3.35962 Mbytes
Step Temp PotEng Lx Ly Lz 
      28            0   -120.85565    1.1224537    38.995796    1.1224537 
      29            0   -120.85565    1.1224537    38.995796    1.1224537 
Loop time of 4.10504e-05 on 1 procs for 1 steps with 41 atoms

Minimization stats:
  Stopping criterion = linesearch alpha is zero
  Energy initial, next-to-last, final = 
        -120.855647565     -120.855647565     -120.855647565
  Force two-norm initial, final = 4.77932e-17 4.77932e-17
  Force max component initial, final = 4.03323e-17 4.03323e-17
  Final line search alpha, max atom move = 0.5 2.01662e-17
  Iterations, force evaluations = 1 2

Pair  time (%) = 2.60437e-05 (63.4434)
Neigh time (%) = 0 (0)
Comm  time (%) = 2.72249e-06 (6.63207)
Outpt time (%) = 0 (0)
Other time (%) = 1.22841e-05 (29.9246)

Nlocal:    41 ave 41 max 41 min
Histogram: 1 0 0 0 0 0 0 0 0 0
Nghost:    185 ave 185 max 185 min
Histogram: 1 0 0 0 0 0 0 0 0 0
Neighs:    355 ave 355 max 355 min
Histogram: 1 0 0 0 0 0 0 0 0 0

Total # of neighbors = 355
Ave neighs/atom = 8.65854
Neighbor list builds = 0
Dangerous builds = 0
	# write_dump all atom ${dumpfile}
        next i
jump SELF loop1
        displace_atoms upper move 0.0 ${ystep1} 0.0 units lattice
        displace_atoms upper move 0.0 0.002 0.0 units lattice
        min_style ${style}
        min_style cg
        minimize ${etol} ${ftol} ${maxiter} ${maxeval}
        minimize 1e-12 ${ftol} ${maxiter} ${maxeval}
        minimize 1e-12 1e-08 ${maxiter} ${maxeval}
        minimize 1e-12 1e-08 10000 ${maxeval}
        minimize 1e-12 1e-08 10000 20000
WARNING: Resetting reneighboring criteria during minimization (../min.cpp:168)
Memory usage per processor = 3.35962 Mbytes
Step Temp PotEng Lx Ly Lz 
      29            0    -120.8472    1.1224537    38.999684    1.1224537 
      30            0    -120.8472    1.1224537    38.999684    1.1224537 
Loop time of 4.20563e-05 on 1 procs for 1 steps with 41 atoms

Minimization stats:
  Stopping criterion = linesearch alpha is zero
  Energy initial, next-to-last, final = 
        -120.847196041     -120.847196041     -120.847196041
  Force two-norm initial, final = 4.75332e-17 4.75332e-17
  Force max component initial, final = 4.03323e-17 4.03323e-17
  Final line search alpha, max atom move = 0.5 2.01662e-17
  Iterations, force evaluations = 1 2

Pair  time (%) = 2.71541e-05 (64.5661)
Neigh time (%) = 0 (0)
Comm  time (%) = 3.98955e-06 (9.48622)
Outpt time (%) = 0 (0)
Other time (%) = 1.09127e-05 (25.9477)

Nlocal:    41 ave 41 max 41 min
Histogram: 1 0 0 0 0 0 0 0 0 0
Nghost:    185 ave 185 max 185 min
Histogram: 1 0 0 0 0 0 0 0 0 0
Neighs:    355 ave 355 max 355 min
Histogram: 1 0 0 0 0 0 0 0 0 0

Total # of neighbors = 355
Ave neighs/atom = 8.65854
Neighbor list builds = 0
Dangerous builds = 0
	# write_dump all atom ${dumpfile}
        next i
jump SELF loop1
        displace_atoms upper move 0.0 ${ystep1} 0.0 units lattice
        displace_atoms upper move 0.0 0.002 0.0 units lattice
        min_style ${style}
        min_style cg
        minimize ${etol} ${ftol} ${maxiter} ${maxeval}
        minimize 1e-12 ${ftol} ${maxiter} ${maxeval}
        minimize 1e-12 1e-08 ${maxiter} ${maxeval}
        minimize 1e-12 1e-08 10000 ${maxeval}
        minimize 1e-12 1e-08 10000 20000
WARNING: Resetting reneighboring criteria during minimization (../min.cpp:168)
Memory usage per processor = 3.35962 Mbytes
Step Temp PotEng Lx Ly Lz 
      30            0   -120.83862    1.1224537    39.003572    1.1224537 
      31            0   -120.83862    1.1224537    39.003572    1.1224537 
Loop time of 4.10374e-05 on 1 procs for 1 steps with 41 atoms

Minimization stats:
  Stopping criterion = linesearch alpha is zero
  Energy initial, next-to-last, final = 
         -120.83862222      -120.83862222      -120.83862222
  Force two-norm initial, final = 4.03337e-17 4.03337e-17
  Force max component initial, final = 4.03323e-17 4.03323e-17
  Final line search alpha, max atom move = 0.5 2.01662e-17
  Iterations, force evaluations = 1 2

Pair  time (%) = 2.50048e-05 (60.9318)
Neigh time (%) = 0 (0)
Comm  time (%) = 2.83681e-06 (6.91273)
Outpt time (%) = 0 (0)
Other time (%) = 1.31958e-05 (32.1555)

Nlocal:    41 ave 41 max 41 min
Histogram: 1 0 0 0 0 0 0 0 0 0
Nghost:    185 ave 185 max 185 min
Histogram: 1 0 0 0 0 0 0 0 0 0
Neighs:    355 ave 355 max 355 min
Histogram: 1 0 0 0 0 0 0 0 0 0

Total # of neighbors = 355
Ave neighs/atom = 8.65854
Neighbor list builds = 0
Dangerous builds = 0
	# write_dump all atom ${dumpfile}
        next i
jump SELF loop1
        displace_atoms upper move 0.0 ${ystep1} 0.0 units lattice
        displace_atoms upper move 0.0 0.002 0.0 units lattice
        min_style ${style}
        min_style cg
        minimize ${etol} ${ftol} ${maxiter} ${maxeval}
        minimize 1e-12 ${ftol} ${maxiter} ${maxeval}
        minimize 1e-12 1e-08 ${maxiter} ${maxeval}
        minimize 1e-12 1e-08 10000 ${maxeval}
        minimize 1e-12 1e-08 10000 20000
WARNING: Resetting reneighboring criteria during minimization (../min.cpp:168)
Memory usage per processor = 3.35962 Mbytes
Step Temp PotEng Lx Ly Lz 
      31            0   -120.82993    1.1224537    39.007461    1.1224537 
      32            0   -120.82993    1.1224537    39.007461    1.1224537 
Loop time of 4.0118e-05 on 1 procs for 1 steps with 41 atoms

Minimization stats:
  Stopping criterion = linesearch alpha is zero
  Energy initial, next-to-last, final = 
        -120.829927104     -120.829927104     -120.829927104
  Force two-norm initial, final = 4.73051e-17 4.73051e-17
  Force max component initial, final = 4.03323e-17 4.03323e-17
  Final line search alpha, max atom move = 0.5 2.01662e-17
  Iterations, force evaluations = 1 2

Pair  time (%) = 2.61078e-05 (65.0774)
Neigh time (%) = 0 (0)
Comm  time (%) = 3.85032e-06 (9.59749)
Outpt time (%) = 0 (0)
Other time (%) = 1.01599e-05 (25.3251)

Nlocal:    41 ave 41 max 41 min
Histogram: 1 0 0 0 0 0 0 0 0 0
Nghost:    185 ave 185 max 185 min
Histogram: 1 0 0 0 0 0 0 0 0 0
Neighs:    355 ave 355 max 355 min
Histogram: 1 0 0 0 0 0 0 0 0 0

Total # of neighbors = 355
Ave neighs/atom = 8.65854
Neighbor list builds = 0
Dangerous builds = 0
	# write_dump all atom ${dumpfile}
        next i
jump SELF loop1
        displace_atoms upper move 0.0 ${ystep1} 0.0 units lattice
        displace_atoms upper move 0.0 0.002 0.0 units lattice
        min_style ${style}
        min_style cg
        minimize ${etol} ${ftol} ${maxiter} ${maxeval}
        minimize 1e-12 ${ftol} ${maxiter} ${maxeval}
        minimize 1e-12 1e-08 ${maxiter} ${maxeval}
        minimize 1e-12 1e-08 10000 ${maxeval}
        minimize 1e-12 1e-08 10000 20000
WARNING: Resetting reneighboring criteria during minimization (../min.cpp:168)
Memory usage per processor = 3.35962 Mbytes
Step Temp PotEng Lx Ly Lz 
      32            0   -120.82111    1.1224537    39.011349    1.1224537 
      33            0   -120.82111    1.1224537    39.011349    1.1224537 
Loop time of 3.99534e-05 on 1 procs for 1 steps with 41 atoms

Minimization stats:
  Stopping criterion = linesearch alpha is zero
  Energy initial, next-to-last, final = 
        -120.821112468     -120.821112468     -120.821112468
  Force two-norm initial, final = 4.92382e-17 4.92382e-17
  Force max component initial, final = 4.03323e-17 4.03323e-17
  Final line search alpha, max atom move = 0.5 2.01662e-17
  Iterations, force evaluations = 1 2

Pair  time (%) = 2.58987e-05 (64.8222)
Neigh time (%) = 0 (0)
Comm  time (%) = 4.38583e-06 (10.9774)
Outpt time (%) = 0 (0)
Other time (%) = 9.66887e-06 (24.2004)

Nlocal:    41 ave 41 max 41 min
Histogram: 1 0 0 0 0 0 0 0 0 0
Nghost:    185 ave 185 max 185 min
Histogram: 1 0 0 0 0 0 0 0 0 0
Neighs:    355 ave 355 max 355 min
Histogram: 1 0 0 0 0 0 0 0 0 0

Total # of neighbors = 355
Ave neighs/atom = 8.65854
Neighbor list builds = 0
Dangerous builds = 0
	# write_dump all atom ${dumpfile}
        next i
jump SELF loop1
        displace_atoms upper move 0.0 ${ystep1} 0.0 units lattice
        displace_atoms upper move 0.0 0.002 0.0 units lattice
        min_style ${style}
        min_style cg
        minimize ${etol} ${ftol} ${maxiter} ${maxeval}
        minimize 1e-12 ${ftol} ${maxiter} ${maxeval}
        minimize 1e-12 1e-08 ${maxiter} ${maxeval}
        minimize 1e-12 1e-08 10000 ${maxeval}
        minimize 1e-12 1e-08 10000 20000
WARNING: Resetting reneighboring criteria during minimization (../min.cpp:168)
Memory usage per processor = 3.35962 Mbytes
Step Temp PotEng Lx Ly Lz 
      33            0   -120.81218    1.1224537    39.015237    1.1224537 
      34            0   -120.81218    1.1224537    39.015237    1.1224537 
Loop time of 6.08888e-05 on 1 procs for 1 steps with 41 atoms

Minimization stats:
  Stopping criterion = linesearch alpha is zero
  Energy initial, next-to-last, final = 
        -120.812180068     -120.812180068     -120.812180068
  Force two-norm initial, final = 4.1144e-17 4.1144e-17
  Force max component initial, final = 4.03323e-17 4.03323e-17
  Final line search alpha, max atom move = 0.5 2.01662e-17
  Iterations, force evaluations = 1 2

Pair  time (%) = 3.01939e-05 (49.5886)
Neigh time (%) = 0 (0)
Comm  time (%) = 7.26117e-06 (11.9253)
Outpt time (%) = 0 (0)
Other time (%) = 2.34337e-05 (38.4861)

Nlocal:    41 ave 41 max 41 min
Histogram: 1 0 0 0 0 0 0 0 0 0
Nghost:    185 ave 185 max 185 min
Histogram: 1 0 0 0 0 0 0 0 0 0
Neighs:    355 ave 355 max 355 min
Histogram: 1 0 0 0 0 0 0 0 0 0

Total # of neighbors = 355
Ave neighs/atom = 8.65854
Neighbor list builds = 0
Dangerous builds = 0
	# write_dump all atom ${dumpfile}
        next i
jump SELF loop1
        displace_atoms upper move 0.0 ${ystep1} 0.0 units lattice
        displace_atoms upper move 0.0 0.002 0.0 units lattice
        min_style ${style}
        min_style cg
        minimize ${etol} ${ftol} ${maxiter} ${maxeval}
        minimize 1e-12 ${ftol} ${maxiter} ${maxeval}
        minimize 1e-12 1e-08 ${maxiter} ${maxeval}
        minimize 1e-12 1e-08 10000 ${maxeval}
        minimize 1e-12 1e-08 10000 20000
WARNING: Resetting reneighboring criteria during minimization (../min.cpp:168)
Memory usage per processor = 3.35962 Mbytes
Step Temp PotEng Lx Ly Lz 
      34            0   -120.80313    1.1224537    39.019126    1.1224537 
      35            0   -120.80313    1.1224537    39.019126    1.1224537 
Loop time of 2.09878e-05 on 1 procs for 1 steps with 41 atoms

Minimization stats:
  Stopping criterion = linesearch alpha is zero
  Energy initial, next-to-last, final = 
        -120.803130713     -120.803130713     -120.803130713
  Force two-norm initial, final = 5.61639e-17 5.61639e-17
  Force max component initial, final = 4.03323e-17 4.03323e-17
  Final line search alpha, max atom move = 0.5 2.01662e-17
  Iterations, force evaluations = 1 2

Pair  time (%) = 9.05595e-06 (43.1486)
Neigh time (%) = 0 (0)
Comm  time (%) = 1.95939e-06 (9.33583)
Outpt time (%) = 0 (0)
Other time (%) = 9.97249e-06 (47.5156)

Nlocal:    41 ave 41 max 41 min
Histogram: 1 0 0 0 0 0 0 0 0 0
Nghost:    185 ave 185 max 185 min
Histogram: 1 0 0 0 0 0 0 0 0 0
Neighs:    355 ave 355 max 355 min
Histogram: 1 0 0 0 0 0 0 0 0 0

Total # of neighbors = 355
Ave neighs/atom = 8.65854
Neighbor list builds = 0
Dangerous builds = 0
	# write_dump all atom ${dumpfile}
        next i
jump SELF loop1
        displace_atoms upper move 0.0 ${ystep1} 0.0 units lattice
        displace_atoms upper move 0.0 0.002 0.0 units lattice
        min_style ${style}
        min_style cg
        minimize ${etol} ${ftol} ${maxiter} ${maxeval}
        minimize 1e-12 ${ftol} ${maxiter} ${maxeval}
        minimize 1e-12 1e-08 ${maxiter} ${maxeval}
        minimize 1e-12 1e-08 10000 ${maxeval}
        minimize 1e-12 1e-08 10000 20000
WARNING: Resetting reneighboring criteria during minimization (../min.cpp:168)
Memory usage per processor = 3.35962 Mbytes
Step Temp PotEng Lx Ly Lz 
      35            0   -120.79397    1.1224537    39.023014    1.1224537 
      36            0   -120.79397    1.1224537    39.023014    1.1224537 
Loop time of 4.10333e-05 on 1 procs for 1 steps with 41 atoms

Minimization stats:
  Stopping criterion = linesearch alpha is zero
  Energy initial, next-to-last, final = 
        -120.793966625     -120.793966625     -120.793966625
  Force two-norm initial, final = 5.94229e-17 5.94229e-17
  Force max component initial, final = 4.36391e-17 4.36391e-17
  Final line search alpha, max atom move = 0.5 2.18196e-17
  Iterations, force evaluations = 1 2

Pair  time (%) = 2.59923e-05 (63.3444)
Neigh time (%) = 0 (0)
Comm  time (%) = 3.858e-06 (9.40214)
Outpt time (%) = 0 (0)
Other time (%) = 1.1183e-05 (27.2534)

Nlocal:    41 ave 41 max 41 min
Histogram: 1 0 0 0 0 0 0 0 0 0
Nghost:    185 ave 185 max 185 min
Histogram: 1 0 0 0 0 0 0 0 0 0
Neighs:    355 ave 355 max 355 min
Histogram: 1 0 0 0 0 0 0 0 0 0

Total # of neighbors = 355
Ave neighs/atom = 8.65854
Neighbor list builds = 0
Dangerous builds = 0
	# write_dump all atom ${dumpfile}
        next i
jump SELF loop1
        displace_atoms upper move 0.0 ${ystep1} 0.0 units lattice
        displace_atoms upper move 0.0 0.002 0.0 units lattice
        min_style ${style}
        min_style cg
        minimize ${etol} ${ftol} ${maxiter} ${maxeval}
        minimize 1e-12 ${ftol} ${maxiter} ${maxeval}
        minimize 1e-12 1e-08 ${maxiter} ${maxeval}
        minimize 1e-12 1e-08 10000 ${maxeval}
        minimize 1e-12 1e-08 10000 20000
WARNING: Resetting reneighboring criteria during minimization (../min.cpp:168)
Memory usage per processor = 3.35962 Mbytes
Step Temp PotEng Lx Ly Lz 
      36            0   -120.78469    1.1224537    39.026902    1.1224537 
      37            0   -120.78469    1.1224537    39.026902    1.1224537 
Loop time of 4.09081e-05 on 1 procs for 1 steps with 41 atoms

Minimization stats:
  Stopping criterion = linesearch alpha is zero
  Energy initial, next-to-last, final = 
        -120.784688946     -120.784688946     -120.784688946
  Force two-norm initial, final = 4.05157e-17 4.05157e-17
  Force max component initial, final = 4.03323e-17 4.03323e-17
  Final line search alpha, max atom move = 0.5 2.01662e-17
  Iterations, force evaluations = 1 2

Pair  time (%) = 2.60939e-05 (63.7866)
Neigh time (%) = 0 (0)
Comm  time (%) = 3.29956e-06 (8.06578)
Outpt time (%) = 0 (0)
Other time (%) = 1.15146e-05 (28.1476)

Nlocal:    41 ave 41 max 41 min
Histogram: 1 0 0 0 0 0 0 0 0 0
Nghost:    185 ave 185 max 185 min
Histogram: 1 0 0 0 0 0 0 0 0 0
Neighs:    355 ave 355 max 355 min
Histogram: 1 0 0 0 0 0 0 0 0 0

Total # of neighbors = 355
Ave neighs/atom = 8.65854
Neighbor list builds = 0
Dangerous builds = 0
	# write_dump all atom ${dumpfile}
        next i
jump SELF loop1
        displace_atoms upper move 0.0 ${ystep1} 0.0 units lattice
        displace_atoms upper move 0.0 0.002 0.0 units lattice
        min_style ${style}
        min_style cg
        minimize ${etol} ${ftol} ${maxiter} ${maxeval}
        minimize 1e-12 ${ftol} ${maxiter} ${maxeval}
        minimize 1e-12 1e-08 ${maxiter} ${maxeval}
        minimize 1e-12 1e-08 10000 ${maxeval}
        minimize 1e-12 1e-08 10000 20000
WARNING: Resetting reneighboring criteria during minimization (../min.cpp:168)
Memory usage per processor = 3.35962 Mbytes
Step Temp PotEng Lx Ly Lz 
      37            0    -120.7753    1.1224537     39.03079    1.1224537 
      38            0    -120.7753    1.1224537     39.03079    1.1224537 
Loop time of 4.09628e-05 on 1 procs for 1 steps with 41 atoms

Minimization stats:
  Stopping criterion = linesearch alpha is zero
  Energy initial, next-to-last, final = 
        -120.775299329     -120.775299329     -120.775299329
  Force two-norm initial, final = 6.71339e-17 6.71339e-17
  Force max component initial, final = 5.3668e-17 5.3668e-17
  Final line search alpha, max atom move = 0.5 2.6834e-17
  Iterations, force evaluations = 1 2

Pair  time (%) = 2.57347e-05 (62.8244)
Neigh time (%) = 0 (0)
Comm  time (%) = 5.2501e-06 (12.8167)
Outpt time (%) = 0 (0)
Other time (%) = 9.97807e-06 (24.3589)

Nlocal:    41 ave 41 max 41 min
Histogram: 1 0 0 0 0 0 0 0 0 0
Nghost:    185 ave 185 max 185 min
Histogram: 1 0 0 0 0 0 0 0 0 0
Neighs:    355 ave 355 max 355 min
Histogram: 1 0 0 0 0 0 0 0 0 0

Total # of neighbors = 355
Ave neighs/atom = 8.65854
Neighbor list builds = 0
Dangerous builds = 0
	# write_dump all atom ${dumpfile}
        next i
jump SELF loop1
        displace_atoms upper move 0.0 ${ystep1} 0.0 units lattice
        displace_atoms upper move 0.0 0.002 0.0 units lattice
        min_style ${style}
        min_style cg
        minimize ${etol} ${ftol} ${maxiter} ${maxeval}
        minimize 1e-12 ${ftol} ${maxiter} ${maxeval}
        minimize 1e-12 1e-08 ${maxiter} ${maxeval}
        minimize 1e-12 1e-08 10000 ${maxeval}
        minimize 1e-12 1e-08 10000 20000
WARNING: Resetting reneighboring criteria during minimization (../min.cpp:168)
Memory usage per processor = 3.35962 Mbytes
Step Temp PotEng Lx Ly Lz 
      38            0    -120.7658    1.1224537    39.034679    1.1224537 
      39            0    -120.7658    1.1224537    39.034679    1.1224537 
Loop time of 4.10897e-05 on 1 procs for 1 steps with 41 atoms

Minimization stats:
  Stopping criterion = linesearch alpha is zero
  Energy initial, next-to-last, final = 
        -120.765799356     -120.765799356     -120.765799356
  Force two-norm initial, final = 5.2397e-17 5.2397e-17
  Force max component initial, final = 4.03323e-17 4.03323e-17
  Final line search alpha, max atom move = 0.5 2.01662e-17
  Iterations, force evaluations = 1 2

Pair  time (%) = 2.61617e-05 (63.6696)
Neigh time (%) = 0 (0)
Comm  time (%) = 2.95846e-06 (7.20001)
Outpt time (%) = 0 (0)
Other time (%) = 1.19696e-05 (29.1304)

Nlocal:    41 ave 41 max 41 min
Histogram: 1 0 0 0 0 0 0 0 0 0
Nghost:    185 ave 185 max 185 min
Histogram: 1 0 0 0 0 0 0 0 0 0
Neighs:    355 ave 355 max 355 min
Histogram: 1 0 0 0 0 0 0 0 0 0

Total # of neighbors = 355
Ave neighs/atom = 8.65854
Neighbor list builds = 0
Dangerous builds = 0
	# write_dump all atom ${dumpfile}
        next i
jump SELF loop1
        displace_atoms upper move 0.0 ${ystep1} 0.0 units lattice
        displace_atoms upper move 0.0 0.002 0.0 units lattice
        min_style ${style}
        min_style cg
        minimize ${etol} ${ftol} ${maxiter} ${maxeval}
        minimize 1e-12 ${ftol} ${maxiter} ${maxeval}
        minimize 1e-12 1e-08 ${maxiter} ${maxeval}
        minimize 1e-12 1e-08 10000 ${maxeval}
        minimize 1e-12 1e-08 10000 20000
WARNING: Resetting reneighboring criteria during minimization (../min.cpp:168)
Memory usage per processor = 3.35962 Mbytes
Step Temp PotEng Lx Ly Lz 
      39            0   -120.75619    1.1224537    39.038567    1.1224537 
      40            0   -120.75619    1.1224537    39.038567    1.1224537 
Loop time of 3.99851e-05 on 1 procs for 1 steps with 41 atoms

Minimization stats:
  Stopping criterion = linesearch alpha is zero
  Energy initial, next-to-last, final = 
        -120.756190503     -120.756190503     -120.756190503
  Force two-norm initial, final = 5.45308e-17 5.45308e-17
  Force max component initial, final = 4.03323e-17 4.03323e-17
  Final line search alpha, max atom move = 0.5 2.01662e-17
  Iterations, force evaluations = 1 2

Pair  time (%) = 2.67087e-05 (66.7967)
Neigh time (%) = 0 (0)
Comm  time (%) = 4.29072e-06 (10.7308)
Outpt time (%) = 0 (0)
Other time (%) = 8.98563e-06 (22.4725)

Nlocal:    41 ave 41 max 41 min
Histogram: 1 0 0 0 0 0 0 0 0 0
Nghost:    185 ave 185 max 185 min
Histogram: 1 0 0 0 0 0 0 0 0 0
Neighs:    355 ave 355 max 355 min
Histogram: 1 0 0 0 0 0 0 0 0 0

Total # of neighbors = 355
Ave neighs/atom = 8.65854
Neighbor list builds = 0
Dangerous builds = 0
	# write_dump all atom ${dumpfile}
        next i
jump SELF loop1
        displace_atoms upper move 0.0 ${ystep1} 0.0 units lattice
        displace_atoms upper move 0.0 0.002 0.0 units lattice
        min_style ${style}
        min_style cg
        minimize ${etol} ${ftol} ${maxiter} ${maxeval}
        minimize 1e-12 ${ftol} ${maxiter} ${maxeval}
        minimize 1e-12 1e-08 ${maxiter} ${maxeval}
        minimize 1e-12 1e-08 10000 ${maxeval}
        minimize 1e-12 1e-08 10000 20000
WARNING: Resetting reneighboring criteria during minimization (../min.cpp:168)
Memory usage per processor = 3.35962 Mbytes
Step Temp PotEng Lx Ly Lz 
      40            0   -120.74647    1.1224537    39.042455    1.1224537 
      41            0   -120.74647    1.1224537    39.042455    1.1224537 
Loop time of 3.98871e-05 on 1 procs for 1 steps with 41 atoms

Minimization stats:
  Stopping criterion = linesearch alpha is zero
  Energy initial, next-to-last, final = 
        -120.746474385     -120.746474385     -120.746474385
  Force two-norm initial, final = 4.05707e-17 4.05707e-17
  Force max component initial, final = 4.03323e-17 4.03323e-17
  Final line search alpha, max atom move = 0.5 2.01662e-17
  Iterations, force evaluations = 1 2

Pair  time (%) = 2.61301e-05 (65.5101)
Neigh time (%) = 0 (0)
Comm  time (%) = 5.89527e-06 (14.7799)
Outpt time (%) = 0 (0)
Other time (%) = 7.86176e-06 (19.71)

Nlocal:    41 ave 41 max 41 min
Histogram: 1 0 0 0 0 0 0 0 0 0
Nghost:    185 ave 185 max 185 min
Histogram: 1 0 0 0 0 0 0 0 0 0
Neighs:    355 ave 355 max 355 min
Histogram: 1 0 0 0 0 0 0 0 0 0

Total # of neighbors = 355
Ave neighs/atom = 8.65854
Neighbor list builds = 0
Dangerous builds = 0
	# write_dump all atom ${dumpfile}
        next i
jump SELF loop1
        displace_atoms upper move 0.0 ${ystep1} 0.0 units lattice
        displace_atoms upper move 0.0 0.002 0.0 units lattice
        min_style ${style}
        min_style cg
        minimize ${etol} ${ftol} ${maxiter} ${maxeval}
        minimize 1e-12 ${ftol} ${maxiter} ${maxeval}
        minimize 1e-12 1e-08 ${maxiter} ${maxeval}
        minimize 1e-12 1e-08 10000 ${maxeval}
        minimize 1e-12 1e-08 10000 20000
WARNING: Resetting reneighboring criteria during minimization (../min.cpp:168)
Memory usage per processor = 3.35962 Mbytes
Step Temp PotEng Lx Ly Lz 
      41            0   -120.73665    1.1224537    39.046344    1.1224537 
      42            0   -120.73665    1.1224537    39.046344    1.1224537 
Loop time of 4.11135e-05 on 1 procs for 1 steps with 41 atoms

Minimization stats:
  Stopping criterion = linesearch alpha is zero
  Energy initial, next-to-last, final = 
        -120.736652631     -120.736652631     -120.736652631
  Force two-norm initial, final = 4.03456e-17 4.03456e-17
  Force max component initial, final = 4.03323e-17 4.03323e-17
  Final line search alpha, max atom move = 0.5 2.01662e-17
  Iterations, force evaluations = 1 2

Pair  time (%) = 2.52329e-05 (61.3738)
Neigh time (%) = 0 (0)
Comm  time (%) = 4.05451e-06 (9.86176)
Outpt time (%) = 0 (0)
Other time (%) = 1.18261e-05 (28.7644)

Nlocal:    41 ave 41 max 41 min
Histogram: 1 0 0 0 0 0 0 0 0 0
Nghost:    185 ave 185 max 185 min
Histogram: 1 0 0 0 0 0 0 0 0 0
Neighs:    355 ave 355 max 355 min
Histogram: 1 0 0 0 0 0 0 0 0 0

Total # of neighbors = 355
Ave neighs/atom = 8.65854
Neighbor list builds = 0
Dangerous builds = 0
	# write_dump all atom ${dumpfile}
        next i
jump SELF loop1
        displace_atoms upper move 0.0 ${ystep1} 0.0 units lattice
        displace_atoms upper move 0.0 0.002 0.0 units lattice
        min_style ${style}
        min_style cg
        minimize ${etol} ${ftol} ${maxiter} ${maxeval}
        minimize 1e-12 ${ftol} ${maxiter} ${maxeval}
        minimize 1e-12 1e-08 ${maxiter} ${maxeval}
        minimize 1e-12 1e-08 10000 ${maxeval}
        minimize 1e-12 1e-08 10000 20000
WARNING: Resetting reneighboring criteria during minimization (../min.cpp:168)
Memory usage per processor = 3.35962 Mbytes
Step Temp PotEng Lx Ly Lz 
      42            0   -120.72673    1.1224537    39.050232    1.1224537 
      43            0   -120.72673    1.1224537    39.050232    1.1224537 
Loop time of 7.20958e-05 on 1 procs for 1 steps with 41 atoms

Minimization stats:
  Stopping criterion = linesearch alpha is zero
  Energy initial, next-to-last, final = 
        -120.726726595     -120.726726595     -120.726726595
  Force two-norm initial, final = 4.2497e-17 4.2497e-17
  Force max component initial, final = 4.03323e-17 4.03323e-17
  Final line search alpha, max atom move = 0.5 2.01662e-17
  Iterations, force evaluations = 1 2

Pair  time (%) = 2.5981e-05 (36.0368)
Neigh time (%) = 0 (0)
Comm  time (%) = 4.78886e-06 (6.64236)
Outpt time (%) = 0 (0)
Other time (%) = 4.13259e-05 (57.3209)

Nlocal:    41 ave 41 max 41 min
Histogram: 1 0 0 0 0 0 0 0 0 0
Nghost:    185 ave 185 max 185 min
Histogram: 1 0 0 0 0 0 0 0 0 0
Neighs:    355 ave 355 max 355 min
Histogram: 1 0 0 0 0 0 0 0 0 0

Total # of neighbors = 355
Ave neighs/atom = 8.65854
Neighbor list builds = 0
Dangerous builds = 0
	# write_dump all atom ${dumpfile}
        next i
jump SELF loop1
        displace_atoms upper move 0.0 ${ystep1} 0.0 units lattice
        displace_atoms upper move 0.0 0.002 0.0 units lattice
        min_style ${style}
        min_style cg
        minimize ${etol} ${ftol} ${maxiter} ${maxeval}
        minimize 1e-12 ${ftol} ${maxiter} ${maxeval}
        minimize 1e-12 1e-08 ${maxiter} ${maxeval}
        minimize 1e-12 1e-08 10000 ${maxeval}
        minimize 1e-12 1e-08 10000 20000
WARNING: Resetting reneighboring criteria during minimization (../min.cpp:168)
Memory usage per processor = 3.35962 Mbytes
Step Temp PotEng Lx Ly Lz 
      43            0    -120.7167    1.1224537     39.05412    1.1224537 
      44            0    -120.7167    1.1224537     39.05412    1.1224537 
Loop time of 4.20773e-05 on 1 procs for 1 steps with 41 atoms

Minimization stats:
  Stopping criterion = linesearch alpha is zero
  Energy initial, next-to-last, final = 
        -120.716698297     -120.716698297     -120.716698297
  Force two-norm initial, final = 4.12891e-17 4.12891e-17
  Force max component initial, final = 4.03323e-17 4.03323e-17
  Final line search alpha, max atom move = 0.5 2.01662e-17
  Iterations, force evaluations = 1 2

Pair  time (%) = 2.61243e-05 (62.0865)
Neigh time (%) = 0 (0)
Comm  time (%) = 4.88351e-06 (11.606)
Outpt time (%) = 0 (0)
Other time (%) = 1.10695e-05 (26.3075)

Nlocal:    41 ave 41 max 41 min
Histogram: 1 0 0 0 0 0 0 0 0 0
Nghost:    185 ave 185 max 185 min
Histogram: 1 0 0 0 0 0 0 0 0 0
Neighs:    355 ave 355 max 355 min
Histogram: 1 0 0 0 0 0 0 0 0 0

Total # of neighbors = 355
Ave neighs/atom = 8.65854
Neighbor list builds = 0
Dangerous builds = 0
	# write_dump all atom ${dumpfile}
        next i
jump SELF loop1
        displace_atoms upper move 0.0 ${ystep1} 0.0 units lattice
        displace_atoms upper move 0.0 0.002 0.0 units lattice
        min_style ${style}
        min_style cg
        minimize ${etol} ${ftol} ${maxiter} ${maxeval}
        minimize 1e-12 ${ftol} ${maxiter} ${maxeval}
        minimize 1e-12 1e-08 ${maxiter} ${maxeval}
        minimize 1e-12 1e-08 10000 ${maxeval}
        minimize 1e-12 1e-08 10000 20000
WARNING: Resetting reneighboring criteria during minimization (../min.cpp:168)
Memory usage per processor = 3.35962 Mbytes
Step Temp PotEng Lx Ly Lz 
      44            0   -120.70657    1.1224537    39.058009    1.1224537 
      45            0   -120.70657    1.1224537    39.058009    1.1224537 
Loop time of 4.11115e-05 on 1 procs for 1 steps with 41 atoms

Minimization stats:
  Stopping criterion = linesearch alpha is zero
  Energy initial, next-to-last, final = 
        -120.706568783     -120.706568783     -120.706568783
  Force two-norm initial, final = 5.5601e-17 5.5601e-17
  Force max component initial, final = 4.03323e-17 4.03323e-17
  Final line search alpha, max atom move = 0.5 2.01662e-17
  Iterations, force evaluations = 1 2

Pair  time (%) = 2.6227e-05 (63.7948)
Neigh time (%) = 0 (0)
Comm  time (%) = 3.08908e-06 (7.51391)
Outpt time (%) = 0 (0)
Other time (%) = 1.17954e-05 (28.6913)

Nlocal:    41 ave 41 max 41 min
Histogram: 1 0 0 0 0 0 0 0 0 0
Nghost:    185 ave 185 max 185 min
Histogram: 1 0 0 0 0 0 0 0 0 0
Neighs:    355 ave 355 max 355 min
Histogram: 1 0 0 0 0 0 0 0 0 0

Total # of neighbors = 355
Ave neighs/atom = 8.65854
Neighbor list builds = 0
Dangerous builds = 0
	# write_dump all atom ${dumpfile}
        next i
jump SELF loop1
        displace_atoms upper move 0.0 ${ystep1} 0.0 units lattice
        displace_atoms upper move 0.0 0.002 0.0 units lattice
        min_style ${style}
        min_style cg
        minimize ${etol} ${ftol} ${maxiter} ${maxeval}
        minimize 1e-12 ${ftol} ${maxiter} ${maxeval}
        minimize 1e-12 1e-08 ${maxiter} ${maxeval}
        minimize 1e-12 1e-08 10000 ${maxeval}
        minimize 1e-12 1e-08 10000 20000
WARNING: Resetting reneighboring criteria during minimization (../min.cpp:168)
Memory usage per processor = 3.35962 Mbytes
Step Temp PotEng Lx Ly Lz 
      45            0   -120.69634    1.1224537    39.061897    1.1224537 
      46            0   -120.69634    1.1224537    39.061897    1.1224537 
Loop time of 3.99865e-05 on 1 procs for 1 steps with 41 atoms

Minimization stats:
  Stopping criterion = linesearch alpha is zero
  Energy initial, next-to-last, final = 
        -120.696340073     -120.696340073     -120.696340073
  Force two-norm initial, final = 6.503e-17 6.503e-17
  Force max component initial, final = 5.10117e-17 5.10117e-17
  Final line search alpha, max atom move = 0.5 2.55059e-17
  Iterations, force evaluations = 1 2

Pair  time (%) = 2.57129e-05 (64.304)
Neigh time (%) = 0 (0)
Comm  time (%) = 4.25277e-06 (10.6355)
Outpt time (%) = 0 (0)
Other time (%) = 1.00208e-05 (25.0605)

Nlocal:    41 ave 41 max 41 min
Histogram: 1 0 0 0 0 0 0 0 0 0
Nghost:    185 ave 185 max 185 min
Histogram: 1 0 0 0 0 0 0 0 0 0
Neighs:    355 ave 355 max 355 min
Histogram: 1 0 0 0 0 0 0 0 0 0

Total # of neighbors = 355
Ave neighs/atom = 8.65854
Neighbor list builds = 0
Dangerous builds = 0
	# write_dump all atom ${dumpfile}
        next i
jump SELF loop1
        displace_atoms upper move 0.0 ${ystep1} 0.0 units lattice
        displace_atoms upper move 0.0 0.002 0.0 units lattice
        min_style ${style}
        min_style cg
        minimize ${etol} ${ftol} ${maxiter} ${maxeval}
        minimize 1e-12 ${ftol} ${maxiter} ${maxeval}
[...]
        min_style cg
        minimize ${etol} ${ftol} ${maxiter} ${maxeval}
        minimize 1e-12 ${ftol} ${maxiter} ${maxeval}
        minimize 1e-12 1e-08 ${maxiter} ${maxeval}
        minimize 1e-12 1e-08 10000 ${maxeval}
        minimize 1e-12 1e-08 10000 20000
WARNING: Resetting reneighboring criteria during minimization (../min.cpp:168)
Memory usage per processor = 3.35969 Mbytes
Step Temp PotEng Lx Ly Lz 
     491            0   -118.99997    1.1224537    40.796076    1.1224537 
     492            0   -118.99997    1.1224537    40.796076    1.1224537 
Loop time of 7.39546e-05 on 1 procs for 1 steps with 41 atoms

Minimization stats:
  Stopping criterion = linesearch alpha is zero
  Energy initial, next-to-last, final = 
        -118.999965529     -118.999965529     -118.999965529
  Force two-norm initial, final = 4.69473e-20 4.69473e-20
  Force max component initial, final = 2.71051e-20 2.71051e-20
  Final line search alpha, max atom move = 0.5 1.35525e-20
  Iterations, force evaluations = 1 2

Pair  time (%) = 4.69007e-05 (63.4183)
Neigh time (%) = 0 (0)
Comm  time (%) = 7.79354e-06 (10.5383)
Outpt time (%) = 0 (0)
Other time (%) = 1.92603e-05 (26.0435)

Nlocal:    41 ave 41 max 41 min
Histogram: 1 0 0 0 0 0 0 0 0 0
Nghost:    185 ave 185 max 185 min
Histogram: 1 0 0 0 0 0 0 0 0 0
Neighs:    349 ave 349 max 349 min
Histogram: 1 0 0 0 0 0 0 0 0 0

Total # of neighbors = 349
Ave neighs/atom = 8.5122
Neighbor list builds = 0
Dangerous builds = 0
	# write_dump all atom ${dumpfile}
        next i
jump SELF loop1
        displace_atoms upper move 0.0 ${ystep1} 0.0 units lattice
        displace_atoms upper move 0.0 0.002 0.0 units lattice
        min_style ${style}
        min_style cg
        minimize ${etol} ${ftol} ${maxiter} ${maxeval}
        minimize 1e-12 ${ftol} ${maxiter} ${maxeval}
        minimize 1e-12 1e-08 ${maxiter} ${maxeval}
        minimize 1e-12 1e-08 10000 ${maxeval}
        minimize 1e-12 1e-08 10000 20000
WARNING: Resetting reneighboring criteria during minimization (../min.cpp:168)
Memory usage per processor = 3.35969 Mbytes
Step Temp PotEng Lx Ly Lz 
     492            0   -118.99997    1.1224537    40.799964    1.1224537 
     493            0   -118.99997    1.1224537    40.799964    1.1224537 
Loop time of 0.000105885 on 1 procs for 1 steps with 41 atoms

Minimization stats:
  Stopping criterion = linesearch alpha is zero
  Energy initial, next-to-last, final = 
        -118.999965529     -118.999965529     -118.999965529
  Force two-norm initial, final = 5.42101e-20 5.42101e-20
  Force max component initial, final = 2.71051e-20 2.71051e-20
  Final line search alpha, max atom move = 0.5 1.35525e-20
  Iterations, force evaluations = 1 2

Pair  time (%) = 4.58388e-05 (43.291)
Neigh time (%) = 0 (0)
Comm  time (%) = 6.1465e-06 (5.80486)
Outpt time (%) = 0 (0)
Other time (%) = 5.39001e-05 (50.9042)

Nlocal:    41 ave 41 max 41 min
Histogram: 1 0 0 0 0 0 0 0 0 0
Nghost:    185 ave 185 max 185 min
Histogram: 1 0 0 0 0 0 0 0 0 0
Neighs:    349 ave 349 max 349 min
Histogram: 1 0 0 0 0 0 0 0 0 0

Total # of neighbors = 349
Ave neighs/atom = 8.5122
Neighbor list builds = 0
Dangerous builds = 0
	# write_dump all atom ${dumpfile}
        next i
jump SELF loop1
        displace_atoms upper move 0.0 ${ystep1} 0.0 units lattice
        displace_atoms upper move 0.0 0.002 0.0 units lattice
        min_style ${style}
        min_style cg
        minimize ${etol} ${ftol} ${maxiter} ${maxeval}
        minimize 1e-12 ${ftol} ${maxiter} ${maxeval}
        minimize 1e-12 1e-08 ${maxiter} ${maxeval}
        minimize 1e-12 1e-08 10000 ${maxeval}
        minimize 1e-12 1e-08 10000 20000
WARNING: Resetting reneighboring criteria during minimization (../min.cpp:168)
Memory usage per processor = 3.35969 Mbytes
Step Temp PotEng Lx Ly Lz 
     493            0   -118.99997    1.1224537    40.803852    1.1224537 
     494            0   -118.99997    1.1224537    40.803852    1.1224537 
Loop time of 1.04052e-06 on 1 procs for 1 steps with 41 atoms

Minimization stats:
  Stopping criterion = linesearch alpha is zero
  Energy initial, next-to-last, final = 
        -118.999965529     -118.999965529     -118.999965529
  Force two-norm initial, final = 5.42101e-20 5.42101e-20
  Force max component initial, final = 2.71051e-20 2.71051e-20
  Final line search alpha, max atom move = 0.5 1.35525e-20
  Iterations, force evaluations = 1 2

Pair  time (%) = 2.60537e-07 (25.0392)
Neigh time (%) = 0 (0)
Comm  time (%) = 4.74742e-07 (45.6254)
Outpt time (%) = 0 (0)
Other time (%) = 3.05241e-07 (29.3354)

Nlocal:    41 ave 41 max 41 min
Histogram: 1 0 0 0 0 0 0 0 0 0
Nghost:    185 ave 185 max 185 min
Histogram: 1 0 0 0 0 0 0 0 0 0
Neighs:    349 ave 349 max 349 min
Histogram: 1 0 0 0 0 0 0 0 0 0

Total # of neighbors = 349
Ave neighs/atom = 8.5122
Neighbor list builds = 0
Dangerous builds = 0
	# write_dump all atom ${dumpfile}
        next i
jump SELF loop1
        displace_atoms upper move 0.0 ${ystep1} 0.0 units lattice
        displace_atoms upper move 0.0 0.002 0.0 units lattice
        min_style ${style}
        min_style cg
        minimize ${etol} ${ftol} ${maxiter} ${maxeval}
        minimize 1e-12 ${ftol} ${maxiter} ${maxeval}
        minimize 1e-12 1e-08 ${maxiter} ${maxeval}
        minimize 1e-12 1e-08 10000 ${maxeval}
        minimize 1e-12 1e-08 10000 20000
WARNING: Resetting reneighboring criteria during minimization (../min.cpp:168)
Memory usage per processor = 3.35969 Mbytes
Step Temp PotEng Lx Ly Lz 
     494            0   -118.99997    1.1224537    40.807741    1.1224537 
     495            0   -118.99997    1.1224537    40.807741    1.1224537 
Loop time of 7.29909e-05 on 1 procs for 1 steps with 41 atoms

Minimization stats:
  Stopping criterion = linesearch alpha is zero
  Energy initial, next-to-last, final = 
        -118.999965529     -118.999965529     -118.999965529
  Force two-norm initial, final = 5.42101e-20 5.42101e-20
  Force max component initial, final = 2.71051e-20 2.71051e-20
  Final line search alpha, max atom move = 0.5 1.35525e-20
  Iterations, force evaluations = 1 2

Pair  time (%) = 4.58572e-05 (62.8259)
Neigh time (%) = 0 (0)
Comm  time (%) = 7.18317e-06 (9.84119)
Outpt time (%) = 0 (0)
Other time (%) = 1.99506e-05 (27.3329)

Nlocal:    41 ave 41 max 41 min
Histogram: 1 0 0 0 0 0 0 0 0 0
Nghost:    185 ave 185 max 185 min
Histogram: 1 0 0 0 0 0 0 0 0 0
Neighs:    349 ave 349 max 349 min
Histogram: 1 0 0 0 0 0 0 0 0 0

Total # of neighbors = 349
Ave neighs/atom = 8.5122
Neighbor list builds = 0
Dangerous builds = 0
	# write_dump all atom ${dumpfile}
        next i
jump SELF loop1
        displace_atoms upper move 0.0 ${ystep1} 0.0 units lattice
        displace_atoms upper move 0.0 0.002 0.0 units lattice
        min_style ${style}
        min_style cg
        minimize ${etol} ${ftol} ${maxiter} ${maxeval}
        minimize 1e-12 ${ftol} ${maxiter} ${maxeval}
        minimize 1e-12 1e-08 ${maxiter} ${maxeval}
        minimize 1e-12 1e-08 10000 ${maxeval}
        minimize 1e-12 1e-08 10000 20000
WARNING: Resetting reneighboring criteria during minimization (../min.cpp:168)
Memory usage per processor = 3.35969 Mbytes
Step Temp PotEng Lx Ly Lz 
     495            0   -118.99997    1.1224537    40.811629    1.1224537 
     496            0   -118.99997    1.1224537    40.811629    1.1224537 
Loop time of 6.90315e-05 on 1 procs for 1 steps with 41 atoms

Minimization stats:
  Stopping criterion = linesearch alpha is zero
  Energy initial, next-to-last, final = 
        -118.999965529     -118.999965529     -118.999965529
  Force two-norm initial, final = 5.42101e-20 5.42101e-20
  Force max component initial, final = 2.71051e-20 2.71051e-20
  Final line search alpha, max atom move = 0.5 1.35525e-20
  Iterations, force evaluations = 1 2

Pair  time (%) = 4.60852e-05 (66.7597)
Neigh time (%) = 0 (0)
Comm  time (%) = 9.11625e-06 (13.2059)
Outpt time (%) = 0 (0)
Other time (%) = 1.383e-05 (20.0344)

Nlocal:    41 ave 41 max 41 min
Histogram: 1 0 0 0 0 0 0 0 0 0
Nghost:    185 ave 185 max 185 min
Histogram: 1 0 0 0 0 0 0 0 0 0
Neighs:    349 ave 349 max 349 min
Histogram: 1 0 0 0 0 0 0 0 0 0

Total # of neighbors = 349
Ave neighs/atom = 8.5122
Neighbor list builds = 0
Dangerous builds = 0
	# write_dump all atom ${dumpfile}
        next i
jump SELF loop1
        displace_atoms upper move 0.0 ${ystep1} 0.0 units lattice
        displace_atoms upper move 0.0 0.002 0.0 units lattice
        min_style ${style}
        min_style cg
        minimize ${etol} ${ftol} ${maxiter} ${maxeval}
        minimize 1e-12 ${ftol} ${maxiter} ${maxeval}
        minimize 1e-12 1e-08 ${maxiter} ${maxeval}
        minimize 1e-12 1e-08 10000 ${maxeval}
        minimize 1e-12 1e-08 10000 20000
WARNING: Resetting reneighboring criteria during minimization (../min.cpp:168)
Memory usage per processor = 3.35969 Mbytes
Step Temp PotEng Lx Ly Lz 
     496            0   -118.99997    1.1224537    40.815517    1.1224537 
     497            0   -118.99997    1.1224537    40.815517    1.1224537 
Loop time of 9.21128e-05 on 1 procs for 1 steps with 41 atoms

Minimization stats:
  Stopping criterion = linesearch alpha is zero
  Energy initial, next-to-last, final = 
        -118.999965529     -118.999965529     -118.999965529
  Force two-norm initial, final = 5.42101e-20 5.42101e-20
  Force max component initial, final = 2.71051e-20 2.71051e-20
  Final line search alpha, max atom move = 0.5 1.35525e-20
  Iterations, force evaluations = 1 2

Pair  time (%) = 4.59983e-05 (49.9369)
Neigh time (%) = 0 (0)
Comm  time (%) = 6.94219e-06 (7.53662)
Outpt time (%) = 0 (0)
Other time (%) = 3.91724e-05 (42.5265)

Nlocal:    41 ave 41 max 41 min
Histogram: 1 0 0 0 0 0 0 0 0 0
Nghost:    185 ave 185 max 185 min
Histogram: 1 0 0 0 0 0 0 0 0 0
Neighs:    349 ave 349 max 349 min
Histogram: 1 0 0 0 0 0 0 0 0 0

Total # of neighbors = 349
Ave neighs/atom = 8.5122
Neighbor list builds = 0
Dangerous builds = 0
	# write_dump all atom ${dumpfile}
        next i
jump SELF loop1
        displace_atoms upper move 0.0 ${ystep1} 0.0 units lattice
        displace_atoms upper move 0.0 0.002 0.0 units lattice
        min_style ${style}
        min_style cg
        minimize ${etol} ${ftol} ${maxiter} ${maxeval}
        minimize 1e-12 ${ftol} ${maxiter} ${maxeval}
        minimize 1e-12 1e-08 ${maxiter} ${maxeval}
        minimize 1e-12 1e-08 10000 ${maxeval}
        minimize 1e-12 1e-08 10000 20000
WARNING: Resetting reneighboring criteria during minimization (../min.cpp:168)
Memory usage per processor = 3.35969 Mbytes
Step Temp PotEng Lx Ly Lz 
     497            0   -118.99997    1.1224537    40.819406    1.1224537 
     498            0   -118.99997    1.1224537    40.819406    1.1224537 
Loop time of 0.00436408 on 1 procs for 1 steps with 41 atoms

Minimization stats:
  Stopping criterion = linesearch alpha is zero
  Energy initial, next-to-last, final = 
        -118.999965529     -118.999965529     -118.999965529
  Force two-norm initial, final = 4.69473e-20 4.69473e-20
  Force max component initial, final = 2.71051e-20 2.71051e-20
  Final line search alpha, max atom move = 0.5 1.35525e-20
  Iterations, force evaluations = 1 2

Pair  time (%) = 4.60524e-05 (1.05526)
Neigh time (%) = 0 (0)
Comm  time (%) = 8.24255e-06 (0.188872)
Outpt time (%) = 0 (0)
Other time (%) = 0.00430979 (98.7559)

Nlocal:    41 ave 41 max 41 min
Histogram: 1 0 0 0 0 0 0 0 0 0
Nghost:    185 ave 185 max 185 min
Histogram: 1 0 0 0 0 0 0 0 0 0
Neighs:    349 ave 349 max 349 min
Histogram: 1 0 0 0 0 0 0 0 0 0

Total # of neighbors = 349
Ave neighs/atom = 8.5122
Neighbor list builds = 0
Dangerous builds = 0
	# write_dump all atom ${dumpfile}
        next i
jump SELF loop1
        displace_atoms upper move 0.0 ${ystep1} 0.0 units lattice
        displace_atoms upper move 0.0 0.002 0.0 units lattice
        min_style ${style}
        min_style cg
        minimize ${etol} ${ftol} ${maxiter} ${maxeval}
        minimize 1e-12 ${ftol} ${maxiter} ${maxeval}
        minimize 1e-12 1e-08 ${maxiter} ${maxeval}
        minimize 1e-12 1e-08 10000 ${maxeval}
        minimize 1e-12 1e-08 10000 20000
WARNING: Resetting reneighboring criteria during minimization (../min.cpp:168)
Memory usage per processor = 3.35969 Mbytes
Step Temp PotEng Lx Ly Lz 
     498            0   -118.99997    1.1224537    40.823294    1.1224537 
     499            0   -118.99997    1.1224537    40.823294    1.1224537 
Loop time of 4.00329e-05 on 1 procs for 1 steps with 41 atoms

Minimization stats:
  Stopping criterion = linesearch alpha is zero
  Energy initial, next-to-last, final = 
        -118.999965529     -118.999965529     -118.999965529
  Force two-norm initial, final = 4.69473e-20 4.69473e-20
  Force max component initial, final = 2.71051e-20 2.71051e-20
  Final line search alpha, max atom move = 0.5 1.35525e-20
  Iterations, force evaluations = 1 2

Pair  time (%) = 2.58986e-05 (64.6932)
Neigh time (%) = 0 (0)
Comm  time (%) = 2.90887e-06 (7.2662)
Outpt time (%) = 0 (0)
Other time (%) = 1.12255e-05 (28.0406)

Nlocal:    41 ave 41 max 41 min
Histogram: 1 0 0 0 0 0 0 0 0 0
Nghost:    185 ave 185 max 185 min
Histogram: 1 0 0 0 0 0 0 0 0 0
Neighs:    349 ave 349 max 349 min
Histogram: 1 0 0 0 0 0 0 0 0 0

Total # of neighbors = 349
Ave neighs/atom = 8.5122
Neighbor list builds = 0
Dangerous builds = 0
	# write_dump all atom ${dumpfile}
        next i
jump SELF loop1
        displace_atoms upper move 0.0 ${ystep1} 0.0 units lattice
        displace_atoms upper move 0.0 0.002 0.0 units lattice
        min_style ${style}
        min_style cg
        minimize ${etol} ${ftol} ${maxiter} ${maxeval}
        minimize 1e-12 ${ftol} ${maxiter} ${maxeval}
        minimize 1e-12 1e-08 ${maxiter} ${maxeval}
        minimize 1e-12 1e-08 10000 ${maxeval}
        minimize 1e-12 1e-08 10000 20000
WARNING: Resetting reneighboring criteria during minimization (../min.cpp:168)
Memory usage per processor = 3.35969 Mbytes
Step Temp PotEng Lx Ly Lz 
     499            0   -118.99997    1.1224537    40.827182    1.1224537 
     500            0   -118.99997    1.1224537    40.827182    1.1224537 
Loop time of 3.99597e-05 on 1 procs for 1 steps with 41 atoms

Minimization stats:
  Stopping criterion = linesearch alpha is zero
  Energy initial, next-to-last, final = 
        -118.999965529     -118.999965529     -118.999965529
  Force two-norm initial, final = 4.69473e-20 4.69473e-20
  Force max component initial, final = 2.71051e-20 2.71051e-20
  Final line search alpha, max atom move = 0.5 1.35525e-20
  Iterations, force evaluations = 1 2

Pair  time (%) = 2.71095e-05 (67.8422)
Neigh time (%) = 0 (0)
Comm  time (%) = 4.37722e-06 (10.9541)
Outpt time (%) = 0 (0)
Other time (%) = 8.47294e-06 (21.2037)

Nlocal:    41 ave 41 max 41 min
Histogram: 1 0 0 0 0 0 0 0 0 0
Nghost:    185 ave 185 max 185 min
Histogram: 1 0 0 0 0 0 0 0 0 0
Neighs:    349 ave 349 max 349 min
Histogram: 1 0 0 0 0 0 0 0 0 0

Total # of neighbors = 349
Ave neighs/atom = 8.5122
Neighbor list builds = 0
Dangerous builds = 0
	# write_dump all atom ${dumpfile}
        next i
jump SELF loop1
        displace_atoms upper move 0.0 ${ystep1} 0.0 units lattice
        displace_atoms upper move 0.0 0.002 0.0 units lattice
        min_style ${style}
        min_style cg
        minimize ${etol} ${ftol} ${maxiter} ${maxeval}
        minimize 1e-12 ${ftol} ${maxiter} ${maxeval}
        minimize 1e-12 1e-08 ${maxiter} ${maxeval}
        minimize 1e-12 1e-08 10000 ${maxeval}
        minimize 1e-12 1e-08 10000 20000
WARNING: Resetting reneighboring criteria during minimization (../min.cpp:168)
Memory usage per processor = 3.35969 Mbytes
Step Temp PotEng Lx Ly Lz 
     500            0   -118.99997    1.1224537    40.831071    1.1224537 
     501            0   -118.99997    1.1224537    40.831071    1.1224537 
Loop time of 4.1038e-05 on 1 procs for 1 steps with 41 atoms

Minimization stats:
  Stopping criterion = linesearch alpha is zero
  Energy initial, next-to-last, final = 
        -118.999965529     -118.999965529     -118.999965529
  Force two-norm initial, final = 5.42101e-20 5.42101e-20
  Force max component initial, final = 2.71051e-20 2.71051e-20
  Final line search alpha, max atom move = 0.5 1.35525e-20
  Iterations, force evaluations = 1 2

Pair  time (%) = 2.61456e-05 (63.7107)
Neigh time (%) = 0 (0)
Comm  time (%) = 3.97232e-06 (9.67962)
Outpt time (%) = 0 (0)
Other time (%) = 1.09201e-05 (26.6097)

Nlocal:    41 ave 41 max 41 min
Histogram: 1 0 0 0 0 0 0 0 0 0
Nghost:    185 ave 185 max 185 min
Histogram: 1 0 0 0 0 0 0 0 0 0
Neighs:    349 ave 349 max 349 min
Histogram: 1 0 0 0 0 0 0 0 0 0

Total # of neighbors = 349
Ave neighs/atom = 8.5122
Neighbor list builds = 0
Dangerous builds = 0
	# write_dump all atom ${dumpfile}
        next i
jump SELF loop1
        displace_atoms upper move 0.0 ${ystep1} 0.0 units lattice
        displace_atoms upper move 0.0 0.002 0.0 units lattice
        min_style ${style}
        min_style cg
        minimize ${etol} ${ftol} ${maxiter} ${maxeval}
        minimize 1e-12 ${ftol} ${maxiter} ${maxeval}
        minimize 1e-12 1e-08 ${maxiter} ${maxeval}
        minimize 1e-12 1e-08 10000 ${maxeval}
        minimize 1e-12 1e-08 10000 20000
WARNING: Resetting reneighboring criteria during minimization (../min.cpp:168)
Memory usage per processor = 3.35969 Mbytes
Step Temp PotEng Lx Ly Lz 
     501            0   -118.99997    1.1224537    40.834959    1.1224537 
     502            0   -118.99997    1.1224537    40.834959    1.1224537 
Loop time of 3.90012e-05 on 1 procs for 1 steps with 41 atoms

Minimization stats:
  Stopping criterion = linesearch alpha is zero
  Energy initial, next-to-last, final = 
        -118.999965529     -118.999965529     -118.999965529
  Force two-norm initial, final = 5.42101e-20 5.42101e-20
  Force max component initial, final = 2.71051e-20 2.71051e-20
  Final line search alpha, max atom move = 0.5 1.35525e-20
  Iterations, force evaluations = 1 2

Pair  time (%) = 2.48961e-05 (63.8342)
Neigh time (%) = 0 (0)
Comm  time (%) = 2.85776e-06 (7.32737)
Outpt time (%) = 0 (0)
Other time (%) = 1.12473e-05 (28.8385)

Nlocal:    41 ave 41 max 41 min
Histogram: 1 0 0 0 0 0 0 0 0 0
Nghost:    185 ave 185 max 185 min
Histogram: 1 0 0 0 0 0 0 0 0 0
Neighs:    349 ave 349 max 349 min
Histogram: 1 0 0 0 0 0 0 0 0 0

Total # of neighbors = 349
Ave neighs/atom = 8.5122
Neighbor list builds = 0
Dangerous builds = 0
	# write_dump all atom ${dumpfile}
        next i
jump SELF loop1

unfix 2
min_style ${style}
min_style cg
minimize ${etol} ${ftol} ${maxiter} ${maxeval}
minimize 1e-12 ${ftol} ${maxiter} ${maxeval}
minimize 1e-12 1e-08 ${maxiter} ${maxeval}
minimize 1e-12 1e-08 10000 ${maxeval}
minimize 1e-12 1e-08 10000 20000
WARNING: Resetting reneighboring criteria during minimization (../min.cpp:168)
Memory usage per processor = 3.35969 Mbytes
Step Temp PotEng Lx Ly Lz 
     502            0   -118.99997    1.1224537    40.834959    1.1224537 
     503            0   -118.99997    1.1224537    40.834959    1.1224537 
Loop time of 0.000130039 on 1 procs for 1 steps with 41 atoms

Minimization stats:
  Stopping criterion = linesearch alpha is zero
  Energy initial, next-to-last, final = 
        -118.999965529     -118.999965529     -118.999965529
  Force two-norm initial, final = 0.00327105 0.00327105
  Force max component initial, final = 0.00179508 0.00179508
  Final line search alpha, max atom move = 0.000976562 1.75301e-06
  Iterations, force evaluations = 1 11

Pair  time (%) = 0.000100815 (77.527)
Neigh time (%) = 0 (0)
Comm  time (%) = 1.25547e-05 (9.65456)
Outpt time (%) = 0 (0)
Other time (%) = 1.6669e-05 (12.8185)

Nlocal:    41 ave 41 max 41 min
Histogram: 1 0 0 0 0 0 0 0 0 0
Nghost:    185 ave 185 max 185 min
Histogram: 1 0 0 0 0 0 0 0 0 0
Neighs:    349 ave 349 max 349 min
Histogram: 1 0 0 0 0 0 0 0 0 0

Total # of neighbors = 349
Ave neighs/atom = 8.5122
Neighbor list builds = 0
Dangerous builds = 0

