LAMMPS (28 Jun 2014)
# attempt at getting surface energy

#file prefix
variable prefix string surf_V_inter1newnorm
variable dumpfile string ${prefix}.*.dump
variable dumpfile string surf_V_inter1newnorm.*.dump
variable restartfile string ${prefix}.*.equil
variable restartfile string surf_V_inter1newnorm.*.equil

#Mass (g/mol)
variable m equal 1

# lattice constant (in Angstroms) and orientation of axes (given by lattice vectors)
variable rho equal 1.1547
variable x1 equal 1
variable x2 equal 0
variable x3 equal 0
variable y1 equal 0
variable y2 equal 1
variable y3 equal 0
# length of lattice in different directions (using orientation of lattice vectors)
variable ax equal sqrt(${x1}*${x1}+${x2}*${x2}+${x3}*${x3})
variable ax equal sqrt(1*${x1}+${x2}*${x2}+${x3}*${x3})
variable ax equal sqrt(1*1+${x2}*${x2}+${x3}*${x3})
variable ax equal sqrt(1*1+0*${x2}+${x3}*${x3})
variable ax equal sqrt(1*1+0*0+${x3}*${x3})
variable ax equal sqrt(1*1+0*0+0*${x3})
variable ax equal sqrt(1*1+0*0+0*0)
variable ay equal sqrt(${y1}*${y1}+${y2}*${y2}+${y3}*${y3})
variable ay equal sqrt(0*${y1}+${y2}*${y2}+${y3}*${y3})
variable ay equal sqrt(0*0+${y2}*${y2}+${y3}*${y3})
variable ay equal sqrt(0*0+1*${y2}+${y3}*${y3})
variable ay equal sqrt(0*0+1*1+${y3}*${y3})
variable ay equal sqrt(0*0+1*1+0*${y3})
variable ay equal sqrt(0*0+1*1+0*0)
variable az equal 1

# size of box in lattice units
variable lxpos equal 1
variable lxneg equal 0
variable lypos equal 10
variable lyneg equal -1*${lypos}
variable lyneg equal -1*10
variable lzpos equal 1
variable lzneg equal 0

# Define minimization parameters and damping
variable etol equal 1.0e-12
variable ftol equal 1.0e-8
variable maxiter equal 10000
variable maxeval equal 20000
variable style string cg

# boundary conditions
dimension	2
boundary	p s p
atom_style	atomic

# create geometry
units		lj
lattice         hex ${rho}
lattice         hex 1.1547
Lattice spacing in x,y,z = 1 1.73205 1
region		myregion block ${lxneg} ${lxpos} ${lyneg} ${lypos} ${lzneg} ${lzpos} units lattice
region		myregion block 0 ${lxpos} ${lyneg} ${lypos} ${lzneg} ${lzpos} units lattice
region		myregion block 0 1 ${lyneg} ${lypos} ${lzneg} ${lzpos} units lattice
region		myregion block 0 1 -10 ${lypos} ${lzneg} ${lzpos} units lattice
region		myregion block 0 1 -10 10 ${lzneg} ${lzpos} units lattice
region		myregion block 0 1 -10 10 0 ${lzpos} units lattice
region		myregion block 0 1 -10 10 0 1 units lattice
create_box	1 myregion
Created orthogonal box = (0 -17.3205 0) to (1 17.3205 1)
  1 by 1 by 1 MPI processor grid
create_atoms	1 box
Created 41 atoms

# define masses
mass * $m
mass * 1

# my fake/morse potential
pair_style      table linear 3001
pair_coeff      * * vpotential_inter1newnorm dummy
neighbor	0.3 bin
neigh_modify	delay 5

# define groups
region	    upper block INF INF 0.01 ${lypos} INF INF units lattice
region	    upper block INF INF 0.01 10 INF INF units lattice
group		upper region upper
20 atoms in group upper

# Setup output
thermo 1
thermo_style custom step temp pe lx ly lz
thermo_modify norm no

# Compute initial state by relaxing box
min_style ${style}
min_style cg
minimize ${etol} ${ftol} ${maxiter} ${maxeval}
minimize 1e-12 ${ftol} ${maxiter} ${maxeval}
minimize 1e-12 1e-08 ${maxiter} ${maxeval}
minimize 1e-12 1e-08 10000 ${maxeval}
minimize 1e-12 1e-08 10000 20000
WARNING: Resetting reneighboring criteria during minimization (../min.cpp:168)
Memory usage per processor = 3.35952 Mbytes
Step Temp PotEng Lx Ly Lz 
       0            0   -120.99996    1.0000002    34.647952    1.0000002 
       1            0   -120.99996    1.0000002    34.647952    1.0000002 
Loop time of 7.81103e-05 on 1 procs for 1 steps with 41 atoms

Minimization stats:
  Stopping criterion = linesearch alpha is zero
  Energy initial, next-to-last, final = 
        -120.999955904     -120.999955904     -120.999955904
  Force two-norm initial, final = 4.32358e-06 4.32358e-06
  Force max component initial, final = 3.05723e-06 3.05723e-06
  Final line search alpha, max atom move = 0.5 1.52862e-06
  Iterations, force evaluations = 1 2

Pair  time (%) = 2.69715e-05 (34.53)
Neigh time (%) = 0 (0)
Comm  time (%) = 3.81633e-06 (4.88582)
Outpt time (%) = 0 (0)
Other time (%) = 4.73225e-05 (60.5842)

Nlocal:    41 ave 41 max 41 min
Histogram: 1 0 0 0 0 0 0 0 0 0
Nghost:    185 ave 185 max 185 min
Histogram: 1 0 0 0 0 0 0 0 0 0
Neighs:    359 ave 359 max 359 min
Histogram: 1 0 0 0 0 0 0 0 0 0

Total # of neighbors = 359
Ave neighs/atom = 8.7561
Neighbor list builds = 0
Dangerous builds = 0

# don't allow atoms to relax in y-direction
fix 2 all setforce NULL 0.0 NULL

# Energy curve will have nstep steps
variable nsteps equal 500
variable sstep1 equal 1.0
variable ystep1 equal ${sstep1}/(${ay}*${nsteps})
variable ystep1 equal 1/(${ay}*${nsteps})
variable ystep1 equal 1/(1*${nsteps})
variable ystep1 equal 1/(1*500)

variable i loop ${nsteps}
variable i loop 500
label loop1
        displace_atoms upper move 0.0 ${ystep1} 0.0 units lattice
        displace_atoms upper move 0.0 0.002 0.0 units lattice
        min_style ${style}
        min_style cg
        minimize ${etol} ${ftol} ${maxiter} ${maxeval}
        minimize 1e-12 ${ftol} ${maxiter} ${maxeval}
        minimize 1e-12 1e-08 ${maxiter} ${maxeval}
        minimize 1e-12 1e-08 10000 ${maxeval}
        minimize 1e-12 1e-08 10000 20000
WARNING: Resetting reneighboring criteria during minimization (../min.cpp:168)
Memory usage per processor = 3.35952 Mbytes
Step Temp PotEng Lx Ly Lz 
       1            0   -120.99968    1.0000002    34.651417    1.0000002 
       2            0   -120.99968    1.0000002    34.651417    1.0000002 
Loop time of 0.000162074 on 1 procs for 1 steps with 41 atoms

Minimization stats:
  Stopping criterion = linesearch alpha is zero
  Energy initial, next-to-last, final = 
        -120.999678504     -120.999678504     -120.999678504
  Force two-norm initial, final = 2.15316e-18 2.15316e-18
  Force max component initial, final = 1.89905e-18 1.89905e-18
  Final line search alpha, max atom move = 0.5 9.49524e-19
  Iterations, force evaluations = 1 2

Pair  time (%) = 9.70697e-05 (59.892)
Neigh time (%) = 0 (0)
Comm  time (%) = 3.72552e-06 (2.29865)
Outpt time (%) = 0 (0)
Other time (%) = 6.12793e-05 (37.8093)

Nlocal:    41 ave 41 max 41 min
Histogram: 1 0 0 0 0 0 0 0 0 0
Nghost:    185 ave 185 max 185 min
Histogram: 1 0 0 0 0 0 0 0 0 0
Neighs:    359 ave 359 max 359 min
Histogram: 1 0 0 0 0 0 0 0 0 0

Total # of neighbors = 359
Ave neighs/atom = 8.7561
Neighbor list builds = 0
Dangerous builds = 0
	# write_dump all atom ${dumpfile}
        next i
jump SELF loop1
        displace_atoms upper move 0.0 ${ystep1} 0.0 units lattice
        displace_atoms upper move 0.0 0.002 0.0 units lattice
        min_style ${style}
        min_style cg
        minimize ${etol} ${ftol} ${maxiter} ${maxeval}
        minimize 1e-12 ${ftol} ${maxiter} ${maxeval}
        minimize 1e-12 1e-08 ${maxiter} ${maxeval}
        minimize 1e-12 1e-08 10000 ${maxeval}
        minimize 1e-12 1e-08 10000 20000
WARNING: Resetting reneighboring criteria during minimization (../min.cpp:168)
Memory usage per processor = 3.35952 Mbytes
Step Temp PotEng Lx Ly Lz 
       2            0   -120.99887    1.0000002    34.654881    1.0000002 
       3            0   -120.99887    1.0000002    34.654881    1.0000002 
Loop time of 6.40007e-05 on 1 procs for 1 steps with 41 atoms

Minimization stats:
  Stopping criterion = linesearch alpha is zero
  Energy initial, next-to-last, final = 
        -120.998868755     -120.998868755     -120.998868755
  Force two-norm initial, final = 6.03425e-18 6.03425e-18
  Force max component initial, final = 5.72764e-18 5.72764e-18
  Final line search alpha, max atom move = 0.5 2.86382e-18
  Iterations, force evaluations = 1 2

Pair  time (%) = 2.2802e-05 (35.6278)
Neigh time (%) = 0 (0)
Comm  time (%) = 4.2459e-06 (6.63414)
Outpt time (%) = 0 (0)
Other time (%) = 3.69528e-05 (57.7381)

Nlocal:    41 ave 41 max 41 min
Histogram: 1 0 0 0 0 0 0 0 0 0
Nghost:    185 ave 185 max 185 min
Histogram: 1 0 0 0 0 0 0 0 0 0
Neighs:    359 ave 359 max 359 min
Histogram: 1 0 0 0 0 0 0 0 0 0

Total # of neighbors = 359
Ave neighs/atom = 8.7561
Neighbor list builds = 0
Dangerous builds = 0
	# write_dump all atom ${dumpfile}
        next i
jump SELF loop1
        displace_atoms upper move 0.0 ${ystep1} 0.0 units lattice
        displace_atoms upper move 0.0 0.002 0.0 units lattice
        min_style ${style}
        min_style cg
        minimize ${etol} ${ftol} ${maxiter} ${maxeval}
        minimize 1e-12 ${ftol} ${maxiter} ${maxeval}
        minimize 1e-12 1e-08 ${maxiter} ${maxeval}
        minimize 1e-12 1e-08 10000 ${maxeval}
        minimize 1e-12 1e-08 10000 20000
WARNING: Resetting reneighboring criteria during minimization (../min.cpp:168)
Memory usage per processor = 3.35952 Mbytes
Step Temp PotEng Lx Ly Lz 
       3            0   -120.99753    1.0000002    34.658345    1.0000002 
       4            0   -120.99753    1.0000002    34.658345    1.0000002 
Loop time of 3.99635e-05 on 1 procs for 1 steps with 41 atoms

Minimization stats:
  Stopping criterion = linesearch alpha is zero
  Energy initial, next-to-last, final = 
        -120.997532764     -120.997532764     -120.997532764
  Force two-norm initial, final = 4.90096e-18 4.90096e-18
  Force max component initial, final = 4.51807e-18 4.51807e-18
  Final line search alpha, max atom move = 0.5 2.25904e-18
  Iterations, force evaluations = 1 2

Pair  time (%) = 2.36905e-05 (59.2804)
Neigh time (%) = 0 (0)
Comm  time (%) = 5.35394e-06 (13.3971)
Outpt time (%) = 0 (0)
Other time (%) = 1.09191e-05 (27.3226)

Nlocal:    41 ave 41 max 41 min
Histogram: 1 0 0 0 0 0 0 0 0 0
Nghost:    185 ave 185 max 185 min
Histogram: 1 0 0 0 0 0 0 0 0 0
Neighs:    359 ave 359 max 359 min
Histogram: 1 0 0 0 0 0 0 0 0 0

Total # of neighbors = 359
Ave neighs/atom = 8.7561
Neighbor list builds = 0
Dangerous builds = 0
	# write_dump all atom ${dumpfile}
        next i
jump SELF loop1
        displace_atoms upper move 0.0 ${ystep1} 0.0 units lattice
        displace_atoms upper move 0.0 0.002 0.0 units lattice
        min_style ${style}
        min_style cg
        minimize ${etol} ${ftol} ${maxiter} ${maxeval}
        minimize 1e-12 ${ftol} ${maxiter} ${maxeval}
        minimize 1e-12 1e-08 ${maxiter} ${maxeval}
        minimize 1e-12 1e-08 10000 ${maxeval}
        minimize 1e-12 1e-08 10000 20000
WARNING: Resetting reneighboring criteria during minimization (../min.cpp:168)
Memory usage per processor = 3.35952 Mbytes
Step Temp PotEng Lx Ly Lz 
       4            0    -120.9957    1.0000002    34.661809    1.0000002 
       5            0    -120.9957    1.0000002    34.661809    1.0000002 
Loop time of 3.79052e-05 on 1 procs for 1 steps with 41 atoms

Minimization stats:
  Stopping criterion = linesearch alpha is zero
  Energy initial, next-to-last, final = 
        -120.995698063     -120.995698063     -120.995698063
  Force two-norm initial, final = 2.2616e-18 2.2616e-18
  Force max component initial, final = 1.89905e-18 1.89905e-18
  Final line search alpha, max atom move = 0.5 9.49524e-19
  Iterations, force evaluations = 1 2

Pair  time (%) = 2.31843e-05 (61.1641)
Neigh time (%) = 0 (0)
Comm  time (%) = 4.86465e-06 (12.8337)
Outpt time (%) = 0 (0)
Other time (%) = 9.85619e-06 (26.0022)

Nlocal:    41 ave 41 max 41 min
Histogram: 1 0 0 0 0 0 0 0 0 0
Nghost:    185 ave 185 max 185 min
Histogram: 1 0 0 0 0 0 0 0 0 0
Neighs:    359 ave 359 max 359 min
Histogram: 1 0 0 0 0 0 0 0 0 0

Total # of neighbors = 359
Ave neighs/atom = 8.7561
Neighbor list builds = 0
Dangerous builds = 0
	# write_dump all atom ${dumpfile}
        next i
jump SELF loop1
        displace_atoms upper move 0.0 ${ystep1} 0.0 units lattice
        displace_atoms upper move 0.0 0.002 0.0 units lattice
        min_style ${style}
        min_style cg
        minimize ${etol} ${ftol} ${maxiter} ${maxeval}
        minimize 1e-12 ${ftol} ${maxiter} ${maxeval}
        minimize 1e-12 1e-08 ${maxiter} ${maxeval}
        minimize 1e-12 1e-08 10000 ${maxeval}
        minimize 1e-12 1e-08 10000 20000
WARNING: Resetting reneighboring criteria during minimization (../min.cpp:168)
Memory usage per processor = 3.35952 Mbytes
Step Temp PotEng Lx Ly Lz 
       5            0   -120.99337    1.0000002    34.665273    1.0000002 
       6            0   -120.99337    1.0000002    34.665273    1.0000002 
Loop time of 3.69067e-05 on 1 procs for 1 steps with 41 atoms

Minimization stats:
  Stopping criterion = linesearch alpha is zero
  Energy initial, next-to-last, final = 
        -120.993372898     -120.993372898     -120.993372898
  Force two-norm initial, final = 4.52888e-18 4.52888e-18
  Force max component initial, final = 4.1115e-18 4.1115e-18
  Final line search alpha, max atom move = 0.5 2.05575e-18
  Iterations, force evaluations = 1 2

Pair  time (%) = 2.40499e-05 (65.1641)
Neigh time (%) = 0 (0)
Comm  time (%) = 3.88059e-06 (10.5146)
Outpt time (%) = 0 (0)
Other time (%) = 8.9762e-06 (24.3213)

Nlocal:    41 ave 41 max 41 min
Histogram: 1 0 0 0 0 0 0 0 0 0
Nghost:    185 ave 185 max 185 min
Histogram: 1 0 0 0 0 0 0 0 0 0
Neighs:    359 ave 359 max 359 min
Histogram: 1 0 0 0 0 0 0 0 0 0

Total # of neighbors = 359
Ave neighs/atom = 8.7561
Neighbor list builds = 0
Dangerous builds = 0
	# write_dump all atom ${dumpfile}
        next i
jump SELF loop1
        displace_atoms upper move 0.0 ${ystep1} 0.0 units lattice
        displace_atoms upper move 0.0 0.002 0.0 units lattice
        min_style ${style}
        min_style cg
        minimize ${etol} ${ftol} ${maxiter} ${maxeval}
        minimize 1e-12 ${ftol} ${maxiter} ${maxeval}
        minimize 1e-12 1e-08 ${maxiter} ${maxeval}
        minimize 1e-12 1e-08 10000 ${maxeval}
        minimize 1e-12 1e-08 10000 20000
WARNING: Resetting reneighboring criteria during minimization (../min.cpp:168)
Memory usage per processor = 3.35952 Mbytes
Step Temp PotEng Lx Ly Lz 
       6            0   -120.99058    1.0000002    34.668737    1.0000002 
       7            0   -120.99058    1.0000002    34.668737    1.0000002 
Loop time of 3.71115e-05 on 1 procs for 1 steps with 41 atoms

Minimization stats:
  Stopping criterion = linesearch alpha is zero
  Energy initial, next-to-last, final = 
        -120.990578934     -120.990578934     -120.990578934
  Force two-norm initial, final = 3.92401e-18 3.92401e-18
  Force max component initial, final = 3.43387e-18 3.43387e-18
  Final line search alpha, max atom move = 0.5 1.71694e-18
  Iterations, force evaluations = 1 2

Pair  time (%) = 2.29954e-05 (61.9631)
Neigh time (%) = 0 (0)
Comm  time (%) = 3.96359e-06 (10.6802)
Outpt time (%) = 0 (0)
Other time (%) = 1.01525e-05 (27.3567)

Nlocal:    41 ave 41 max 41 min
Histogram: 1 0 0 0 0 0 0 0 0 0
Nghost:    185 ave 185 max 185 min
Histogram: 1 0 0 0 0 0 0 0 0 0
Neighs:    359 ave 359 max 359 min
Histogram: 1 0 0 0 0 0 0 0 0 0

Total # of neighbors = 359
Ave neighs/atom = 8.7561
Neighbor list builds = 0
Dangerous builds = 0
	# write_dump all atom ${dumpfile}
        next i
jump SELF loop1
        displace_atoms upper move 0.0 ${ystep1} 0.0 units lattice
        displace_atoms upper move 0.0 0.002 0.0 units lattice
        min_style ${style}
        min_style cg
        minimize ${etol} ${ftol} ${maxiter} ${maxeval}
        minimize 1e-12 ${ftol} ${maxiter} ${maxeval}
        minimize 1e-12 1e-08 ${maxiter} ${maxeval}
        minimize 1e-12 1e-08 10000 ${maxeval}
        minimize 1e-12 1e-08 10000 20000
WARNING: Resetting reneighboring criteria during minimization (../min.cpp:168)
Memory usage per processor = 3.35952 Mbytes
Step Temp PotEng Lx Ly Lz 
       7            0   -120.98733    1.0000002    34.672201    1.0000002 
       8            0   -120.98733    1.0000002    34.672201    1.0000002 
Loop time of -9.46457e-08 on 1 procs for 1 steps with 41 atoms

Minimization stats:
  Stopping criterion = linesearch alpha is zero
  Energy initial, next-to-last, final = 
        -120.987330804     -120.987330804     -120.987330804
  Force two-norm initial, final = 3.09892e-17 3.09892e-17
  Force max component initial, final = 2.58565e-17 2.58565e-17
  Final line search alpha, max atom move = 0.5 1.29283e-17
  Iterations, force evaluations = 1 2

Pair  time (%) = -2.83937e-07 (300)
Neigh time (%) = 0 (-0)
Comm  time (%) = -5.67874e-07 (600)
Outpt time (%) = 0 (-0)
Other time (%) = 7.57165e-07 (-800)

Nlocal:    41 ave 41 max 41 min
Histogram: 1 0 0 0 0 0 0 0 0 0
Nghost:    185 ave 185 max 185 min
Histogram: 1 0 0 0 0 0 0 0 0 0
Neighs:    359 ave 359 max 359 min
Histogram: 1 0 0 0 0 0 0 0 0 0

Total # of neighbors = 359
Ave neighs/atom = 8.7561
Neighbor list builds = 0
Dangerous builds = 0
	# write_dump all atom ${dumpfile}
        next i
jump SELF loop1
        displace_atoms upper move 0.0 ${ystep1} 0.0 units lattice
        displace_atoms upper move 0.0 0.002 0.0 units lattice
        min_style ${style}
        min_style cg
        minimize ${etol} ${ftol} ${maxiter} ${maxeval}
        minimize 1e-12 ${ftol} ${maxiter} ${maxeval}
        minimize 1e-12 1e-08 ${maxiter} ${maxeval}
        minimize 1e-12 1e-08 10000 ${maxeval}
        minimize 1e-12 1e-08 10000 20000
WARNING: Resetting reneighboring criteria during minimization (../min.cpp:168)
Memory usage per processor = 3.35952 Mbytes
Step Temp PotEng Lx Ly Lz 
       8            0   -120.98364    1.0000002    34.675665    1.0000002 
       9            0   -120.98364    1.0000002    34.675665    1.0000002 
Loop time of 3.79285e-05 on 1 procs for 1 steps with 41 atoms

Minimization stats:
  Stopping criterion = linesearch alpha is zero
  Energy initial, next-to-last, final = 
        -120.983640945     -120.983640945     -120.983640945
  Force two-norm initial, final = 2.74209e-17 2.74209e-17
  Force max component initial, final = 2.58565e-17 2.58565e-17
  Final line search alpha, max atom move = 0.5 1.29283e-17
  Iterations, force evaluations = 1 2

Pair  time (%) = 2.32542e-05 (61.3107)
Neigh time (%) = 0 (0)
Comm  time (%) = 3.00445e-06 (7.92135)
Outpt time (%) = 0 (0)
Other time (%) = 1.16698e-05 (30.768)

Nlocal:    41 ave 41 max 41 min
Histogram: 1 0 0 0 0 0 0 0 0 0
Nghost:    185 ave 185 max 185 min
Histogram: 1 0 0 0 0 0 0 0 0 0
Neighs:    359 ave 359 max 359 min
Histogram: 1 0 0 0 0 0 0 0 0 0

Total # of neighbors = 359
Ave neighs/atom = 8.7561
Neighbor list builds = 0
Dangerous builds = 0
	# write_dump all atom ${dumpfile}
        next i
jump SELF loop1
        displace_atoms upper move 0.0 ${ystep1} 0.0 units lattice
        displace_atoms upper move 0.0 0.002 0.0 units lattice
        min_style ${style}
        min_style cg
        minimize ${etol} ${ftol} ${maxiter} ${maxeval}
        minimize 1e-12 ${ftol} ${maxiter} ${maxeval}
        minimize 1e-12 1e-08 ${maxiter} ${maxeval}
        minimize 1e-12 1e-08 10000 ${maxeval}
        minimize 1e-12 1e-08 10000 20000
WARNING: Resetting reneighboring criteria during minimization (../min.cpp:168)
Memory usage per processor = 3.35952 Mbytes
Step Temp PotEng Lx Ly Lz 
       9            0   -120.97953    1.0000002    34.679129    1.0000002 
      10            0   -120.97953    1.0000002    34.679129    1.0000002 
Loop time of 3.80826e-05 on 1 procs for 1 steps with 41 atoms

Minimization stats:
  Stopping criterion = linesearch alpha is zero
  Energy initial, next-to-last, final = 
        -120.979529325     -120.979529325     -120.979529325
  Force two-norm initial, final = 3.47618e-17 3.47618e-17
  Force max component initial, final = 2.58565e-17 2.58565e-17
  Final line search alpha, max atom move = 0.5 1.29283e-17
  Iterations, force evaluations = 1 2

Pair  time (%) = 2.30012e-05 (60.3983)
Neigh time (%) = 0 (0)
Comm  time (%) = 2.97534e-06 (7.81287)
Outpt time (%) = 0 (0)
Other time (%) = 1.2106e-05 (31.7889)

Nlocal:    41 ave 41 max 41 min
Histogram: 1 0 0 0 0 0 0 0 0 0
Nghost:    185 ave 185 max 185 min
Histogram: 1 0 0 0 0 0 0 0 0 0
Neighs:    359 ave 359 max 359 min
Histogram: 1 0 0 0 0 0 0 0 0 0

Total # of neighbors = 359
Ave neighs/atom = 8.7561
Neighbor list builds = 0
Dangerous builds = 0
	# write_dump all atom ${dumpfile}
        next i
jump SELF loop1
        displace_atoms upper move 0.0 ${ystep1} 0.0 units lattice
        displace_atoms upper move 0.0 0.002 0.0 units lattice
        min_style ${style}
        min_style cg
        minimize ${etol} ${ftol} ${maxiter} ${maxeval}
        minimize 1e-12 ${ftol} ${maxiter} ${maxeval}
        minimize 1e-12 1e-08 ${maxiter} ${maxeval}
        minimize 1e-12 1e-08 10000 ${maxeval}
        minimize 1e-12 1e-08 10000 20000
WARNING: Resetting reneighboring criteria during minimization (../min.cpp:168)
Memory usage per processor = 3.35952 Mbytes
Step Temp PotEng Lx Ly Lz 
      10            0   -120.97501    1.0000002    34.682593    1.0000002 
      11            0   -120.97501    1.0000002    34.682593    1.0000002 
Loop time of 3.79055e-05 on 1 procs for 1 steps with 41 atoms

Minimization stats:
  Stopping criterion = linesearch alpha is zero
  Energy initial, next-to-last, final = 
        -120.975007363     -120.975007363     -120.975007363
  Force two-norm initial, final = 3.46646e-17 3.46646e-17
  Force max component initial, final = 2.58565e-17 2.58565e-17
  Final line search alpha, max atom move = 0.5 1.29283e-17
  Iterations, force evaluations = 1 2

Pair  time (%) = 2.21855e-05 (58.5284)
Neigh time (%) = 0 (0)
Comm  time (%) = 3.82075e-06 (10.0797)
Outpt time (%) = 0 (0)
Other time (%) = 1.18993e-05 (31.3919)

Nlocal:    41 ave 41 max 41 min
Histogram: 1 0 0 0 0 0 0 0 0 0
Nghost:    185 ave 185 max 185 min
Histogram: 1 0 0 0 0 0 0 0 0 0
Neighs:    359 ave 359 max 359 min
Histogram: 1 0 0 0 0 0 0 0 0 0

Total # of neighbors = 359
Ave neighs/atom = 8.7561
Neighbor list builds = 0
Dangerous builds = 0
	# write_dump all atom ${dumpfile}
        next i
jump SELF loop1
        displace_atoms upper move 0.0 ${ystep1} 0.0 units lattice
        displace_atoms upper move 0.0 0.002 0.0 units lattice
        min_style ${style}
        min_style cg
        minimize ${etol} ${ftol} ${maxiter} ${maxeval}
        minimize 1e-12 ${ftol} ${maxiter} ${maxeval}
        minimize 1e-12 1e-08 ${maxiter} ${maxeval}
        minimize 1e-12 1e-08 10000 ${maxeval}
        minimize 1e-12 1e-08 10000 20000
WARNING: Resetting reneighboring criteria during minimization (../min.cpp:168)
Memory usage per processor = 3.35952 Mbytes
Step Temp PotEng Lx Ly Lz 
      11            0   -120.97009    1.0000002    34.686058    1.0000002 
      12            0   -120.97009    1.0000002    34.686058    1.0000002 
Loop time of 3.70708e-05 on 1 procs for 1 steps with 41 atoms

Minimization stats:
  Stopping criterion = linesearch alpha is zero
  Energy initial, next-to-last, final = 
        -120.970089341     -120.970089341     -120.970089341
  Force two-norm initial, final = 3.69495e-17 3.69495e-17
  Force max component initial, final = 2.63952e-17 2.63952e-17
  Final line search alpha, max atom move = 0.5 1.31976e-17
  Iterations, force evaluations = 1 2

Pair  time (%) = 2.28271e-05 (61.5769)
Neigh time (%) = 0 (0)
Comm  time (%) = 4.10387e-06 (11.0704)
Outpt time (%) = 0 (0)
Other time (%) = 1.01399e-05 (27.3527)

Nlocal:    41 ave 41 max 41 min
Histogram: 1 0 0 0 0 0 0 0 0 0
Nghost:    185 ave 185 max 185 min
Histogram: 1 0 0 0 0 0 0 0 0 0
Neighs:    359 ave 359 max 359 min
Histogram: 1 0 0 0 0 0 0 0 0 0

Total # of neighbors = 359
Ave neighs/atom = 8.7561
Neighbor list builds = 0
Dangerous builds = 0
	# write_dump all atom ${dumpfile}
        next i
jump SELF loop1
        displace_atoms upper move 0.0 ${ystep1} 0.0 units lattice
        displace_atoms upper move 0.0 0.002 0.0 units lattice
        min_style ${style}
        min_style cg
        minimize ${etol} ${ftol} ${maxiter} ${maxeval}
        minimize 1e-12 ${ftol} ${maxiter} ${maxeval}
        minimize 1e-12 1e-08 ${maxiter} ${maxeval}
        minimize 1e-12 1e-08 10000 ${maxeval}
        minimize 1e-12 1e-08 10000 20000
WARNING: Resetting reneighboring criteria during minimization (../min.cpp:168)
Memory usage per processor = 3.35952 Mbytes
Step Temp PotEng Lx Ly Lz 
      12            0   -120.96479    1.0000002    34.689522    1.0000002 
      13            0   -120.96479    1.0000002    34.689522    1.0000002 
Loop time of -3.74857e-08 on 1 procs for 1 steps with 41 atoms

Minimization stats:
  Stopping criterion = linesearch alpha is zero
  Energy initial, next-to-last, final = 
        -120.964791927     -120.964791927     -120.964791927
  Force two-norm initial, final = 2.58569e-17 2.58569e-17
  Force max component initial, final = 2.58565e-17 2.58565e-17
  Final line search alpha, max atom move = 0.5 1.29283e-17
  Iterations, force evaluations = 1 2

Pair  time (%) = -1.12457e-07 (300)
Neigh time (%) = 0 (-0)
Comm  time (%) = -2.24914e-07 (600)
Outpt time (%) = 0 (-0)
Other time (%) = 2.99886e-07 (-800)

Nlocal:    41 ave 41 max 41 min
Histogram: 1 0 0 0 0 0 0 0 0 0
Nghost:    185 ave 185 max 185 min
Histogram: 1 0 0 0 0 0 0 0 0 0
Neighs:    359 ave 359 max 359 min
Histogram: 1 0 0 0 0 0 0 0 0 0

Total # of neighbors = 359
Ave neighs/atom = 8.7561
Neighbor list builds = 0
Dangerous builds = 0
	# write_dump all atom ${dumpfile}
        next i
jump SELF loop1
        displace_atoms upper move 0.0 ${ystep1} 0.0 units lattice
        displace_atoms upper move 0.0 0.002 0.0 units lattice
        min_style ${style}
        min_style cg
        minimize ${etol} ${ftol} ${maxiter} ${maxeval}
        minimize 1e-12 ${ftol} ${maxiter} ${maxeval}
        minimize 1e-12 1e-08 ${maxiter} ${maxeval}
        minimize 1e-12 1e-08 10000 ${maxeval}
        minimize 1e-12 1e-08 10000 20000
WARNING: Resetting reneighboring criteria during minimization (../min.cpp:168)
Memory usage per processor = 3.35952 Mbytes
Step Temp PotEng Lx Ly Lz 
      13            0   -120.95913    1.0000002    34.692986    1.0000002 
      14            0   -120.95913    1.0000002    34.692986    1.0000002 
Loop time of 3.78985e-05 on 1 procs for 1 steps with 41 atoms

Minimization stats:
  Stopping criterion = linesearch alpha is zero
  Energy initial, next-to-last, final = 
        -120.959127939     -120.959127939     -120.959127939
  Force two-norm initial, final = 2.89965e-17 2.89965e-17
  Force max component initial, final = 2.58565e-17 2.58565e-17
  Final line search alpha, max atom move = 0.5 1.29283e-17
  Iterations, force evaluations = 1 2

Pair  time (%) = 2.31644e-05 (61.1222)
Neigh time (%) = 0 (0)
Comm  time (%) = 2.8247e-06 (7.45332)
Outpt time (%) = 0 (0)
Other time (%) = 1.19094e-05 (31.4244)

Nlocal:    41 ave 41 max 41 min
Histogram: 1 0 0 0 0 0 0 0 0 0
Nghost:    185 ave 185 max 185 min
Histogram: 1 0 0 0 0 0 0 0 0 0
Neighs:    359 ave 359 max 359 min
Histogram: 1 0 0 0 0 0 0 0 0 0

Total # of neighbors = 359
Ave neighs/atom = 8.7561
Neighbor list builds = 0
Dangerous builds = 0
	# write_dump all atom ${dumpfile}
        next i
jump SELF loop1
        displace_atoms upper move 0.0 ${ystep1} 0.0 units lattice
        displace_atoms upper move 0.0 0.002 0.0 units lattice
        min_style ${style}
        min_style cg
        minimize ${etol} ${ftol} ${maxiter} ${maxeval}
        minimize 1e-12 ${ftol} ${maxiter} ${maxeval}
        minimize 1e-12 1e-08 ${maxiter} ${maxeval}
        minimize 1e-12 1e-08 10000 ${maxeval}
        minimize 1e-12 1e-08 10000 20000
WARNING: Resetting reneighboring criteria during minimization (../min.cpp:168)
Memory usage per processor = 3.35952 Mbytes
Step Temp PotEng Lx Ly Lz 
      14            0   -120.95311    1.0000002     34.69645    1.0000002 
      15            0   -120.95311    1.0000002     34.69645    1.0000002 
Loop time of 3.79184e-05 on 1 procs for 1 steps with 41 atoms

Minimization stats:
  Stopping criterion = linesearch alpha is zero
  Energy initial, next-to-last, final = 
        -120.953107839     -120.953107839     -120.953107839
  Force two-norm initial, final = 2.75495e-17 2.75495e-17
  Force max component initial, final = 2.58565e-17 2.58565e-17
  Final line search alpha, max atom move = 0.5 1.29283e-17
  Iterations, force evaluations = 1 2

Pair  time (%) = 2.51315e-05 (66.2778)
Neigh time (%) = 0 (0)
Comm  time (%) = 3.85172e-06 (10.1579)
Outpt time (%) = 0 (0)
Other time (%) = 8.93523e-06 (23.5643)

Nlocal:    41 ave 41 max 41 min
Histogram: 1 0 0 0 0 0 0 0 0 0
Nghost:    185 ave 185 max 185 min
Histogram: 1 0 0 0 0 0 0 0 0 0
Neighs:    359 ave 359 max 359 min
Histogram: 1 0 0 0 0 0 0 0 0 0

Total # of neighbors = 359
Ave neighs/atom = 8.7561
Neighbor list builds = 0
Dangerous builds = 0
	# write_dump all atom ${dumpfile}
        next i
jump SELF loop1
        displace_atoms upper move 0.0 ${ystep1} 0.0 units lattice
        displace_atoms upper move 0.0 0.002 0.0 units lattice
        min_style ${style}
        min_style cg
        minimize ${etol} ${ftol} ${maxiter} ${maxeval}
        minimize 1e-12 ${ftol} ${maxiter} ${maxeval}
        minimize 1e-12 1e-08 ${maxiter} ${maxeval}
        minimize 1e-12 1e-08 10000 ${maxeval}
        minimize 1e-12 1e-08 10000 20000
WARNING: Resetting reneighboring criteria during minimization (../min.cpp:168)
Memory usage per processor = 3.35952 Mbytes
Step Temp PotEng Lx Ly Lz 
      15            0   -120.94675    1.0000002    34.699914    1.0000002 
      16            0   -120.94675    1.0000002    34.699914    1.0000002 
Loop time of 3.71053e-05 on 1 procs for 1 steps with 41 atoms

Minimization stats:
  Stopping criterion = linesearch alpha is zero
  Energy initial, next-to-last, final = 
        -120.946748121     -120.946748121     -120.946748121
  Force two-norm initial, final = 3.77165e-17 3.77165e-17
  Force max component initial, final = 2.96546e-17 2.96546e-17
  Final line search alpha, max atom move = 0.5 1.48273e-17
  Iterations, force evaluations = 1 2

Pair  time (%) = 2.39768e-05 (64.6182)
Neigh time (%) = 0 (0)
Comm  time (%) = 2.73425e-06 (7.36889)
Outpt time (%) = 0 (0)
Other time (%) = 1.03943e-05 (28.0129)

Nlocal:    41 ave 41 max 41 min
Histogram: 1 0 0 0 0 0 0 0 0 0
Nghost:    185 ave 185 max 185 min
Histogram: 1 0 0 0 0 0 0 0 0 0
Neighs:    359 ave 359 max 359 min
Histogram: 1 0 0 0 0 0 0 0 0 0

Total # of neighbors = 359
Ave neighs/atom = 8.7561
Neighbor list builds = 0
Dangerous builds = 0
	# write_dump all atom ${dumpfile}
        next i
jump SELF loop1
        displace_atoms upper move 0.0 ${ystep1} 0.0 units lattice
        displace_atoms upper move 0.0 0.002 0.0 units lattice
        min_style ${style}
        min_style cg
        minimize ${etol} ${ftol} ${maxiter} ${maxeval}
        minimize 1e-12 ${ftol} ${maxiter} ${maxeval}
        minimize 1e-12 1e-08 ${maxiter} ${maxeval}
        minimize 1e-12 1e-08 10000 ${maxeval}
        minimize 1e-12 1e-08 10000 20000
WARNING: Resetting reneighboring criteria during minimization (../min.cpp:168)
Memory usage per processor = 3.35952 Mbytes
Step Temp PotEng Lx Ly Lz 
      16            0   -120.94006    1.0000002    34.703378    1.0000002 
      17            0   -120.94006    1.0000002    34.703378    1.0000002 
Loop time of 3.80141e-05 on 1 procs for 1 steps with 41 atoms

Minimization stats:
  Stopping criterion = linesearch alpha is zero
  Energy initial, next-to-last, final = 
        -120.940061249     -120.940061249     -120.940061249
  Force two-norm initial, final = 3.41364e-17 3.41364e-17
  Force max component initial, final = 2.96546e-17 2.96546e-17
  Final line search alpha, max atom move = 0.5 1.48273e-17
  Iterations, force evaluations = 1 2

Pair  time (%) = 2.27496e-05 (59.8452)
Neigh time (%) = 0 (0)
Comm  time (%) = 4.37954e-06 (11.5208)
Outpt time (%) = 0 (0)
Other time (%) = 1.08849e-05 (28.6339)

Nlocal:    41 ave 41 max 41 min
Histogram: 1 0 0 0 0 0 0 0 0 0
Nghost:    185 ave 185 max 185 min
Histogram: 1 0 0 0 0 0 0 0 0 0
Neighs:    359 ave 359 max 359 min
Histogram: 1 0 0 0 0 0 0 0 0 0

Total # of neighbors = 359
Ave neighs/atom = 8.7561
Neighbor list builds = 0
Dangerous builds = 0
	# write_dump all atom ${dumpfile}
        next i
jump SELF loop1
        displace_atoms upper move 0.0 ${ystep1} 0.0 units lattice
        displace_atoms upper move 0.0 0.002 0.0 units lattice
        min_style ${style}
        min_style cg
        minimize ${etol} ${ftol} ${maxiter} ${maxeval}
        minimize 1e-12 ${ftol} ${maxiter} ${maxeval}
        minimize 1e-12 1e-08 ${maxiter} ${maxeval}
        minimize 1e-12 1e-08 10000 ${maxeval}
        minimize 1e-12 1e-08 10000 20000
WARNING: Resetting reneighboring criteria during minimization (../min.cpp:168)
Memory usage per processor = 3.35952 Mbytes
Step Temp PotEng Lx Ly Lz 
      17            0   -120.93308    1.0000002    34.706842    1.0000002 
      18            0   -120.93308    1.0000002    34.706842    1.0000002 
Loop time of 3.68822e-05 on 1 procs for 1 steps with 41 atoms

Minimization stats:
  Stopping criterion = linesearch alpha is zero
  Energy initial, next-to-last, final = 
        -120.933081604     -120.933081604     -120.933081604
  Force two-norm initial, final = 5.48006e-17 5.48006e-17
  Force max component initial, final = 4.60837e-17 4.60837e-17
  Final line search alpha, max atom move = 0.5 2.30418e-17
  Iterations, force evaluations = 1 2

Pair  time (%) = 2.3023e-05 (62.423)
Neigh time (%) = 0 (0)
Comm  time (%) = 3.78047e-06 (10.2501)
Outpt time (%) = 0 (0)
Other time (%) = 1.00788e-05 (27.3269)

Nlocal:    41 ave 41 max 41 min
Histogram: 1 0 0 0 0 0 0 0 0 0
Nghost:    185 ave 185 max 185 min
Histogram: 1 0 0 0 0 0 0 0 0 0
Neighs:    359 ave 359 max 359 min
Histogram: 1 0 0 0 0 0 0 0 0 0

Total # of neighbors = 359
Ave neighs/atom = 8.7561
Neighbor list builds = 0
Dangerous builds = 0
	# write_dump all atom ${dumpfile}
        next i
jump SELF loop1
        displace_atoms upper move 0.0 ${ystep1} 0.0 units lattice
        displace_atoms upper move 0.0 0.002 0.0 units lattice
        min_style ${style}
        min_style cg
        minimize ${etol} ${ftol} ${maxiter} ${maxeval}
        minimize 1e-12 ${ftol} ${maxiter} ${maxeval}
        minimize 1e-12 1e-08 ${maxiter} ${maxeval}
        minimize 1e-12 1e-08 10000 ${maxeval}
        minimize 1e-12 1e-08 10000 20000
WARNING: Resetting reneighboring criteria during minimization (../min.cpp:168)
Memory usage per processor = 3.35952 Mbytes
Step Temp PotEng Lx Ly Lz 
      18            0   -120.92597    1.0000002    34.710306    1.0000002 
      19            0   -120.92597    1.0000002    34.710306    1.0000002 
Loop time of 3.7937e-05 on 1 procs for 1 steps with 41 atoms

Minimization stats:
  Stopping criterion = linesearch alpha is zero
  Energy initial, next-to-last, final = 
        -120.925968291     -120.925968291     -120.925968291
  Force two-norm initial, final = 3.63224e-17 3.63224e-17
  Force max component initial, final = 2.96546e-17 2.96546e-17
  Final line search alpha, max atom move = 0.5 1.48273e-17
  Iterations, force evaluations = 1 2

Pair  time (%) = 2.29948e-05 (60.6132)
Neigh time (%) = 0 (0)
Comm  time (%) = 3.91621e-06 (10.3229)
Outpt time (%) = 0 (0)
Other time (%) = 1.10259e-05 (29.0638)

Nlocal:    41 ave 41 max 41 min
Histogram: 1 0 0 0 0 0 0 0 0 0
Nghost:    185 ave 185 max 185 min
Histogram: 1 0 0 0 0 0 0 0 0 0
Neighs:    359 ave 359 max 359 min
Histogram: 1 0 0 0 0 0 0 0 0 0

Total # of neighbors = 359
Ave neighs/atom = 8.7561
Neighbor list builds = 0
Dangerous builds = 0
	# write_dump all atom ${dumpfile}
        next i
jump SELF loop1
        displace_atoms upper move 0.0 ${ystep1} 0.0 units lattice
        displace_atoms upper move 0.0 0.002 0.0 units lattice
        min_style ${style}
        min_style cg
        minimize ${etol} ${ftol} ${maxiter} ${maxeval}
        minimize 1e-12 ${ftol} ${maxiter} ${maxeval}
        minimize 1e-12 1e-08 ${maxiter} ${maxeval}
        minimize 1e-12 1e-08 10000 ${maxeval}
        minimize 1e-12 1e-08 10000 20000
WARNING: Resetting reneighboring criteria during minimization (../min.cpp:168)
Memory usage per processor = 3.35952 Mbytes
Step Temp PotEng Lx Ly Lz 
      19            0   -120.91875    1.0000002     34.71377    1.0000002 
      20            0   -120.91875    1.0000002     34.71377    1.0000002 
Loop time of 3.70446e-05 on 1 procs for 1 steps with 41 atoms

Minimization stats:
  Stopping criterion = linesearch alpha is zero
  Energy initial, next-to-last, final = 
        -120.918753252     -120.918753252     -120.918753252
  Force two-norm initial, final = 5.70988e-17 5.70988e-17
  Force max component initial, final = 4.87942e-17 4.87942e-17
  Final line search alpha, max atom move = 0.5 2.43971e-17
  Iterations, force evaluations = 1 2

Pair  time (%) = 2.37949e-05 (64.2332)
Neigh time (%) = 0 (0)
Comm  time (%) = 4.13228e-06 (11.1549)
Outpt time (%) = 0 (0)
Other time (%) = 9.11742e-06 (24.612)

Nlocal:    41 ave 41 max 41 min
Histogram: 1 0 0 0 0 0 0 0 0 0
Nghost:    185 ave 185 max 185 min
Histogram: 1 0 0 0 0 0 0 0 0 0
Neighs:    359 ave 359 max 359 min
Histogram: 1 0 0 0 0 0 0 0 0 0

Total # of neighbors = 359
Ave neighs/atom = 8.7561
Neighbor list builds = 0
Dangerous builds = 0
	# write_dump all atom ${dumpfile}
        next i
jump SELF loop1
        displace_atoms upper move 0.0 ${ystep1} 0.0 units lattice
        displace_atoms upper move 0.0 0.002 0.0 units lattice
        min_style ${style}
        min_style cg
        minimize ${etol} ${ftol} ${maxiter} ${maxeval}
        minimize 1e-12 ${ftol} ${maxiter} ${maxeval}
        minimize 1e-12 1e-08 ${maxiter} ${maxeval}
        minimize 1e-12 1e-08 10000 ${maxeval}
        minimize 1e-12 1e-08 10000 20000
WARNING: Resetting reneighboring criteria during minimization (../min.cpp:168)
Memory usage per processor = 3.35952 Mbytes
Step Temp PotEng Lx Ly Lz 
      20            0   -120.91144    1.0000002    34.717234    1.0000002 
      21            0   -120.91144    1.0000002    34.717234    1.0000002 
Loop time of 3.80517e-05 on 1 procs for 1 steps with 41 atoms

Minimization stats:
  Stopping criterion = linesearch alpha is zero
  Energy initial, next-to-last, final = 
        -120.911437418     -120.911437418     -120.911437418
  Force two-norm initial, final = 3.05849e-17 3.05849e-17
  Force max component initial, final = 2.96546e-17 2.96546e-17
  Final line search alpha, max atom move = 0.5 1.48273e-17
  Iterations, force evaluations = 1 2

Pair  time (%) = 2.29089e-05 (60.2046)
Neigh time (%) = 0 (0)
Comm  time (%) = 3.26755e-06 (8.58711)
Outpt time (%) = 0 (0)
Other time (%) = 1.18753e-05 (31.2083)

Nlocal:    41 ave 41 max 41 min
Histogram: 1 0 0 0 0 0 0 0 0 0
Nghost:    185 ave 185 max 185 min
Histogram: 1 0 0 0 0 0 0 0 0 0
Neighs:    359 ave 359 max 359 min
Histogram: 1 0 0 0 0 0 0 0 0 0

Total # of neighbors = 359
Ave neighs/atom = 8.7561
Neighbor list builds = 0
Dangerous builds = 0
	# write_dump all atom ${dumpfile}
        next i
jump SELF loop1
        displace_atoms upper move 0.0 ${ystep1} 0.0 units lattice
        displace_atoms upper move 0.0 0.002 0.0 units lattice
        min_style ${style}
        min_style cg
        minimize ${etol} ${ftol} ${maxiter} ${maxeval}
        minimize 1e-12 ${ftol} ${maxiter} ${maxeval}
        minimize 1e-12 1e-08 ${maxiter} ${maxeval}
        minimize 1e-12 1e-08 10000 ${maxeval}
        minimize 1e-12 1e-08 10000 20000
WARNING: Resetting reneighboring criteria during minimization (../min.cpp:168)
Memory usage per processor = 3.35952 Mbytes
Step Temp PotEng Lx Ly Lz 
      21            0   -120.90402    1.0000002    34.720699    1.0000002 
      22            0   -120.90402    1.0000002    34.720699    1.0000002 
Loop time of 4.00504e-05 on 1 procs for 1 steps with 41 atoms

Minimization stats:
  Stopping criterion = linesearch alpha is zero
  Energy initial, next-to-last, final = 
        -120.904021606     -120.904021606     -120.904021606
  Force two-norm initial, final = 4.88072e-17 4.88072e-17
  Force max component initial, final = 3.87653e-17 3.87653e-17
  Final line search alpha, max atom move = 0.5 1.93827e-17
  Iterations, force evaluations = 1 2

Pair  time (%) = 2.50898e-05 (62.6457)
Neigh time (%) = 0 (0)
Comm  time (%) = 2.76836e-06 (6.91219)
Outpt time (%) = 0 (0)
Other time (%) = 1.21922e-05 (30.4421)

Nlocal:    41 ave 41 max 41 min
Histogram: 1 0 0 0 0 0 0 0 0 0
Nghost:    185 ave 185 max 185 min
Histogram: 1 0 0 0 0 0 0 0 0 0
Neighs:    359 ave 359 max 359 min
Histogram: 1 0 0 0 0 0 0 0 0 0

Total # of neighbors = 359
Ave neighs/atom = 8.7561
Neighbor list builds = 0
Dangerous builds = 0
	# write_dump all atom ${dumpfile}
        next i
jump SELF loop1
        displace_atoms upper move 0.0 ${ystep1} 0.0 units lattice
        displace_atoms upper move 0.0 0.002 0.0 units lattice
        min_style ${style}
        min_style cg
        minimize ${etol} ${ftol} ${maxiter} ${maxeval}
        minimize 1e-12 ${ftol} ${maxiter} ${maxeval}
        minimize 1e-12 1e-08 ${maxiter} ${maxeval}
        minimize 1e-12 1e-08 10000 ${maxeval}
        minimize 1e-12 1e-08 10000 20000
WARNING: Resetting reneighboring criteria during minimization (../min.cpp:168)
Memory usage per processor = 3.35952 Mbytes
Step Temp PotEng Lx Ly Lz 
      22            0   -120.89651    1.0000002    34.724163    1.0000002 
      23            0   -120.89651    1.0000002    34.724163    1.0000002 
Loop time of 3.80023e-05 on 1 procs for 1 steps with 41 atoms

Minimization stats:
  Stopping criterion = linesearch alpha is zero
  Energy initial, next-to-last, final = 
        -120.896506613     -120.896506613     -120.896506613
  Force two-norm initial, final = 4.38915e-17 4.38915e-17
  Force max component initial, final = 3.23584e-17 3.23584e-17
  Final line search alpha, max atom move = 0.5 1.61792e-17
  Iterations, force evaluations = 1 2

Pair  time (%) = 2.19987e-05 (57.8877)
Neigh time (%) = 0 (0)
Comm  time (%) = 4.11598e-06 (10.8309)
Outpt time (%) = 0 (0)
Other time (%) = 1.18876e-05 (31.2814)

Nlocal:    41 ave 41 max 41 min
Histogram: 1 0 0 0 0 0 0 0 0 0
Nghost:    185 ave 185 max 185 min
Histogram: 1 0 0 0 0 0 0 0 0 0
Neighs:    359 ave 359 max 359 min
Histogram: 1 0 0 0 0 0 0 0 0 0

Total # of neighbors = 359
Ave neighs/atom = 8.7561
Neighbor list builds = 0
Dangerous builds = 0
	# write_dump all atom ${dumpfile}
        next i
jump SELF loop1
        displace_atoms upper move 0.0 ${ystep1} 0.0 units lattice
        displace_atoms upper move 0.0 0.002 0.0 units lattice
        min_style ${style}
        min_style cg
        minimize ${etol} ${ftol} ${maxiter} ${maxeval}
        minimize 1e-12 ${ftol} ${maxiter} ${maxeval}
        minimize 1e-12 1e-08 ${maxiter} ${maxeval}
        minimize 1e-12 1e-08 10000 ${maxeval}
        minimize 1e-12 1e-08 10000 20000
WARNING: Resetting reneighboring criteria during minimization (../min.cpp:168)
Memory usage per processor = 3.35952 Mbytes
Step Temp PotEng Lx Ly Lz 
      23            0   -120.88889    1.0000002    34.727627    1.0000002 
      24            0   -120.88889    1.0000002    34.727627    1.0000002 
Loop time of 1.10012e-07 on 1 procs for 1 steps with 41 atoms

Minimization stats:
  Stopping criterion = linesearch alpha is zero
  Energy initial, next-to-last, final = 
        -120.888893283     -120.888893283     -120.888893283
  Force two-norm initial, final = 3.26252e-17 3.26252e-17
  Force max component initial, final = 2.96546e-17 2.96546e-17
  Final line search alpha, max atom move = 0.5 1.48273e-17
  Iterations, force evaluations = 1 2

Pair  time (%) = 3.30037e-07 (300)
Neigh time (%) = 0 (0)
Comm  time (%) = 6.60075e-07 (600)
Outpt time (%) = 0 (0)
Other time (%) = -8.801e-07 (-800)

Nlocal:    41 ave 41 max 41 min
Histogram: 1 0 0 0 0 0 0 0 0 0
Nghost:    185 ave 185 max 185 min
Histogram: 1 0 0 0 0 0 0 0 0 0
Neighs:    359 ave 359 max 359 min
Histogram: 1 0 0 0 0 0 0 0 0 0

Total # of neighbors = 359
Ave neighs/atom = 8.7561
Neighbor list builds = 0
Dangerous builds = 0
	# write_dump all atom ${dumpfile}
        next i
jump SELF loop1
        displace_atoms upper move 0.0 ${ystep1} 0.0 units lattice
        displace_atoms upper move 0.0 0.002 0.0 units lattice
        min_style ${style}
        min_style cg
        minimize ${etol} ${ftol} ${maxiter} ${maxeval}
        minimize 1e-12 ${ftol} ${maxiter} ${maxeval}
        minimize 1e-12 1e-08 ${maxiter} ${maxeval}
        minimize 1e-12 1e-08 10000 ${maxeval}
        minimize 1e-12 1e-08 10000 20000
WARNING: Resetting reneighboring criteria during minimization (../min.cpp:168)
Memory usage per processor = 3.35952 Mbytes
Step Temp PotEng Lx Ly Lz 
      24            0   -120.88118    1.0000002    34.731091    1.0000002 
      25            0   -120.88118    1.0000002    34.731091    1.0000002 
Loop time of 3.80947e-05 on 1 procs for 1 steps with 41 atoms

Minimization stats:
  Stopping criterion = linesearch alpha is zero
  Energy initial, next-to-last, final = 
        -120.881182434     -120.881182434     -120.881182434
  Force two-norm initial, final = 5.05467e-17 5.05467e-17
  Force max component initial, final = 4.09337e-17 4.09337e-17
  Final line search alpha, max atom move = 0.5 2.04669e-17
  Iterations, force evaluations = 1 2

Pair  time (%) = 2.39451e-05 (62.8568)
Neigh time (%) = 0 (0)
Comm  time (%) = 3.90946e-06 (10.2625)
Outpt time (%) = 0 (0)
Other time (%) = 1.02401e-05 (26.8807)

Nlocal:    41 ave 41 max 41 min
Histogram: 1 0 0 0 0 0 0 0 0 0
Nghost:    185 ave 185 max 185 min
Histogram: 1 0 0 0 0 0 0 0 0 0
Neighs:    359 ave 359 max 359 min
Histogram: 1 0 0 0 0 0 0 0 0 0

Total # of neighbors = 359
Ave neighs/atom = 8.7561
Neighbor list builds = 0
Dangerous builds = 0
	# write_dump all atom ${dumpfile}
        next i
jump SELF loop1
        displace_atoms upper move 0.0 ${ystep1} 0.0 units lattice
        displace_atoms upper move 0.0 0.002 0.0 units lattice
        min_style ${style}
        min_style cg
        minimize ${etol} ${ftol} ${maxiter} ${maxeval}
        minimize 1e-12 ${ftol} ${maxiter} ${maxeval}
        minimize 1e-12 1e-08 ${maxiter} ${maxeval}
        minimize 1e-12 1e-08 10000 ${maxeval}
        minimize 1e-12 1e-08 10000 20000
WARNING: Resetting reneighboring criteria during minimization (../min.cpp:168)
Memory usage per processor = 3.35952 Mbytes
Step Temp PotEng Lx Ly Lz 
      25            0   -120.87337    1.0000002    34.734555    1.0000002 
      26            0   -120.87337    1.0000002    34.734555    1.0000002 
Loop time of 3.69968e-05 on 1 procs for 1 steps with 41 atoms

Minimization stats:
  Stopping criterion = linesearch alpha is zero
  Energy initial, next-to-last, final = 
        -120.873374958     -120.873374958     -120.873374958
  Force two-norm initial, final = 3.33159e-17 3.33159e-17
  Force max component initial, final = 2.96546e-17 2.96546e-17
  Final line search alpha, max atom move = 0.5 1.48273e-17
  Iterations, force evaluations = 1 2

Pair  time (%) = 2.38435e-05 (64.4475)
Neigh time (%) = 0 (0)
Comm  time (%) = 4.22937e-06 (11.4317)
Outpt time (%) = 0 (0)
Other time (%) = 8.92393e-06 (24.1208)

Nlocal:    41 ave 41 max 41 min
Histogram: 1 0 0 0 0 0 0 0 0 0
Nghost:    185 ave 185 max 185 min
Histogram: 1 0 0 0 0 0 0 0 0 0
Neighs:    359 ave 359 max 359 min
Histogram: 1 0 0 0 0 0 0 0 0 0

Total # of neighbors = 359
Ave neighs/atom = 8.7561
Neighbor list builds = 0
Dangerous builds = 0
	# write_dump all atom ${dumpfile}
        next i
jump SELF loop1
        displace_atoms upper move 0.0 ${ystep1} 0.0 units lattice
        displace_atoms upper move 0.0 0.002 0.0 units lattice
        min_style ${style}
        min_style cg
        minimize ${etol} ${ftol} ${maxiter} ${maxeval}
        minimize 1e-12 ${ftol} ${maxiter} ${maxeval}
        minimize 1e-12 1e-08 ${maxiter} ${maxeval}
        minimize 1e-12 1e-08 10000 ${maxeval}
        minimize 1e-12 1e-08 10000 20000
WARNING: Resetting reneighboring criteria during minimization (../min.cpp:168)
Memory usage per processor = 3.35952 Mbytes
Step Temp PotEng Lx Ly Lz 
      26            0   -120.86547    1.0000002    34.738019    1.0000002 
      27            0   -120.86547    1.0000002    34.738019    1.0000002 
Loop time of 3.69125e-05 on 1 procs for 1 steps with 41 atoms

Minimization stats:
  Stopping criterion = linesearch alpha is zero
  Energy initial, next-to-last, final = 
         -120.86547168      -120.86547168      -120.86547168
  Force two-norm initial, final = 6.17004e-17 6.17004e-17
  Force max component initial, final = 5.41068e-17 5.41068e-17
  Final line search alpha, max atom move = 0.5 2.70534e-17
  Iterations, force evaluations = 1 2

Pair  time (%) = 2.41137e-05 (65.3266)
Neigh time (%) = 0 (0)
Comm  time (%) = 3.76964e-06 (10.2124)
Outpt time (%) = 0 (0)
Other time (%) = 9.02917e-06 (24.461)

Nlocal:    41 ave 41 max 41 min
Histogram: 1 0 0 0 0 0 0 0 0 0
Nghost:    185 ave 185 max 185 min
Histogram: 1 0 0 0 0 0 0 0 0 0
Neighs:    359 ave 359 max 359 min
Histogram: 1 0 0 0 0 0 0 0 0 0

Total # of neighbors = 359
Ave neighs/atom = 8.7561
Neighbor list builds = 0
Dangerous builds = 0
	# write_dump all atom ${dumpfile}
        next i
jump SELF loop1
        displace_atoms upper move 0.0 ${ystep1} 0.0 units lattice
        displace_atoms upper move 0.0 0.002 0.0 units lattice
        min_style ${style}
        min_style cg
        minimize ${etol} ${ftol} ${maxiter} ${maxeval}
        minimize 1e-12 ${ftol} ${maxiter} ${maxeval}
        minimize 1e-12 1e-08 ${maxiter} ${maxeval}
        minimize 1e-12 1e-08 10000 ${maxeval}
        minimize 1e-12 1e-08 10000 20000
WARNING: Resetting reneighboring criteria during minimization (../min.cpp:168)
Memory usage per processor = 3.35952 Mbytes
Step Temp PotEng Lx Ly Lz 
      27            0   -120.85747    1.0000002    34.741483    1.0000002 
      28            0   -120.85747    1.0000002    34.741483    1.0000002 
Loop time of 3.8019e-05 on 1 procs for 1 steps with 41 atoms

Minimization stats:
  Stopping criterion = linesearch alpha is zero
  Energy initial, next-to-last, final = 
        -120.857473465     -120.857473465     -120.857473465
  Force two-norm initial, final = 5.70901e-17 5.70901e-17
  Force max component initial, final = 4.8784e-17 4.8784e-17
  Final line search alpha, max atom move = 0.5 2.4392e-17
  Iterations, force evaluations = 1 2

Pair  time (%) = 2.18108e-05 (57.368)
Neigh time (%) = 0 (0)
Comm  time (%) = 4.02471e-06 (10.586)
Outpt time (%) = 0 (0)
Other time (%) = 1.21836e-05 (32.046)

Nlocal:    41 ave 41 max 41 min
Histogram: 1 0 0 0 0 0 0 0 0 0
Nghost:    185 ave 185 max 185 min
Histogram: 1 0 0 0 0 0 0 0 0 0
Neighs:    359 ave 359 max 359 min
Histogram: 1 0 0 0 0 0 0 0 0 0

Total # of neighbors = 359
Ave neighs/atom = 8.7561
Neighbor list builds = 0
Dangerous builds = 0
	# write_dump all atom ${dumpfile}
        next i
jump SELF loop1
        displace_atoms upper move 0.0 ${ystep1} 0.0 units lattice
        displace_atoms upper move 0.0 0.002 0.0 units lattice
        min_style ${style}
        min_style cg
        minimize ${etol} ${ftol} ${maxiter} ${maxeval}
        minimize 1e-12 ${ftol} ${maxiter} ${maxeval}
        minimize 1e-12 1e-08 ${maxiter} ${maxeval}
        minimize 1e-12 1e-08 10000 ${maxeval}
        minimize 1e-12 1e-08 10000 20000
WARNING: Resetting reneighboring criteria during minimization (../min.cpp:168)
Memory usage per processor = 3.35952 Mbytes
Step Temp PotEng Lx Ly Lz 
      28            0   -120.84938    1.0000002    34.744947    1.0000002 
      29            0   -120.84938    1.0000002    34.744947    1.0000002 
Loop time of 3.80274e-05 on 1 procs for 1 steps with 41 atoms

Minimization stats:
  Stopping criterion = linesearch alpha is zero
  Energy initial, next-to-last, final = 
        -120.849381206     -120.849381206     -120.849381206
  Force two-norm initial, final = 3.14119e-17 3.14119e-17
  Force max component initial, final = 2.96546e-17 2.96546e-17
  Final line search alpha, max atom move = 0.5 1.48273e-17
  Iterations, force evaluations = 1 2

Pair  time (%) = 2.28357e-05 (60.0506)
Neigh time (%) = 0 (0)
Comm  time (%) = 3.12109e-06 (8.20749)
Outpt time (%) = 0 (0)
Other time (%) = 1.20706e-05 (31.7419)

Nlocal:    41 ave 41 max 41 min
Histogram: 1 0 0 0 0 0 0 0 0 0
Nghost:    185 ave 185 max 185 min
Histogram: 1 0 0 0 0 0 0 0 0 0
Neighs:    359 ave 359 max 359 min
Histogram: 1 0 0 0 0 0 0 0 0 0

Total # of neighbors = 359
Ave neighs/atom = 8.7561
Neighbor list builds = 0
Dangerous builds = 0
	# write_dump all atom ${dumpfile}
        next i
jump SELF loop1
        displace_atoms upper move 0.0 ${ystep1} 0.0 units lattice
        displace_atoms upper move 0.0 0.002 0.0 units lattice
        min_style ${style}
        min_style cg
        minimize ${etol} ${ftol} ${maxiter} ${maxeval}
        minimize 1e-12 ${ftol} ${maxiter} ${maxeval}
        minimize 1e-12 1e-08 ${maxiter} ${maxeval}
        minimize 1e-12 1e-08 10000 ${maxeval}
        minimize 1e-12 1e-08 10000 20000
WARNING: Resetting reneighboring criteria during minimization (../min.cpp:168)
Memory usage per processor = 3.35952 Mbytes
Step Temp PotEng Lx Ly Lz 
      29            0    -120.8412    1.0000002    34.748411    1.0000002 
      30            0    -120.8412    1.0000002    34.748411    1.0000002 
Loop time of 3.70888e-05 on 1 procs for 1 steps with 41 atoms

Minimization stats:
  Stopping criterion = linesearch alpha is zero
  Energy initial, next-to-last, final = 
        -120.841195779     -120.841195779     -120.841195779
  Force two-norm initial, final = 3.26976e-17 3.26976e-17
  Force max component initial, final = 2.96546e-17 2.96546e-17
  Final line search alpha, max atom move = 0.5 1.48273e-17
  Iterations, force evaluations = 1 2

Pair  time (%) = 2.39273e-05 (64.5136)
Neigh time (%) = 0 (0)
Comm  time (%) = 3.87384e-06 (10.4448)
Outpt time (%) = 0 (0)
Other time (%) = 9.28761e-06 (25.0416)

Nlocal:    41 ave 41 max 41 min
Histogram: 1 0 0 0 0 0 0 0 0 0
Nghost:    185 ave 185 max 185 min
Histogram: 1 0 0 0 0 0 0 0 0 0
Neighs:    359 ave 359 max 359 min
Histogram: 1 0 0 0 0 0 0 0 0 0

Total # of neighbors = 359
Ave neighs/atom = 8.7561
Neighbor list builds = 0
Dangerous builds = 0
	# write_dump all atom ${dumpfile}
        next i
jump SELF loop1
        displace_atoms upper move 0.0 ${ystep1} 0.0 units lattice
        displace_atoms upper move 0.0 0.002 0.0 units lattice
        min_style ${style}
        min_style cg
        minimize ${etol} ${ftol} ${maxiter} ${maxeval}
        minimize 1e-12 ${ftol} ${maxiter} ${maxeval}
        minimize 1e-12 1e-08 ${maxiter} ${maxeval}
        minimize 1e-12 1e-08 10000 ${maxeval}
        minimize 1e-12 1e-08 10000 20000
WARNING: Resetting reneighboring criteria during minimization (../min.cpp:168)
Memory usage per processor = 3.35952 Mbytes
Step Temp PotEng Lx Ly Lz 
      30            0   -120.83292    1.0000002    34.751876    1.0000002 
      31            0   -120.83292    1.0000002    34.751876    1.0000002 
Loop time of 3.6957e-05 on 1 procs for 1 steps with 41 atoms

Minimization stats:
  Stopping criterion = linesearch alpha is zero
  Energy initial, next-to-last, final = 
        -120.832918126     -120.832918126     -120.832918126
  Force two-norm initial, final = 5.84012e-17 5.84012e-17
  Force max component initial, final = 5.03121e-17 5.03121e-17
  Final line search alpha, max atom move = 0.5 2.5156e-17
  Iterations, force evaluations = 1 2

Pair  time (%) = 2.30549e-05 (62.3831)
Neigh time (%) = 0 (0)
Comm  time (%) = 5.03624e-06 (13.6273)
Outpt time (%) = 0 (0)
Other time (%) = 8.86584e-06 (23.9896)

Nlocal:    41 ave 41 max 41 min
Histogram: 1 0 0 0 0 0 0 0 0 0
Nghost:    185 ave 185 max 185 min
Histogram: 1 0 0 0 0 0 0 0 0 0
Neighs:    359 ave 359 max 359 min
Histogram: 1 0 0 0 0 0 0 0 0 0

Total # of neighbors = 359
Ave neighs/atom = 8.7561
Neighbor list builds = 0
Dangerous builds = 0
	# write_dump all atom ${dumpfile}
        next i
jump SELF loop1
        displace_atoms upper move 0.0 ${ystep1} 0.0 units lattice
        displace_atoms upper move 0.0 0.002 0.0 units lattice
        min_style ${style}
        min_style cg
        minimize ${etol} ${ftol} ${maxiter} ${maxeval}
        minimize 1e-12 ${ftol} ${maxiter} ${maxeval}
        minimize 1e-12 1e-08 ${maxiter} ${maxeval}
        minimize 1e-12 1e-08 10000 ${maxeval}
        minimize 1e-12 1e-08 10000 20000
WARNING: Resetting reneighboring criteria during minimization (../min.cpp:168)
Memory usage per processor = 3.35952 Mbytes
Step Temp PotEng Lx Ly Lz 
      31            0   -120.82455    1.0000002     34.75534    1.0000002 
      32            0   -120.82455    1.0000002     34.75534    1.0000002 
Loop time of 4.00181e-05 on 1 procs for 1 steps with 41 atoms

Minimization stats:
  Stopping criterion = linesearch alpha is zero
  Energy initial, next-to-last, final = 
        -120.824549093     -120.824549093     -120.824549093
  Force two-norm initial, final = 3.3741e-17 3.3741e-17
  Force max component initial, final = 2.96546e-17 2.96546e-17
  Final line search alpha, max atom move = 0.5 1.48273e-17
  Iterations, force evaluations = 1 2

Pair  time (%) = 2.29933e-05 (57.4572)
Neigh time (%) = 0 (0)
Comm  time (%) = 3.91295e-06 (9.77795)
Outpt time (%) = 0 (0)
Other time (%) = 1.31119e-05 (32.7648)

Nlocal:    41 ave 41 max 41 min
Histogram: 1 0 0 0 0 0 0 0 0 0
Nghost:    185 ave 185 max 185 min
Histogram: 1 0 0 0 0 0 0 0 0 0
Neighs:    359 ave 359 max 359 min
Histogram: 1 0 0 0 0 0 0 0 0 0

Total # of neighbors = 359
Ave neighs/atom = 8.7561
Neighbor list builds = 0
Dangerous builds = 0
	# write_dump all atom ${dumpfile}
        next i
jump SELF loop1
        displace_atoms upper move 0.0 ${ystep1} 0.0 units lattice
        displace_atoms upper move 0.0 0.002 0.0 units lattice
        min_style ${style}
        min_style cg
        minimize ${etol} ${ftol} ${maxiter} ${maxeval}
        minimize 1e-12 ${ftol} ${maxiter} ${maxeval}
        minimize 1e-12 1e-08 ${maxiter} ${maxeval}
        minimize 1e-12 1e-08 10000 ${maxeval}
        minimize 1e-12 1e-08 10000 20000
WARNING: Resetting reneighboring criteria during minimization (../min.cpp:168)
Memory usage per processor = 3.35952 Mbytes
Step Temp PotEng Lx Ly Lz 
      32            0   -120.81609    1.0000002    34.758804    1.0000002 
      33            0   -120.81609    1.0000002    34.758804    1.0000002 
Loop time of 3.80975e-05 on 1 procs for 1 steps with 41 atoms

Minimization stats:
  Stopping criterion = linesearch alpha is zero
  Energy initial, next-to-last, final = 
        -120.816089625     -120.816089625     -120.816089625
  Force two-norm initial, final = 5.29452e-17 5.29452e-17
  Force max component initial, final = 4.38611e-17 4.38611e-17
  Final line search alpha, max atom move = 0.5 2.19305e-17
  Iterations, force evaluations = 1 2

Pair  time (%) = 2.39535e-05 (62.8742)
Neigh time (%) = 0 (0)
Comm  time (%) = 4.92611e-06 (12.9303)
Outpt time (%) = 0 (0)
Other time (%) = 9.21788e-06 (24.1955)

Nlocal:    41 ave 41 max 41 min
Histogram: 1 0 0 0 0 0 0 0 0 0
Nghost:    185 ave 185 max 185 min
Histogram: 1 0 0 0 0 0 0 0 0 0
Neighs:    359 ave 359 max 359 min
Histogram: 1 0 0 0 0 0 0 0 0 0

Total # of neighbors = 359
Ave neighs/atom = 8.7561
Neighbor list builds = 0
Dangerous builds = 0
	# write_dump all atom ${dumpfile}
        next i
jump SELF loop1
        displace_atoms upper move 0.0 ${ystep1} 0.0 units lattice
        displace_atoms upper move 0.0 0.002 0.0 units lattice
        min_style ${style}
        min_style cg
        minimize ${etol} ${ftol} ${maxiter} ${maxeval}
        minimize 1e-12 ${ftol} ${maxiter} ${maxeval}
        minimize 1e-12 1e-08 ${maxiter} ${maxeval}
        minimize 1e-12 1e-08 10000 ${maxeval}
        minimize 1e-12 1e-08 10000 20000
WARNING: Resetting reneighboring criteria during minimization (../min.cpp:168)
Memory usage per processor = 3.35952 Mbytes
Step Temp PotEng Lx Ly Lz 
      33            0   -120.80754    1.0000002    34.762268    1.0000002 
      34            0   -120.80754    1.0000002    34.762268    1.0000002 
Loop time of 3.69069e-05 on 1 procs for 1 steps with 41 atoms

Minimization stats:
  Stopping criterion = linesearch alpha is zero
  Energy initial, next-to-last, final = 
        -120.807540619     -120.807540619     -120.807540619
  Force two-norm initial, final = 4.80785e-17 4.80785e-17
  Force max component initial, final = 3.78437e-17 3.78437e-17
  Final line search alpha, max atom move = 0.5 1.89219e-17
  Iterations, force evaluations = 1 2

Pair  time (%) = 2.3097e-05 (62.5819)
Neigh time (%) = 0 (0)
Comm  time (%) = 3.92855e-06 (10.6445)
Outpt time (%) = 0 (0)
Other time (%) = 9.88133e-06 (26.7737)

Nlocal:    41 ave 41 max 41 min
Histogram: 1 0 0 0 0 0 0 0 0 0
Nghost:    185 ave 185 max 185 min
Histogram: 1 0 0 0 0 0 0 0 0 0
Neighs:    359 ave 359 max 359 min
Histogram: 1 0 0 0 0 0 0 0 0 0

Total # of neighbors = 359
Ave neighs/atom = 8.7561
Neighbor list builds = 0
Dangerous builds = 0
	# write_dump all atom ${dumpfile}
        next i
jump SELF loop1
        displace_atoms upper move 0.0 ${ystep1} 0.0 units lattice
        displace_atoms upper move 0.0 0.002 0.0 units lattice
        min_style ${style}
        min_style cg
        minimize ${etol} ${ftol} ${maxiter} ${maxeval}
        minimize 1e-12 ${ftol} ${maxiter} ${maxeval}
        minimize 1e-12 1e-08 ${maxiter} ${maxeval}
        minimize 1e-12 1e-08 10000 ${maxeval}
        minimize 1e-12 1e-08 10000 20000
WARNING: Resetting reneighboring criteria during minimization (../min.cpp:168)
Memory usage per processor = 3.35952 Mbytes
Step Temp PotEng Lx Ly Lz 
      34            0    -120.7989    1.0000002    34.765732    1.0000002 
      35            0    -120.7989    1.0000002    34.765732    1.0000002 
Loop time of 3.8053e-05 on 1 procs for 1 steps with 41 atoms

Minimization stats:
  Stopping criterion = linesearch alpha is zero
  Energy initial, next-to-last, final = 
        -120.798903025     -120.798903025     -120.798903025
  Force two-norm initial, final = 4.98904e-17 4.98904e-17
  Force max component initial, final = 4.01206e-17 4.01206e-17
  Final line search alpha, max atom move = 0.5 2.00603e-17
  Iterations, force evaluations = 1 2

Pair  time (%) = 2.29127e-05 (60.2127)
Neigh time (%) = 0 (0)
Comm  time (%) = 4.27512e-06 (11.2346)
Outpt time (%) = 0 (0)
Other time (%) = 1.08652e-05 (28.5527)

Nlocal:    41 ave 41 max 41 min
Histogram: 1 0 0 0 0 0 0 0 0 0
Nghost:    185 ave 185 max 185 min
Histogram: 1 0 0 0 0 0 0 0 0 0
Neighs:    359 ave 359 max 359 min
Histogram: 1 0 0 0 0 0 0 0 0 0

Total # of neighbors = 359
Ave neighs/atom = 8.7561
Neighbor list builds = 0
Dangerous builds = 0
	# write_dump all atom ${dumpfile}
        next i
jump SELF loop1
        displace_atoms upper move 0.0 ${ystep1} 0.0 units lattice
        displace_atoms upper move 0.0 0.002 0.0 units lattice
        min_style ${style}
        min_style cg
        minimize ${etol} ${ftol} ${maxiter} ${maxeval}
        minimize 1e-12 ${ftol} ${maxiter} ${maxeval}
        minimize 1e-12 1e-08 ${maxiter} ${maxeval}
        minimize 1e-12 1e-08 10000 ${maxeval}
        minimize 1e-12 1e-08 10000 20000
WARNING: Resetting reneighboring criteria during minimization (../min.cpp:168)
Memory usage per processor = 3.35952 Mbytes
Step Temp PotEng Lx Ly Lz 
      35            0   -120.79018    1.0000002    34.769196    1.0000002 
      36            0   -120.79018    1.0000002    34.769196    1.0000002 
Loop time of 3.79619e-05 on 1 procs for 1 steps with 41 atoms

Minimization stats:
  Stopping criterion = linesearch alpha is zero
  Energy initial, next-to-last, final = 
        -120.790177764     -120.790177764     -120.790177764
  Force two-norm initial, final = 2.96788e-17 2.96788e-17
  Force max component initial, final = 2.96546e-17 2.96546e-17
  Final line search alpha, max atom move = 0.5 1.48273e-17
  Iterations, force evaluations = 1 2

Pair  time (%) = 2.28777e-05 (60.265)
Neigh time (%) = 0 (0)
Comm  time (%) = 3.20515e-06 (8.44307)
Outpt time (%) = 0 (0)
Other time (%) = 1.1879e-05 (31.292)

Nlocal:    41 ave 41 max 41 min
Histogram: 1 0 0 0 0 0 0 0 0 0
Nghost:    185 ave 185 max 185 min
Histogram: 1 0 0 0 0 0 0 0 0 0
Neighs:    359 ave 359 max 359 min
Histogram: 1 0 0 0 0 0 0 0 0 0

Total # of neighbors = 359
Ave neighs/atom = 8.7561
Neighbor list builds = 0
Dangerous builds = 0
	# write_dump all atom ${dumpfile}
        next i
jump SELF loop1
        displace_atoms upper move 0.0 ${ystep1} 0.0 units lattice
        displace_atoms upper move 0.0 0.002 0.0 units lattice
        min_style ${style}
        min_style cg
        minimize ${etol} ${ftol} ${maxiter} ${maxeval}
        minimize 1e-12 ${ftol} ${maxiter} ${maxeval}
        minimize 1e-12 1e-08 ${maxiter} ${maxeval}
        minimize 1e-12 1e-08 10000 ${maxeval}
        minimize 1e-12 1e-08 10000 20000
WARNING: Resetting reneighboring criteria during minimization (../min.cpp:168)
Memory usage per processor = 3.35952 Mbytes
Step Temp PotEng Lx Ly Lz 
      36            0   -120.78137    1.0000002     34.77266    1.0000002 
      37            0   -120.78137    1.0000002     34.77266    1.0000002 
Loop time of 3.80233e-05 on 1 procs for 1 steps with 41 atoms

Minimization stats:
  Stopping criterion = linesearch alpha is zero
  Energy initial, next-to-last, final = 
         -120.78136581      -120.78136581      -120.78136581
  Force two-norm initial, final = 6.21198e-17 6.21198e-17
  Force max component initial, final = 5.45845e-17 5.45845e-17
  Final line search alpha, max atom move = 0.5 2.72922e-17
  Iterations, force evaluations = 1 2

Pair  time (%) = 2.28236e-05 (60.0252)
Neigh time (%) = 0 (0)
Comm  time (%) = 4.09689e-06 (10.7747)
Outpt time (%) = 0 (0)
Other time (%) = 1.11029e-05 (29.2002)

Nlocal:    41 ave 41 max 41 min
Histogram: 1 0 0 0 0 0 0 0 0 0
Nghost:    185 ave 185 max 185 min
Histogram: 1 0 0 0 0 0 0 0 0 0
Neighs:    359 ave 359 max 359 min
Histogram: 1 0 0 0 0 0 0 0 0 0

Total # of neighbors = 359
Ave neighs/atom = 8.7561
Neighbor list builds = 0
Dangerous builds = 0
	# write_dump all atom ${dumpfile}
        next i
jump SELF loop1
        displace_atoms upper move 0.0 ${ystep1} 0.0 units lattice
        displace_atoms upper move 0.0 0.002 0.0 units lattice
        min_style ${style}
        min_style cg
        minimize ${etol} ${ftol} ${maxiter} ${maxeval}
        minimize 1e-12 ${ftol} ${maxiter} ${maxeval}
        minimize 1e-12 1e-08 ${maxiter} ${maxeval}
        minimize 1e-12 1e-08 10000 ${maxeval}
        minimize 1e-12 1e-08 10000 20000
WARNING: Resetting reneighboring criteria during minimization (../min.cpp:168)
Memory usage per processor = 3.35952 Mbytes
Step Temp PotEng Lx Ly Lz 
      37            0   -120.77247    1.0000002    34.776124    1.0000002 
      38            0   -120.77247    1.0000002    34.776124    1.0000002 
Loop time of 3.79243e-05 on 1 procs for 1 steps with 41 atoms

Minimization stats:
  Stopping criterion = linesearch alpha is zero
  Energy initial, next-to-last, final = 
         -120.77246806      -120.77246806      -120.77246806
  Force two-norm initial, final = 5.94699e-17 5.94699e-17
  Force max component initial, final = 5.15487e-17 5.15487e-17
  Final line search alpha, max atom move = 0.5 2.57744e-17
  Iterations, force evaluations = 1 2

Pair  time (%) = 2.22415e-05 (58.6471)
Neigh time (%) = 0 (0)
Comm  time (%) = 2.93273e-06 (7.73313)
Outpt time (%) = 0 (0)
Other time (%) = 1.275e-05 (33.6197)

Nlocal:    41 ave 41 max 41 min
Histogram: 1 0 0 0 0 0 0 0 0 0
Nghost:    185 ave 185 max 185 min
Histogram: 1 0 0 0 0 0 0 0 0 0
Neighs:    359 ave 359 max 359 min
Histogram: 1 0 0 0 0 0 0 0 0 0

Total # of neighbors = 359
Ave neighs/atom = 8.7561
Neighbor list builds = 0
Dangerous builds = 0
	# write_dump all atom ${dumpfile}
        next i
jump SELF loop1
        displace_atoms upper move 0.0 ${ystep1} 0.0 units lattice
        displace_atoms upper move 0.0 0.002 0.0 units lattice
        min_style ${style}
        min_style cg
        minimize ${etol} ${ftol} ${maxiter} ${maxeval}
        minimize 1e-12 ${ftol} ${maxiter} ${maxeval}
        minimize 1e-12 1e-08 ${maxiter} ${maxeval}
        minimize 1e-12 1e-08 10000 ${maxeval}
        minimize 1e-12 1e-08 10000 20000
WARNING: Resetting reneighboring criteria during minimization (../min.cpp:168)
Memory usage per processor = 3.35952 Mbytes
Step Temp PotEng Lx Ly Lz 
      38            0   -120.76349    1.0000002    34.779588    1.0000002 
      39            0   -120.76349    1.0000002    34.779588    1.0000002 
Loop time of 3.79665e-05 on 1 procs for 1 steps with 41 atoms

Minimization stats:
  Stopping criterion = linesearch alpha is zero
  Energy initial, next-to-last, final = 
        -120.763485508     -120.763485508     -120.763485508
  Force two-norm initial, final = 2.96675e-17 2.96675e-17
  Force max component initial, final = 2.96546e-17 2.96546e-17
  Final line search alpha, max atom move = 0.5 1.48273e-17
  Iterations, force evaluations = 1 2

Pair  time (%) = 2.28914e-05 (60.2937)
Neigh time (%) = 0 (0)
Comm  time (%) = 3.23262e-06 (8.5144)
Outpt time (%) = 0 (0)
Other time (%) = 1.18425e-05 (31.1919)

Nlocal:    41 ave 41 max 41 min
Histogram: 1 0 0 0 0 0 0 0 0 0
Nghost:    185 ave 185 max 185 min
Histogram: 1 0 0 0 0 0 0 0 0 0
Neighs:    359 ave 359 max 359 min
Histogram: 1 0 0 0 0 0 0 0 0 0

Total # of neighbors = 359
Ave neighs/atom = 8.7561
Neighbor list builds = 0
Dangerous builds = 0
	# write_dump all atom ${dumpfile}
        next i
jump SELF loop1
        displace_atoms upper move 0.0 ${ystep1} 0.0 units lattice
        displace_atoms upper move 0.0 0.002 0.0 units lattice
        min_style ${style}
        min_style cg
        minimize ${etol} ${ftol} ${maxiter} ${maxeval}
        minimize 1e-12 ${ftol} ${maxiter} ${maxeval}
        minimize 1e-12 1e-08 ${maxiter} ${maxeval}
        minimize 1e-12 1e-08 10000 ${maxeval}
        minimize 1e-12 1e-08 10000 20000
WARNING: Resetting reneighboring criteria during minimization (../min.cpp:168)
Memory usage per processor = 3.35952 Mbytes
Step Temp PotEng Lx Ly Lz 
      39            0   -120.75442    1.0000002    34.783052    1.0000002 
      40            0   -120.75442    1.0000002    34.783052    1.0000002 
Loop time of 8.70491e-05 on 1 procs for 1 steps with 41 atoms

Minimization stats:
  Stopping criterion = linesearch alpha is zero
  Energy initial, next-to-last, final = 
        -120.754418803     -120.754418803     -120.754418803
  Force two-norm initial, final = 4.77379e-17 4.77379e-17
  Force max component initial, final = 3.74101e-17 3.74101e-17
  Final line search alpha, max atom move = 0.5 1.8705e-17
  Iterations, force evaluations = 1 2

Pair  time (%) = 2.90523e-05 (33.3746)
Neigh time (%) = 0 (0)
Comm  time (%) = 5.02425e-06 (5.77175)
Outpt time (%) = 0 (0)
Other time (%) = 5.29726e-05 (60.8537)

Nlocal:    41 ave 41 max 41 min
Histogram: 1 0 0 0 0 0 0 0 0 0
Nghost:    185 ave 185 max 185 min
Histogram: 1 0 0 0 0 0 0 0 0 0
Neighs:    359 ave 359 max 359 min
Histogram: 1 0 0 0 0 0 0 0 0 0

Total # of neighbors = 359
Ave neighs/atom = 8.7561
Neighbor list builds = 0
Dangerous builds = 0
	# write_dump all atom ${dumpfile}
        next i
jump SELF loop1
        displace_atoms upper move 0.0 ${ystep1} 0.0 units lattice
        displace_atoms upper move 0.0 0.002 0.0 units lattice
        min_style ${style}
        min_style cg
        minimize ${etol} ${ftol} ${maxiter} ${maxeval}
        minimize 1e-12 ${ftol} ${maxiter} ${maxeval}
        minimize 1e-12 1e-08 ${maxiter} ${maxeval}
        minimize 1e-12 1e-08 10000 ${maxeval}
        minimize 1e-12 1e-08 10000 20000
WARNING: Resetting reneighboring criteria during minimization (../min.cpp:168)
Memory usage per processor = 3.35952 Mbytes
Step Temp PotEng Lx Ly Lz 
      40            0   -120.74527    1.0000002    34.786517    1.0000002 
      41            0   -120.74527    1.0000002    34.786517    1.0000002 
Loop time of 3.81167e-05 on 1 procs for 1 steps with 41 atoms

Minimization stats:
  Stopping criterion = linesearch alpha is zero
  Energy initial, next-to-last, final = 
         -120.74526913      -120.74526913      -120.74526913
  Force two-norm initial, final = 4.22409e-17 4.22409e-17
  Force max component initial, final = 3.00815e-17 3.00815e-17
  Final line search alpha, max atom move = 0.5 1.50408e-17
  Iterations, force evaluations = 1 2

Pair  time (%) = 2.40576e-05 (63.1156)
Neigh time (%) = 0 (0)
Comm  time (%) = 3.65742e-06 (9.59532)
Outpt time (%) = 0 (0)
Other time (%) = 1.04017e-05 (27.2891)

Nlocal:    41 ave 41 max 41 min
Histogram: 1 0 0 0 0 0 0 0 0 0
Nghost:    185 ave 185 max 185 min
Histogram: 1 0 0 0 0 0 0 0 0 0
Neighs:    359 ave 359 max 359 min
Histogram: 1 0 0 0 0 0 0 0 0 0

Total # of neighbors = 359
Ave neighs/atom = 8.7561
Neighbor list builds = 0
Dangerous builds = 0
	# write_dump all atom ${dumpfile}
        next i
jump SELF loop1
        displace_atoms upper move 0.0 ${ystep1} 0.0 units lattice
        displace_atoms upper move 0.0 0.002 0.0 units lattice
        min_style ${style}
        min_style cg
        minimize ${etol} ${ftol} ${maxiter} ${maxeval}
        minimize 1e-12 ${ftol} ${maxiter} ${maxeval}
        minimize 1e-12 1e-08 ${maxiter} ${maxeval}
        minimize 1e-12 1e-08 10000 ${maxeval}
        minimize 1e-12 1e-08 10000 20000
WARNING: Resetting reneighboring criteria during minimization (../min.cpp:168)
Memory usage per processor = 3.35952 Mbytes
Step Temp PotEng Lx Ly Lz 
      41            0   -120.73604    1.0000002    34.789981    1.0000002 
      42            0   -120.73604    1.0000002    34.789981    1.0000002 
Loop time of 3.79657e-05 on 1 procs for 1 steps with 41 atoms

Minimization stats:
  Stopping criterion = linesearch alpha is zero
  Energy initial, next-to-last, final = 
        -120.736037508     -120.736037508     -120.736037508
  Force two-norm initial, final = 5.93759e-17 5.93759e-17
  Force max component initial, final = 5.14403e-17 5.14403e-17
  Final line search alpha, max atom move = 0.5 2.57202e-17
  Iterations, force evaluations = 1 2

Pair  time (%) = 2.28892e-05 (60.2892)
Neigh time (%) = 0 (0)
Comm  time (%) = 3.22808e-06 (8.50262)
Outpt time (%) = 0 (0)
Other time (%) = 1.18484e-05 (31.2082)

Nlocal:    41 ave 41 max 41 min
Histogram: 1 0 0 0 0 0 0 0 0 0
Nghost:    185 ave 185 max 185 min
Histogram: 1 0 0 0 0 0 0 0 0 0
Neighs:    359 ave 359 max 359 min
Histogram: 1 0 0 0 0 0 0 0 0 0

Total # of neighbors = 359
Ave neighs/atom = 8.7561
Neighbor list builds = 0
Dangerous builds = 0
	# write_dump all atom ${dumpfile}
        next i
jump SELF loop1
        displace_atoms upper move 0.0 ${ystep1} 0.0 units lattice
        displace_atoms upper move 0.0 0.002 0.0 units lattice
        min_style ${style}
        min_style cg
        minimize ${etol} ${ftol} ${maxiter} ${maxeval}
        minimize 1e-12 ${ftol} ${maxiter} ${maxeval}
        minimize 1e-12 1e-08 ${maxiter} ${maxeval}
        minimize 1e-12 1e-08 10000 ${maxeval}
        minimize 1e-12 1e-08 10000 20000
WARNING: Resetting reneighboring criteria during minimization (../min.cpp:168)
Memory usage per processor = 3.35952 Mbytes
Step Temp PotEng Lx Ly Lz 
      42            0   -120.72672    1.0000002    34.793445    1.0000002 
      43            0   -120.72672    1.0000002    34.793445    1.0000002 
Loop time of 3.80574e-05 on 1 procs for 1 steps with 41 atoms

Minimization stats:
  Stopping criterion = linesearch alpha is zero
  Energy initial, next-to-last, final = 
        -120.726724918     -120.726724918     -120.726724918
  Force two-norm initial, final = 2.96905e-17 2.96905e-17
  Force max component initial, final = 2.96546e-17 2.96546e-17
  Final line search alpha, max atom move = 0.5 1.48273e-17
  Iterations, force evaluations = 1 2

Pair  time (%) = 2.29261e-05 (60.2409)
Neigh time (%) = 0 (0)
Comm  time (%) = 3.06335e-06 (8.04929)
Outpt time (%) = 0 (0)
Other time (%) = 1.2068e-05 (31.7099)

Nlocal:    41 ave 41 max 41 min
Histogram: 1 0 0 0 0 0 0 0 0 0
Nghost:    185 ave 185 max 185 min
Histogram: 1 0 0 0 0 0 0 0 0 0
Neighs:    359 ave 359 max 359 min
Histogram: 1 0 0 0 0 0 0 0 0 0

Total # of neighbors = 359
Ave neighs/atom = 8.7561
Neighbor list builds = 0
Dangerous builds = 0
	# write_dump all atom ${dumpfile}
        next i
jump SELF loop1
        displace_atoms upper move 0.0 ${ystep1} 0.0 units lattice
        displace_atoms upper move 0.0 0.002 0.0 units lattice
        min_style ${style}
        min_style cg
        minimize ${etol} ${ftol} ${maxiter} ${maxeval}
        minimize 1e-12 ${ftol} ${maxiter} ${maxeval}
        minimize 1e-12 1e-08 ${maxiter} ${maxeval}
        minimize 1e-12 1e-08 10000 ${maxeval}
        minimize 1e-12 1e-08 10000 20000
WARNING: Resetting reneighboring criteria during minimization (../min.cpp:168)
Memory usage per processor = 3.35952 Mbytes
Step Temp PotEng Lx Ly Lz 
      43            0   -120.71733    1.0000002    34.796909    1.0000002 
      44            0   -120.71733    1.0000002    34.796909    1.0000002 
Loop time of 3.90746e-05 on 1 procs for 1 steps with 41 atoms

Minimization stats:
  Stopping criterion = linesearch alpha is zero
  Energy initial, next-to-last, final = 
        -120.717332205     -120.717332205     -120.717332205
  Force two-norm initial, final = 4.16657e-17 4.16657e-17
  Force max component initial, final = 2.96546e-17 2.96546e-17
  Final line search alpha, max atom move = 0.5 1.48273e-17
  Iterations, force evaluations = 1 2

Pair  time (%) = 2.31162e-05 (59.1593)
Neigh time (%) = 0 (0)
Comm  time (%) = 4.72856e-06 (12.1014)
Outpt time (%) = 0 (0)
Other time (%) = 1.12298e-05 (28.7393)

Nlocal:    41 ave 41 max 41 min
Histogram: 1 0 0 0 0 0 0 0 0 0
Nghost:    185 ave 185 max 185 min
Histogram: 1 0 0 0 0 0 0 0 0 0
Neighs:    359 ave 359 max 359 min
Histogram: 1 0 0 0 0 0 0 0 0 0

Total # of neighbors = 359
Ave neighs/atom = 8.7561
Neighbor list builds = 0
Dangerous builds = 0
	# write_dump all atom ${dumpfile}
        next i
jump SELF loop1
        displace_atoms upper move 0.0 ${ystep1} 0.0 units lattice
        displace_atoms upper move 0.0 0.002 0.0 units lattice
        min_style ${style}
        min_style cg
        minimize ${etol} ${ftol} ${maxiter} ${maxeval}
        minimize 1e-12 ${ftol} ${maxiter} ${maxeval}
        minimize 1e-12 1e-08 ${maxiter} ${maxeval}
        minimize 1e-12 1e-08 10000 ${maxeval}
        minimize 1e-12 1e-08 10000 20000
WARNING: Resetting reneighboring criteria during minimization (../min.cpp:168)
Memory usage per processor = 3.35952 Mbytes
Step Temp PotEng Lx Ly Lz 
      44            0   -120.70786    1.0000002    34.800373    1.0000002 
      45            0   -120.70786    1.0000002    34.800373    1.0000002 
Loop time of 7.40761e-05 on 1 procs for 1 steps with 41 atoms

Minimization stats:
  Stopping criterion = linesearch alpha is zero
  Energy initial, next-to-last, final = 
          -120.7078602       -120.7078602       -120.7078602
  Force two-norm initial, final = 5.03274e-17 5.03274e-17
  Force max component initial, final = 4.06627e-17 4.06627e-17
  Final line search alpha, max atom move = 0.5 2.03313e-17
  Iterations, force evaluations = 1 2

Pair  time (%) = 2.31264e-05 (31.2197)
Neigh time (%) = 0 (0)
Comm  time (%) = 4.17931e-06 (5.64191)
Outpt time (%) = 0 (0)
Other time (%) = 4.67704e-05 (63.1383)

Nlocal:    41 ave 41 max 41 min
Histogram: 1 0 0 0 0 0 0 0 0 0
Nghost:    185 ave 185 max 185 min
Histogram: 1 0 0 0 0 0 0 0 0 0
Neighs:    359 ave 359 max 359 min
Histogram: 1 0 0 0 0 0 0 0 0 0

Total # of neighbors = 359
Ave neighs/atom = 8.7561
Neighbor list builds = 0
Dangerous builds = 0
	# write_dump all atom ${dumpfile}
        next i
jump SELF loop1
        displace_atoms upper move 0.0 ${ystep1} 0.0 units lattice
        displace_atoms upper move 0.0 0.002 0.0 units lattice
        min_style ${style}
        min_style cg
        minimize ${etol} ${ftol} ${maxiter} ${maxeval}
        minimize 1e-12 ${ftol} ${maxiter} ${maxeval}
        minimize 1e-12 1e-08 ${maxiter} ${maxeval}
        minimize 1e-12 1e-08 10000 ${maxeval}
[...]
Histogram: 1 0 0 0 0 0 0 0 0 0
Nghost:    185 ave 185 max 185 min
Histogram: 1 0 0 0 0 0 0 0 0 0
Neighs:    349 ave 349 max 349 min
Histogram: 1 0 0 0 0 0 0 0 0 0

Total # of neighbors = 349
Ave neighs/atom = 8.5122
Neighbor list builds = 0
Dangerous builds = 0
	# write_dump all atom ${dumpfile}
        next i
jump SELF loop1
        displace_atoms upper move 0.0 ${ystep1} 0.0 units lattice
        displace_atoms upper move 0.0 0.002 0.0 units lattice
        min_style ${style}
        min_style cg
        minimize ${etol} ${ftol} ${maxiter} ${maxeval}
        minimize 1e-12 ${ftol} ${maxiter} ${maxeval}
        minimize 1e-12 1e-08 ${maxiter} ${maxeval}
        minimize 1e-12 1e-08 10000 ${maxeval}
        minimize 1e-12 1e-08 10000 20000
WARNING: Resetting reneighboring criteria during minimization (../min.cpp:168)
Memory usage per processor = 3.35955 Mbytes
Step Temp PotEng Lx Ly Lz 
     490            0   -118.99996    1.0000002    36.345363    1.0000002 
     491            0   -118.99996    1.0000002    36.345363    1.0000002 
Loop time of 1.79945e-05 on 1 procs for 1 steps with 41 atoms

Minimization stats:
  Stopping criterion = search direction is not downhill
  Energy initial, next-to-last, final = 
        -118.999956633     -118.999956633     -118.999956633
  Force two-norm initial, final = 0 0
  Force max component initial, final = 0 0
  Final line search alpha, max atom move = 0.5 0
  Iterations, force evaluations = 1 0

Pair  time (%) = 7.89517e-06 (43.8753)
Neigh time (%) = 0 (0)
Comm  time (%) = 1.11456e-06 (6.19388)
Outpt time (%) = 0 (0)
Other time (%) = 8.98482e-06 (49.9308)

Nlocal:    41 ave 41 max 41 min
Histogram: 1 0 0 0 0 0 0 0 0 0
Nghost:    185 ave 185 max 185 min
Histogram: 1 0 0 0 0 0 0 0 0 0
Neighs:    349 ave 349 max 349 min
Histogram: 1 0 0 0 0 0 0 0 0 0

Total # of neighbors = 349
Ave neighs/atom = 8.5122
Neighbor list builds = 0
Dangerous builds = 0
	# write_dump all atom ${dumpfile}
        next i
jump SELF loop1
        displace_atoms upper move 0.0 ${ystep1} 0.0 units lattice
        displace_atoms upper move 0.0 0.002 0.0 units lattice
        min_style ${style}
        min_style cg
        minimize ${etol} ${ftol} ${maxiter} ${maxeval}
        minimize 1e-12 ${ftol} ${maxiter} ${maxeval}
        minimize 1e-12 1e-08 ${maxiter} ${maxeval}
        minimize 1e-12 1e-08 10000 ${maxeval}
        minimize 1e-12 1e-08 10000 20000
WARNING: Resetting reneighboring criteria during minimization (../min.cpp:168)
Memory usage per processor = 3.35955 Mbytes
Step Temp PotEng Lx Ly Lz 
     491            0   -118.99996    1.0000002    36.348827    1.0000002 
     492            0   -118.99996    1.0000002    36.348827    1.0000002 
Loop time of 1.69282e-05 on 1 procs for 1 steps with 41 atoms

Minimization stats:
  Stopping criterion = search direction is not downhill
  Energy initial, next-to-last, final = 
        -118.999956633     -118.999956633     -118.999956633
  Force two-norm initial, final = 0 0
  Force max component initial, final = 0 0
  Final line search alpha, max atom move = 0.5 0
  Iterations, force evaluations = 1 0

Pair  time (%) = 9.02079e-06 (53.2886)
Neigh time (%) = 0 (0)
Comm  time (%) = 9.35397e-07 (5.52568)
Outpt time (%) = 0 (0)
Other time (%) = 6.972e-06 (41.1857)

Nlocal:    41 ave 41 max 41 min
Histogram: 1 0 0 0 0 0 0 0 0 0
Nghost:    185 ave 185 max 185 min
Histogram: 1 0 0 0 0 0 0 0 0 0
Neighs:    349 ave 349 max 349 min
Histogram: 1 0 0 0 0 0 0 0 0 0

Total # of neighbors = 349
Ave neighs/atom = 8.5122
Neighbor list builds = 0
Dangerous builds = 0
	# write_dump all atom ${dumpfile}
        next i
jump SELF loop1
        displace_atoms upper move 0.0 ${ystep1} 0.0 units lattice
        displace_atoms upper move 0.0 0.002 0.0 units lattice
        min_style ${style}
        min_style cg
        minimize ${etol} ${ftol} ${maxiter} ${maxeval}
        minimize 1e-12 ${ftol} ${maxiter} ${maxeval}
        minimize 1e-12 1e-08 ${maxiter} ${maxeval}
        minimize 1e-12 1e-08 10000 ${maxeval}
        minimize 1e-12 1e-08 10000 20000
WARNING: Resetting reneighboring criteria during minimization (../min.cpp:168)
Memory usage per processor = 3.35955 Mbytes
Step Temp PotEng Lx Ly Lz 
     492            0   -118.99996    1.0000002    36.352291    1.0000002 
     493            0   -118.99996    1.0000002    36.352291    1.0000002 
Loop time of 1.04634e-06 on 1 procs for 1 steps with 41 atoms

Minimization stats:
  Stopping criterion = search direction is not downhill
  Energy initial, next-to-last, final = 
        -118.999956633     -118.999956633     -118.999956633
  Force two-norm initial, final = 0 0
  Force max component initial, final = 0 0
  Final line search alpha, max atom move = 0.5 0
  Iterations, force evaluations = 1 0

Pair  time (%) = 4.63333e-08 (4.42813)
Neigh time (%) = 0 (0)
Comm  time (%) = 1.09267e-06 (104.428)
Outpt time (%) = 0 (0)
Other time (%) = -9.26666e-08 (-8.85625)

Nlocal:    41 ave 41 max 41 min
Histogram: 1 0 0 0 0 0 0 0 0 0
Nghost:    185 ave 185 max 185 min
Histogram: 1 0 0 0 0 0 0 0 0 0
Neighs:    349 ave 349 max 349 min
Histogram: 1 0 0 0 0 0 0 0 0 0

Total # of neighbors = 349
Ave neighs/atom = 8.5122
Neighbor list builds = 0
Dangerous builds = 0
	# write_dump all atom ${dumpfile}
        next i
jump SELF loop1
        displace_atoms upper move 0.0 ${ystep1} 0.0 units lattice
        displace_atoms upper move 0.0 0.002 0.0 units lattice
        min_style ${style}
        min_style cg
        minimize ${etol} ${ftol} ${maxiter} ${maxeval}
        minimize 1e-12 ${ftol} ${maxiter} ${maxeval}
        minimize 1e-12 1e-08 ${maxiter} ${maxeval}
        minimize 1e-12 1e-08 10000 ${maxeval}
        minimize 1e-12 1e-08 10000 20000
WARNING: Resetting reneighboring criteria during minimization (../min.cpp:168)
Memory usage per processor = 3.35955 Mbytes
Step Temp PotEng Lx Ly Lz 
     493            0   -118.99996    1.0000002    36.355755    1.0000002 
     494            0   -118.99996    1.0000002    36.355755    1.0000002 
Loop time of 1.71114e-05 on 1 procs for 1 steps with 41 atoms

Minimization stats:
  Stopping criterion = search direction is not downhill
  Energy initial, next-to-last, final = 
        -118.999956633     -118.999956633     -118.999956633
  Force two-norm initial, final = 0 0
  Force max component initial, final = 0 0
  Final line search alpha, max atom move = 0.5 0
  Iterations, force evaluations = 1 0

Pair  time (%) = 8.01194e-06 (46.8221)
Neigh time (%) = 0 (0)
Comm  time (%) = 8.71369e-07 (5.09232)
Outpt time (%) = 0 (0)
Other time (%) = 8.22812e-06 (48.0855)

Nlocal:    41 ave 41 max 41 min
Histogram: 1 0 0 0 0 0 0 0 0 0
Nghost:    185 ave 185 max 185 min
Histogram: 1 0 0 0 0 0 0 0 0 0
Neighs:    349 ave 349 max 349 min
Histogram: 1 0 0 0 0 0 0 0 0 0

Total # of neighbors = 349
Ave neighs/atom = 8.5122
Neighbor list builds = 0
Dangerous builds = 0
	# write_dump all atom ${dumpfile}
        next i
jump SELF loop1
        displace_atoms upper move 0.0 ${ystep1} 0.0 units lattice
        displace_atoms upper move 0.0 0.002 0.0 units lattice
        min_style ${style}
        min_style cg
        minimize ${etol} ${ftol} ${maxiter} ${maxeval}
        minimize 1e-12 ${ftol} ${maxiter} ${maxeval}
        minimize 1e-12 1e-08 ${maxiter} ${maxeval}
        minimize 1e-12 1e-08 10000 ${maxeval}
        minimize 1e-12 1e-08 10000 20000
WARNING: Resetting reneighboring criteria during minimization (../min.cpp:168)
Memory usage per processor = 3.35955 Mbytes
Step Temp PotEng Lx Ly Lz 
     494            0   -118.99996    1.0000002    36.359219    1.0000002 
     495            0   -118.99996    1.0000002    36.359219    1.0000002 
Loop time of 1.69153e-05 on 1 procs for 1 steps with 41 atoms

Minimization stats:
  Stopping criterion = search direction is not downhill
  Energy initial, next-to-last, final = 
        -118.999956633     -118.999956633     -118.999956633
  Force two-norm initial, final = 0 0
  Force max component initial, final = 0 0
  Final line search alpha, max atom move = 0.5 0
  Iterations, force evaluations = 1 0

Pair  time (%) = 8.05419e-06 (47.615)
Neigh time (%) = 0 (0)
Comm  time (%) = 9.55886e-07 (5.65103)
Outpt time (%) = 0 (0)
Other time (%) = 7.90518e-06 (46.734)

Nlocal:    41 ave 41 max 41 min
Histogram: 1 0 0 0 0 0 0 0 0 0
Nghost:    185 ave 185 max 185 min
Histogram: 1 0 0 0 0 0 0 0 0 0
Neighs:    349 ave 349 max 349 min
Histogram: 1 0 0 0 0 0 0 0 0 0

Total # of neighbors = 349
Ave neighs/atom = 8.5122
Neighbor list builds = 0
Dangerous builds = 0
	# write_dump all atom ${dumpfile}
        next i
jump SELF loop1
        displace_atoms upper move 0.0 ${ystep1} 0.0 units lattice
        displace_atoms upper move 0.0 0.002 0.0 units lattice
        min_style ${style}
        min_style cg
        minimize ${etol} ${ftol} ${maxiter} ${maxeval}
        minimize 1e-12 ${ftol} ${maxiter} ${maxeval}
        minimize 1e-12 1e-08 ${maxiter} ${maxeval}
        minimize 1e-12 1e-08 10000 ${maxeval}
        minimize 1e-12 1e-08 10000 20000
WARNING: Resetting reneighboring criteria during minimization (../min.cpp:168)
Memory usage per processor = 3.35955 Mbytes
Step Temp PotEng Lx Ly Lz 
     495            0   -118.99996    1.0000002    36.362683    1.0000002 
     496            0   -118.99996    1.0000002    36.362683    1.0000002 
Loop time of 1.71033e-05 on 1 procs for 1 steps with 41 atoms

Minimization stats:
  Stopping criterion = search direction is not downhill
  Energy initial, next-to-last, final = 
        -118.999956633     -118.999956633     -118.999956633
  Force two-norm initial, final = 0 0
  Force max component initial, final = 0 0
  Final line search alpha, max atom move = 0.5 0
  Iterations, force evaluations = 1 0

Pair  time (%) = 8.95758e-06 (52.3735)
Neigh time (%) = 0 (0)
Comm  time (%) = 8.08854e-07 (4.72923)
Outpt time (%) = 0 (0)
Other time (%) = 7.33684e-06 (42.8973)

Nlocal:    41 ave 41 max 41 min
Histogram: 1 0 0 0 0 0 0 0 0 0
Nghost:    185 ave 185 max 185 min
Histogram: 1 0 0 0 0 0 0 0 0 0
Neighs:    349 ave 349 max 349 min
Histogram: 1 0 0 0 0 0 0 0 0 0

Total # of neighbors = 349
Ave neighs/atom = 8.5122
Neighbor list builds = 0
Dangerous builds = 0
	# write_dump all atom ${dumpfile}
        next i
jump SELF loop1
        displace_atoms upper move 0.0 ${ystep1} 0.0 units lattice
        displace_atoms upper move 0.0 0.002 0.0 units lattice
        min_style ${style}
        min_style cg
        minimize ${etol} ${ftol} ${maxiter} ${maxeval}
        minimize 1e-12 ${ftol} ${maxiter} ${maxeval}
        minimize 1e-12 1e-08 ${maxiter} ${maxeval}
        minimize 1e-12 1e-08 10000 ${maxeval}
        minimize 1e-12 1e-08 10000 20000
WARNING: Resetting reneighboring criteria during minimization (../min.cpp:168)
Memory usage per processor = 3.35955 Mbytes
Step Temp PotEng Lx Ly Lz 
     496            0   -118.99996    1.0000002    36.366147    1.0000002 
     497            0   -118.99996    1.0000002    36.366147    1.0000002 
Loop time of 1.70709e-05 on 1 procs for 1 steps with 41 atoms

Minimization stats:
  Stopping criterion = search direction is not downhill
  Energy initial, next-to-last, final = 
        -118.999956633     -118.999956633     -118.999956633
  Force two-norm initial, final = 0 0
  Force max component initial, final = 0 0
  Final line search alpha, max atom move = 0.5 0
  Iterations, force evaluations = 1 0

Pair  time (%) = 7.97142e-06 (46.6959)
Neigh time (%) = 0 (0)
Comm  time (%) = 1.02876e-06 (6.02641)
Outpt time (%) = 0 (0)
Other time (%) = 8.07073e-06 (47.2776)

Nlocal:    41 ave 41 max 41 min
Histogram: 1 0 0 0 0 0 0 0 0 0
Nghost:    185 ave 185 max 185 min
Histogram: 1 0 0 0 0 0 0 0 0 0
Neighs:    349 ave 349 max 349 min
Histogram: 1 0 0 0 0 0 0 0 0 0

Total # of neighbors = 349
Ave neighs/atom = 8.5122
Neighbor list builds = 0
Dangerous builds = 0
	# write_dump all atom ${dumpfile}
        next i
jump SELF loop1
        displace_atoms upper move 0.0 ${ystep1} 0.0 units lattice
        displace_atoms upper move 0.0 0.002 0.0 units lattice
        min_style ${style}
        min_style cg
        minimize ${etol} ${ftol} ${maxiter} ${maxeval}
        minimize 1e-12 ${ftol} ${maxiter} ${maxeval}
        minimize 1e-12 1e-08 ${maxiter} ${maxeval}
        minimize 1e-12 1e-08 10000 ${maxeval}
        minimize 1e-12 1e-08 10000 20000
WARNING: Resetting reneighboring criteria during minimization (../min.cpp:168)
Memory usage per processor = 3.35955 Mbytes
Step Temp PotEng Lx Ly Lz 
     497            0   -118.99996    1.0000002    36.369611    1.0000002 
     498            0   -118.99996    1.0000002    36.369611    1.0000002 
Loop time of 1.69742e-05 on 1 procs for 1 steps with 41 atoms

Minimization stats:
  Stopping criterion = search direction is not downhill
  Energy initial, next-to-last, final = 
        -118.999956633     -118.999956633     -118.999956633
  Force two-norm initial, final = 0 0
  Force max component initial, final = 0 0
  Final line search alpha, max atom move = 0.5 0
  Iterations, force evaluations = 1 0

Pair  time (%) = 9.06677e-06 (53.4151)
Neigh time (%) = 0 (0)
Comm  time (%) = 1.02737e-06 (6.05252)
Outpt time (%) = 0 (0)
Other time (%) = 6.88003e-06 (40.5323)

Nlocal:    41 ave 41 max 41 min
Histogram: 1 0 0 0 0 0 0 0 0 0
Nghost:    185 ave 185 max 185 min
Histogram: 1 0 0 0 0 0 0 0 0 0
Neighs:    349 ave 349 max 349 min
Histogram: 1 0 0 0 0 0 0 0 0 0

Total # of neighbors = 349
Ave neighs/atom = 8.5122
Neighbor list builds = 0
Dangerous builds = 0
	# write_dump all atom ${dumpfile}
        next i
jump SELF loop1
        displace_atoms upper move 0.0 ${ystep1} 0.0 units lattice
        displace_atoms upper move 0.0 0.002 0.0 units lattice
        min_style ${style}
        min_style cg
        minimize ${etol} ${ftol} ${maxiter} ${maxeval}
        minimize 1e-12 ${ftol} ${maxiter} ${maxeval}
        minimize 1e-12 1e-08 ${maxiter} ${maxeval}
        minimize 1e-12 1e-08 10000 ${maxeval}
        minimize 1e-12 1e-08 10000 20000
WARNING: Resetting reneighboring criteria during minimization (../min.cpp:168)
Memory usage per processor = 3.35955 Mbytes
Step Temp PotEng Lx Ly Lz 
     498            0   -118.99996    1.0000002    36.373075    1.0000002 
     499            0   -118.99996    1.0000002    36.373075    1.0000002 
Loop time of 3.31084e-05 on 1 procs for 1 steps with 41 atoms

Minimization stats:
  Stopping criterion = search direction is not downhill
  Energy initial, next-to-last, final = 
        -118.999956633     -118.999956633     -118.999956633
  Force two-norm initial, final = 0 0
  Force max component initial, final = 0 0
  Final line search alpha, max atom move = 0.5 0
  Iterations, force evaluations = 1 0

Pair  time (%) = 2.20552e-05 (66.6152)
Neigh time (%) = 0 (0)
Comm  time (%) = 8.44942e-07 (2.55205)
Outpt time (%) = 0 (0)
Other time (%) = 1.02082e-05 (30.8327)

Nlocal:    41 ave 41 max 41 min
Histogram: 1 0 0 0 0 0 0 0 0 0
Nghost:    185 ave 185 max 185 min
Histogram: 1 0 0 0 0 0 0 0 0 0
Neighs:    349 ave 349 max 349 min
Histogram: 1 0 0 0 0 0 0 0 0 0

Total # of neighbors = 349
Ave neighs/atom = 8.5122
Neighbor list builds = 0
Dangerous builds = 0
	# write_dump all atom ${dumpfile}
        next i
jump SELF loop1
        displace_atoms upper move 0.0 ${ystep1} 0.0 units lattice
        displace_atoms upper move 0.0 0.002 0.0 units lattice
        min_style ${style}
        min_style cg
        minimize ${etol} ${ftol} ${maxiter} ${maxeval}
        minimize 1e-12 ${ftol} ${maxiter} ${maxeval}
        minimize 1e-12 1e-08 ${maxiter} ${maxeval}
        minimize 1e-12 1e-08 10000 ${maxeval}
        minimize 1e-12 1e-08 10000 20000
WARNING: Resetting reneighboring criteria during minimization (../min.cpp:168)
Memory usage per processor = 3.35955 Mbytes
Step Temp PotEng Lx Ly Lz 
     499            0   -118.99996    1.0000002     36.37654    1.0000002 
     500            0   -118.99996    1.0000002     36.37654    1.0000002 
Loop time of 1.80376e-05 on 1 procs for 1 steps with 41 atoms

Minimization stats:
  Stopping criterion = search direction is not downhill
  Energy initial, next-to-last, final = 
        -118.999956633     -118.999956633     -118.999956633
  Force two-norm initial, final = 0 0
  Force max component initial, final = 0 0
  Final line search alpha, max atom move = 0.5 0
  Iterations, force evaluations = 1 0

Pair  time (%) = 8.93825e-06 (49.5534)
Neigh time (%) = 0 (0)
Comm  time (%) = 1.00862e-06 (5.59177)
Outpt time (%) = 0 (0)
Other time (%) = 8.09075e-06 (44.8548)

Nlocal:    41 ave 41 max 41 min
Histogram: 1 0 0 0 0 0 0 0 0 0
Nghost:    185 ave 185 max 185 min
Histogram: 1 0 0 0 0 0 0 0 0 0
Neighs:    349 ave 349 max 349 min
Histogram: 1 0 0 0 0 0 0 0 0 0

Total # of neighbors = 349
Ave neighs/atom = 8.5122
Neighbor list builds = 0
Dangerous builds = 0
	# write_dump all atom ${dumpfile}
        next i
jump SELF loop1
        displace_atoms upper move 0.0 ${ystep1} 0.0 units lattice
        displace_atoms upper move 0.0 0.002 0.0 units lattice
        min_style ${style}
        min_style cg
        minimize ${etol} ${ftol} ${maxiter} ${maxeval}
        minimize 1e-12 ${ftol} ${maxiter} ${maxeval}
        minimize 1e-12 1e-08 ${maxiter} ${maxeval}
        minimize 1e-12 1e-08 10000 ${maxeval}
        minimize 1e-12 1e-08 10000 20000
WARNING: Resetting reneighboring criteria during minimization (../min.cpp:168)
Memory usage per processor = 3.35955 Mbytes
Step Temp PotEng Lx Ly Lz 
     500            0   -118.99996    1.0000002    36.380004    1.0000002 
     501            0   -118.99996    1.0000002    36.380004    1.0000002 
Loop time of 1.81127e-05 on 1 procs for 1 steps with 41 atoms

Minimization stats:
  Stopping criterion = search direction is not downhill
  Energy initial, next-to-last, final = 
        -118.999956633     -118.999956633     -118.999956633
  Force two-norm initial, final = 0 0
  Force max component initial, final = 0 0
  Final line search alpha, max atom move = 0.5 0
  Iterations, force evaluations = 1 0

Pair  time (%) = 8.01322e-06 (44.2408)
Neigh time (%) = 0 (0)
Comm  time (%) = 1.87394e-06 (10.346)
Outpt time (%) = 0 (0)
Other time (%) = 8.22556e-06 (45.4132)

Nlocal:    41 ave 41 max 41 min
Histogram: 1 0 0 0 0 0 0 0 0 0
Nghost:    185 ave 185 max 185 min
Histogram: 1 0 0 0 0 0 0 0 0 0
Neighs:    349 ave 349 max 349 min
Histogram: 1 0 0 0 0 0 0 0 0 0

Total # of neighbors = 349
Ave neighs/atom = 8.5122
Neighbor list builds = 0
Dangerous builds = 0
	# write_dump all atom ${dumpfile}
        next i
jump SELF loop1

unfix 2
min_style ${style}
min_style cg
minimize ${etol} ${ftol} ${maxiter} ${maxeval}
minimize 1e-12 ${ftol} ${maxiter} ${maxeval}
minimize 1e-12 1e-08 ${maxiter} ${maxeval}
minimize 1e-12 1e-08 10000 ${maxeval}
minimize 1e-12 1e-08 10000 20000
WARNING: Resetting reneighboring criteria during minimization (../min.cpp:168)
Memory usage per processor = 3.35955 Mbytes
Step Temp PotEng Lx Ly Lz 
     501            0   -118.99996    1.0000002    36.380004    1.0000002 
     502            0   -118.99996    1.0000002    36.380004    1.0000002 
Loop time of 3.80814e-05 on 1 procs for 1 steps with 41 atoms

Minimization stats:
  Stopping criterion = linesearch alpha is zero
  Energy initial, next-to-last, final = 
        -118.999956633     -118.999956633     -118.999956633
  Force two-norm initial, final = 6.11446e-06 6.11446e-06
  Force max component initial, final = 3.05723e-06 3.05723e-06
  Final line search alpha, max atom move = 0.5 1.52862e-06
  Iterations, force evaluations = 1 2

Pair  time (%) = 2.40442e-05 (63.1389)
Neigh time (%) = 0 (0)
Comm  time (%) = 2.63075e-06 (6.90823)
Outpt time (%) = 0 (0)
Other time (%) = 1.14065e-05 (29.9529)

Nlocal:    41 ave 41 max 41 min
Histogram: 1 0 0 0 0 0 0 0 0 0
Nghost:    185 ave 185 max 185 min
Histogram: 1 0 0 0 0 0 0 0 0 0
Neighs:    349 ave 349 max 349 min
Histogram: 1 0 0 0 0 0 0 0 0 0

Total # of neighbors = 349
Ave neighs/atom = 8.5122
Neighbor list builds = 0
Dangerous builds = 0

