LAMMPS (28 Jun 2014)
# attempt at getting surface energy

#file prefix
variable prefix string surf_V_inter13_3d
variable dumpfile string ${prefix}.*.dump
variable dumpfile string surf_V_inter13_3d.*.dump
variable restartfile string ${prefix}.*.equil
variable restartfile string surf_V_inter13_3d.*.equil

#Mass (g/mol)
variable m equal 1.0

# lattice constant (in Angstroms) and orientation of axes (given by lattice vectors)
variable rho equal 1.414
variable x1 equal 1
variable x2 equal 1
variable x3 equal -2
variable y1 equal 1
variable y2 equal 1
variable y3 equal 1
variable z1 equal 1
variable z2 equal -1
variable z3 equal 0
# length of lattice in different directions (using orientation of lattice vectors)
variable ax equal sqrt(${x1}*${x1}+${x2}*${x2}+${x3}*${x3})
variable ax equal sqrt(1*${x1}+${x2}*${x2}+${x3}*${x3})
variable ax equal sqrt(1*1+${x2}*${x2}+${x3}*${x3})
variable ax equal sqrt(1*1+1*${x2}+${x3}*${x3})
variable ax equal sqrt(1*1+1*1+${x3}*${x3})
variable ax equal sqrt(1*1+1*1+-2*${x3})
variable ax equal sqrt(1*1+1*1+-2*-2)
variable ay equal sqrt(${y1}*${y1}+${y2}*${y2}+${y3}*${y3})
variable ay equal sqrt(1*${y1}+${y2}*${y2}+${y3}*${y3})
variable ay equal sqrt(1*1+${y2}*${y2}+${y3}*${y3})
variable ay equal sqrt(1*1+1*${y2}+${y3}*${y3})
variable ay equal sqrt(1*1+1*1+${y3}*${y3})
variable ay equal sqrt(1*1+1*1+1*${y3})
variable ay equal sqrt(1*1+1*1+1*1)
variable az equal sqrt(${z1}*${z1}+${z2}*${z2}+${z3}*${z3})
variable az equal sqrt(1*${z1}+${z2}*${z2}+${z3}*${z3})
variable az equal sqrt(1*1+${z2}*${z2}+${z3}*${z3})
variable az equal sqrt(1*1+-1*${z2}+${z3}*${z3})
variable az equal sqrt(1*1+-1*-1+${z3}*${z3})
variable az equal sqrt(1*1+-1*-1+0*${z3})
variable az equal sqrt(1*1+-1*-1+0*0)

# size of box in lattice units
variable lxpos equal 2
variable lxneg equal 0
variable lypos equal 15
variable lyneg equal -1*${lypos}
variable lyneg equal -1*15
variable lzpos equal 2
variable lzneg equal 0

# boundary conditions
dimension	3
boundary	p s p
atom_style	atomic

# Define minimization parameters and damping
variable etol equal 1.0e-12
variable ftol equal 1.0e-8
variable maxiter equal 10000
variable maxeval equal 20000
variable style string hftn

# create geometry
units		lj
lattice         fcc ${rho} orient x 1 1 -2 orient y 1 1 1 orient z 1 -1 0 spacing ${ax} ${ay} ${az}
lattice         fcc 1.414 orient x 1 1 -2 orient y 1 1 1 orient z 1 -1 0 spacing ${ax} ${ay} ${az}
lattice         fcc 1.414 orient x 1 1 -2 orient y 1 1 1 orient z 1 -1 0 spacing 2.44948974278318 ${ay} ${az}
lattice         fcc 1.414 orient x 1 1 -2 orient y 1 1 1 orient z 1 -1 0 spacing 2.44948974278318 1.73205080756888 ${az}
lattice         fcc 1.414 orient x 1 1 -2 orient y 1 1 1 orient z 1 -1 0 spacing 2.44948974278318 1.73205080756888 1.4142135623731
Lattice spacing in x,y,z = 3.46428 2.44961 2.0001
region		myregion block ${lxneg} ${lxpos} ${lyneg} ${lypos} ${lzneg} ${lzpos} units lattice
region		myregion block 0 ${lxpos} ${lyneg} ${lypos} ${lzneg} ${lzpos} units lattice
region		myregion block 0 2 ${lyneg} ${lypos} ${lzneg} ${lzpos} units lattice
region		myregion block 0 2 -15 ${lypos} ${lzneg} ${lzpos} units lattice
region		myregion block 0 2 -15 15 ${lzneg} ${lzpos} units lattice
region		myregion block 0 2 -15 15 0 ${lzpos} units lattice
region		myregion block 0 2 -15 15 0 2 units lattice
create_box	1 myregion
Created orthogonal box = (0 -36.7442 0) to (6.92855 36.7442 4.0002)
  1 by 1 by 1 MPI processor grid
create_atoms	1 box
Created 2912 atoms
write_dump all atom init.dump

# define masses
mass * $m
mass * 1

# my fake/morse potential
pair_style      table linear 3001
pair_coeff      * * vpotential_inter13dnorm dummy
neighbor	0.3 bin
neigh_modify	delay 5

# define groups. Nudge to separate planes cleanly
region	    upper block INF INF 0.01 ${lypos} INF INF units lattice
region	    upper block INF INF 0.01 15 INF INF units lattice
group		upper region upper
1440 atoms in group upper

# Setup output
thermo 1
thermo_style custom step temp pe lx ly lz
thermo_modify norm no

# Compute initial state by relaxing box
fix 3 all box/relax x 0.0
min_style ${style}
min_style hftn
minimize ${etol} ${ftol} ${maxiter} ${maxeval}
minimize 1e-12 ${ftol} ${maxiter} ${maxeval}
minimize 1e-12 1e-08 ${maxiter} ${maxeval}
minimize 1e-12 1e-08 10000 ${maxeval}
minimize 1e-12 1e-08 10000 20000
WARNING: Resetting reneighboring criteria during minimization (../min.cpp:168)
Memory usage per processor = 5.2861 Mbytes
Step Temp PotEng Lx Ly Lz 
       0            0    -17375.99     6.928552    73.503089    4.0002014 
       1            0    -17375.99     6.928552    73.503089    4.0002014 
       2            0    -17375.99     6.928552    73.503089    4.0002014 
       3            0    -17375.99     6.928552    73.503089    4.0002014 
       4            0    -17375.99     6.928552    73.503089    4.0002014 
       5            0    -17375.99     6.928552    73.503089    4.0002014 
       6            0    -17375.99     6.928552    73.503089    4.0002014 
       7            0    -17375.99     6.928552    73.503089    4.0002014 
       8            0    -17375.99     6.928552    73.503089    4.0002014 
       9            0    -17375.99     6.928552    73.503089    4.0002014 
      10            0    -17375.99     6.928552    73.503089    4.0002014 
      11            0    -17375.99     6.928552    73.503089    4.0002014 
      12            0    -17375.99     6.928552    73.503089    4.0002014 
      13            0    -17375.99     6.928552    73.503089    4.0002014 
      14            0    -17375.99     6.928552    73.503089    4.0002014 
      15            0    -17375.99     6.928552    73.503089    4.0002014 
      16            0    -17375.99     6.928552    73.503089    4.0002014 
Loop time of 3.44856 on 1 procs for 15 steps with 2912 atoms

Minimization stats:
  Stopping criterion = trust region too small
  Energy initial, next-to-last, final = 
        -17375.9899537     -17375.9899537     -17375.9899537
  Force two-norm initial, final = 31.0474 31.0474
  Force max component initial, final = 31.0472 31.0472
  Final line search alpha, max atom move = 0 0
  Iterations, force evaluations = 15 94

Pair  time (%) = 3.38423 (98.1348)
Neigh time (%) = 0 (0)
Comm  time (%) = 0.0455926 (1.32208)
Outpt time (%) = 0.00143944 (0.0417404)
Other time (%) = 0.0172889 (0.501339)

Nlocal:    2912 ave 2912 max 2912 min
Histogram: 1 0 0 0 0 0 0 0 0 0
Nghost:    7129 ave 7129 max 7129 min
Histogram: 1 0 0 0 0 0 0 0 0 0
Neighs:    112224 ave 112224 max 112224 min
Histogram: 1 0 0 0 0 0 0 0 0 0

Total # of neighbors = 112224
Ave neighs/atom = 38.5385
Neighbor list builds = 0
Dangerous builds = 0
unfix 3

# don't allow atoms to relax in y-direction
fix 2 all setforce NULL 0.0 NULL

# GSF energy curve will have 100*2 steps
variable nsteps equal 300
variable sstep1 equal 1.5
variable ystep1 equal ${sstep1}/(${ay}*${nsteps})
variable ystep1 equal 1.5/(${ay}*${nsteps})
variable ystep1 equal 1.5/(1.73205080756888*${nsteps})
variable ystep1 equal 1.5/(1.73205080756888*300)

variable i loop ${nsteps}
variable i loop 300
label loop1
        displace_atoms upper move 0.0 ${ystep1} 0.0 units lattice
        displace_atoms upper move 0.0 0.00288675134594812 0.0 units lattice
        min_style ${style}
        min_style hftn
        minimize ${etol} ${ftol} ${maxiter} ${maxeval}
        minimize 1e-12 ${ftol} ${maxiter} ${maxeval}
        minimize 1e-12 1e-08 ${maxiter} ${maxeval}
        minimize 1e-12 1e-08 10000 ${maxeval}
        minimize 1e-12 1e-08 10000 20000
WARNING: Resetting reneighboring criteria during minimization (../min.cpp:168)
Memory usage per processor = 5.2861 Mbytes
Step Temp PotEng Lx Ly Lz 
      16            0   -17375.823     6.928552    73.510161    4.0002014 
Loop time of 0.0407499 on 1 procs for 0 steps with 2912 atoms

Minimization stats:
  Stopping criterion = force tolerance
  Energy initial, next-to-last, final = 
        -17375.8229928     -17375.8229928     -17375.8229928
  Force two-norm initial, final = 9.88556e-11 9.88556e-11
  Force max component initial, final = 3.19188e-12 3.19188e-12
  Final line search alpha, max atom move = 0 0
  Iterations, force evaluations = 0 0

Pair  time (%) = 0.0401499 (98.5276)
Neigh time (%) = 0 (0)
Comm  time (%) = 0.000536939 (1.31764)
Outpt time (%) = 0 (0)
Other time (%) = 6.30626e-05 (0.154755)

Nlocal:    2912 ave 2912 max 2912 min
Histogram: 1 0 0 0 0 0 0 0 0 0
Nghost:    7129 ave 7129 max 7129 min
Histogram: 1 0 0 0 0 0 0 0 0 0
Neighs:    112224 ave 112224 max 112224 min
Histogram: 1 0 0 0 0 0 0 0 0 0

Total # of neighbors = 112224
Ave neighs/atom = 38.5385
Neighbor list builds = 0
Dangerous builds = 0
	# write_dump all atom ${dumpfile}
        next i
jump SELF loop1
        displace_atoms upper move 0.0 ${ystep1} 0.0 units lattice
        displace_atoms upper move 0.0 0.00288675134594812 0.0 units lattice
        min_style ${style}
        min_style hftn
        minimize ${etol} ${ftol} ${maxiter} ${maxeval}
        minimize 1e-12 ${ftol} ${maxiter} ${maxeval}
        minimize 1e-12 1e-08 ${maxiter} ${maxeval}
        minimize 1e-12 1e-08 10000 ${maxeval}
        minimize 1e-12 1e-08 10000 20000
WARNING: Resetting reneighboring criteria during minimization (../min.cpp:168)
Memory usage per processor = 5.2861 Mbytes
Step Temp PotEng Lx Ly Lz 
      16            0   -17375.354     6.928552    73.517232    4.0002014 
Loop time of 0.042889 on 1 procs for 0 steps with 2912 atoms

Minimization stats:
  Stopping criterion = force tolerance
  Energy initial, next-to-last, final = 
        -17375.3541499     -17375.3541499     -17375.3541499
  Force two-norm initial, final = 9.88337e-11 9.88337e-11
  Force max component initial, final = 3.19188e-12 3.19188e-12
  Final line search alpha, max atom move = 0 0
  Iterations, force evaluations = 0 0

Pair  time (%) = 0.042268 (98.5521)
Neigh time (%) = 0 (0)
Comm  time (%) = 0.000580074 (1.3525)
Outpt time (%) = 0 (0)
Other time (%) = 4.09276e-05 (0.0954267)

Nlocal:    2912 ave 2912 max 2912 min
Histogram: 1 0 0 0 0 0 0 0 0 0
Nghost:    7129 ave 7129 max 7129 min
Histogram: 1 0 0 0 0 0 0 0 0 0
Neighs:    112224 ave 112224 max 112224 min
Histogram: 1 0 0 0 0 0 0 0 0 0

Total # of neighbors = 112224
Ave neighs/atom = 38.5385
Neighbor list builds = 0
Dangerous builds = 0
	# write_dump all atom ${dumpfile}
        next i
jump SELF loop1
        displace_atoms upper move 0.0 ${ystep1} 0.0 units lattice
        displace_atoms upper move 0.0 0.00288675134594812 0.0 units lattice
        min_style ${style}
        min_style hftn
        minimize ${etol} ${ftol} ${maxiter} ${maxeval}
        minimize 1e-12 ${ftol} ${maxiter} ${maxeval}
        minimize 1e-12 1e-08 ${maxiter} ${maxeval}
        minimize 1e-12 1e-08 10000 ${maxeval}
        minimize 1e-12 1e-08 10000 20000
WARNING: Resetting reneighboring criteria during minimization (../min.cpp:168)
Memory usage per processor = 5.2861 Mbytes
Step Temp PotEng Lx Ly Lz 
      16            0   -17374.618     6.928552    73.524304    4.0002014 
Loop time of 0.0411 on 1 procs for 0 steps with 2912 atoms

Minimization stats:
  Stopping criterion = force tolerance
  Energy initial, next-to-last, final = 
        -17374.6184459     -17374.6184459     -17374.6184459
  Force two-norm initial, final = 9.88145e-11 9.88145e-11
  Force max component initial, final = 3.19188e-12 3.19188e-12
  Final line search alpha, max atom move = 0 0
  Iterations, force evaluations = 0 0

Pair  time (%) = 0.040438 (98.3893)
Neigh time (%) = 0 (0)
Comm  time (%) = 0.000603139 (1.46749)
Outpt time (%) = 0 (0)
Other time (%) = 5.88772e-05 (0.143253)

Nlocal:    2912 ave 2912 max 2912 min
Histogram: 1 0 0 0 0 0 0 0 0 0
Nghost:    7129 ave 7129 max 7129 min
Histogram: 1 0 0 0 0 0 0 0 0 0
Neighs:    112224 ave 112224 max 112224 min
Histogram: 1 0 0 0 0 0 0 0 0 0

Total # of neighbors = 112224
Ave neighs/atom = 38.5385
Neighbor list builds = 0
Dangerous builds = 0
	# write_dump all atom ${dumpfile}
        next i
jump SELF loop1
        displace_atoms upper move 0.0 ${ystep1} 0.0 units lattice
        displace_atoms upper move 0.0 0.00288675134594812 0.0 units lattice
        min_style ${style}
        min_style hftn
        minimize ${etol} ${ftol} ${maxiter} ${maxeval}
        minimize 1e-12 ${ftol} ${maxiter} ${maxeval}
        minimize 1e-12 1e-08 ${maxiter} ${maxeval}
        minimize 1e-12 1e-08 10000 ${maxeval}
        minimize 1e-12 1e-08 10000 20000
WARNING: Resetting reneighboring criteria during minimization (../min.cpp:168)
Memory usage per processor = 5.2861 Mbytes
Step Temp PotEng Lx Ly Lz 
      16            0   -17373.648     6.928552    73.531375    4.0002014 
Loop time of 0.0389059 on 1 procs for 0 steps with 2912 atoms

Minimization stats:
  Stopping criterion = force tolerance
  Energy initial, next-to-last, final = 
        -17373.6480082     -17373.6480082     -17373.6480082
  Force two-norm initial, final = 9.87975e-11 9.87975e-11
  Force max component initial, final = 3.19188e-12 3.19188e-12
  Final line search alpha, max atom move = 0 0
  Iterations, force evaluations = 0 0

Pair  time (%) = 0.0377451 (97.0163)
Neigh time (%) = 0 (0)
Comm  time (%) = 0.0011241 (2.88927)
Outpt time (%) = 0 (0)
Other time (%) = 3.67183e-05 (0.0943773)

Nlocal:    2912 ave 2912 max 2912 min
Histogram: 1 0 0 0 0 0 0 0 0 0
Nghost:    7129 ave 7129 max 7129 min
Histogram: 1 0 0 0 0 0 0 0 0 0
Neighs:    112224 ave 112224 max 112224 min
Histogram: 1 0 0 0 0 0 0 0 0 0

Total # of neighbors = 112224
Ave neighs/atom = 38.5385
Neighbor list builds = 0
Dangerous builds = 0
	# write_dump all atom ${dumpfile}
        next i
jump SELF loop1
        displace_atoms upper move 0.0 ${ystep1} 0.0 units lattice
        displace_atoms upper move 0.0 0.00288675134594812 0.0 units lattice
        min_style ${style}
        min_style hftn
        minimize ${etol} ${ftol} ${maxiter} ${maxeval}
        minimize 1e-12 ${ftol} ${maxiter} ${maxeval}
        minimize 1e-12 1e-08 ${maxiter} ${maxeval}
        minimize 1e-12 1e-08 10000 ${maxeval}
        minimize 1e-12 1e-08 10000 20000
WARNING: Resetting reneighboring criteria during minimization (../min.cpp:168)
Memory usage per processor = 5.2861 Mbytes
Step Temp PotEng Lx Ly Lz 
      16            0   -17372.472     6.928552    73.538446    4.0002014 
Loop time of 0.0378959 on 1 procs for 0 steps with 2912 atoms

Minimization stats:
  Stopping criterion = force tolerance
  Energy initial, next-to-last, final = 
        -17372.4723047     -17372.4723047     -17372.4723047
  Force two-norm initial, final = 9.8783e-11 9.8783e-11
  Force max component initial, final = 3.19188e-12 3.19188e-12
  Final line search alpha, max atom move = 0 0
  Iterations, force evaluations = 0 0

Pair  time (%) = 0.0366091 (96.6044)
Neigh time (%) = 0 (0)
Comm  time (%) = 0.000541855 (1.42985)
Outpt time (%) = 0 (0)
Other time (%) = 0.000744948 (1.96577)

Nlocal:    2912 ave 2912 max 2912 min
Histogram: 1 0 0 0 0 0 0 0 0 0
Nghost:    7129 ave 7129 max 7129 min
Histogram: 1 0 0 0 0 0 0 0 0 0
Neighs:    112224 ave 112224 max 112224 min
Histogram: 1 0 0 0 0 0 0 0 0 0

Total # of neighbors = 112224
Ave neighs/atom = 38.5385
Neighbor list builds = 0
Dangerous builds = 0
	# write_dump all atom ${dumpfile}
        next i
jump SELF loop1
        displace_atoms upper move 0.0 ${ystep1} 0.0 units lattice
        displace_atoms upper move 0.0 0.00288675134594812 0.0 units lattice
        min_style ${style}
        min_style hftn
        minimize ${etol} ${ftol} ${maxiter} ${maxeval}
        minimize 1e-12 ${ftol} ${maxiter} ${maxeval}
        minimize 1e-12 1e-08 ${maxiter} ${maxeval}
        minimize 1e-12 1e-08 10000 ${maxeval}
        minimize 1e-12 1e-08 10000 20000
WARNING: Resetting reneighboring criteria during minimization (../min.cpp:168)
Memory usage per processor = 5.2861 Mbytes
Step Temp PotEng Lx Ly Lz 
      16            0   -17371.118     6.928552    73.545518    4.0002014 
Loop time of 0.0380551 on 1 procs for 0 steps with 2912 atoms

Minimization stats:
  Stopping criterion = force tolerance
  Energy initial, next-to-last, final = 
        -17371.1182941     -17371.1182941     -17371.1182941
  Force two-norm initial, final = 9.87701e-11 9.87701e-11
  Force max component initial, final = 3.19188e-12 3.19188e-12
  Final line search alpha, max atom move = 0 0
  Iterations, force evaluations = 0 0

Pair  time (%) = 0.037515 (98.5808)
Neigh time (%) = 0 (0)
Comm  time (%) = 0.00049109 (1.29047)
Outpt time (%) = 0 (0)
Other time (%) = 4.89979e-05 (0.128755)

Nlocal:    2912 ave 2912 max 2912 min
Histogram: 1 0 0 0 0 0 0 0 0 0
Nghost:    7129 ave 7129 max 7129 min
Histogram: 1 0 0 0 0 0 0 0 0 0
Neighs:    112224 ave 112224 max 112224 min
Histogram: 1 0 0 0 0 0 0 0 0 0

Total # of neighbors = 112224
Ave neighs/atom = 38.5385
Neighbor list builds = 0
Dangerous builds = 0
	# write_dump all atom ${dumpfile}
        next i
jump SELF loop1
        displace_atoms upper move 0.0 ${ystep1} 0.0 units lattice
        displace_atoms upper move 0.0 0.00288675134594812 0.0 units lattice
        min_style ${style}
        min_style hftn
        minimize ${etol} ${ftol} ${maxiter} ${maxeval}
        minimize 1e-12 ${ftol} ${maxiter} ${maxeval}
        minimize 1e-12 1e-08 ${maxiter} ${maxeval}
        minimize 1e-12 1e-08 10000 ${maxeval}
        minimize 1e-12 1e-08 10000 20000
WARNING: Resetting reneighboring criteria during minimization (../min.cpp:168)
Memory usage per processor = 5.2861 Mbytes
Step Temp PotEng Lx Ly Lz 
      16            0   -17369.611     6.928552    73.552589    4.0002014 
Loop time of 0.038106 on 1 procs for 0 steps with 2912 atoms

Minimization stats:
  Stopping criterion = force tolerance
  Energy initial, next-to-last, final = 
        -17369.6105794     -17369.6105794     -17369.6105794
  Force two-norm initial, final = 9.87596e-11 9.87596e-11
  Force max component initial, final = 3.19188e-12 3.19188e-12
  Final line search alpha, max atom move = 0 0
  Iterations, force evaluations = 0 0

Pair  time (%) = 0.037584 (98.6301)
Neigh time (%) = 0 (0)
Comm  time (%) = 0.000474922 (1.24632)
Outpt time (%) = 0 (0)
Other time (%) = 4.70995e-05 (0.123601)

Nlocal:    2912 ave 2912 max 2912 min
Histogram: 1 0 0 0 0 0 0 0 0 0
Nghost:    7129 ave 7129 max 7129 min
Histogram: 1 0 0 0 0 0 0 0 0 0
Neighs:    112224 ave 112224 max 112224 min
Histogram: 1 0 0 0 0 0 0 0 0 0

Total # of neighbors = 112224
Ave neighs/atom = 38.5385
Neighbor list builds = 0
Dangerous builds = 0
	# write_dump all atom ${dumpfile}
        next i
jump SELF loop1
        displace_atoms upper move 0.0 ${ystep1} 0.0 units lattice
        displace_atoms upper move 0.0 0.00288675134594812 0.0 units lattice
        min_style ${style}
        min_style hftn
        minimize ${etol} ${ftol} ${maxiter} ${maxeval}
        minimize 1e-12 ${ftol} ${maxiter} ${maxeval}
        minimize 1e-12 1e-08 ${maxiter} ${maxeval}
        minimize 1e-12 1e-08 10000 ${maxeval}
        minimize 1e-12 1e-08 10000 20000
WARNING: Resetting reneighboring criteria during minimization (../min.cpp:168)
Memory usage per processor = 5.2861 Mbytes
Step Temp PotEng Lx Ly Lz 
      16            0   -17367.972     6.928552    73.559661    4.0002014 
Loop time of 0.0381189 on 1 procs for 0 steps with 2912 atoms

Minimization stats:
  Stopping criterion = force tolerance
  Energy initial, next-to-last, final = 
        -17367.9715592     -17367.9715592     -17367.9715592
  Force two-norm initial, final = 9.87498e-11 9.87498e-11
  Force max component initial, final = 3.19188e-12 3.19188e-12
  Final line search alpha, max atom move = 0 0
  Iterations, force evaluations = 0 0

Pair  time (%) = 0.0375771 (98.5786)
Neigh time (%) = 0 (0)
Comm  time (%) = 0.000501988 (1.3169)
Outpt time (%) = 0 (0)
Other time (%) = 3.98352e-05 (0.104503)

Nlocal:    2912 ave 2912 max 2912 min
Histogram: 1 0 0 0 0 0 0 0 0 0
Nghost:    7129 ave 7129 max 7129 min
Histogram: 1 0 0 0 0 0 0 0 0 0
Neighs:    112224 ave 112224 max 112224 min
Histogram: 1 0 0 0 0 0 0 0 0 0

Total # of neighbors = 112224
Ave neighs/atom = 38.5385
Neighbor list builds = 0
Dangerous builds = 0
	# write_dump all atom ${dumpfile}
        next i
jump SELF loop1
        displace_atoms upper move 0.0 ${ystep1} 0.0 units lattice
        displace_atoms upper move 0.0 0.00288675134594812 0.0 units lattice
        min_style ${style}
        min_style hftn
        minimize ${etol} ${ftol} ${maxiter} ${maxeval}
        minimize 1e-12 ${ftol} ${maxiter} ${maxeval}
        minimize 1e-12 1e-08 ${maxiter} ${maxeval}
        minimize 1e-12 1e-08 10000 ${maxeval}
        minimize 1e-12 1e-08 10000 20000
WARNING: Resetting reneighboring criteria during minimization (../min.cpp:168)
Memory usage per processor = 5.2861 Mbytes
Step Temp PotEng Lx Ly Lz 
      16            0   -17366.225     6.928552    73.566732    4.0002014 
Loop time of 0.039235 on 1 procs for 0 steps with 2912 atoms

Minimization stats:
  Stopping criterion = force tolerance
  Energy initial, next-to-last, final = 
        -17366.2246938     -17366.2246938     -17366.2246938
  Force two-norm initial, final = 9.87277e-11 9.87277e-11
  Force max component initial, final = 3.19188e-12 3.19188e-12
  Final line search alpha, max atom move = 0 0
  Iterations, force evaluations = 0 0

Pair  time (%) = 0.0386039 (98.3916)
Neigh time (%) = 0 (0)
Comm  time (%) = 0.000590956 (1.5062)
Outpt time (%) = 0 (0)
Other time (%) = 4.00986e-05 (0.102201)

Nlocal:    2912 ave 2912 max 2912 min
Histogram: 1 0 0 0 0 0 0 0 0 0
Nghost:    7129 ave 7129 max 7129 min
Histogram: 1 0 0 0 0 0 0 0 0 0
Neighs:    112224 ave 112224 max 112224 min
Histogram: 1 0 0 0 0 0 0 0 0 0

Total # of neighbors = 112224
Ave neighs/atom = 38.5385
Neighbor list builds = 0
Dangerous builds = 0
	# write_dump all atom ${dumpfile}
        next i
jump SELF loop1
        displace_atoms upper move 0.0 ${ystep1} 0.0 units lattice
        displace_atoms upper move 0.0 0.00288675134594812 0.0 units lattice
        min_style ${style}
        min_style hftn
        minimize ${etol} ${ftol} ${maxiter} ${maxeval}
        minimize 1e-12 ${ftol} ${maxiter} ${maxeval}
        minimize 1e-12 1e-08 ${maxiter} ${maxeval}
        minimize 1e-12 1e-08 10000 ${maxeval}
        minimize 1e-12 1e-08 10000 20000
WARNING: Resetting reneighboring criteria during minimization (../min.cpp:168)
Memory usage per processor = 5.2861 Mbytes
Step Temp PotEng Lx Ly Lz 
      16            0   -17364.407     6.928552    73.573804    4.0002014 
Loop time of 0.0371089 on 1 procs for 0 steps with 2912 atoms

Minimization stats:
  Stopping criterion = force tolerance
  Energy initial, next-to-last, final = 
        -17364.4065471     -17364.4065471     -17364.4065471
  Force two-norm initial, final = 9.87258e-11 9.87258e-11
  Force max component initial, final = 3.19188e-12 3.19188e-12
  Final line search alpha, max atom move = 0 0
  Iterations, force evaluations = 0 0

Pair  time (%) = 0.036597 (98.6204)
Neigh time (%) = 0 (0)
Comm  time (%) = 0.000475033 (1.2801)
Outpt time (%) = 0 (0)
Other time (%) = 3.69289e-05 (0.0995149)

Nlocal:    2912 ave 2912 max 2912 min
Histogram: 1 0 0 0 0 0 0 0 0 0
Nghost:    7129 ave 7129 max 7129 min
Histogram: 1 0 0 0 0 0 0 0 0 0
Neighs:    112224 ave 112224 max 112224 min
Histogram: 1 0 0 0 0 0 0 0 0 0

Total # of neighbors = 112224
Ave neighs/atom = 38.5385
Neighbor list builds = 0
Dangerous builds = 0
	# write_dump all atom ${dumpfile}
        next i
jump SELF loop1
        displace_atoms upper move 0.0 ${ystep1} 0.0 units lattice
        displace_atoms upper move 0.0 0.00288675134594812 0.0 units lattice
        min_style ${style}
        min_style hftn
        minimize ${etol} ${ftol} ${maxiter} ${maxeval}
        minimize 1e-12 ${ftol} ${maxiter} ${maxeval}
        minimize 1e-12 1e-08 ${maxiter} ${maxeval}
        minimize 1e-12 1e-08 10000 ${maxeval}
        minimize 1e-12 1e-08 10000 20000
WARNING: Resetting reneighboring criteria during minimization (../min.cpp:168)
Memory usage per processor = 5.2861 Mbytes
Step Temp PotEng Lx Ly Lz 
      16            0   -17362.527     6.928552    73.580875    4.0002014 
Loop time of 0.03633 on 1 procs for 0 steps with 2912 atoms

Minimization stats:
  Stopping criterion = force tolerance
  Energy initial, next-to-last, final = 
        -17362.5266744     -17362.5266744     -17362.5266744
  Force two-norm initial, final = 9.87238e-11 9.87238e-11
  Force max component initial, final = 3.19188e-12 3.19188e-12
  Final line search alpha, max atom move = 0 0
  Iterations, force evaluations = 0 0

Pair  time (%) = 0.0358261 (98.6128)
Neigh time (%) = 0 (0)
Comm  time (%) = 0.000471138 (1.29683)
Outpt time (%) = 0 (0)
Other time (%) = 3.2817e-05 (0.0903303)

Nlocal:    2912 ave 2912 max 2912 min
Histogram: 1 0 0 0 0 0 0 0 0 0
Nghost:    7129 ave 7129 max 7129 min
Histogram: 1 0 0 0 0 0 0 0 0 0
Neighs:    112224 ave 112224 max 112224 min
Histogram: 1 0 0 0 0 0 0 0 0 0

Total # of neighbors = 112224
Ave neighs/atom = 38.5385
Neighbor list builds = 0
Dangerous builds = 0
	# write_dump all atom ${dumpfile}
        next i
jump SELF loop1
        displace_atoms upper move 0.0 ${ystep1} 0.0 units lattice
        displace_atoms upper move 0.0 0.00288675134594812 0.0 units lattice
        min_style ${style}
        min_style hftn
        minimize ${etol} ${ftol} ${maxiter} ${maxeval}
        minimize 1e-12 ${ftol} ${maxiter} ${maxeval}
        minimize 1e-12 1e-08 ${maxiter} ${maxeval}
        minimize 1e-12 1e-08 10000 ${maxeval}
        minimize 1e-12 1e-08 10000 20000
WARNING: Resetting reneighboring criteria during minimization (../min.cpp:168)
Memory usage per processor = 5.2861 Mbytes
Step Temp PotEng Lx Ly Lz 
      16            0   -17360.589     6.928552    73.587946    4.0002014 
Loop time of 0.0507369 on 1 procs for 0 steps with 2912 atoms

Minimization stats:
  Stopping criterion = force tolerance
  Energy initial, next-to-last, final = 
        -17360.5888744     -17360.5888744     -17360.5888744
  Force two-norm initial, final = 9.8722e-11 9.8722e-11
  Force max component initial, final = 3.19188e-12 3.19188e-12
  Final line search alpha, max atom move = 0 0
  Iterations, force evaluations = 0 0

Pair  time (%) = 0.0501759 (98.8943)
Neigh time (%) = 0 (0)
Comm  time (%) = 0.000512096 (1.00931)
Outpt time (%) = 0 (0)
Other time (%) = 4.89125e-05 (0.0964041)

Nlocal:    2912 ave 2912 max 2912 min
Histogram: 1 0 0 0 0 0 0 0 0 0
Nghost:    7129 ave 7129 max 7129 min
Histogram: 1 0 0 0 0 0 0 0 0 0
Neighs:    112224 ave 112224 max 112224 min
Histogram: 1 0 0 0 0 0 0 0 0 0

Total # of neighbors = 112224
Ave neighs/atom = 38.5385
Neighbor list builds = 0
Dangerous builds = 0
	# write_dump all atom ${dumpfile}
        next i
jump SELF loop1
        displace_atoms upper move 0.0 ${ystep1} 0.0 units lattice
        displace_atoms upper move 0.0 0.00288675134594812 0.0 units lattice
        min_style ${style}
        min_style hftn
        minimize ${etol} ${ftol} ${maxiter} ${maxeval}
        minimize 1e-12 ${ftol} ${maxiter} ${maxeval}
        minimize 1e-12 1e-08 ${maxiter} ${maxeval}
        minimize 1e-12 1e-08 10000 ${maxeval}
        minimize 1e-12 1e-08 10000 20000
WARNING: Resetting reneighboring criteria during minimization (../min.cpp:168)
Memory usage per processor = 5.2861 Mbytes
Step Temp PotEng Lx Ly Lz 
      16            0   -17358.597     6.928552    73.595018    4.0002014 
Loop time of 0.036864 on 1 procs for 0 steps with 2912 atoms

Minimization stats:
  Stopping criterion = force tolerance
  Energy initial, next-to-last, final = 
        -17358.5972434     -17358.5972434     -17358.5972434
  Force two-norm initial, final = 9.87206e-11 9.87206e-11
  Force max component initial, final = 3.19188e-12 3.19188e-12
  Final line search alpha, max atom move = 0 0
  Iterations, force evaluations = 0 0

Pair  time (%) = 0.0363151 (98.511)
Neigh time (%) = 0 (0)
Comm  time (%) = 0.000505174 (1.37037)
Outpt time (%) = 0 (0)
Other time (%) = 4.37347e-05 (0.118638)

Nlocal:    2912 ave 2912 max 2912 min
Histogram: 1 0 0 0 0 0 0 0 0 0
Nghost:    7129 ave 7129 max 7129 min
Histogram: 1 0 0 0 0 0 0 0 0 0
Neighs:    111840 ave 111840 max 111840 min
Histogram: 1 0 0 0 0 0 0 0 0 0

Total # of neighbors = 111840
Ave neighs/atom = 38.4066
Neighbor list builds = 0
Dangerous builds = 0
	# write_dump all atom ${dumpfile}
        next i
jump SELF loop1
        displace_atoms upper move 0.0 ${ystep1} 0.0 units lattice
        displace_atoms upper move 0.0 0.00288675134594812 0.0 units lattice
        min_style ${style}
        min_style hftn
        minimize ${etol} ${ftol} ${maxiter} ${maxeval}
        minimize 1e-12 ${ftol} ${maxiter} ${maxeval}
        minimize 1e-12 1e-08 ${maxiter} ${maxeval}
        minimize 1e-12 1e-08 10000 ${maxeval}
        minimize 1e-12 1e-08 10000 20000
WARNING: Resetting reneighboring criteria during minimization (../min.cpp:168)
Memory usage per processor = 5.28733 Mbytes
Step Temp PotEng Lx Ly Lz 
      16            0   -17356.556     6.928552    73.602089    4.0002014 
Loop time of 0.037055 on 1 procs for 0 steps with 2912 atoms

Minimization stats:
  Stopping criterion = force tolerance
  Energy initial, next-to-last, final = 
        -17356.5557177     -17356.5557177     -17356.5557177
  Force two-norm initial, final = 9.8719e-11 9.8719e-11
  Force max component initial, final = 3.19188e-12 3.19188e-12
  Final line search alpha, max atom move = 0 0
  Iterations, force evaluations = 0 0

Pair  time (%) = 0.0365531 (98.6456)
Neigh time (%) = 0 (0)
Comm  time (%) = 0.000456856 (1.23292)
Outpt time (%) = 0 (0)
Other time (%) = 4.50263e-05 (0.121512)

Nlocal:    2912 ave 2912 max 2912 min
Histogram: 1 0 0 0 0 0 0 0 0 0
Nghost:    7129 ave 7129 max 7129 min
Histogram: 1 0 0 0 0 0 0 0 0 0
Neighs:    111840 ave 111840 max 111840 min
Histogram: 1 0 0 0 0 0 0 0 0 0

Total # of neighbors = 111840
Ave neighs/atom = 38.4066
Neighbor list builds = 0
Dangerous builds = 0
	# write_dump all atom ${dumpfile}
        next i
jump SELF loop1
        displace_atoms upper move 0.0 ${ystep1} 0.0 units lattice
        displace_atoms upper move 0.0 0.00288675134594812 0.0 units lattice
        min_style ${style}
        min_style hftn
        minimize ${etol} ${ftol} ${maxiter} ${maxeval}
        minimize 1e-12 ${ftol} ${maxiter} ${maxeval}
        minimize 1e-12 1e-08 ${maxiter} ${maxeval}
        minimize 1e-12 1e-08 10000 ${maxeval}
        minimize 1e-12 1e-08 10000 20000
WARNING: Resetting reneighboring criteria during minimization (../min.cpp:168)
Memory usage per processor = 5.28733 Mbytes
Step Temp PotEng Lx Ly Lz 
      16            0   -17354.469     6.928552    73.609161    4.0002014 
Loop time of 0.0369011 on 1 procs for 0 steps with 2912 atoms

Minimization stats:
  Stopping criterion = force tolerance
  Energy initial, next-to-last, final = 
        -17354.4685256     -17354.4685256     -17354.4685256
  Force two-norm initial, final = 9.87169e-11 9.87169e-11
  Force max component initial, final = 3.19188e-12 3.19188e-12
  Final line search alpha, max atom move = 0 0
  Iterations, force evaluations = 0 0

Pair  time (%) = 0.0363821 (98.5935)
Neigh time (%) = 0 (0)
Comm  time (%) = 0.000485797 (1.31648)
Outpt time (%) = 0 (0)
Other time (%) = 3.32047e-05 (0.0899829)

Nlocal:    2912 ave 2912 max 2912 min
Histogram: 1 0 0 0 0 0 0 0 0 0
Nghost:    7129 ave 7129 max 7129 min
Histogram: 1 0 0 0 0 0 0 0 0 0
Neighs:    111840 ave 111840 max 111840 min
Histogram: 1 0 0 0 0 0 0 0 0 0

Total # of neighbors = 111840
Ave neighs/atom = 38.4066
Neighbor list builds = 0
Dangerous builds = 0
	# write_dump all atom ${dumpfile}
        next i
jump SELF loop1
        displace_atoms upper move 0.0 ${ystep1} 0.0 units lattice
        displace_atoms upper move 0.0 0.00288675134594812 0.0 units lattice
        min_style ${style}
        min_style hftn
        minimize ${etol} ${ftol} ${maxiter} ${maxeval}
        minimize 1e-12 ${ftol} ${maxiter} ${maxeval}
        minimize 1e-12 1e-08 ${maxiter} ${maxeval}
        minimize 1e-12 1e-08 10000 ${maxeval}
        minimize 1e-12 1e-08 10000 20000
WARNING: Resetting reneighboring criteria during minimization (../min.cpp:168)
Memory usage per processor = 5.28733 Mbytes
Step Temp PotEng Lx Ly Lz 
      16            0    -17352.34     6.928552    73.616232    4.0002014 
Loop time of 0.0372881 on 1 procs for 0 steps with 2912 atoms

Minimization stats:
  Stopping criterion = force tolerance
  Energy initial, next-to-last, final = 
        -17352.3398259     -17352.3398259     -17352.3398259
  Force two-norm initial, final = 9.87151e-11 9.87151e-11
  Force max component initial, final = 3.19188e-12 3.19188e-12
  Final line search alpha, max atom move = 0 0
  Iterations, force evaluations = 0 0

Pair  time (%) = 0.036732 (98.5085)
Neigh time (%) = 0 (0)
Comm  time (%) = 0.000508947 (1.3649)
Outpt time (%) = 0 (0)
Other time (%) = 4.72001e-05 (0.126582)

Nlocal:    2912 ave 2912 max 2912 min
Histogram: 1 0 0 0 0 0 0 0 0 0
Nghost:    7129 ave 7129 max 7129 min
Histogram: 1 0 0 0 0 0 0 0 0 0
Neighs:    111840 ave 111840 max 111840 min
Histogram: 1 0 0 0 0 0 0 0 0 0

Total # of neighbors = 111840
Ave neighs/atom = 38.4066
Neighbor list builds = 0
Dangerous builds = 0
	# write_dump all atom ${dumpfile}
        next i
jump SELF loop1
        displace_atoms upper move 0.0 ${ystep1} 0.0 units lattice
        displace_atoms upper move 0.0 0.00288675134594812 0.0 units lattice
        min_style ${style}
        min_style hftn
        minimize ${etol} ${ftol} ${maxiter} ${maxeval}
        minimize 1e-12 ${ftol} ${maxiter} ${maxeval}
        minimize 1e-12 1e-08 ${maxiter} ${maxeval}
        minimize 1e-12 1e-08 10000 ${maxeval}
        minimize 1e-12 1e-08 10000 20000
WARNING: Resetting reneighboring criteria during minimization (../min.cpp:168)
Memory usage per processor = 5.28733 Mbytes
Step Temp PotEng Lx Ly Lz 
      16            0   -17350.174     6.928552    73.623304    4.0002014 
Loop time of 0.0363991 on 1 procs for 0 steps with 2912 atoms

Minimization stats:
  Stopping criterion = force tolerance
  Energy initial, next-to-last, final = 
        -17350.1738524     -17350.1738524     -17350.1738524
  Force two-norm initial, final = 9.87132e-11 9.87132e-11
  Force max component initial, final = 3.19188e-12 3.19188e-12
  Final line search alpha, max atom move = 0 0
  Iterations, force evaluations = 0 0

Pair  time (%) = 0.0358371 (98.4561)
Neigh time (%) = 0 (0)
Comm  time (%) = 0.000514038 (1.41223)
Outpt time (%) = 0 (0)
Other time (%) = 4.79305e-05 (0.131681)

Nlocal:    2912 ave 2912 max 2912 min
Histogram: 1 0 0 0 0 0 0 0 0 0
Nghost:    7129 ave 7129 max 7129 min
Histogram: 1 0 0 0 0 0 0 0 0 0
Neighs:    111840 ave 111840 max 111840 min
Histogram: 1 0 0 0 0 0 0 0 0 0

Total # of neighbors = 111840
Ave neighs/atom = 38.4066
Neighbor list builds = 0
Dangerous builds = 0
	# write_dump all atom ${dumpfile}
        next i
jump SELF loop1
        displace_atoms upper move 0.0 ${ystep1} 0.0 units lattice
        displace_atoms upper move 0.0 0.00288675134594812 0.0 units lattice
        min_style ${style}
        min_style hftn
        minimize ${etol} ${ftol} ${maxiter} ${maxeval}
        minimize 1e-12 ${ftol} ${maxiter} ${maxeval}
        minimize 1e-12 1e-08 ${maxiter} ${maxeval}
        minimize 1e-12 1e-08 10000 ${maxeval}
        minimize 1e-12 1e-08 10000 20000
WARNING: Resetting reneighboring criteria during minimization (../min.cpp:168)
Memory usage per processor = 5.28733 Mbytes
Step Temp PotEng Lx Ly Lz 
      16            0   -17347.975     6.928552    73.630375    4.0002014 
Loop time of 0.0402091 on 1 procs for 0 steps with 2912 atoms

Minimization stats:
  Stopping criterion = force tolerance
  Energy initial, next-to-last, final = 
        -17347.9749035     -17347.9749035     -17347.9749035
  Force two-norm initial, final = 9.8712e-11 9.8712e-11
  Force max component initial, final = 3.19188e-12 3.19188e-12
  Final line search alpha, max atom move = 0 0
  Iterations, force evaluations = 0 0

Pair  time (%) = 0.0396991 (98.7316)
Neigh time (%) = 0 (0)
Comm  time (%) = 0.000471005 (1.17139)
Outpt time (%) = 0 (0)
Other time (%) = 3.90027e-05 (0.0969998)

Nlocal:    2912 ave 2912 max 2912 min
Histogram: 1 0 0 0 0 0 0 0 0 0
Nghost:    7129 ave 7129 max 7129 min
Histogram: 1 0 0 0 0 0 0 0 0 0
Neighs:    111840 ave 111840 max 111840 min
Histogram: 1 0 0 0 0 0 0 0 0 0

Total # of neighbors = 111840
Ave neighs/atom = 38.4066
Neighbor list builds = 0
Dangerous builds = 0
	# write_dump all atom ${dumpfile}
        next i
jump SELF loop1
        displace_atoms upper move 0.0 ${ystep1} 0.0 units lattice
        displace_atoms upper move 0.0 0.00288675134594812 0.0 units lattice
        min_style ${style}
        min_style hftn
        minimize ${etol} ${ftol} ${maxiter} ${maxeval}
        minimize 1e-12 ${ftol} ${maxiter} ${maxeval}
        minimize 1e-12 1e-08 ${maxiter} ${maxeval}
        minimize 1e-12 1e-08 10000 ${maxeval}
        minimize 1e-12 1e-08 10000 20000
WARNING: Resetting reneighboring criteria during minimization (../min.cpp:168)
Memory usage per processor = 5.28733 Mbytes
Step Temp PotEng Lx Ly Lz 
      16            0   -17345.747     6.928552    73.637446    4.0002014 
Loop time of 0.0367299 on 1 procs for 0 steps with 2912 atoms

Minimization stats:
  Stopping criterion = force tolerance
  Energy initial, next-to-last, final = 
        -17345.7473466     -17345.7473466     -17345.7473466
  Force two-norm initial, final = 9.871e-11 9.871e-11
  Force max component initial, final = 3.19188e-12 3.19188e-12
  Final line search alpha, max atom move = 0 0
  Iterations, force evaluations = 0 0

Pair  time (%) = 0.036196 (98.5463)
Neigh time (%) = 0 (0)
Comm  time (%) = 0.000499922 (1.36108)
Outpt time (%) = 0 (0)
Other time (%) = 3.40327e-05 (0.0926567)

Nlocal:    2912 ave 2912 max 2912 min
Histogram: 1 0 0 0 0 0 0 0 0 0
Nghost:    7129 ave 7129 max 7129 min
Histogram: 1 0 0 0 0 0 0 0 0 0
Neighs:    111840 ave 111840 max 111840 min
Histogram: 1 0 0 0 0 0 0 0 0 0

Total # of neighbors = 111840
Ave neighs/atom = 38.4066
Neighbor list builds = 0
Dangerous builds = 0
	# write_dump all atom ${dumpfile}
        next i
jump SELF loop1
        displace_atoms upper move 0.0 ${ystep1} 0.0 units lattice
        displace_atoms upper move 0.0 0.00288675134594812 0.0 units lattice
        min_style ${style}
        min_style hftn
        minimize ${etol} ${ftol} ${maxiter} ${maxeval}
        minimize 1e-12 ${ftol} ${maxiter} ${maxeval}
        minimize 1e-12 1e-08 ${maxiter} ${maxeval}
        minimize 1e-12 1e-08 10000 ${maxeval}
        minimize 1e-12 1e-08 10000 20000
WARNING: Resetting reneighboring criteria during minimization (../min.cpp:168)
Memory usage per processor = 5.28733 Mbytes
Step Temp PotEng Lx Ly Lz 
      16            0   -17343.496     6.928552    73.644518    4.0002014 
Loop time of 0.0368169 on 1 procs for 0 steps with 2912 atoms

Minimization stats:
  Stopping criterion = force tolerance
  Energy initial, next-to-last, final = 
        -17343.4956044     -17343.4956044     -17343.4956044
  Force two-norm initial, final = 9.87085e-11 9.87085e-11
  Force max component initial, final = 3.19188e-12 3.19188e-12
  Final line search alpha, max atom move = 0 0
  Iterations, force evaluations = 0 0

Pair  time (%) = 0.036315 (98.6366)
Neigh time (%) = 0 (0)
Comm  time (%) = 0.00046801 (1.27118)
Outpt time (%) = 0 (0)
Other time (%) = 3.3945e-05 (0.0921993)

Nlocal:    2912 ave 2912 max 2912 min
Histogram: 1 0 0 0 0 0 0 0 0 0
Nghost:    7129 ave 7129 max 7129 min
Histogram: 1 0 0 0 0 0 0 0 0 0
Neighs:    111840 ave 111840 max 111840 min
Histogram: 1 0 0 0 0 0 0 0 0 0

Total # of neighbors = 111840
Ave neighs/atom = 38.4066
Neighbor list builds = 0
Dangerous builds = 0
	# write_dump all atom ${dumpfile}
        next i
jump SELF loop1
        displace_atoms upper move 0.0 ${ystep1} 0.0 units lattice
        displace_atoms upper move 0.0 0.00288675134594812 0.0 units lattice
        min_style ${style}
        min_style hftn
        minimize ${etol} ${ftol} ${maxiter} ${maxeval}
        minimize 1e-12 ${ftol} ${maxiter} ${maxeval}
        minimize 1e-12 1e-08 ${maxiter} ${maxeval}
        minimize 1e-12 1e-08 10000 ${maxeval}
        minimize 1e-12 1e-08 10000 20000
WARNING: Resetting reneighboring criteria during minimization (../min.cpp:168)
Memory usage per processor = 5.28733 Mbytes
Step Temp PotEng Lx Ly Lz 
      16            0   -17341.224     6.928552    73.651589    4.0002014 
Loop time of 0.0487941 on 1 procs for 0 steps with 2912 atoms

Minimization stats:
  Stopping criterion = force tolerance
  Energy initial, next-to-last, final = 
        -17341.2241472     -17341.2241472     -17341.2241472
  Force two-norm initial, final = 9.87063e-11 9.87063e-11
  Force max component initial, final = 3.19188e-12 3.19188e-12
  Final line search alpha, max atom move = 0 0
  Iterations, force evaluations = 0 0

Pair  time (%) = 0.048287 (98.9608)
Neigh time (%) = 0 (0)
Comm  time (%) = 0.000461104 (0.945)
Outpt time (%) = 0 (0)
Other time (%) = 4.59827e-05 (0.0942381)

Nlocal:    2912 ave 2912 max 2912 min
Histogram: 1 0 0 0 0 0 0 0 0 0
Nghost:    7129 ave 7129 max 7129 min
Histogram: 1 0 0 0 0 0 0 0 0 0
Neighs:    111840 ave 111840 max 111840 min
Histogram: 1 0 0 0 0 0 0 0 0 0

Total # of neighbors = 111840
Ave neighs/atom = 38.4066
Neighbor list builds = 0
Dangerous builds = 0
	# write_dump all atom ${dumpfile}
        next i
jump SELF loop1
        displace_atoms upper move 0.0 ${ystep1} 0.0 units lattice
        displace_atoms upper move 0.0 0.00288675134594812 0.0 units lattice
        min_style ${style}
        min_style hftn
        minimize ${etol} ${ftol} ${maxiter} ${maxeval}
        minimize 1e-12 ${ftol} ${maxiter} ${maxeval}
        minimize 1e-12 1e-08 ${maxiter} ${maxeval}
        minimize 1e-12 1e-08 10000 ${maxeval}
        minimize 1e-12 1e-08 10000 20000
WARNING: Resetting reneighboring criteria during minimization (../min.cpp:168)
Memory usage per processor = 5.28733 Mbytes
Step Temp PotEng Lx Ly Lz 
      16            0   -17338.937     6.928552    73.658661    4.0002014 
Loop time of 0.036016 on 1 procs for 0 steps with 2912 atoms

Minimization stats:
  Stopping criterion = force tolerance
  Energy initial, next-to-last, final = 
        -17338.9374986     -17338.9374986     -17338.9374986
  Force two-norm initial, final = 9.87046e-11 9.87046e-11
  Force max component initial, final = 3.19188e-12 3.19188e-12
  Final line search alpha, max atom move = 0 0
  Iterations, force evaluations = 0 0

Pair  time (%) = 0.0355391 (98.6758)
Neigh time (%) = 0 (0)
Comm  time (%) = 0.000440999 (1.22445)
Outpt time (%) = 0 (0)
Other time (%) = 3.59095e-05 (0.0997043)

Nlocal:    2912 ave 2912 max 2912 min
Histogram: 1 0 0 0 0 0 0 0 0 0
Nghost:    7129 ave 7129 max 7129 min
Histogram: 1 0 0 0 0 0 0 0 0 0
Neighs:    111840 ave 111840 max 111840 min
Histogram: 1 0 0 0 0 0 0 0 0 0

Total # of neighbors = 111840
Ave neighs/atom = 38.4066
Neighbor list builds = 0
Dangerous builds = 0
	# write_dump all atom ${dumpfile}
        next i
jump SELF loop1
        displace_atoms upper move 0.0 ${ystep1} 0.0 units lattice
        displace_atoms upper move 0.0 0.00288675134594812 0.0 units lattice
        min_style ${style}
        min_style hftn
        minimize ${etol} ${ftol} ${maxiter} ${maxeval}
        minimize 1e-12 ${ftol} ${maxiter} ${maxeval}
        minimize 1e-12 1e-08 ${maxiter} ${maxeval}
        minimize 1e-12 1e-08 10000 ${maxeval}
        minimize 1e-12 1e-08 10000 20000
WARNING: Resetting reneighboring criteria during minimization (../min.cpp:168)
Memory usage per processor = 5.28733 Mbytes
Step Temp PotEng Lx Ly Lz 
      16            0    -17336.64     6.928552    73.665732    4.0002014 
Loop time of 0.037018 on 1 procs for 0 steps with 2912 atoms

Minimization stats:
  Stopping criterion = force tolerance
  Energy initial, next-to-last, final = 
        -17336.6402309     -17336.6402309     -17336.6402309
  Force two-norm initial, final = 9.87023e-11 9.87023e-11
  Force max component initial, final = 3.19188e-12 3.19188e-12
  Final line search alpha, max atom move = 0 0
  Iterations, force evaluations = 0 0

Pair  time (%) = 0.03656 (98.7626)
Neigh time (%) = 0 (0)
Comm  time (%) = 0.000419805 (1.13406)
Outpt time (%) = 0 (0)
Other time (%) = 3.82493e-05 (0.103326)

Nlocal:    2912 ave 2912 max 2912 min
Histogram: 1 0 0 0 0 0 0 0 0 0
Nghost:    7129 ave 7129 max 7129 min
Histogram: 1 0 0 0 0 0 0 0 0 0
Neighs:    111648 ave 111648 max 111648 min
Histogram: 1 0 0 0 0 0 0 0 0 0

Total # of neighbors = 111648
Ave neighs/atom = 38.3407
Neighbor list builds = 0
Dangerous builds = 0
	# write_dump all atom ${dumpfile}
        next i
jump SELF loop1
        displace_atoms upper move 0.0 ${ystep1} 0.0 units lattice
        displace_atoms upper move 0.0 0.00288675134594812 0.0 units lattice
        min_style ${style}
        min_style hftn
        minimize ${etol} ${ftol} ${maxiter} ${maxeval}
        minimize 1e-12 ${ftol} ${maxiter} ${maxeval}
        minimize 1e-12 1e-08 ${maxiter} ${maxeval}
        minimize 1e-12 1e-08 10000 ${maxeval}
        minimize 1e-12 1e-08 10000 20000
WARNING: Resetting reneighboring criteria during minimization (../min.cpp:168)
Memory usage per processor = 5.28733 Mbytes
Step Temp PotEng Lx Ly Lz 
      16            0   -17334.337     6.928552    73.672804    4.0002014 
Loop time of 0.0368891 on 1 procs for 0 steps with 2912 atoms

Minimization stats:
  Stopping criterion = force tolerance
  Energy initial, next-to-last, final = 
        -17334.3369961     -17334.3369961     -17334.3369961
  Force two-norm initial, final = 9.87013e-11 9.87013e-11
  Force max component initial, final = 3.19188e-12 3.19188e-12
  Final line search alpha, max atom move = 0 0
  Iterations, force evaluations = 0 0

Pair  time (%) = 0.036396 (98.6633)
Neigh time (%) = 0 (0)
Comm  time (%) = 0.000469832 (1.27364)
Outpt time (%) = 0 (0)
Other time (%) = 2.32685e-05 (0.063077)

Nlocal:    2912 ave 2912 max 2912 min
Histogram: 1 0 0 0 0 0 0 0 0 0
Nghost:    7129 ave 7129 max 7129 min
Histogram: 1 0 0 0 0 0 0 0 0 0
Neighs:    111648 ave 111648 max 111648 min
Histogram: 1 0 0 0 0 0 0 0 0 0

Total # of neighbors = 111648
Ave neighs/atom = 38.3407
Neighbor list builds = 0
Dangerous builds = 0
	# write_dump all atom ${dumpfile}
        next i
jump SELF loop1
        displace_atoms upper move 0.0 ${ystep1} 0.0 units lattice
        displace_atoms upper move 0.0 0.00288675134594812 0.0 units lattice
        min_style ${style}
        min_style hftn
        minimize ${etol} ${ftol} ${maxiter} ${maxeval}
        minimize 1e-12 ${ftol} ${maxiter} ${maxeval}
        minimize 1e-12 1e-08 ${maxiter} ${maxeval}
        minimize 1e-12 1e-08 10000 ${maxeval}
        minimize 1e-12 1e-08 10000 20000
WARNING: Resetting reneighboring criteria during minimization (../min.cpp:168)
Memory usage per processor = 5.28733 Mbytes
Step Temp PotEng Lx Ly Lz 
      16            0   -17332.032     6.928552    73.679875    4.0002014 
Loop time of 0.043969 on 1 procs for 0 steps with 2912 atoms

Minimization stats:
  Stopping criterion = force tolerance
  Energy initial, next-to-last, final = 
        -17332.0324288     -17332.0324288     -17332.0324288
  Force two-norm initial, final = 9.86999e-11 9.86999e-11
  Force max component initial, final = 3.19188e-12 3.19188e-12
  Final line search alpha, max atom move = 0 0
  Iterations, force evaluations = 0 0

Pair  time (%) = 0.043521 (98.981)
Neigh time (%) = 0 (0)
Comm  time (%) = 0.00041308 (0.93948)
Outpt time (%) = 0 (0)
Other time (%) = 3.49673e-05 (0.0795272)

Nlocal:    2912 ave 2912 max 2912 min
Histogram: 1 0 0 0 0 0 0 0 0 0
Nghost:    7129 ave 7129 max 7129 min
Histogram: 1 0 0 0 0 0 0 0 0 0
Neighs:    111648 ave 111648 max 111648 min
Histogram: 1 0 0 0 0 0 0 0 0 0

Total # of neighbors = 111648
Ave neighs/atom = 38.3407
Neighbor list builds = 0
Dangerous builds = 0
	# write_dump all atom ${dumpfile}
        next i
jump SELF loop1
        displace_atoms upper move 0.0 ${ystep1} 0.0 units lattice
        displace_atoms upper move 0.0 0.00288675134594812 0.0 units lattice
        min_style ${style}
        min_style hftn
        minimize ${etol} ${ftol} ${maxiter} ${maxeval}
        minimize 1e-12 ${ftol} ${maxiter} ${maxeval}
        minimize 1e-12 1e-08 ${maxiter} ${maxeval}
        minimize 1e-12 1e-08 10000 ${maxeval}
        minimize 1e-12 1e-08 10000 20000
WARNING: Resetting reneighboring criteria during minimization (../min.cpp:168)
Memory usage per processor = 5.28733 Mbytes
Step Temp PotEng Lx Ly Lz 
      16            0   -17329.731     6.928552    73.686946    4.0002014 
Loop time of 0.0366721 on 1 procs for 0 steps with 2912 atoms

Minimization stats:
  Stopping criterion = force tolerance
  Energy initial, next-to-last, final = 
        -17329.7313288     -17329.7313288     -17329.7313288
  Force two-norm initial, final = 9.86975e-11 9.86975e-11
  Force max component initial, final = 3.19188e-12 3.19188e-12
  Final line search alpha, max atom move = 0 0
  Iterations, force evaluations = 0 0

Pair  time (%) = 0.0361371 (98.5412)
Neigh time (%) = 0 (0)
Comm  time (%) = 0.00049989 (1.36314)
Outpt time (%) = 0 (0)
Other time (%) = 3.5065e-05 (0.0956178)

Nlocal:    2912 ave 2912 max 2912 min
Histogram: 1 0 0 0 0 0 0 0 0 0
Nghost:    7129 ave 7129 max 7129 min
Histogram: 1 0 0 0 0 0 0 0 0 0
Neighs:    111648 ave 111648 max 111648 min
Histogram: 1 0 0 0 0 0 0 0 0 0

Total # of neighbors = 111648
Ave neighs/atom = 38.3407
Neighbor list builds = 0
Dangerous builds = 0
	# write_dump all atom ${dumpfile}
        next i
jump SELF loop1
        displace_atoms upper move 0.0 ${ystep1} 0.0 units lattice
        displace_atoms upper move 0.0 0.00288675134594812 0.0 units lattice
        min_style ${style}
        min_style hftn
        minimize ${etol} ${ftol} ${maxiter} ${maxeval}
        minimize 1e-12 ${ftol} ${maxiter} ${maxeval}
        minimize 1e-12 1e-08 ${maxiter} ${maxeval}
        minimize 1e-12 1e-08 10000 ${maxeval}
        minimize 1e-12 1e-08 10000 20000
WARNING: Resetting reneighboring criteria during minimization (../min.cpp:168)
Memory usage per processor = 5.28733 Mbytes
Step Temp PotEng Lx Ly Lz 
      16            0   -17327.438     6.928552    73.694018    4.0002014 
Loop time of 0.038603 on 1 procs for 0 steps with 2912 atoms

Minimization stats:
  Stopping criterion = force tolerance
  Energy initial, next-to-last, final = 
        -17327.4384006     -17327.4384006     -17327.4384006
  Force two-norm initial, final = 9.86957e-11 9.86957e-11
  Force max component initial, final = 3.19188e-12 3.19188e-12
  Final line search alpha, max atom move = 0 0
  Iterations, force evaluations = 0 0

Pair  time (%) = 0.0380349 (98.5284)
Neigh time (%) = 0 (0)
Comm  time (%) = 0.000532059 (1.37828)
Outpt time (%) = 0 (0)
Other time (%) = 3.60416e-05 (0.0933648)

Nlocal:    2912 ave 2912 max 2912 min
Histogram: 1 0 0 0 0 0 0 0 0 0
Nghost:    7129 ave 7129 max 7129 min
Histogram: 1 0 0 0 0 0 0 0 0 0
Neighs:    111648 ave 111648 max 111648 min
Histogram: 1 0 0 0 0 0 0 0 0 0

Total # of neighbors = 111648
Ave neighs/atom = 38.3407
Neighbor list builds = 0
Dangerous builds = 0
	# write_dump all atom ${dumpfile}
        next i
jump SELF loop1
        displace_atoms upper move 0.0 ${ystep1} 0.0 units lattice
        displace_atoms upper move 0.0 0.00288675134594812 0.0 units lattice
        min_style ${style}
        min_style hftn
        minimize ${etol} ${ftol} ${maxiter} ${maxeval}
        minimize 1e-12 ${ftol} ${maxiter} ${maxeval}
        minimize 1e-12 1e-08 ${maxiter} ${maxeval}
        minimize 1e-12 1e-08 10000 ${maxeval}
        minimize 1e-12 1e-08 10000 20000
WARNING: Resetting reneighboring criteria during minimization (../min.cpp:168)
Memory usage per processor = 5.28733 Mbytes
Step Temp PotEng Lx Ly Lz 
      16            0   -17325.158     6.928552    73.701089    4.0002014 
Loop time of 0.036258 on 1 procs for 0 steps with 2912 atoms

Minimization stats:
  Stopping criterion = force tolerance
  Energy initial, next-to-last, final = 
        -17325.1584913     -17325.1584913     -17325.1584913
  Force two-norm initial, final = 9.86939e-11 9.86939e-11
  Force max component initial, final = 3.19188e-12 3.19188e-12
  Final line search alpha, max atom move = 0 0
  Iterations, force evaluations = 0 0

Pair  time (%) = 0.0357501 (98.5991)
Neigh time (%) = 0 (0)
Comm  time (%) = 0.000473998 (1.30729)
Outpt time (%) = 0 (0)
Other time (%) = 3.39572e-05 (0.0936542)

Nlocal:    2912 ave 2912 max 2912 min
Histogram: 1 0 0 0 0 0 0 0 0 0
Nghost:    7129 ave 7129 max 7129 min
Histogram: 1 0 0 0 0 0 0 0 0 0
Neighs:    111648 ave 111648 max 111648 min
Histogram: 1 0 0 0 0 0 0 0 0 0

Total # of neighbors = 111648
Ave neighs/atom = 38.3407
Neighbor list builds = 0
Dangerous builds = 0
	# write_dump all atom ${dumpfile}
        next i
jump SELF loop1
        displace_atoms upper move 0.0 ${ystep1} 0.0 units lattice
        displace_atoms upper move 0.0 0.00288675134594812 0.0 units lattice
        min_style ${style}
        min_style hftn
        minimize ${etol} ${ftol} ${maxiter} ${maxeval}
        minimize 1e-12 ${ftol} ${maxiter} ${maxeval}
        minimize 1e-12 1e-08 ${maxiter} ${maxeval}
        minimize 1e-12 1e-08 10000 ${maxeval}
        minimize 1e-12 1e-08 10000 20000
WARNING: Resetting reneighboring criteria during minimization (../min.cpp:168)
Memory usage per processor = 5.28733 Mbytes
Step Temp PotEng Lx Ly Lz 
      16            0   -17322.897     6.928552    73.708161    4.0002014 
Loop time of 0.0372039 on 1 procs for 0 steps with 2912 atoms

Minimization stats:
  Stopping criterion = force tolerance
  Energy initial, next-to-last, final = 
         -17322.896515      -17322.896515      -17322.896515
  Force two-norm initial, final = 9.86921e-11 9.86921e-11
  Force max component initial, final = 3.19188e-12 3.19188e-12
  Final line search alpha, max atom move = 0 0
  Iterations, force evaluations = 0 0

Pair  time (%) = 0.0366889 (98.6157)
Neigh time (%) = 0 (0)
Comm  time (%) = 0.000501836 (1.34888)
Outpt time (%) = 0 (0)
Other time (%) = 1.31644e-05 (0.0353843)

Nlocal:    2912 ave 2912 max 2912 min
Histogram: 1 0 0 0 0 0 0 0 0 0
Nghost:    7129 ave 7129 max 7129 min
Histogram: 1 0 0 0 0 0 0 0 0 0
Neighs:    111648 ave 111648 max 111648 min
Histogram: 1 0 0 0 0 0 0 0 0 0

Total # of neighbors = 111648
Ave neighs/atom = 38.3407
Neighbor list builds = 0
Dangerous builds = 0
	# write_dump all atom ${dumpfile}
        next i
jump SELF loop1
        displace_atoms upper move 0.0 ${ystep1} 0.0 units lattice
        displace_atoms upper move 0.0 0.00288675134594812 0.0 units lattice
        min_style ${style}
        min_style hftn
        minimize ${etol} ${ftol} ${maxiter} ${maxeval}
        minimize 1e-12 ${ftol} ${maxiter} ${maxeval}
        minimize 1e-12 1e-08 ${maxiter} ${maxeval}
        minimize 1e-12 1e-08 10000 ${maxeval}
        minimize 1e-12 1e-08 10000 20000
WARNING: Resetting reneighboring criteria during minimization (../min.cpp:168)
Memory usage per processor = 5.28733 Mbytes
Step Temp PotEng Lx Ly Lz 
      16            0   -17320.657     6.928552    73.715232    4.0002014 
Loop time of 0.037339 on 1 procs for 0 steps with 2912 atoms

Minimization stats:
  Stopping criterion = force tolerance
  Energy initial, next-to-last, final = 
        -17320.6573379     -17320.6573379     -17320.6573379
  Force two-norm initial, final = 9.86903e-11 9.86903e-11
  Force max component initial, final = 3.19188e-12 3.19188e-12
  Final line search alpha, max atom move = 0 0
  Iterations, force evaluations = 0 0

Pair  time (%) = 0.0364699 (97.6723)
Neigh time (%) = 0 (0)
Comm  time (%) = 0.00080885 (2.16623)
Outpt time (%) = 0 (0)
Other time (%) = 6.02969e-05 (0.161485)

Nlocal:    2912 ave 2912 max 2912 min
Histogram: 1 0 0 0 0 0 0 0 0 0
Nghost:    7129 ave 7129 max 7129 min
Histogram: 1 0 0 0 0 0 0 0 0 0
Neighs:    111648 ave 111648 max 111648 min
Histogram: 1 0 0 0 0 0 0 0 0 0

Total # of neighbors = 111648
Ave neighs/atom = 38.3407
Neighbor list builds = 0
Dangerous builds = 0
	# write_dump all atom ${dumpfile}
        next i
jump SELF loop1
        displace_atoms upper move 0.0 ${ystep1} 0.0 units lattice
        displace_atoms upper move 0.0 0.00288675134594812 0.0 units lattice
        min_style ${style}
        min_style hftn
        minimize ${etol} ${ftol} ${maxiter} ${maxeval}
        minimize 1e-12 ${ftol} ${maxiter} ${maxeval}
        minimize 1e-12 1e-08 ${maxiter} ${maxeval}
        minimize 1e-12 1e-08 10000 ${maxeval}
        minimize 1e-12 1e-08 10000 20000
WARNING: Resetting reneighboring criteria during minimization (../min.cpp:168)
Memory usage per processor = 5.28733 Mbytes
Step Temp PotEng Lx Ly Lz 
      16            0   -17318.446     6.928552    73.722303    4.0002014 
Loop time of 0.0365671 on 1 procs for 0 steps with 2912 atoms

Minimization stats:
  Stopping criterion = force tolerance
  Energy initial, next-to-last, final = 
        -17318.4459265     -17318.4459265     -17318.4459265
  Force two-norm initial, final = 9.86884e-11 9.86884e-11
  Force max component initial, final = 3.19188e-12 3.19188e-12
  Final line search alpha, max atom move = 0 0
  Iterations, force evaluations = 0 0

Pair  time (%) = 0.0360529 (98.5938)
Neigh time (%) = 0 (0)
Comm  time (%) = 0.000479859 (1.31227)
Outpt time (%) = 0 (0)
Other time (%) = 3.43339e-05 (0.0938929)

Nlocal:    2912 ave 2912 max 2912 min
Histogram: 1 0 0 0 0 0 0 0 0 0
Nghost:    7129 ave 7129 max 7129 min
Histogram: 1 0 0 0 0 0 0 0 0 0
Neighs:    111648 ave 111648 max 111648 min
Histogram: 1 0 0 0 0 0 0 0 0 0

Total # of neighbors = 111648
Ave neighs/atom = 38.3407
Neighbor list builds = 0
Dangerous builds = 0
	# write_dump all atom ${dumpfile}
        next i
jump SELF loop1
        displace_atoms upper move 0.0 ${ystep1} 0.0 units lattice
        displace_atoms upper move 0.0 0.00288675134594812 0.0 units lattice
        min_style ${style}
        min_style hftn
        minimize ${etol} ${ftol} ${maxiter} ${maxeval}
        minimize 1e-12 ${ftol} ${maxiter} ${maxeval}
        minimize 1e-12 1e-08 ${maxiter} ${maxeval}
        minimize 1e-12 1e-08 10000 ${maxeval}
        minimize 1e-12 1e-08 10000 20000
WARNING: Resetting reneighboring criteria during minimization (../min.cpp:168)
Memory usage per processor = 5.28733 Mbytes
Step Temp PotEng Lx Ly Lz 
      16            0   -17316.267     6.928552    73.729375    4.0002014 
Loop time of 0.0362311 on 1 procs for 0 steps with 2912 atoms

Minimization stats:
  Stopping criterion = force tolerance
  Energy initial, next-to-last, final = 
        -17316.2672835     -17316.2672835     -17316.2672835
  Force two-norm initial, final = 9.86866e-11 9.86866e-11
  Force max component initial, final = 3.19188e-12 3.19188e-12
  Final line search alpha, max atom move = 0 0
  Iterations, force evaluations = 0 0

Pair  time (%) = 0.035719 (98.5866)
Neigh time (%) = 0 (0)
Comm  time (%) = 0.000480011 (1.32486)
Outpt time (%) = 0 (0)
Other time (%) = 3.2083e-05 (0.088551)

Nlocal:    2912 ave 2912 max 2912 min
Histogram: 1 0 0 0 0 0 0 0 0 0
Nghost:    7129 ave 7129 max 7129 min
Histogram: 1 0 0 0 0 0 0 0 0 0
Neighs:    111648 ave 111648 max 111648 min
Histogram: 1 0 0 0 0 0 0 0 0 0

Total # of neighbors = 111648
Ave neighs/atom = 38.3407
Neighbor list builds = 0
Dangerous builds = 0
	# write_dump all atom ${dumpfile}
        next i
jump SELF loop1
        displace_atoms upper move 0.0 ${ystep1} 0.0 units lattice
        displace_atoms upper move 0.0 0.00288675134594812 0.0 units lattice
        min_style ${style}
        min_style hftn
        minimize ${etol} ${ftol} ${maxiter} ${maxeval}
        minimize 1e-12 ${ftol} ${maxiter} ${maxeval}
        minimize 1e-12 1e-08 ${maxiter} ${maxeval}
        minimize 1e-12 1e-08 10000 ${maxeval}
        minimize 1e-12 1e-08 10000 20000
WARNING: Resetting reneighboring criteria during minimization (../min.cpp:168)
Memory usage per processor = 5.28733 Mbytes
Step Temp PotEng Lx Ly Lz 
      16            0   -17314.126     6.928552    73.736446    4.0002014 
Loop time of 0.0514679 on 1 procs for 0 steps with 2912 atoms

Minimization stats:
  Stopping criterion = force tolerance
  Energy initial, next-to-last, final = 
         -17314.126452      -17314.126452      -17314.126452
  Force two-norm initial, final = 9.86847e-11 9.86847e-11
  Force max component initial, final = 3.19188e-12 3.19188e-12
  Final line search alpha, max atom move = 0 0
  Iterations, force evaluations = 0 0

Pair  time (%) = 0.0509401 (98.9745)
Neigh time (%) = 0 (0)
Comm  time (%) = 0.000493952 (0.959728)
Outpt time (%) = 0 (0)
Other time (%) = 3.38575e-05 (0.0657838)

Nlocal:    2912 ave 2912 max 2912 min
Histogram: 1 0 0 0 0 0 0 0 0 0
Nghost:    7129 ave 7129 max 7129 min
Histogram: 1 0 0 0 0 0 0 0 0 0
Neighs:    111648 ave 111648 max 111648 min
Histogram: 1 0 0 0 0 0 0 0 0 0

Total # of neighbors = 111648
Ave neighs/atom = 38.3407
Neighbor list builds = 0
Dangerous builds = 0
	# write_dump all atom ${dumpfile}
        next i
jump SELF loop1
        displace_atoms upper move 0.0 ${ystep1} 0.0 units lattice
        displace_atoms upper move 0.0 0.00288675134594812 0.0 units lattice
        min_style ${style}
        min_style hftn
        minimize ${etol} ${ftol} ${maxiter} ${maxeval}
        minimize 1e-12 ${ftol} ${maxiter} ${maxeval}
        minimize 1e-12 1e-08 ${maxiter} ${maxeval}
        minimize 1e-12 1e-08 10000 ${maxeval}
        minimize 1e-12 1e-08 10000 20000
WARNING: Resetting reneighboring criteria during minimization (../min.cpp:168)
Memory usage per processor = 5.28733 Mbytes
Step Temp PotEng Lx Ly Lz 
      16            0   -17312.029     6.928552    73.743518    4.0002014 
Loop time of 0.0401051 on 1 procs for 0 steps with 2912 atoms

Minimization stats:
  Stopping criterion = force tolerance
  Energy initial, next-to-last, final = 
        -17312.0285031     -17312.0285031     -17312.0285031
  Force two-norm initial, final = 9.86828e-11 9.86828e-11
  Force max component initial, final = 3.19188e-12 3.19188e-12
  Final line search alpha, max atom move = 0 0
  Iterations, force evaluations = 0 0

Pair  time (%) = 0.0395811 (98.6935)
Neigh time (%) = 0 (0)
Comm  time (%) = 0.000485057 (1.20947)
Outpt time (%) = 0 (0)
Other time (%) = 3.89043e-05 (0.0970058)

Nlocal:    2912 ave 2912 max 2912 min
Histogram: 1 0 0 0 0 0 0 0 0 0
Nghost:    7129 ave 7129 max 7129 min
Histogram: 1 0 0 0 0 0 0 0 0 0
Neighs:    111648 ave 111648 max 111648 min
Histogram: 1 0 0 0 0 0 0 0 0 0

Total # of neighbors = 111648
Ave neighs/atom = 38.3407
Neighbor list builds = 0
Dangerous builds = 0
	# write_dump all atom ${dumpfile}
        next i
jump SELF loop1
        displace_atoms upper move 0.0 ${ystep1} 0.0 units lattice
        displace_atoms upper move 0.0 0.00288675134594812 0.0 units lattice
        min_style ${style}
        min_style hftn
        minimize ${etol} ${ftol} ${maxiter} ${maxeval}
        minimize 1e-12 ${ftol} ${maxiter} ${maxeval}
        minimize 1e-12 1e-08 ${maxiter} ${maxeval}
        minimize 1e-12 1e-08 10000 ${maxeval}
        minimize 1e-12 1e-08 10000 20000
WARNING: Resetting reneighboring criteria during minimization (../min.cpp:168)
Memory usage per processor = 5.28733 Mbytes
Step Temp PotEng Lx Ly Lz 
      16            0   -17309.979     6.928552    73.750589    4.0002014 
Loop time of 0.0376051 on 1 procs for 0 steps with 2912 atoms

Minimization stats:
  Stopping criterion = force tolerance
  Energy initial, next-to-last, final = 
        -17309.9785966     -17309.9785966     -17309.9785966
  Force two-norm initial, final = 9.86809e-11 9.86809e-11
  Force max component initial, final = 3.19188e-12 3.19188e-12
  Final line search alpha, max atom move = 0 0
  Iterations, force evaluations = 0 0

Pair  time (%) = 0.0370401 (98.4976)
Neigh time (%) = 0 (0)
Comm  time (%) = 0.00052805 (1.4042)
Outpt time (%) = 0 (0)
Other time (%) = 3.6912e-05 (0.0981571)

Nlocal:    2912 ave 2912 max 2912 min
Histogram: 1 0 0 0 0 0 0 0 0 0
Nghost:    7129 ave 7129 max 7129 min
Histogram: 1 0 0 0 0 0 0 0 0 0
Neighs:    111648 ave 111648 max 111648 min
Histogram: 1 0 0 0 0 0 0 0 0 0

Total # of neighbors = 111648
Ave neighs/atom = 38.3407
Neighbor list builds = 0
Dangerous builds = 0
	# write_dump all atom ${dumpfile}
        next i
jump SELF loop1
        displace_atoms upper move 0.0 ${ystep1} 0.0 units lattice
        displace_atoms upper move 0.0 0.00288675134594812 0.0 units lattice
        min_style ${style}
        min_style hftn
        minimize ${etol} ${ftol} ${maxiter} ${maxeval}
        minimize 1e-12 ${ftol} ${maxiter} ${maxeval}
        minimize 1e-12 1e-08 ${maxiter} ${maxeval}
        minimize 1e-12 1e-08 10000 ${maxeval}
        minimize 1e-12 1e-08 10000 20000
WARNING: Resetting reneighboring criteria during minimization (../min.cpp:168)
Memory usage per processor = 5.28733 Mbytes
Step Temp PotEng Lx Ly Lz 
      16            0   -17307.982     6.928552    73.757661    4.0002014 
Loop time of 0.0426029 on 1 procs for 0 steps with 2912 atoms

Minimization stats:
  Stopping criterion = force tolerance
  Energy initial, next-to-last, final = 
        -17307.9819296     -17307.9819296     -17307.9819296
  Force two-norm initial, final = 9.86789e-11 9.86789e-11
  Force max component initial, final = 3.19188e-12 3.19188e-12
  Final line search alpha, max atom move = 0 0
  Iterations, force evaluations = 0 0

Pair  time (%) = 0.0420671 (98.7422)
Neigh time (%) = 0 (0)
Comm  time (%) = 0.000500007 (1.17364)
Outpt time (%) = 0 (0)
Other time (%) = 3.58553e-05 (0.0841617)

Nlocal:    2912 ave 2912 max 2912 min
Histogram: 1 0 0 0 0 0 0 0 0 0
Nghost:    7129 ave 7129 max 7129 min
Histogram: 1 0 0 0 0 0 0 0 0 0
Neighs:    111648 ave 111648 max 111648 min
Histogram: 1 0 0 0 0 0 0 0 0 0

Total # of neighbors = 111648
Ave neighs/atom = 38.3407
Neighbor list builds = 0
Dangerous builds = 0
	# write_dump all atom ${dumpfile}
        next i
jump SELF loop1
        displace_atoms upper move 0.0 ${ystep1} 0.0 units lattice
        displace_atoms upper move 0.0 0.00288675134594812 0.0 units lattice
        min_style ${style}
        min_style hftn
        minimize ${etol} ${ftol} ${maxiter} ${maxeval}
        minimize 1e-12 ${ftol} ${maxiter} ${maxeval}
        minimize 1e-12 1e-08 ${maxiter} ${maxeval}
        minimize 1e-12 1e-08 10000 ${maxeval}
        minimize 1e-12 1e-08 10000 20000
WARNING: Resetting reneighboring criteria during minimization (../min.cpp:168)
Memory usage per processor = 5.28733 Mbytes
Step Temp PotEng Lx Ly Lz 
      16            0   -17306.044     6.928552    73.764732    4.0002014 
Loop time of 0.037259 on 1 procs for 0 steps with 2912 atoms

Minimization stats:
  Stopping criterion = force tolerance
  Energy initial, next-to-last, final = 
        -17306.0435845     -17306.0435845     -17306.0435845
  Force two-norm initial, final = 9.86772e-11 9.86772e-11
  Force max component initial, final = 3.19188e-12 3.19188e-12
  Final line search alpha, max atom move = 0 0
  Iterations, force evaluations = 0 0

Pair  time (%) = 0.0371099 (99.5998)
Neigh time (%) = 0 (0)
Comm  time (%) = 0.000114066 (0.306142)
Outpt time (%) = 0 (0)
Other time (%) = 3.50283e-05 (0.0940131)

Nlocal:    2912 ave 2912 max 2912 min
Histogram: 1 0 0 0 0 0 0 0 0 0
Nghost:    7129 ave 7129 max 7129 min
Histogram: 1 0 0 0 0 0 0 0 0 0
Neighs:    111648 ave 111648 max 111648 min
Histogram: 1 0 0 0 0 0 0 0 0 0

Total # of neighbors = 111648
Ave neighs/atom = 38.3407
Neighbor list builds = 0
Dangerous builds = 0
	# write_dump all atom ${dumpfile}
        next i
jump SELF loop1
        displace_atoms upper move 0.0 ${ystep1} 0.0 units lattice
        displace_atoms upper move 0.0 0.00288675134594812 0.0 units lattice
        min_style ${style}
        min_style hftn
        minimize ${etol} ${ftol} ${maxiter} ${maxeval}
        minimize 1e-12 ${ftol} ${maxiter} ${maxeval}
        minimize 1e-12 1e-08 ${maxiter} ${maxeval}
        minimize 1e-12 1e-08 10000 ${maxeval}
        minimize 1e-12 1e-08 10000 20000
WARNING: Resetting reneighboring criteria during minimization (../min.cpp:168)
Memory usage per processor = 5.28733 Mbytes
Step Temp PotEng Lx Ly Lz 
      16            0   -17304.169     6.928552    73.771803    4.0002014 
Loop time of 0.035589 on 1 procs for 0 steps with 2912 atoms

Minimization stats:
  Stopping criterion = force tolerance
  Energy initial, next-to-last, final = 
        -17304.1686253     -17304.1686253     -17304.1686253
  Force two-norm initial, final = 9.86761e-11 9.86761e-11
  Force max component initial, final = 3.19188e-12 3.19188e-12
  Final line search alpha, max atom move = 0 0
  Iterations, force evaluations = 0 0

Pair  time (%) = 0.0350699 (98.5414)
Neigh time (%) = 0 (0)
Comm  time (%) = 0.000486901 (1.36812)
Outpt time (%) = 0 (0)
Other time (%) = 3.21924e-05 (0.0904562)

Nlocal:    2912 ave 2912 max 2912 min
Histogram: 1 0 0 0 0 0 0 0 0 0
Nghost:    7129 ave 7129 max 7129 min
Histogram: 1 0 0 0 0 0 0 0 0 0
Neighs:    111648 ave 111648 max 111648 min
Histogram: 1 0 0 0 0 0 0 0 0 0

Total # of neighbors = 111648
Ave neighs/atom = 38.3407
Neighbor list builds = 0
Dangerous builds = 0
	# write_dump all atom ${dumpfile}
        next i
jump SELF loop1
        displace_atoms upper move 0.0 ${ystep1} 0.0 units lattice
        displace_atoms upper move 0.0 0.00288675134594812 0.0 units lattice
        min_style ${style}
        min_style hftn
        minimize ${etol} ${ftol} ${maxiter} ${maxeval}
        minimize 1e-12 ${ftol} ${maxiter} ${maxeval}
        minimize 1e-12 1e-08 ${maxiter} ${maxeval}
        minimize 1e-12 1e-08 10000 ${maxeval}
        minimize 1e-12 1e-08 10000 20000
WARNING: Resetting reneighboring criteria during minimization (../min.cpp:168)
Memory usage per processor = 5.28733 Mbytes
Step Temp PotEng Lx Ly Lz 
      16            0   -17302.359     6.928552    73.778875    4.0002014 
Loop time of 0.036391 on 1 procs for 0 steps with 2912 atoms

Minimization stats:
  Stopping criterion = force tolerance
  Energy initial, next-to-last, final = 
        -17302.3590841     -17302.3590841     -17302.3590841
  Force two-norm initial, final = 9.86758e-11 9.86758e-11
  Force max component initial, final = 3.19188e-12 3.19188e-12
  Final line search alpha, max atom move = 0 0
  Iterations, force evaluations = 0 0

Pair  time (%) = 0.03589 (98.6232)
Neigh time (%) = 0 (0)
Comm  time (%) = 0.000467175 (1.28377)
Outpt time (%) = 0 (0)
Other time (%) = 3.38721e-05 (0.0930781)

Nlocal:    2912 ave 2912 max 2912 min
Histogram: 1 0 0 0 0 0 0 0 0 0
Nghost:    7129 ave 7129 max 7129 min
Histogram: 1 0 0 0 0 0 0 0 0 0
Neighs:    111648 ave 111648 max 111648 min
Histogram: 1 0 0 0 0 0 0 0 0 0

Total # of neighbors = 111648
Ave neighs/atom = 38.3407
Neighbor list builds = 0
Dangerous builds = 0
	# write_dump all atom ${dumpfile}
        next i
jump SELF loop1
        displace_atoms upper move 0.0 ${ystep1} 0.0 units lattice
        displace_atoms upper move 0.0 0.00288675134594812 0.0 units lattice
        min_style ${style}
        min_style hftn
        minimize ${etol} ${ftol} ${maxiter} ${maxeval}
        minimize 1e-12 ${ftol} ${maxiter} ${maxeval}
        minimize 1e-12 1e-08 ${maxiter} ${maxeval}
        minimize 1e-12 1e-08 10000 ${maxeval}
        minimize 1e-12 1e-08 10000 20000
WARNING: Resetting reneighboring criteria during minimization (../min.cpp:168)
Memory usage per processor = 5.28733 Mbytes
Step Temp PotEng Lx Ly Lz 
      16            0   -17300.616     6.928552    73.785946    4.0002014 
Loop time of 0.0367609 on 1 procs for 0 steps with 2912 atoms

Minimization stats:
  Stopping criterion = force tolerance
  Energy initial, next-to-last, final = 
         -17300.615658      -17300.615658      -17300.615658
  Force two-norm initial, final = 9.86754e-11 9.86754e-11
  Force max component initial, final = 3.19188e-12 3.19188e-12
  Final line search alpha, max atom move = 0 0
  Iterations, force evaluations = 0 0

Pair  time (%) = 0.0362471 (98.6022)
Neigh time (%) = 0 (0)
Comm  time (%) = 0.000481046 (1.30858)
Outpt time (%) = 0 (0)
Other time (%) = 3.28092e-05 (0.0892502)

Nlocal:    2912 ave 2912 max 2912 min
Histogram: 1 0 0 0 0 0 0 0 0 0
Nghost:    7129 ave 7129 max 7129 min
Histogram: 1 0 0 0 0 0 0 0 0 0
Neighs:    111648 ave 111648 max 111648 min
Histogram: 1 0 0 0 0 0 0 0 0 0

Total # of neighbors = 111648
Ave neighs/atom = 38.3407
Neighbor list builds = 0
Dangerous builds = 0
	# write_dump all atom ${dumpfile}
        next i
jump SELF loop1
        displace_atoms upper move 0.0 ${ystep1} 0.0 units lattice
        displace_atoms upper move 0.0 0.00288675134594812 0.0 units lattice
        min_style ${style}
        min_style hftn
        minimize ${etol} ${ftol} ${maxiter} ${maxeval}
        minimize 1e-12 ${ftol} ${maxiter} ${maxeval}
        minimize 1e-12 1e-08 ${maxiter} ${maxeval}
        minimize 1e-12 1e-08 10000 ${maxeval}
        minimize 1e-12 1e-08 10000 20000
WARNING: Resetting reneighboring criteria during minimization (../min.cpp:168)
Memory usage per processor = 5.28733 Mbytes
Step Temp PotEng Lx Ly Lz 
      16            0   -17298.939     6.928552    73.793018    4.0002014 
Loop time of 0.035697 on 1 procs for 0 steps with 2912 atoms

Minimization stats:
  Stopping criterion = force tolerance
  Energy initial, next-to-last, final = 
        -17298.9387839     -17298.9387839     -17298.9387839
  Force two-norm initial, final = 9.86747e-11 9.86747e-11
  Force max component initial, final = 3.19188e-12 3.19188e-12
  Final line search alpha, max atom move = 0 0
  Iterations, force evaluations = 0 0

Pair  time (%) = 0.0351579 (98.4899)
Neigh time (%) = 0 (0)
Comm  time (%) = 0.000506027 (1.41756)
Outpt time (%) = 0 (0)
Other time (%) = 3.30202e-05 (0.0925013)

Nlocal:    2912 ave 2912 max 2912 min
Histogram: 1 0 0 0 0 0 0 0 0 0
Nghost:    7129 ave 7129 max 7129 min
Histogram: 1 0 0 0 0 0 0 0 0 0
Neighs:    111648 ave 111648 max 111648 min
Histogram: 1 0 0 0 0 0 0 0 0 0

Total # of neighbors = 111648
Ave neighs/atom = 38.3407
Neighbor list builds = 0
Dangerous builds = 0
	# write_dump all atom ${dumpfile}
        next i
jump SELF loop1
        displace_atoms upper move 0.0 ${ystep1} 0.0 units lattice
        displace_atoms upper move 0.0 0.00288675134594812 0.0 units lattice
        min_style ${style}
        min_style hftn
        minimize ${etol} ${ftol} ${maxiter} ${maxeval}
        minimize 1e-12 ${ftol} ${maxiter} ${maxeval}
        minimize 1e-12 1e-08 ${maxiter} ${maxeval}
        minimize 1e-12 1e-08 10000 ${maxeval}
        minimize 1e-12 1e-08 10000 20000
WARNING: Resetting reneighboring criteria during minimization (../min.cpp:168)
Memory usage per processor = 5.28733 Mbytes
Step Temp PotEng Lx Ly Lz 
      16            0   -17297.329     6.928552    73.800089    4.0002014 
Loop time of 0.0367359 on 1 procs for 0 steps with 2912 atoms

Minimization stats:
  Stopping criterion = force tolerance
  Energy initial, next-to-last, final = 
        -17297.3290906     -17297.3290906     -17297.3290906
  Force two-norm initial, final = 9.86742e-11 9.86742e-11
  Force max component initial, final = 3.19188e-12 3.19188e-12
  Final line search alpha, max atom move = 0 0
  Iterations, force evaluations = 0 0

Pair  time (%) = 0.0350911 (95.5225)
Neigh time (%) = 0 (0)
Comm  time (%) = 0.00158483 (4.3141)
Outpt time (%) = 0 (0)
Other time (%) = 6.0018e-05 (0.163377)

Nlocal:    2912 ave 2912 max 2912 min
Histogram: 1 0 0 0 0 0 0 0 0 0
Nghost:    7129 ave 7129 max 7129 min
Histogram: 1 0 0 0 0 0 0 0 0 0
Neighs:    111648 ave 111648 max 111648 min
Histogram: 1 0 0 0 0 0 0 0 0 0

Total # of neighbors = 111648
Ave neighs/atom = 38.3407
Neighbor list builds = 0
Dangerous builds = 0
	# write_dump all atom ${dumpfile}
        next i
jump SELF loop1
        displace_atoms upper move 0.0 ${ystep1} 0.0 units lattice
        displace_atoms upper move 0.0 0.00288675134594812 0.0 units lattice
        min_style ${style}
        min_style hftn
        minimize ${etol} ${ftol} ${maxiter} ${maxeval}
        minimize 1e-12 ${ftol} ${maxiter} ${maxeval}
        minimize 1e-12 1e-08 ${maxiter} ${maxeval}
        minimize 1e-12 1e-08 10000 ${maxeval}
        minimize 1e-12 1e-08 10000 20000
WARNING: Resetting reneighboring criteria during minimization (../min.cpp:168)
Memory usage per processor = 5.28733 Mbytes
Step Temp PotEng Lx Ly Lz 
      16            0   -17295.787     6.928552    73.807161    4.0002014 
Loop time of 0.037841 on 1 procs for 0 steps with 2912 atoms

Minimization stats:
  Stopping criterion = force tolerance
  Energy initial, next-to-last, final = 
        -17295.7871904     -17295.7871904     -17295.7871904
  Force two-norm initial, final = 9.86737e-11 9.86737e-11
  Force max component initial, final = 3.19188e-12 3.19188e-12
  Final line search alpha, max atom move = 0 0
  Iterations, force evaluations = 0 0

Pair  time (%) = 0.037339 (98.6732)
Neigh time (%) = 0 (0)
Comm  time (%) = 0.000470061 (1.2422)
Outpt time (%) = 0 (0)
Other time (%) = 3.20331e-05 (0.0846517)

Nlocal:    2912 ave 2912 max 2912 min
Histogram: 1 0 0 0 0 0 0 0 0 0
Nghost:    7129 ave 7129 max 7129 min
Histogram: 1 0 0 0 0 0 0 0 0 0
Neighs:    111648 ave 111648 max 111648 min
Histogram: 1 0 0 0 0 0 0 0 0 0

Total # of neighbors = 111648
Ave neighs/atom = 38.3407
Neighbor list builds = 0
Dangerous builds = 0
	# write_dump all atom ${dumpfile}
        next i
jump SELF loop1
        displace_atoms upper move 0.0 ${ystep1} 0.0 units lattice
        displace_atoms upper move 0.0 0.00288675134594812 0.0 units lattice
        min_style ${style}
        min_style hftn
        minimize ${etol} ${ftol} ${maxiter} ${maxeval}
        minimize 1e-12 ${ftol} ${maxiter} ${maxeval}
        minimize 1e-12 1e-08 ${maxiter} ${maxeval}
        minimize 1e-12 1e-08 10000 ${maxeval}
        minimize 1e-12 1e-08 10000 20000
WARNING: Resetting reneighboring criteria during minimization (../min.cpp:168)
Memory usage per processor = 5.28733 Mbytes
Step Temp PotEng Lx Ly Lz 
      16            0   -17294.314     6.928552    73.814232    4.0002014 
Loop time of 0.035835 on 1 procs for 0 steps with 2912 atoms

Minimization stats:
  Stopping criterion = force tolerance
  Energy initial, next-to-last, final = 
        -17294.3135599     -17294.3135599     -17294.3135599
  Force two-norm initial, final = 9.86732e-11 9.86732e-11
  Force max component initial, final = 3.19188e-12 3.19188e-12
  Final line search alpha, max atom move = 0 0
  Iterations, force evaluations = 0 0

Pair  time (%) = 0.0352839 (98.4621)
Neigh time (%) = 0 (0)
Comm  time (%) = 0.000518974 (1.44823)
Outpt time (%) = 0 (0)
Other time (%) = 3.21202e-05 (0.0896334)

Nlocal:    2912 ave 2912 max 2912 min
Histogram: 1 0 0 0 0 0 0 0 0 0
Nghost:    7129 ave 7129 max 7129 min
Histogram: 1 0 0 0 0 0 0 0 0 0
Neighs:    111648 ave 111648 max 111648 min
Histogram: 1 0 0 0 0 0 0 0 0 0

Total # of neighbors = 111648
Ave neighs/atom = 38.3407
Neighbor list builds = 0
Dangerous builds = 0
	# write_dump all atom ${dumpfile}
        next i
jump SELF loop1
        displace_atoms upper move 0.0 ${ystep1} 0.0 units lattice
        displace_atoms upper move 0.0 0.00288675134594812 0.0 units lattice
        min_style ${style}
        min_style hftn
        minimize ${etol} ${ftol} ${maxiter} ${maxeval}
        minimize 1e-12 ${ftol} ${maxiter} ${maxeval}
        minimize 1e-12 1e-08 ${maxiter} ${maxeval}
        minimize 1e-12 1e-08 10000 ${maxeval}
        minimize 1e-12 1e-08 10000 20000
WARNING: Resetting reneighboring criteria during minimization (../min.cpp:168)
Memory usage per processor = 5.28733 Mbytes
Step Temp PotEng Lx Ly Lz 
      16            0   -17292.909     6.928552    73.821303    4.0002014 
Loop time of 0.0534001 on 1 procs for 0 steps with 2912 atoms

Minimization stats:
  Stopping criterion = force tolerance
  Energy initial, next-to-last, final = 
[...]
  Force max component initial, final = 3.19188e-12 3.19188e-12
  Final line search alpha, max atom move = 0 0
  Iterations, force evaluations = 0 0

Pair  time (%) = 0.0369529 (98.3943)
Neigh time (%) = 0 (0)
Comm  time (%) = 0.000567881 (1.51209)
Outpt time (%) = 0 (0)
Other time (%) = 3.51666e-05 (0.093638)

Nlocal:    2912 ave 2912 max 2912 min
Histogram: 1 0 0 0 0 0 0 0 0 0
Nghost:    7129 ave 7129 max 7129 min
Histogram: 1 0 0 0 0 0 0 0 0 0
Neighs:    110880 ave 110880 max 110880 min
Histogram: 1 0 0 0 0 0 0 0 0 0

Total # of neighbors = 110880
Ave neighs/atom = 38.0769
Neighbor list builds = 0
Dangerous builds = 0
	# write_dump all atom ${dumpfile}
        next i
jump SELF loop1
        displace_atoms upper move 0.0 ${ystep1} 0.0 units lattice
        displace_atoms upper move 0.0 0.00288675134594812 0.0 units lattice
        min_style ${style}
        min_style hftn
        minimize ${etol} ${ftol} ${maxiter} ${maxeval}
        minimize 1e-12 ${ftol} ${maxiter} ${maxeval}
        minimize 1e-12 1e-08 ${maxiter} ${maxeval}
        minimize 1e-12 1e-08 10000 ${maxeval}
        minimize 1e-12 1e-08 10000 20000
WARNING: Resetting reneighboring criteria during minimization (../min.cpp:168)
Memory usage per processor = 5.28733 Mbytes
Step Temp PotEng Lx Ly Lz 
      16            0    -17279.99     6.928552    75.560874    4.0002014 
Loop time of 0.036342 on 1 procs for 0 steps with 2912 atoms

Minimization stats:
  Stopping criterion = force tolerance
  Energy initial, next-to-last, final = 
        -17279.9900092     -17279.9900092     -17279.9900092
  Force two-norm initial, final = 9.86798e-11 9.86798e-11
  Force max component initial, final = 3.19188e-12 3.19188e-12
  Final line search alpha, max atom move = 0 0
  Iterations, force evaluations = 0 0

Pair  time (%) = 0.035735 (98.3299)
Neigh time (%) = 0 (0)
Comm  time (%) = 0.000552938 (1.52149)
Outpt time (%) = 0 (0)
Other time (%) = 5.40165e-05 (0.148634)

Nlocal:    2912 ave 2912 max 2912 min
Histogram: 1 0 0 0 0 0 0 0 0 0
Nghost:    7129 ave 7129 max 7129 min
Histogram: 1 0 0 0 0 0 0 0 0 0
Neighs:    110880 ave 110880 max 110880 min
Histogram: 1 0 0 0 0 0 0 0 0 0

Total # of neighbors = 110880
Ave neighs/atom = 38.0769
Neighbor list builds = 0
Dangerous builds = 0
	# write_dump all atom ${dumpfile}
        next i
jump SELF loop1
        displace_atoms upper move 0.0 ${ystep1} 0.0 units lattice
        displace_atoms upper move 0.0 0.00288675134594812 0.0 units lattice
        min_style ${style}
        min_style hftn
        minimize ${etol} ${ftol} ${maxiter} ${maxeval}
        minimize 1e-12 ${ftol} ${maxiter} ${maxeval}
        minimize 1e-12 1e-08 ${maxiter} ${maxeval}
        minimize 1e-12 1e-08 10000 ${maxeval}
        minimize 1e-12 1e-08 10000 20000
WARNING: Resetting reneighboring criteria during minimization (../min.cpp:168)
Memory usage per processor = 5.28733 Mbytes
Step Temp PotEng Lx Ly Lz 
      16            0    -17279.99     6.928552    75.567945    4.0002014 
Loop time of 0.0369139 on 1 procs for 0 steps with 2912 atoms

Minimization stats:
  Stopping criterion = force tolerance
  Energy initial, next-to-last, final = 
        -17279.9900092     -17279.9900092     -17279.9900092
  Force two-norm initial, final = 9.86802e-11 9.86802e-11
  Force max component initial, final = 3.19188e-12 3.19188e-12
  Final line search alpha, max atom move = 0 0
  Iterations, force evaluations = 0 0

Pair  time (%) = 0.036392 (98.5861)
Neigh time (%) = 0 (0)
Comm  time (%) = 0.000488044 (1.32211)
Outpt time (%) = 0 (0)
Other time (%) = 3.3865e-05 (0.0917404)

Nlocal:    2912 ave 2912 max 2912 min
Histogram: 1 0 0 0 0 0 0 0 0 0
Nghost:    7129 ave 7129 max 7129 min
Histogram: 1 0 0 0 0 0 0 0 0 0
Neighs:    110880 ave 110880 max 110880 min
Histogram: 1 0 0 0 0 0 0 0 0 0

Total # of neighbors = 110880
Ave neighs/atom = 38.0769
Neighbor list builds = 0
Dangerous builds = 0
	# write_dump all atom ${dumpfile}
        next i
jump SELF loop1
        displace_atoms upper move 0.0 ${ystep1} 0.0 units lattice
        displace_atoms upper move 0.0 0.00288675134594812 0.0 units lattice
        min_style ${style}
        min_style hftn
        minimize ${etol} ${ftol} ${maxiter} ${maxeval}
        minimize 1e-12 ${ftol} ${maxiter} ${maxeval}
        minimize 1e-12 1e-08 ${maxiter} ${maxeval}
        minimize 1e-12 1e-08 10000 ${maxeval}
        minimize 1e-12 1e-08 10000 20000
WARNING: Resetting reneighboring criteria during minimization (../min.cpp:168)
Memory usage per processor = 5.28733 Mbytes
Step Temp PotEng Lx Ly Lz 
      16            0    -17279.99     6.928552    75.575017    4.0002014 
Loop time of 0.035742 on 1 procs for 0 steps with 2912 atoms

Minimization stats:
  Stopping criterion = force tolerance
  Energy initial, next-to-last, final = 
        -17279.9900092     -17279.9900092     -17279.9900092
  Force two-norm initial, final = 9.86798e-11 9.86798e-11
  Force max component initial, final = 3.19188e-12 3.19188e-12
  Final line search alpha, max atom move = 0 0
  Iterations, force evaluations = 0 0

Pair  time (%) = 0.0352291 (98.565)
Neigh time (%) = 0 (0)
Comm  time (%) = 0.00047917 (1.34064)
Outpt time (%) = 0 (0)
Other time (%) = 3.37389e-05 (0.0943958)

Nlocal:    2912 ave 2912 max 2912 min
Histogram: 1 0 0 0 0 0 0 0 0 0
Nghost:    7129 ave 7129 max 7129 min
Histogram: 1 0 0 0 0 0 0 0 0 0
Neighs:    110880 ave 110880 max 110880 min
Histogram: 1 0 0 0 0 0 0 0 0 0

Total # of neighbors = 110880
Ave neighs/atom = 38.0769
Neighbor list builds = 0
Dangerous builds = 0
	# write_dump all atom ${dumpfile}
        next i
jump SELF loop1
        displace_atoms upper move 0.0 ${ystep1} 0.0 units lattice
        displace_atoms upper move 0.0 0.00288675134594812 0.0 units lattice
        min_style ${style}
        min_style hftn
        minimize ${etol} ${ftol} ${maxiter} ${maxeval}
        minimize 1e-12 ${ftol} ${maxiter} ${maxeval}
        minimize 1e-12 1e-08 ${maxiter} ${maxeval}
        minimize 1e-12 1e-08 10000 ${maxeval}
        minimize 1e-12 1e-08 10000 20000
WARNING: Resetting reneighboring criteria during minimization (../min.cpp:168)
Memory usage per processor = 5.28733 Mbytes
Step Temp PotEng Lx Ly Lz 
      16            0    -17279.99     6.928552    75.582088    4.0002014 
Loop time of 0.0365229 on 1 procs for 0 steps with 2912 atoms

Minimization stats:
  Stopping criterion = force tolerance
  Energy initial, next-to-last, final = 
        -17279.9900092     -17279.9900092     -17279.9900092
  Force two-norm initial, final = 9.868e-11 9.868e-11
  Force max component initial, final = 3.19188e-12 3.19188e-12
  Final line search alpha, max atom move = 0 0
  Iterations, force evaluations = 0 0

Pair  time (%) = 0.036014 (98.6066)
Neigh time (%) = 0 (0)
Comm  time (%) = 0.000472944 (1.29492)
Outpt time (%) = 0 (0)
Other time (%) = 3.59645e-05 (0.0984711)

Nlocal:    2912 ave 2912 max 2912 min
Histogram: 1 0 0 0 0 0 0 0 0 0
Nghost:    7129 ave 7129 max 7129 min
Histogram: 1 0 0 0 0 0 0 0 0 0
Neighs:    110880 ave 110880 max 110880 min
Histogram: 1 0 0 0 0 0 0 0 0 0

Total # of neighbors = 110880
Ave neighs/atom = 38.0769
Neighbor list builds = 0
Dangerous builds = 0
	# write_dump all atom ${dumpfile}
        next i
jump SELF loop1
        displace_atoms upper move 0.0 ${ystep1} 0.0 units lattice
        displace_atoms upper move 0.0 0.00288675134594812 0.0 units lattice
        min_style ${style}
        min_style hftn
        minimize ${etol} ${ftol} ${maxiter} ${maxeval}
        minimize 1e-12 ${ftol} ${maxiter} ${maxeval}
        minimize 1e-12 1e-08 ${maxiter} ${maxeval}
        minimize 1e-12 1e-08 10000 ${maxeval}
        minimize 1e-12 1e-08 10000 20000
WARNING: Resetting reneighboring criteria during minimization (../min.cpp:168)
Memory usage per processor = 5.28733 Mbytes
Step Temp PotEng Lx Ly Lz 
      16            0    -17279.99     6.928552    75.589159    4.0002014 
Loop time of 0.0402541 on 1 procs for 0 steps with 2912 atoms

Minimization stats:
  Stopping criterion = force tolerance
  Energy initial, next-to-last, final = 
        -17279.9900092     -17279.9900092     -17279.9900092
  Force two-norm initial, final = 9.86798e-11 9.86798e-11
  Force max component initial, final = 3.19188e-12 3.19188e-12
  Final line search alpha, max atom move = 0 0
  Iterations, force evaluations = 0 0

Pair  time (%) = 0.039268 (97.5502)
Neigh time (%) = 0 (0)
Comm  time (%) = 0.000947937 (2.35488)
Outpt time (%) = 0 (0)
Other time (%) = 3.82171e-05 (0.0949395)

Nlocal:    2912 ave 2912 max 2912 min
Histogram: 1 0 0 0 0 0 0 0 0 0
Nghost:    7129 ave 7129 max 7129 min
Histogram: 1 0 0 0 0 0 0 0 0 0
Neighs:    110880 ave 110880 max 110880 min
Histogram: 1 0 0 0 0 0 0 0 0 0

Total # of neighbors = 110880
Ave neighs/atom = 38.0769
Neighbor list builds = 0
Dangerous builds = 0
	# write_dump all atom ${dumpfile}
        next i
jump SELF loop1
        displace_atoms upper move 0.0 ${ystep1} 0.0 units lattice
        displace_atoms upper move 0.0 0.00288675134594812 0.0 units lattice
        min_style ${style}
        min_style hftn
        minimize ${etol} ${ftol} ${maxiter} ${maxeval}
        minimize 1e-12 ${ftol} ${maxiter} ${maxeval}
        minimize 1e-12 1e-08 ${maxiter} ${maxeval}
        minimize 1e-12 1e-08 10000 ${maxeval}
        minimize 1e-12 1e-08 10000 20000
WARNING: Resetting reneighboring criteria during minimization (../min.cpp:168)
Memory usage per processor = 5.28733 Mbytes
Step Temp PotEng Lx Ly Lz 
      16            0    -17279.99     6.928552    75.596231    4.0002014 
Loop time of 0.043646 on 1 procs for 0 steps with 2912 atoms

Minimization stats:
  Stopping criterion = force tolerance
  Energy initial, next-to-last, final = 
        -17279.9900092     -17279.9900092     -17279.9900092
  Force two-norm initial, final = 9.86801e-11 9.86801e-11
  Force max component initial, final = 3.19188e-12 3.19188e-12
  Final line search alpha, max atom move = 0 0
  Iterations, force evaluations = 0 0

Pair  time (%) = 0.0431021 (98.7538)
Neigh time (%) = 0 (0)
Comm  time (%) = 0.000509138 (1.16652)
Outpt time (%) = 0 (0)
Other time (%) = 3.47845e-05 (0.0796969)

Nlocal:    2912 ave 2912 max 2912 min
Histogram: 1 0 0 0 0 0 0 0 0 0
Nghost:    7129 ave 7129 max 7129 min
Histogram: 1 0 0 0 0 0 0 0 0 0
Neighs:    110880 ave 110880 max 110880 min
Histogram: 1 0 0 0 0 0 0 0 0 0

Total # of neighbors = 110880
Ave neighs/atom = 38.0769
Neighbor list builds = 0
Dangerous builds = 0
	# write_dump all atom ${dumpfile}
        next i
jump SELF loop1
        displace_atoms upper move 0.0 ${ystep1} 0.0 units lattice
        displace_atoms upper move 0.0 0.00288675134594812 0.0 units lattice
        min_style ${style}
        min_style hftn
        minimize ${etol} ${ftol} ${maxiter} ${maxeval}
        minimize 1e-12 ${ftol} ${maxiter} ${maxeval}
        minimize 1e-12 1e-08 ${maxiter} ${maxeval}
        minimize 1e-12 1e-08 10000 ${maxeval}
        minimize 1e-12 1e-08 10000 20000
WARNING: Resetting reneighboring criteria during minimization (../min.cpp:168)
Memory usage per processor = 5.28733 Mbytes
Step Temp PotEng Lx Ly Lz 
      16            0    -17279.99     6.928552    75.603302    4.0002014 
Loop time of 0.03865 on 1 procs for 0 steps with 2912 atoms

Minimization stats:
  Stopping criterion = force tolerance
  Energy initial, next-to-last, final = 
        -17279.9900092     -17279.9900092     -17279.9900092
  Force two-norm initial, final = 9.86797e-11 9.86797e-11
  Force max component initial, final = 3.19188e-12 3.19188e-12
  Final line search alpha, max atom move = 0 0
  Iterations, force evaluations = 0 0

Pair  time (%) = 0.0381401 (98.6807)
Neigh time (%) = 0 (0)
Comm  time (%) = 0.00047515 (1.22937)
Outpt time (%) = 0 (0)
Other time (%) = 3.47587e-05 (0.0899319)

Nlocal:    2912 ave 2912 max 2912 min
Histogram: 1 0 0 0 0 0 0 0 0 0
Nghost:    7129 ave 7129 max 7129 min
Histogram: 1 0 0 0 0 0 0 0 0 0
Neighs:    110880 ave 110880 max 110880 min
Histogram: 1 0 0 0 0 0 0 0 0 0

Total # of neighbors = 110880
Ave neighs/atom = 38.0769
Neighbor list builds = 0
Dangerous builds = 0
	# write_dump all atom ${dumpfile}
        next i
jump SELF loop1
        displace_atoms upper move 0.0 ${ystep1} 0.0 units lattice
        displace_atoms upper move 0.0 0.00288675134594812 0.0 units lattice
        min_style ${style}
        min_style hftn
        minimize ${etol} ${ftol} ${maxiter} ${maxeval}
        minimize 1e-12 ${ftol} ${maxiter} ${maxeval}
        minimize 1e-12 1e-08 ${maxiter} ${maxeval}
        minimize 1e-12 1e-08 10000 ${maxeval}
        minimize 1e-12 1e-08 10000 20000
WARNING: Resetting reneighboring criteria during minimization (../min.cpp:168)
Memory usage per processor = 5.28733 Mbytes
Step Temp PotEng Lx Ly Lz 
      16            0    -17279.99     6.928552    75.610374    4.0002014 
Loop time of 0.0364439 on 1 procs for 0 steps with 2912 atoms

Minimization stats:
  Stopping criterion = force tolerance
  Energy initial, next-to-last, final = 
        -17279.9900092     -17279.9900092     -17279.9900092
  Force two-norm initial, final = 9.86801e-11 9.86801e-11
  Force max component initial, final = 3.19188e-12 3.19188e-12
  Final line search alpha, max atom move = 0 0
  Iterations, force evaluations = 0 0

Pair  time (%) = 0.0353819 (97.0859)
Neigh time (%) = 0 (0)
Comm  time (%) = 0.00101588 (2.7875)
Outpt time (%) = 0 (0)
Other time (%) = 4.61257e-05 (0.126566)

Nlocal:    2912 ave 2912 max 2912 min
Histogram: 1 0 0 0 0 0 0 0 0 0
Nghost:    7129 ave 7129 max 7129 min
Histogram: 1 0 0 0 0 0 0 0 0 0
Neighs:    110880 ave 110880 max 110880 min
Histogram: 1 0 0 0 0 0 0 0 0 0

Total # of neighbors = 110880
Ave neighs/atom = 38.0769
Neighbor list builds = 0
Dangerous builds = 0
	# write_dump all atom ${dumpfile}
        next i
jump SELF loop1
        displace_atoms upper move 0.0 ${ystep1} 0.0 units lattice
        displace_atoms upper move 0.0 0.00288675134594812 0.0 units lattice
        min_style ${style}
        min_style hftn
        minimize ${etol} ${ftol} ${maxiter} ${maxeval}
        minimize 1e-12 ${ftol} ${maxiter} ${maxeval}
        minimize 1e-12 1e-08 ${maxiter} ${maxeval}
        minimize 1e-12 1e-08 10000 ${maxeval}
        minimize 1e-12 1e-08 10000 20000
WARNING: Resetting reneighboring criteria during minimization (../min.cpp:168)
Memory usage per processor = 5.28733 Mbytes
Step Temp PotEng Lx Ly Lz 
      16            0    -17279.99     6.928552    75.617445    4.0002014 
Loop time of 0.0380141 on 1 procs for 0 steps with 2912 atoms

Minimization stats:
  Stopping criterion = force tolerance
  Energy initial, next-to-last, final = 
        -17279.9900092     -17279.9900092     -17279.9900092
  Force two-norm initial, final = 9.86797e-11 9.86797e-11
  Force max component initial, final = 3.19188e-12 3.19188e-12
  Final line search alpha, max atom move = 0 0
  Iterations, force evaluations = 0 0

Pair  time (%) = 0.0376409 (99.0184)
Neigh time (%) = 0 (0)
Comm  time (%) = 0.000335829 (0.883432)
Outpt time (%) = 0 (0)
Other time (%) = 3.73184e-05 (0.09817)

Nlocal:    2912 ave 2912 max 2912 min
Histogram: 1 0 0 0 0 0 0 0 0 0
Nghost:    7129 ave 7129 max 7129 min
Histogram: 1 0 0 0 0 0 0 0 0 0
Neighs:    110880 ave 110880 max 110880 min
Histogram: 1 0 0 0 0 0 0 0 0 0

Total # of neighbors = 110880
Ave neighs/atom = 38.0769
Neighbor list builds = 0
Dangerous builds = 0
	# write_dump all atom ${dumpfile}
        next i
jump SELF loop1
        displace_atoms upper move 0.0 ${ystep1} 0.0 units lattice
        displace_atoms upper move 0.0 0.00288675134594812 0.0 units lattice
        min_style ${style}
        min_style hftn
        minimize ${etol} ${ftol} ${maxiter} ${maxeval}
        minimize 1e-12 ${ftol} ${maxiter} ${maxeval}
        minimize 1e-12 1e-08 ${maxiter} ${maxeval}
        minimize 1e-12 1e-08 10000 ${maxeval}
        minimize 1e-12 1e-08 10000 20000
WARNING: Resetting reneighboring criteria during minimization (../min.cpp:168)
Memory usage per processor = 5.28733 Mbytes
Step Temp PotEng Lx Ly Lz 
      16            0    -17279.99     6.928552    75.624516    4.0002014 
Loop time of 0.037639 on 1 procs for 0 steps with 2912 atoms

Minimization stats:
  Stopping criterion = force tolerance
  Energy initial, next-to-last, final = 
        -17279.9900092     -17279.9900092     -17279.9900092
  Force two-norm initial, final = 9.868e-11 9.868e-11
  Force max component initial, final = 3.19188e-12 3.19188e-12
  Final line search alpha, max atom move = 0 0
  Iterations, force evaluations = 0 0

Pair  time (%) = 0.0371201 (98.6215)
Neigh time (%) = 0 (0)
Comm  time (%) = 0.000483051 (1.28338)
Outpt time (%) = 0 (0)
Other time (%) = 3.58114e-05 (0.0951446)

Nlocal:    2912 ave 2912 max 2912 min
Histogram: 1 0 0 0 0 0 0 0 0 0
Nghost:    7129 ave 7129 max 7129 min
Histogram: 1 0 0 0 0 0 0 0 0 0
Neighs:    110880 ave 110880 max 110880 min
Histogram: 1 0 0 0 0 0 0 0 0 0

Total # of neighbors = 110880
Ave neighs/atom = 38.0769
Neighbor list builds = 0
Dangerous builds = 0
	# write_dump all atom ${dumpfile}
        next i
jump SELF loop1

# allow atoms to relax in y-direction, now that two halves have separated
unfix 2
min_style ${style}
min_style hftn
minimize ${etol} ${ftol} ${maxiter} ${maxeval}
minimize 1e-12 ${ftol} ${maxiter} ${maxeval}
minimize 1e-12 1e-08 ${maxiter} ${maxeval}
minimize 1e-12 1e-08 10000 ${maxeval}
minimize 1e-12 1e-08 10000 20000
WARNING: Resetting reneighboring criteria during minimization (../min.cpp:168)
Memory usage per processor = 5.28733 Mbytes
Step Temp PotEng Lx Ly Lz 
      16            0    -17279.99     6.928552    75.624516    4.0002014 
      17            0    -17279.99     6.928552    75.624516    4.0002014 
      18            0    -17279.99     6.928552    75.624516    4.0002014 
      19            0    -17279.99     6.928552    75.624516    4.0002014 
      20            0    -17279.99     6.928552    75.624516    4.0002014 
      21            0    -17279.99     6.928552    75.624516    4.0002014 
      22            0    -17279.99     6.928552    75.624516    4.0002014 
      23            0    -17279.99     6.928552    75.624516    4.0002014 
      24            0    -17279.99     6.928552    75.624516    4.0002014 
      25            0    -17279.99     6.928552    75.624516    4.0002014 
      26            0    -17279.99     6.928552    75.624516    4.0002014 
      27            0    -17279.99     6.928552    75.624516    4.0002014 
      28            0    -17279.99     6.928552    75.624516    4.0002014 
      29            0    -17279.99     6.928552    75.624516    4.0002014 
      30            0    -17279.99     6.928552    75.624516    4.0002014 
      31            0    -17279.99     6.928552    75.624516    4.0002014 
      32            0    -17279.99     6.928552    75.624516    4.0002014 
      33            0    -17279.99     6.928552    75.624516    4.0002014 
      34            0    -17279.99     6.928552    75.624516    4.0002014 
Loop time of 6.25669 on 1 procs for 17 steps with 2912 atoms

Minimization stats:
  Stopping criterion = energy tolerance
  Energy initial, next-to-last, final = 
        -17279.9900092     -17279.9902772     -17279.9903331
  Force two-norm initial, final = 0.148134 0.0651415
  Force max component initial, final = 0.0130933 0.00329485
  Final line search alpha, max atom move = 0 0
  Iterations, force evaluations = 17 180

Pair  time (%) = 6.15 (98.2949)
Neigh time (%) = 0 (0)
Comm  time (%) = 0.0843945 (1.34887)
Outpt time (%) = 0.00184529 (0.029493)
Other time (%) = 0.0204454 (0.326777)

Nlocal:    2912 ave 2912 max 2912 min
Histogram: 1 0 0 0 0 0 0 0 0 0
Nghost:    7129 ave 7129 max 7129 min
Histogram: 1 0 0 0 0 0 0 0 0 0
Neighs:    110880 ave 110880 max 110880 min
Histogram: 1 0 0 0 0 0 0 0 0 0

Total # of neighbors = 110880
Ave neighs/atom = 38.0769
Neighbor list builds = 0
Dangerous builds = 0

write_dump all atom ${dumpfile}
write_dump all atom surf_V_inter13_3d.*.dump


