LAMMPS (28 Jun 2014)
# attempt at getting surface energy

#file prefix
variable prefix string surf_V_inter1
variable dumpfile string ${prefix}.*.dump
variable dumpfile string surf_V_inter1.*.dump
variable restartfile string ${prefix}.*.equil
variable restartfile string surf_V_inter1.*.equil

#Mass (g/mol)
variable m equal 1

# lattice constant (in Angstroms) and orientation of axes (given by lattice vectors)
variable rho equal 0.9165
variable x1 equal 1
variable x2 equal 0
variable x3 equal 0
variable y1 equal 0
variable y2 equal 1
variable y3 equal 0
# length of lattice in different directions (using orientation of lattice vectors)
variable ax equal sqrt(${x1}*${x1}+${x2}*${x2}+${x3}*${x3})
variable ax equal sqrt(1*${x1}+${x2}*${x2}+${x3}*${x3})
variable ax equal sqrt(1*1+${x2}*${x2}+${x3}*${x3})
variable ax equal sqrt(1*1+0*${x2}+${x3}*${x3})
variable ax equal sqrt(1*1+0*0+${x3}*${x3})
variable ax equal sqrt(1*1+0*0+0*${x3})
variable ax equal sqrt(1*1+0*0+0*0)
variable ay equal sqrt(${y1}*${y1}+${y2}*${y2}+${y3}*${y3})
variable ay equal sqrt(0*${y1}+${y2}*${y2}+${y3}*${y3})
variable ay equal sqrt(0*0+${y2}*${y2}+${y3}*${y3})
variable ay equal sqrt(0*0+1*${y2}+${y3}*${y3})
variable ay equal sqrt(0*0+1*1+${y3}*${y3})
variable ay equal sqrt(0*0+1*1+0*${y3})
variable ay equal sqrt(0*0+1*1+0*0)
variable az equal 1

# size of box in lattice units
variable lxpos equal 1
variable lxneg equal 0
variable lypos equal 10
variable lyneg equal -1*${lypos}
variable lyneg equal -1*10
variable lzpos equal 1
variable lzneg equal 0

# Define minimization parameters and damping
variable etol equal 1.0e-12
variable ftol equal 1.0e-8
variable maxiter equal 10000
variable maxeval equal 20000
variable style string hftn

# boundary conditions
dimension	2
boundary	p s p
atom_style	atomic

# create geometry
units		lj
lattice         hex ${rho}
lattice         hex 0.9165
Lattice spacing in x,y,z = 1.12245 1.94415 1.12245
region		myregion block ${lxneg} ${lxpos} ${lyneg} ${lypos} ${lzneg} ${lzpos} units lattice
region		myregion block 0 ${lxpos} ${lyneg} ${lypos} ${lzneg} ${lzpos} units lattice
region		myregion block 0 1 ${lyneg} ${lypos} ${lzneg} ${lzpos} units lattice
region		myregion block 0 1 -10 ${lypos} ${lzneg} ${lzpos} units lattice
region		myregion block 0 1 -10 10 ${lzneg} ${lzpos} units lattice
region		myregion block 0 1 -10 10 0 ${lzpos} units lattice
region		myregion block 0 1 -10 10 0 1 units lattice
create_box	1 myregion
Created orthogonal box = (0 -19.4415 0) to (1.12245 19.4415 1.12245)
  1 by 1 by 1 MPI processor grid
create_atoms	1 box
Created 41 atoms

# define masses
mass * $m
mass * 1

# my fake/morse potential
pair_style      table linear 3001
pair_coeff      * * vpotential_inter1 dummy
neighbor	0.3 bin
neigh_modify	delay 5

# define groups
region	    upper block INF INF 0.01 ${lypos} INF INF units lattice
region	    upper block INF INF 0.01 10 INF INF units lattice
group		upper region upper
20 atoms in group upper

# Setup output
thermo 1
thermo_style custom step temp pe lx ly lz
thermo_modify norm no

# Compute initial state by relaxing box
min_style ${style}
min_style hftn
minimize ${etol} ${ftol} ${maxiter} ${maxeval}
minimize 1e-12 ${ftol} ${maxiter} ${maxeval}
minimize 1e-12 1e-08 ${maxiter} ${maxeval}
minimize 1e-12 1e-08 10000 ${maxeval}
minimize 1e-12 1e-08 10000 20000
WARNING: Resetting reneighboring criteria during minimization (../min.cpp:168)
Memory usage per processor = 4.85962 Mbytes
Step Temp PotEng Lx Ly Lz 
       0            0   -120.99996    1.1224537    38.890715    1.1224537 
       1            0   -120.99997    1.1224537    38.890715    1.1224537 
Loop time of 0.000622885 on 1 procs for 0 steps with 41 atoms

Minimization stats:
  Stopping criterion = force tolerance
  Energy initial, next-to-last, final = 
        -120.999963848     -120.999963848      -120.99996855
  Force two-norm initial, final = 0.000550698 8.42587e-09
  Force max component initial, final = 0.000389403 5.95303e-09
  Final line search alpha, max atom move = 0 0
  Iterations, force evaluations = 0 43

Pair  time (%) = 0.000395229 (63.4514)
Neigh time (%) = 0 (0)
Comm  time (%) = 6.50822e-05 (10.4485)
Outpt time (%) = 0 (0)
Other time (%) = 0.000162574 (26.1001)

Nlocal:    41 ave 41 max 41 min
Histogram: 1 0 0 0 0 0 0 0 0 0
Nghost:    185 ave 185 max 185 min
Histogram: 1 0 0 0 0 0 0 0 0 0
Neighs:    359 ave 359 max 359 min
Histogram: 1 0 0 0 0 0 0 0 0 0

Total # of neighbors = 359
Ave neighs/atom = 8.7561
Neighbor list builds = 0
Dangerous builds = 0

# don't allow atoms to relax in y-direction
fix 2 all setforce NULL 0.0 NULL

# Energy curve will have nstep steps
variable nsteps equal 500
variable sstep1 equal 1.0
variable ystep1 equal ${sstep1}/(${ay}*${nsteps})
variable ystep1 equal 1/(${ay}*${nsteps})
variable ystep1 equal 1/(1*${nsteps})
variable ystep1 equal 1/(1*500)

variable i loop ${nsteps}
variable i loop 500
label loop1
        displace_atoms upper move 0.0 ${ystep1} 0.0 units lattice
        displace_atoms upper move 0.0 0.002 0.0 units lattice
        min_style ${style}
        min_style hftn
        minimize ${etol} ${ftol} ${maxiter} ${maxeval}
        minimize 1e-12 ${ftol} ${maxiter} ${maxeval}
        minimize 1e-12 1e-08 ${maxiter} ${maxeval}
        minimize 1e-12 1e-08 10000 ${maxeval}
        minimize 1e-12 1e-08 10000 20000
WARNING: Resetting reneighboring criteria during minimization (../min.cpp:168)
Memory usage per processor = 4.85962 Mbytes
Step Temp PotEng Lx Ly Lz 
       1            0   -120.99969    1.1224537    38.895025    1.1224537 
Loop time of 1.48874e-05 on 1 procs for 0 steps with 41 atoms

Minimization stats:
  Stopping criterion = force tolerance
  Energy initial, next-to-last, final = 
        -120.999692116     -120.999692116     -120.999692116
  Force two-norm initial, final = 3.92059e-18 3.92059e-18
  Force max component initial, final = 3.41524e-18 3.41524e-18
  Final line search alpha, max atom move = 0 0
  Iterations, force evaluations = 0 0

Pair  time (%) = 1.10264e-05 (74.0652)
Neigh time (%) = 0 (0)
Comm  time (%) = 9.92906e-07 (6.66943)
Outpt time (%) = 0 (0)
Other time (%) = 2.86812e-06 (19.2654)

Nlocal:    41 ave 41 max 41 min
Histogram: 1 0 0 0 0 0 0 0 0 0
Nghost:    185 ave 185 max 185 min
Histogram: 1 0 0 0 0 0 0 0 0 0
Neighs:    359 ave 359 max 359 min
Histogram: 1 0 0 0 0 0 0 0 0 0

Total # of neighbors = 359
Ave neighs/atom = 8.7561
Neighbor list builds = 0
Dangerous builds = 0
	# write_dump all atom ${dumpfile}
        next i
jump SELF loop1
        displace_atoms upper move 0.0 ${ystep1} 0.0 units lattice
        displace_atoms upper move 0.0 0.002 0.0 units lattice
        min_style ${style}
        min_style hftn
        minimize ${etol} ${ftol} ${maxiter} ${maxeval}
        minimize 1e-12 ${ftol} ${maxiter} ${maxeval}
        minimize 1e-12 1e-08 ${maxiter} ${maxeval}
        minimize 1e-12 1e-08 10000 ${maxeval}
        minimize 1e-12 1e-08 10000 20000
WARNING: Resetting reneighboring criteria during minimization (../min.cpp:168)
Memory usage per processor = 4.85962 Mbytes
Step Temp PotEng Lx Ly Lz 
       1            0   -120.99888    1.1224537    38.898914    1.1224537 
Loop time of 1.50652e-05 on 1 procs for 0 steps with 41 atoms

Minimization stats:
  Stopping criterion = force tolerance
  Energy initial, next-to-last, final = 
        -120.998879488     -120.998879488     -120.998879488
  Force two-norm initial, final = 4.24304e-18 4.24304e-18
  Force max component initial, final = 4.17418e-18 4.17418e-18
  Final line search alpha, max atom move = 0 0
  Iterations, force evaluations = 0 0

Pair  time (%) = 9.96573e-06 (66.1507)
Neigh time (%) = 0 (0)
Comm  time (%) = 2.06369e-06 (13.6984)
Outpt time (%) = 0 (0)
Other time (%) = 3.03576e-06 (20.1508)

Nlocal:    41 ave 41 max 41 min
Histogram: 1 0 0 0 0 0 0 0 0 0
Nghost:    185 ave 185 max 185 min
Histogram: 1 0 0 0 0 0 0 0 0 0
Neighs:    359 ave 359 max 359 min
Histogram: 1 0 0 0 0 0 0 0 0 0

Total # of neighbors = 359
Ave neighs/atom = 8.7561
Neighbor list builds = 0
Dangerous builds = 0
	# write_dump all atom ${dumpfile}
        next i
jump SELF loop1
        displace_atoms upper move 0.0 ${ystep1} 0.0 units lattice
        displace_atoms upper move 0.0 0.002 0.0 units lattice
        min_style ${style}
        min_style hftn
        minimize ${etol} ${ftol} ${maxiter} ${maxeval}
        minimize 1e-12 ${ftol} ${maxiter} ${maxeval}
        minimize 1e-12 1e-08 ${maxiter} ${maxeval}
        minimize 1e-12 1e-08 10000 ${maxeval}
        minimize 1e-12 1e-08 10000 20000
WARNING: Resetting reneighboring criteria during minimization (../min.cpp:168)
Memory usage per processor = 4.85962 Mbytes
Step Temp PotEng Lx Ly Lz 
       1            0   -120.99755    1.1224537    38.902802    1.1224537 
Loop time of 1.49944e-05 on 1 procs for 0 steps with 41 atoms

Minimization stats:
  Stopping criterion = force tolerance
  Energy initial, next-to-last, final = 
        -120.997547524     -120.997547524     -120.997547524
  Force two-norm initial, final = 8.6318e-18 8.6318e-18
  Force max component initial, final = 6.69495e-18 6.69495e-18
  Final line search alpha, max atom move = 0 0
  Iterations, force evaluations = 0 0

Pair  time (%) = 1.0895e-05 (72.6602)
Neigh time (%) = 0 (0)
Comm  time (%) = 9.68459e-07 (6.4588)
Outpt time (%) = 0 (0)
Other time (%) = 3.13099e-06 (20.881)

Nlocal:    41 ave 41 max 41 min
Histogram: 1 0 0 0 0 0 0 0 0 0
Nghost:    185 ave 185 max 185 min
Histogram: 1 0 0 0 0 0 0 0 0 0
Neighs:    359 ave 359 max 359 min
Histogram: 1 0 0 0 0 0 0 0 0 0

Total # of neighbors = 359
Ave neighs/atom = 8.7561
Neighbor list builds = 0
Dangerous builds = 0
	# write_dump all atom ${dumpfile}
        next i
jump SELF loop1
        displace_atoms upper move 0.0 ${ystep1} 0.0 units lattice
        displace_atoms upper move 0.0 0.002 0.0 units lattice
        min_style ${style}
        min_style hftn
        minimize ${etol} ${ftol} ${maxiter} ${maxeval}
        minimize 1e-12 ${ftol} ${maxiter} ${maxeval}
        minimize 1e-12 1e-08 ${maxiter} ${maxeval}
        minimize 1e-12 1e-08 10000 ${maxeval}
        minimize 1e-12 1e-08 10000 20000
WARNING: Resetting reneighboring criteria during minimization (../min.cpp:168)
Memory usage per processor = 4.85962 Mbytes
Step Temp PotEng Lx Ly Lz 
       1            0   -120.99571    1.1224537     38.90669    1.1224537 
Loop time of 1.08383e-07 on 1 procs for 0 steps with 41 atoms

Minimization stats:
  Stopping criterion = force tolerance
  Energy initial, next-to-last, final = 
        -120.995709926     -120.995709926     -120.995709926
  Force two-norm initial, final = 1.41948e-17 1.41948e-17
  Force max component initial, final = 1.27123e-17 1.27123e-17
  Final line search alpha, max atom move = 0 0
  Iterations, force evaluations = 0 0

Pair  time (%) = 1.08383e-07 (100)
Neigh time (%) = 0 (0)
Comm  time (%) = 2.16765e-07 (200)
Outpt time (%) = 0 (0)
Other time (%) = -2.16765e-07 (-200)

Nlocal:    41 ave 41 max 41 min
Histogram: 1 0 0 0 0 0 0 0 0 0
Nghost:    185 ave 185 max 185 min
Histogram: 1 0 0 0 0 0 0 0 0 0
Neighs:    359 ave 359 max 359 min
Histogram: 1 0 0 0 0 0 0 0 0 0

Total # of neighbors = 359
Ave neighs/atom = 8.7561
Neighbor list builds = 0
Dangerous builds = 0
	# write_dump all atom ${dumpfile}
        next i
jump SELF loop1
        displace_atoms upper move 0.0 ${ystep1} 0.0 units lattice
        displace_atoms upper move 0.0 0.002 0.0 units lattice
        min_style ${style}
        min_style hftn
        minimize ${etol} ${ftol} ${maxiter} ${maxeval}
        minimize 1e-12 ${ftol} ${maxiter} ${maxeval}
        minimize 1e-12 1e-08 ${maxiter} ${maxeval}
        minimize 1e-12 1e-08 10000 ${maxeval}
        minimize 1e-12 1e-08 10000 20000
WARNING: Resetting reneighboring criteria during minimization (../min.cpp:168)
Memory usage per processor = 4.85962 Mbytes
Step Temp PotEng Lx Ly Lz 
       1            0   -120.99339    1.1224537    38.910578    1.1224537 
Loop time of 1.50774e-05 on 1 procs for 0 steps with 41 atoms

Minimization stats:
  Stopping criterion = force tolerance
  Energy initial, next-to-last, final = 
        -120.993385672     -120.993385672     -120.993385672
  Force two-norm initial, final = 1.32515e-17 1.32515e-17
  Force max component initial, final = 1.25767e-17 1.25767e-17
  Final line search alpha, max atom move = 0 0
  Iterations, force evaluations = 0 0

Pair  time (%) = 9.97796e-06 (66.1782)
Neigh time (%) = 0 (0)
Comm  time (%) = 1.84972e-06 (12.2682)
Outpt time (%) = 0 (0)
Other time (%) = 3.24973e-06 (21.5537)

Nlocal:    41 ave 41 max 41 min
Histogram: 1 0 0 0 0 0 0 0 0 0
Nghost:    185 ave 185 max 185 min
Histogram: 1 0 0 0 0 0 0 0 0 0
Neighs:    359 ave 359 max 359 min
Histogram: 1 0 0 0 0 0 0 0 0 0

Total # of neighbors = 359
Ave neighs/atom = 8.7561
Neighbor list builds = 0
Dangerous builds = 0
	# write_dump all atom ${dumpfile}
        next i
jump SELF loop1
        displace_atoms upper move 0.0 ${ystep1} 0.0 units lattice
        displace_atoms upper move 0.0 0.002 0.0 units lattice
        min_style ${style}
        min_style hftn
        minimize ${etol} ${ftol} ${maxiter} ${maxeval}
        minimize 1e-12 ${ftol} ${maxiter} ${maxeval}
        minimize 1e-12 1e-08 ${maxiter} ${maxeval}
        minimize 1e-12 1e-08 10000 ${maxeval}
        minimize 1e-12 1e-08 10000 20000
WARNING: Resetting reneighboring criteria during minimization (../min.cpp:168)
Memory usage per processor = 4.85962 Mbytes
Step Temp PotEng Lx Ly Lz 
       1            0   -120.99059    1.1224537    38.914467    1.1224537 
Loop time of 1.38879e-05 on 1 procs for 0 steps with 41 atoms

Minimization stats:
  Stopping criterion = force tolerance
  Energy initial, next-to-last, final = 
        -120.990591423     -120.990591423     -120.990591423
  Force two-norm initial, final = 1.4325e-17 1.4325e-17
  Force max component initial, final = 1.25767e-17 1.25767e-17
  Final line search alpha, max atom move = 0 0
  Iterations, force evaluations = 0 0

Pair  time (%) = 9.98052e-06 (71.8649)
Neigh time (%) = 0 (0)
Comm  time (%) = 1.90118e-06 (13.6895)
Outpt time (%) = 0 (0)
Other time (%) = 2.00619e-06 (14.4456)

Nlocal:    41 ave 41 max 41 min
Histogram: 1 0 0 0 0 0 0 0 0 0
Nghost:    185 ave 185 max 185 min
Histogram: 1 0 0 0 0 0 0 0 0 0
Neighs:    359 ave 359 max 359 min
Histogram: 1 0 0 0 0 0 0 0 0 0

Total # of neighbors = 359
Ave neighs/atom = 8.7561
Neighbor list builds = 0
Dangerous builds = 0
	# write_dump all atom ${dumpfile}
        next i
jump SELF loop1
        displace_atoms upper move 0.0 ${ystep1} 0.0 units lattice
        displace_atoms upper move 0.0 0.002 0.0 units lattice
        min_style ${style}
        min_style hftn
        minimize ${etol} ${ftol} ${maxiter} ${maxeval}
        minimize 1e-12 ${ftol} ${maxiter} ${maxeval}
        minimize 1e-12 1e-08 ${maxiter} ${maxeval}
        minimize 1e-12 1e-08 10000 ${maxeval}
        minimize 1e-12 1e-08 10000 20000
WARNING: Resetting reneighboring criteria during minimization (../min.cpp:168)
Memory usage per processor = 4.85962 Mbytes
Step Temp PotEng Lx Ly Lz 
       1            0   -120.98734    1.1224537    38.918355    1.1224537 
Loop time of 1.40161e-05 on 1 procs for 0 steps with 41 atoms

Minimization stats:
  Stopping criterion = force tolerance
  Energy initial, next-to-last, final = 
        -120.987342791     -120.987342791     -120.987342791
  Force two-norm initial, final = 2.14663e-17 2.14663e-17
  Force max component initial, final = 1.51788e-17 1.51788e-17
  Final line search alpha, max atom move = 0 0
  Iterations, force evaluations = 0 0

Pair  time (%) = 9.91661e-06 (70.7518)
Neigh time (%) = 0 (0)
Comm  time (%) = 1.96544e-06 (14.0228)
Outpt time (%) = 0 (0)
Other time (%) = 2.13401e-06 (15.2255)

Nlocal:    41 ave 41 max 41 min
Histogram: 1 0 0 0 0 0 0 0 0 0
Nghost:    185 ave 185 max 185 min
Histogram: 1 0 0 0 0 0 0 0 0 0
Neighs:    359 ave 359 max 359 min
Histogram: 1 0 0 0 0 0 0 0 0 0

Total # of neighbors = 359
Ave neighs/atom = 8.7561
Neighbor list builds = 0
Dangerous builds = 0
	# write_dump all atom ${dumpfile}
        next i
jump SELF loop1
        displace_atoms upper move 0.0 ${ystep1} 0.0 units lattice
        displace_atoms upper move 0.0 0.002 0.0 units lattice
        min_style ${style}
        min_style hftn
        minimize ${etol} ${ftol} ${maxiter} ${maxeval}
        minimize 1e-12 ${ftol} ${maxiter} ${maxeval}
        minimize 1e-12 1e-08 ${maxiter} ${maxeval}
        minimize 1e-12 1e-08 10000 ${maxeval}
        minimize 1e-12 1e-08 10000 20000
WARNING: Resetting reneighboring criteria during minimization (../min.cpp:168)
Memory usage per processor = 4.85962 Mbytes
Step Temp PotEng Lx Ly Lz 
       1            0   -120.98366    1.1224537    38.922243    1.1224537 
Loop time of 1.40355e-05 on 1 procs for 0 steps with 41 atoms

Minimization stats:
  Stopping criterion = force tolerance
  Energy initial, next-to-last, final = 
        -120.983655066     -120.983655066     -120.983655066
  Force two-norm initial, final = 2.29691e-17 2.29691e-17
  Force max component initial, final = 1.72388e-17 1.72388e-17
  Final line search alpha, max atom move = 0 0
  Iterations, force evaluations = 0 0

Pair  time (%) = 9.88971e-06 (70.4622)
Neigh time (%) = 0 (0)
Comm  time (%) = 2.19641e-06 (15.6489)
Outpt time (%) = 0 (0)
Other time (%) = 1.94937e-06 (13.8889)

Nlocal:    41 ave 41 max 41 min
Histogram: 1 0 0 0 0 0 0 0 0 0
Nghost:    185 ave 185 max 185 min
Histogram: 1 0 0 0 0 0 0 0 0 0
Neighs:    359 ave 359 max 359 min
Histogram: 1 0 0 0 0 0 0 0 0 0

Total # of neighbors = 359
Ave neighs/atom = 8.7561
Neighbor list builds = 0
Dangerous builds = 0
	# write_dump all atom ${dumpfile}
        next i
jump SELF loop1
        displace_atoms upper move 0.0 ${ystep1} 0.0 units lattice
        displace_atoms upper move 0.0 0.002 0.0 units lattice
        min_style ${style}
        min_style hftn
        minimize ${etol} ${ftol} ${maxiter} ${maxeval}
        minimize 1e-12 ${ftol} ${maxiter} ${maxeval}
        minimize 1e-12 1e-08 ${maxiter} ${maxeval}
        minimize 1e-12 1e-08 10000 ${maxeval}
        minimize 1e-12 1e-08 10000 20000
WARNING: Resetting reneighboring criteria during minimization (../min.cpp:168)
Memory usage per processor = 4.85962 Mbytes
Step Temp PotEng Lx Ly Lz 
       1            0   -120.97954    1.1224537    38.926132    1.1224537 
Loop time of 1.19159e-05 on 1 procs for 0 steps with 41 atoms

Minimization stats:
  Stopping criterion = force tolerance
  Energy initial, next-to-last, final = 
        -120.979541906     -120.979541906     -120.979541906
  Force two-norm initial, final = 1.70071e-17 1.70071e-17
  Force max component initial, final = 1.51788e-17 1.51788e-17
  Final line search alpha, max atom move = 0 0
  Iterations, force evaluations = 0 0

Pair  time (%) = 1.00086e-05 (83.9933)
Neigh time (%) = 0 (0)
Comm  time (%) = 9.57283e-07 (8.03365)
Outpt time (%) = 0 (0)
Other time (%) = 9.50065e-07 (7.97307)

Nlocal:    41 ave 41 max 41 min
Histogram: 1 0 0 0 0 0 0 0 0 0
Nghost:    185 ave 185 max 185 min
Histogram: 1 0 0 0 0 0 0 0 0 0
Neighs:    359 ave 359 max 359 min
Histogram: 1 0 0 0 0 0 0 0 0 0

Total # of neighbors = 359
Ave neighs/atom = 8.7561
Neighbor list builds = 0
Dangerous builds = 0
	# write_dump all atom ${dumpfile}
        next i
jump SELF loop1
        displace_atoms upper move 0.0 ${ystep1} 0.0 units lattice
        displace_atoms upper move 0.0 0.002 0.0 units lattice
        min_style ${style}
        min_style hftn
        minimize ${etol} ${ftol} ${maxiter} ${maxeval}
        minimize 1e-12 ${ftol} ${maxiter} ${maxeval}
        minimize 1e-12 1e-08 ${maxiter} ${maxeval}
        minimize 1e-12 1e-08 10000 ${maxeval}
        minimize 1e-12 1e-08 10000 20000
WARNING: Resetting reneighboring criteria during minimization (../min.cpp:168)
Memory usage per processor = 4.85962 Mbytes
Step Temp PotEng Lx Ly Lz 
       1            0   -120.97502    1.1224537     38.93002    1.1224537 
Loop time of 1.29953e-05 on 1 procs for 0 steps with 41 atoms

Minimization stats:
  Stopping criterion = force tolerance
  Energy initial, next-to-last, final = 
        -120.975019388     -120.975019388     -120.975019388
  Force two-norm initial, final = 2.03487e-17 2.03487e-17
  Force max component initial, final = 1.51788e-17 1.51788e-17
  Final line search alpha, max atom move = 0 0
  Iterations, force evaluations = 0 0

Pair  time (%) = 1.0088e-05 (77.6277)
Neigh time (%) = 0 (0)
Comm  time (%) = 2.06975e-06 (15.9269)
Outpt time (%) = 0 (0)
Other time (%) = 8.37608e-07 (6.44546)

Nlocal:    41 ave 41 max 41 min
Histogram: 1 0 0 0 0 0 0 0 0 0
Nghost:    185 ave 185 max 185 min
Histogram: 1 0 0 0 0 0 0 0 0 0
Neighs:    359 ave 359 max 359 min
Histogram: 1 0 0 0 0 0 0 0 0 0

Total # of neighbors = 359
Ave neighs/atom = 8.7561
Neighbor list builds = 0
Dangerous builds = 0
	# write_dump all atom ${dumpfile}
        next i
jump SELF loop1
        displace_atoms upper move 0.0 ${ystep1} 0.0 units lattice
        displace_atoms upper move 0.0 0.002 0.0 units lattice
        min_style ${style}
        min_style hftn
        minimize ${etol} ${ftol} ${maxiter} ${maxeval}
        minimize 1e-12 ${ftol} ${maxiter} ${maxeval}
        minimize 1e-12 1e-08 ${maxiter} ${maxeval}
        minimize 1e-12 1e-08 10000 ${maxeval}
        minimize 1e-12 1e-08 10000 20000
WARNING: Resetting reneighboring criteria during minimization (../min.cpp:168)
Memory usage per processor = 4.85962 Mbytes
Step Temp PotEng Lx Ly Lz 
       1            0    -120.9701    1.1224537    38.933908    1.1224537 
Loop time of 1.2929e-05 on 1 procs for 0 steps with 41 atoms

Minimization stats:
  Stopping criterion = force tolerance
  Energy initial, next-to-last, final = 
        -120.970102079     -120.970102079     -120.970102079
  Force two-norm initial, final = 1.52905e-17 1.52905e-17
  Force max component initial, final = 1.51788e-17 1.51788e-17
  Final line search alpha, max atom move = 0 0
  Iterations, force evaluations = 0 0

Pair  time (%) = 1.00216e-05 (77.5129)
Neigh time (%) = 0 (0)
Comm  time (%) = 1.93692e-06 (14.9812)
Outpt time (%) = 0 (0)
Other time (%) = 9.70438e-07 (7.50592)

Nlocal:    41 ave 41 max 41 min
Histogram: 1 0 0 0 0 0 0 0 0 0
Nghost:    185 ave 185 max 185 min
Histogram: 1 0 0 0 0 0 0 0 0 0
Neighs:    359 ave 359 max 359 min
Histogram: 1 0 0 0 0 0 0 0 0 0

Total # of neighbors = 359
Ave neighs/atom = 8.7561
Neighbor list builds = 0
Dangerous builds = 0
	# write_dump all atom ${dumpfile}
        next i
jump SELF loop1
        displace_atoms upper move 0.0 ${ystep1} 0.0 units lattice
        displace_atoms upper move 0.0 0.002 0.0 units lattice
        min_style ${style}
        min_style hftn
        minimize ${etol} ${ftol} ${maxiter} ${maxeval}
        minimize 1e-12 ${ftol} ${maxiter} ${maxeval}
        minimize 1e-12 1e-08 ${maxiter} ${maxeval}
        minimize 1e-12 1e-08 10000 ${maxeval}
        minimize 1e-12 1e-08 10000 20000
WARNING: Resetting reneighboring criteria during minimization (../min.cpp:168)
Memory usage per processor = 4.85962 Mbytes
Step Temp PotEng Lx Ly Lz 
       1            0    -120.9648    1.1224537    38.937796    1.1224537 
Loop time of 1.40243e-05 on 1 procs for 0 steps with 41 atoms

Minimization stats:
  Stopping criterion = force tolerance
  Energy initial, next-to-last, final = 
        -120.964803996     -120.964803996     -120.964803996
  Force two-norm initial, final = 3.01245e-17 3.01245e-17
  Force max component initial, final = 2.60209e-17 2.60209e-17
  Final line search alpha, max atom move = 0 0
  Iterations, force evaluations = 0 0

Pair  time (%) = 1.1117e-05 (79.2692)
Neigh time (%) = 0 (0)
Comm  time (%) = 9.81963e-07 (7.00186)
Outpt time (%) = 0 (0)
Other time (%) = 1.92539e-06 (13.729)

Nlocal:    41 ave 41 max 41 min
Histogram: 1 0 0 0 0 0 0 0 0 0
Nghost:    185 ave 185 max 185 min
Histogram: 1 0 0 0 0 0 0 0 0 0
Neighs:    359 ave 359 max 359 min
Histogram: 1 0 0 0 0 0 0 0 0 0

Total # of neighbors = 359
Ave neighs/atom = 8.7561
Neighbor list builds = 0
Dangerous builds = 0
	# write_dump all atom ${dumpfile}
        next i
jump SELF loop1
        displace_atoms upper move 0.0 ${ystep1} 0.0 units lattice
        displace_atoms upper move 0.0 0.002 0.0 units lattice
        min_style ${style}
        min_style hftn
        minimize ${etol} ${ftol} ${maxiter} ${maxeval}
        minimize 1e-12 ${ftol} ${maxiter} ${maxeval}
        minimize 1e-12 1e-08 ${maxiter} ${maxeval}
        minimize 1e-12 1e-08 10000 ${maxeval}
        minimize 1e-12 1e-08 10000 20000
WARNING: Resetting reneighboring criteria during minimization (../min.cpp:168)
Memory usage per processor = 4.85962 Mbytes
Step Temp PotEng Lx Ly Lz 
       1            0   -120.95914    1.1224537    38.941685    1.1224537 
Loop time of 1.39116e-05 on 1 procs for 0 steps with 41 atoms

Minimization stats:
  Stopping criterion = force tolerance
  Energy initial, next-to-last, final = 
         -120.95913884      -120.95913884      -120.95913884
  Force two-norm initial, final = 2.55445e-17 2.55445e-17
  Force max component initial, final = 2.05456e-17 2.05456e-17
  Final line search alpha, max atom move = 0 0
  Iterations, force evaluations = 0 0

Pair  time (%) = 1.00043e-05 (71.913)
Neigh time (%) = 0 (0)
Comm  time (%) = 1.94868e-06 (14.0075)
Outpt time (%) = 0 (0)
Other time (%) = 1.95869e-06 (14.0795)

Nlocal:    41 ave 41 max 41 min
Histogram: 1 0 0 0 0 0 0 0 0 0
Nghost:    185 ave 185 max 185 min
Histogram: 1 0 0 0 0 0 0 0 0 0
Neighs:    359 ave 359 max 359 min
Histogram: 1 0 0 0 0 0 0 0 0 0

Total # of neighbors = 359
Ave neighs/atom = 8.7561
Neighbor list builds = 0
Dangerous builds = 0
	# write_dump all atom ${dumpfile}
        next i
jump SELF loop1
        displace_atoms upper move 0.0 ${ystep1} 0.0 units lattice
        displace_atoms upper move 0.0 0.002 0.0 units lattice
        min_style ${style}
        min_style hftn
        minimize ${etol} ${ftol} ${maxiter} ${maxeval}
        minimize 1e-12 ${ftol} ${maxiter} ${maxeval}
        minimize 1e-12 1e-08 ${maxiter} ${maxeval}
        minimize 1e-12 1e-08 10000 ${maxeval}
        minimize 1e-12 1e-08 10000 20000
WARNING: Resetting reneighboring criteria during minimization (../min.cpp:168)
Memory usage per processor = 4.85962 Mbytes
Step Temp PotEng Lx Ly Lz 
       1            0   -120.95312    1.1224537    38.945573    1.1224537 
Loop time of 1.40837e-05 on 1 procs for 0 steps with 41 atoms

Minimization stats:
  Stopping criterion = force tolerance
  Energy initial, next-to-last, final = 
        -120.953119997     -120.953119997     -120.953119997
  Force two-norm initial, final = 2.55445e-17 2.55445e-17
  Force max component initial, final = 2.05456e-17 2.05456e-17
  Final line search alpha, max atom move = 0 0
  Iterations, force evaluations = 0 0

Pair  time (%) = 9.93791e-06 (70.5632)
Neigh time (%) = 0 (0)
Comm  time (%) = 1.81585e-06 (12.8933)
Outpt time (%) = 0 (0)
Other time (%) = 2.32994e-06 (16.5435)

Nlocal:    41 ave 41 max 41 min
Histogram: 1 0 0 0 0 0 0 0 0 0
Nghost:    185 ave 185 max 185 min
Histogram: 1 0 0 0 0 0 0 0 0 0
Neighs:    359 ave 359 max 359 min
Histogram: 1 0 0 0 0 0 0 0 0 0

Total # of neighbors = 359
Ave neighs/atom = 8.7561
Neighbor list builds = 0
Dangerous builds = 0
	# write_dump all atom ${dumpfile}
        next i
jump SELF loop1
        displace_atoms upper move 0.0 ${ystep1} 0.0 units lattice
        displace_atoms upper move 0.0 0.002 0.0 units lattice
        min_style ${style}
        min_style hftn
        minimize ${etol} ${ftol} ${maxiter} ${maxeval}
        minimize 1e-12 ${ftol} ${maxiter} ${maxeval}
        minimize 1e-12 1e-08 ${maxiter} ${maxeval}
        minimize 1e-12 1e-08 10000 ${maxeval}
        minimize 1e-12 1e-08 10000 20000
WARNING: Resetting reneighboring criteria during minimization (../min.cpp:168)
Memory usage per processor = 4.85962 Mbytes
Step Temp PotEng Lx Ly Lz 
       1            0   -120.94676    1.1224537    38.949461    1.1224537 
Loop time of 1.29518e-05 on 1 procs for 0 steps with 41 atoms

Minimization stats:
  Stopping criterion = force tolerance
  Energy initial, next-to-last, final = 
        -120.946760537     -120.946760537     -120.946760537
  Force two-norm initial, final = 2.29284e-17 2.29284e-17
  Force max component initial, final = 1.71846e-17 1.71846e-17
  Final line search alpha, max atom move = 0 0
  Iterations, force evaluations = 0 0

Pair  time (%) = 1.00444e-05 (77.5525)
Neigh time (%) = 0 (0)
Comm  time (%) = 1.98267e-06 (15.3081)
Outpt time (%) = 0 (0)
Other time (%) = 9.24687e-07 (7.13945)

Nlocal:    41 ave 41 max 41 min
Histogram: 1 0 0 0 0 0 0 0 0 0
Nghost:    185 ave 185 max 185 min
Histogram: 1 0 0 0 0 0 0 0 0 0
Neighs:    359 ave 359 max 359 min
Histogram: 1 0 0 0 0 0 0 0 0 0

Total # of neighbors = 359
Ave neighs/atom = 8.7561
Neighbor list builds = 0
Dangerous builds = 0
	# write_dump all atom ${dumpfile}
        next i
jump SELF loop1
        displace_atoms upper move 0.0 ${ystep1} 0.0 units lattice
        displace_atoms upper move 0.0 0.002 0.0 units lattice
        min_style ${style}
        min_style hftn
        minimize ${etol} ${ftol} ${maxiter} ${maxeval}
        minimize 1e-12 ${ftol} ${maxiter} ${maxeval}
        minimize 1e-12 1e-08 ${maxiter} ${maxeval}
        minimize 1e-12 1e-08 10000 ${maxeval}
        minimize 1e-12 1e-08 10000 20000
WARNING: Resetting reneighboring criteria during minimization (../min.cpp:168)
Memory usage per processor = 4.85962 Mbytes
Step Temp PotEng Lx Ly Lz 
       1            0   -120.94007    1.1224537     38.95335    1.1224537 
Loop time of 1.50128e-05 on 1 procs for 0 steps with 41 atoms

Minimization stats:
  Stopping criterion = force tolerance
  Energy initial, next-to-last, final = 
        -120.940073276     -120.940073276     -120.940073276
  Force two-norm initial, final = 1.67581e-17 1.67581e-17
  Force max component initial, final = 1.51788e-17 1.51788e-17
  Final line search alpha, max atom move = 0 0
  Iterations, force evaluations = 0 0

Pair  time (%) = 9.91335e-06 (66.0326)
Neigh time (%) = 0 (0)
Comm  time (%) = 9.58913e-07 (6.3873)
Outpt time (%) = 0 (0)
Other time (%) = 4.14054e-06 (27.5801)

Nlocal:    41 ave 41 max 41 min
Histogram: 1 0 0 0 0 0 0 0 0 0
Nghost:    185 ave 185 max 185 min
Histogram: 1 0 0 0 0 0 0 0 0 0
Neighs:    359 ave 359 max 359 min
Histogram: 1 0 0 0 0 0 0 0 0 0

Total # of neighbors = 359
Ave neighs/atom = 8.7561
Neighbor list builds = 0
Dangerous builds = 0
	# write_dump all atom ${dumpfile}
        next i
jump SELF loop1
        displace_atoms upper move 0.0 ${ystep1} 0.0 units lattice
        displace_atoms upper move 0.0 0.002 0.0 units lattice
        min_style ${style}
        min_style hftn
        minimize ${etol} ${ftol} ${maxiter} ${maxeval}
        minimize 1e-12 ${ftol} ${maxiter} ${maxeval}
        minimize 1e-12 1e-08 ${maxiter} ${maxeval}
        minimize 1e-12 1e-08 10000 ${maxeval}
        minimize 1e-12 1e-08 10000 20000
WARNING: Resetting reneighboring criteria during minimization (../min.cpp:168)
Memory usage per processor = 4.85962 Mbytes
Step Temp PotEng Lx Ly Lz 
       1            0   -120.93309    1.1224537    38.957238    1.1224537 
Loop time of 1.30266e-05 on 1 procs for 0 steps with 41 atoms

Minimization stats:
  Stopping criterion = force tolerance
  Energy initial, next-to-last, final = 
        -120.933093032     -120.933093032     -120.933093032
  Force two-norm initial, final = 2.19506e-17 2.19506e-17
  Force max component initial, final = 1.58565e-17 1.58565e-17
  Final line search alpha, max atom move = 0 0
  Iterations, force evaluations = 0 0

Pair  time (%) = 8.88098e-06 (68.1755)
Neigh time (%) = 0 (0)
Comm  time (%) = 2.13238e-06 (16.3694)
Outpt time (%) = 0 (0)
Other time (%) = 2.01329e-06 (15.4551)

Nlocal:    41 ave 41 max 41 min
Histogram: 1 0 0 0 0 0 0 0 0 0
Nghost:    185 ave 185 max 185 min
Histogram: 1 0 0 0 0 0 0 0 0 0
Neighs:    355 ave 355 max 355 min
Histogram: 1 0 0 0 0 0 0 0 0 0

Total # of neighbors = 355
Ave neighs/atom = 8.65854
Neighbor list builds = 0
Dangerous builds = 0
	# write_dump all atom ${dumpfile}
        next i
jump SELF loop1
        displace_atoms upper move 0.0 ${ystep1} 0.0 units lattice
        displace_atoms upper move 0.0 0.002 0.0 units lattice
        min_style ${style}
        min_style hftn
        minimize ${etol} ${ftol} ${maxiter} ${maxeval}
        minimize 1e-12 ${ftol} ${maxiter} ${maxeval}
        minimize 1e-12 1e-08 ${maxiter} ${maxeval}
        minimize 1e-12 1e-08 10000 ${maxeval}
        minimize 1e-12 1e-08 10000 20000
WARNING: Resetting reneighboring criteria during minimization (../min.cpp:168)
Memory usage per processor = 4.85962 Mbytes
Step Temp PotEng Lx Ly Lz 
       1            0   -120.92598    1.1224537    38.961126    1.1224537 
Loop time of 1.29616e-05 on 1 procs for 0 steps with 41 atoms

Minimization stats:
  Stopping criterion = force tolerance
  Energy initial, next-to-last, final = 
        -120.925977836     -120.925977836     -120.925977836
  Force two-norm initial, final = 2.57631e-17 2.57631e-17
  Force max component initial, final = 2.08167e-17 2.08167e-17
  Final line search alpha, max atom move = 0 0
  Iterations, force evaluations = 0 0

Pair  time (%) = 9.0542e-06 (69.8542)
Neigh time (%) = 0 (0)
Comm  time (%) = 2.00211e-06 (15.4465)
Outpt time (%) = 0 (0)
Other time (%) = 1.90525e-06 (14.6993)

Nlocal:    41 ave 41 max 41 min
Histogram: 1 0 0 0 0 0 0 0 0 0
Nghost:    185 ave 185 max 185 min
Histogram: 1 0 0 0 0 0 0 0 0 0
Neighs:    355 ave 355 max 355 min
Histogram: 1 0 0 0 0 0 0 0 0 0

Total # of neighbors = 355
Ave neighs/atom = 8.65854
Neighbor list builds = 0
Dangerous builds = 0
	# write_dump all atom ${dumpfile}
        next i
jump SELF loop1
        displace_atoms upper move 0.0 ${ystep1} 0.0 units lattice
        displace_atoms upper move 0.0 0.002 0.0 units lattice
        min_style ${style}
        min_style hftn
        minimize ${etol} ${ftol} ${maxiter} ${maxeval}
        minimize 1e-12 ${ftol} ${maxiter} ${maxeval}
        minimize 1e-12 1e-08 ${maxiter} ${maxeval}
        minimize 1e-12 1e-08 10000 ${maxeval}
        minimize 1e-12 1e-08 10000 20000
WARNING: Resetting reneighboring criteria during minimization (../min.cpp:168)
Memory usage per processor = 4.85962 Mbytes
Step Temp PotEng Lx Ly Lz 
       1            0   -120.91876    1.1224537    38.965015    1.1224537 
Loop time of 1.21144e-05 on 1 procs for 0 steps with 41 atoms

Minimization stats:
  Stopping criterion = force tolerance
  Energy initial, next-to-last, final = 
         -120.91875892      -120.91875892      -120.91875892
  Force two-norm initial, final = 4.58821e-17 4.58821e-17
  Force max component initial, final = 4.03323e-17 4.03323e-17
  Final line search alpha, max atom move = 0 0
  Iterations, force evaluations = 0 0

Pair  time (%) = 8.96864e-06 (74.0328)
Neigh time (%) = 0 (0)
Comm  time (%) = 8.31089e-07 (6.86033)
Outpt time (%) = 0 (0)
Other time (%) = 2.31469e-06 (19.1069)

Nlocal:    41 ave 41 max 41 min
Histogram: 1 0 0 0 0 0 0 0 0 0
Nghost:    185 ave 185 max 185 min
Histogram: 1 0 0 0 0 0 0 0 0 0
Neighs:    355 ave 355 max 355 min
Histogram: 1 0 0 0 0 0 0 0 0 0

Total # of neighbors = 355
Ave neighs/atom = 8.65854
Neighbor list builds = 0
Dangerous builds = 0
	# write_dump all atom ${dumpfile}
        next i
jump SELF loop1
        displace_atoms upper move 0.0 ${ystep1} 0.0 units lattice
        displace_atoms upper move 0.0 0.002 0.0 units lattice
        min_style ${style}
        min_style hftn
        minimize ${etol} ${ftol} ${maxiter} ${maxeval}
        minimize 1e-12 ${ftol} ${maxiter} ${maxeval}
        minimize 1e-12 1e-08 ${maxiter} ${maxeval}
        minimize 1e-12 1e-08 10000 ${maxeval}
        minimize 1e-12 1e-08 10000 20000
WARNING: Resetting reneighboring criteria during minimization (../min.cpp:168)
Memory usage per processor = 4.85962 Mbytes
Step Temp PotEng Lx Ly Lz 
       1            0   -120.91144    1.1224537    38.968903    1.1224537 
Loop time of 1.30684e-05 on 1 procs for 0 steps with 41 atoms

Minimization stats:
  Stopping criterion = force tolerance
  Energy initial, next-to-last, final = 
        -120.911437186     -120.911437186     -120.911437186
  Force two-norm initial, final = 4.05917e-17 4.05917e-17
  Force max component initial, final = 4.03323e-17 4.03323e-17
  Final line search alpha, max atom move = 0 0
  Iterations, force evaluations = 0 0

Pair  time (%) = 8.92265e-06 (68.2764)
Neigh time (%) = 0 (0)
Comm  time (%) = 2.21585e-06 (16.9557)
Outpt time (%) = 0 (0)
Other time (%) = 1.92993e-06 (14.7679)

Nlocal:    41 ave 41 max 41 min
Histogram: 1 0 0 0 0 0 0 0 0 0
Nghost:    185 ave 185 max 185 min
Histogram: 1 0 0 0 0 0 0 0 0 0
Neighs:    355 ave 355 max 355 min
Histogram: 1 0 0 0 0 0 0 0 0 0

Total # of neighbors = 355
Ave neighs/atom = 8.65854
Neighbor list builds = 0
Dangerous builds = 0
	# write_dump all atom ${dumpfile}
        next i
jump SELF loop1
        displace_atoms upper move 0.0 ${ystep1} 0.0 units lattice
        displace_atoms upper move 0.0 0.002 0.0 units lattice
        min_style ${style}
        min_style hftn
        minimize ${etol} ${ftol} ${maxiter} ${maxeval}
        minimize 1e-12 ${ftol} ${maxiter} ${maxeval}
        minimize 1e-12 1e-08 ${maxiter} ${maxeval}
        minimize 1e-12 1e-08 10000 ${maxeval}
        minimize 1e-12 1e-08 10000 20000
WARNING: Resetting reneighboring criteria during minimization (../min.cpp:168)
Memory usage per processor = 4.85962 Mbytes
Step Temp PotEng Lx Ly Lz 
       1            0   -120.90401    1.1224537    38.972791    1.1224537 
Loop time of 1.19569e-05 on 1 procs for 0 steps with 41 atoms

Minimization stats:
  Stopping criterion = force tolerance
  Energy initial, next-to-last, final = 
        -120.904013535     -120.904013535     -120.904013535
  Force two-norm initial, final = 4.49604e-17 4.49604e-17
  Force max component initial, final = 4.03323e-17 4.03323e-17
  Final line search alpha, max atom move = 0 0
  Iterations, force evaluations = 0 0

Pair  time (%) = 9.04955e-06 (75.6847)
Neigh time (%) = 0 (0)
Comm  time (%) = 9.46573e-07 (7.91654)
Outpt time (%) = 0 (0)
Other time (%) = 1.96078e-06 (16.3988)

Nlocal:    41 ave 41 max 41 min
Histogram: 1 0 0 0 0 0 0 0 0 0
Nghost:    185 ave 185 max 185 min
Histogram: 1 0 0 0 0 0 0 0 0 0
Neighs:    355 ave 355 max 355 min
Histogram: 1 0 0 0 0 0 0 0 0 0

Total # of neighbors = 355
Ave neighs/atom = 8.65854
Neighbor list builds = 0
Dangerous builds = 0
	# write_dump all atom ${dumpfile}
        next i
jump SELF loop1
        displace_atoms upper move 0.0 ${ystep1} 0.0 units lattice
        displace_atoms upper move 0.0 0.002 0.0 units lattice
        min_style ${style}
        min_style hftn
        minimize ${etol} ${ftol} ${maxiter} ${maxeval}
        minimize 1e-12 ${ftol} ${maxiter} ${maxeval}
        minimize 1e-12 1e-08 ${maxiter} ${maxeval}
        minimize 1e-12 1e-08 10000 ${maxeval}
        minimize 1e-12 1e-08 10000 20000
WARNING: Resetting reneighboring criteria during minimization (../min.cpp:168)
Memory usage per processor = 4.85962 Mbytes
Step Temp PotEng Lx Ly Lz 
       1            0   -120.89649    1.1224537    38.976679    1.1224537 
Loop time of 1.19604e-05 on 1 procs for 0 steps with 41 atoms

Minimization stats:
  Stopping criterion = force tolerance
  Energy initial, next-to-last, final = 
        -120.896488638     -120.896488638     -120.896488638
  Force two-norm initial, final = 4.0358e-17 4.0358e-17
  Force max component initial, final = 4.03323e-17 4.03323e-17
  Final line search alpha, max atom move = 0 0
  Iterations, force evaluations = 0 0

Pair  time (%) = 9.05304e-06 (75.6918)
Neigh time (%) = 0 (0)
Comm  time (%) = 9.99891e-07 (8.36002)
Outpt time (%) = 0 (0)
Other time (%) = 1.90747e-06 (15.9482)

Nlocal:    41 ave 41 max 41 min
Histogram: 1 0 0 0 0 0 0 0 0 0
Nghost:    185 ave 185 max 185 min
Histogram: 1 0 0 0 0 0 0 0 0 0
Neighs:    355 ave 355 max 355 min
Histogram: 1 0 0 0 0 0 0 0 0 0

Total # of neighbors = 355
Ave neighs/atom = 8.65854
Neighbor list builds = 0
Dangerous builds = 0
	# write_dump all atom ${dumpfile}
        next i
jump SELF loop1
        displace_atoms upper move 0.0 ${ystep1} 0.0 units lattice
        displace_atoms upper move 0.0 0.002 0.0 units lattice
        min_style ${style}
        min_style hftn
        minimize ${etol} ${ftol} ${maxiter} ${maxeval}
        minimize 1e-12 ${ftol} ${maxiter} ${maxeval}
        minimize 1e-12 1e-08 ${maxiter} ${maxeval}
        minimize 1e-12 1e-08 10000 ${maxeval}
        minimize 1e-12 1e-08 10000 20000
WARNING: Resetting reneighboring criteria during minimization (../min.cpp:168)
Memory usage per processor = 4.85962 Mbytes
Step Temp PotEng Lx Ly Lz 
       1            0   -120.88886    1.1224537    38.980568    1.1224537 
Loop time of 6.06256e-06 on 1 procs for 0 steps with 41 atoms

Minimization stats:
  Stopping criterion = force tolerance
  Energy initial, next-to-last, final = 
        -120.888863674     -120.888863674     -120.888863674
  Force two-norm initial, final = 4.54499e-17 4.54499e-17
  Force max component initial, final = 4.03323e-17 4.03323e-17
  Final line search alpha, max atom move = 0 0
  Iterations, force evaluations = 0 0

Pair  time (%) = 4.06255e-06 (67.0104)
Neigh time (%) = 0 (0)
Comm  time (%) = 2.07196e-06 (34.1763)
Outpt time (%) = 0 (0)
Other time (%) = -7.19447e-08 (-1.1867)

Nlocal:    41 ave 41 max 41 min
Histogram: 1 0 0 0 0 0 0 0 0 0
Nghost:    185 ave 185 max 185 min
Histogram: 1 0 0 0 0 0 0 0 0 0
Neighs:    355 ave 355 max 355 min
Histogram: 1 0 0 0 0 0 0 0 0 0

Total # of neighbors = 355
Ave neighs/atom = 8.65854
Neighbor list builds = 0
Dangerous builds = 0
	# write_dump all atom ${dumpfile}
        next i
jump SELF loop1
        displace_atoms upper move 0.0 ${ystep1} 0.0 units lattice
        displace_atoms upper move 0.0 0.002 0.0 units lattice
        min_style ${style}
        min_style hftn
        minimize ${etol} ${ftol} ${maxiter} ${maxeval}
        minimize 1e-12 ${ftol} ${maxiter} ${maxeval}
        minimize 1e-12 1e-08 ${maxiter} ${maxeval}
        minimize 1e-12 1e-08 10000 ${maxeval}
        minimize 1e-12 1e-08 10000 20000
WARNING: Resetting reneighboring criteria during minimization (../min.cpp:168)
Memory usage per processor = 4.85962 Mbytes
Step Temp PotEng Lx Ly Lz 
       1            0   -120.88114    1.1224537    38.984456    1.1224537 
Loop time of 1.21056e-05 on 1 procs for 0 steps with 41 atoms

Minimization stats:
  Stopping criterion = force tolerance
  Energy initial, next-to-last, final = 
        -120.881139618     -120.881139618     -120.881139618
  Force two-norm initial, final = 5.00118e-17 5.00118e-17
  Force max component initial, final = 4.03323e-17 4.03323e-17
  Final line search alpha, max atom move = 0 0
  Iterations, force evaluations = 0 0

Pair  time (%) = 8.95979e-06 (74.0138)
Neigh time (%) = 0 (0)
Comm  time (%) = 8.13394e-07 (6.71917)
Outpt time (%) = 0 (0)
Other time (%) = 2.33238e-06 (19.267)

Nlocal:    41 ave 41 max 41 min
Histogram: 1 0 0 0 0 0 0 0 0 0
Nghost:    185 ave 185 max 185 min
Histogram: 1 0 0 0 0 0 0 0 0 0
Neighs:    355 ave 355 max 355 min
Histogram: 1 0 0 0 0 0 0 0 0 0

Total # of neighbors = 355
Ave neighs/atom = 8.65854
Neighbor list builds = 0
Dangerous builds = 0
	# write_dump all atom ${dumpfile}
        next i
jump SELF loop1
        displace_atoms upper move 0.0 ${ystep1} 0.0 units lattice
        displace_atoms upper move 0.0 0.002 0.0 units lattice
        min_style ${style}
        min_style hftn
        minimize ${etol} ${ftol} ${maxiter} ${maxeval}
        minimize 1e-12 ${ftol} ${maxiter} ${maxeval}
        minimize 1e-12 1e-08 ${maxiter} ${maxeval}
        minimize 1e-12 1e-08 10000 ${maxeval}
        minimize 1e-12 1e-08 10000 20000
WARNING: Resetting reneighboring criteria during minimization (../min.cpp:168)
Memory usage per processor = 4.85962 Mbytes
Step Temp PotEng Lx Ly Lz 
       1            0   -120.87332    1.1224537    38.988344    1.1224537 
Loop time of 1.49092e-05 on 1 procs for 0 steps with 41 atoms

Minimization stats:
  Stopping criterion = force tolerance
  Energy initial, next-to-last, final = 
        -120.873317434     -120.873317434     -120.873317434
  Force two-norm initial, final = 5.82194e-17 5.82194e-17
  Force max component initial, final = 4.19857e-17 4.19857e-17
  Final line search alpha, max atom move = 0 0
  Iterations, force evaluations = 0 0

Pair  time (%) = 1.00483e-05 (67.3965)
Neigh time (%) = 0 (0)
Comm  time (%) = 2.03645e-06 (13.659)
Outpt time (%) = 0 (0)
Other time (%) = 2.82447e-06 (18.9445)

Nlocal:    41 ave 41 max 41 min
Histogram: 1 0 0 0 0 0 0 0 0 0
Nghost:    185 ave 185 max 185 min
Histogram: 1 0 0 0 0 0 0 0 0 0
Neighs:    355 ave 355 max 355 min
Histogram: 1 0 0 0 0 0 0 0 0 0

Total # of neighbors = 355
Ave neighs/atom = 8.65854
Neighbor list builds = 0
Dangerous builds = 0
	# write_dump all atom ${dumpfile}
        next i
jump SELF loop1
        displace_atoms upper move 0.0 ${ystep1} 0.0 units lattice
        displace_atoms upper move 0.0 0.002 0.0 units lattice
        min_style ${style}
        min_style hftn
        minimize ${etol} ${ftol} ${maxiter} ${maxeval}
        minimize 1e-12 ${ftol} ${maxiter} ${maxeval}
        minimize 1e-12 1e-08 ${maxiter} ${maxeval}
        minimize 1e-12 1e-08 10000 ${maxeval}
        minimize 1e-12 1e-08 10000 20000
WARNING: Resetting reneighboring criteria during minimization (../min.cpp:168)
Memory usage per processor = 4.85962 Mbytes
Step Temp PotEng Lx Ly Lz 
       1            0    -120.8654    1.1224537    38.992233    1.1224537 
Loop time of -1.0035e-07 on 1 procs for 0 steps with 41 atoms

Minimization stats:
  Stopping criterion = force tolerance
  Energy initial, next-to-last, final = 
        -120.865398048     -120.865398048     -120.865398048
  Force two-norm initial, final = 6.61199e-17 6.61199e-17
  Force max component initial, final = 5.23941e-17 5.23941e-17
  Final line search alpha, max atom move = 0 0
  Iterations, force evaluations = 0 0

Pair  time (%) = -1.0035e-07 (100)
Neigh time (%) = 0 (-0)
Comm  time (%) = -2.007e-07 (200)
Outpt time (%) = 0 (-0)
Other time (%) = 2.007e-07 (-200)

Nlocal:    41 ave 41 max 41 min
Histogram: 1 0 0 0 0 0 0 0 0 0
Nghost:    185 ave 185 max 185 min
Histogram: 1 0 0 0 0 0 0 0 0 0
Neighs:    355 ave 355 max 355 min
Histogram: 1 0 0 0 0 0 0 0 0 0

Total # of neighbors = 355
Ave neighs/atom = 8.65854
Neighbor list builds = 0
Dangerous builds = 0
	# write_dump all atom ${dumpfile}
        next i
jump SELF loop1
        displace_atoms upper move 0.0 ${ystep1} 0.0 units lattice
        displace_atoms upper move 0.0 0.002 0.0 units lattice
        min_style ${style}
        min_style hftn
        minimize ${etol} ${ftol} ${maxiter} ${maxeval}
        minimize 1e-12 ${ftol} ${maxiter} ${maxeval}
        minimize 1e-12 1e-08 ${maxiter} ${maxeval}
        minimize 1e-12 1e-08 10000 ${maxeval}
        minimize 1e-12 1e-08 10000 20000
WARNING: Resetting reneighboring criteria during minimization (../min.cpp:168)
Memory usage per processor = 4.85962 Mbytes
Step Temp PotEng Lx Ly Lz 
       1            0   -120.85738    1.1224537    38.996121    1.1224537 
Loop time of 1.29091e-05 on 1 procs for 0 steps with 41 atoms

Minimization stats:
  Stopping criterion = force tolerance
  Energy initial, next-to-last, final = 
        -120.857382046     -120.857382046     -120.857382046
  Force two-norm initial, final = 6.38252e-17 6.38252e-17
  Force max component initial, final = 4.94667e-17 4.94667e-17
  Final line search alpha, max atom move = 0 0
  Iterations, force evaluations = 0 0

Pair  time (%) = 9.00181e-06 (69.7325)
Neigh time (%) = 0 (0)
Comm  time (%) = 1.89734e-06 (14.6977)
Outpt time (%) = 0 (0)
Other time (%) = 2.00991e-06 (15.5698)

Nlocal:    41 ave 41 max 41 min
Histogram: 1 0 0 0 0 0 0 0 0 0
Nghost:    185 ave 185 max 185 min
Histogram: 1 0 0 0 0 0 0 0 0 0
Neighs:    355 ave 355 max 355 min
Histogram: 1 0 0 0 0 0 0 0 0 0

Total # of neighbors = 355
Ave neighs/atom = 8.65854
Neighbor list builds = 0
Dangerous builds = 0
	# write_dump all atom ${dumpfile}
        next i
jump SELF loop1
        displace_atoms upper move 0.0 ${ystep1} 0.0 units lattice
        displace_atoms upper move 0.0 0.002 0.0 units lattice
        min_style ${style}
        min_style hftn
        minimize ${etol} ${ftol} ${maxiter} ${maxeval}
        minimize 1e-12 ${ftol} ${maxiter} ${maxeval}
        minimize 1e-12 1e-08 ${maxiter} ${maxeval}
        minimize 1e-12 1e-08 10000 ${maxeval}
        minimize 1e-12 1e-08 10000 20000
WARNING: Resetting reneighboring criteria during minimization (../min.cpp:168)
Memory usage per processor = 4.85962 Mbytes
Step Temp PotEng Lx Ly Lz 
       1            0   -120.84927    1.1224537    39.000009    1.1224537 
Loop time of 2.29378e-05 on 1 procs for 0 steps with 41 atoms

Minimization stats:
  Stopping criterion = force tolerance
  Energy initial, next-to-last, final = 
        -120.849270824     -120.849270824     -120.849270824
  Force two-norm initial, final = 5.37533e-17 5.37533e-17
  Force max component initial, final = 4.03323e-17 4.03323e-17
  Final line search alpha, max atom move = 0 0
  Iterations, force evaluations = 0 0

Pair  time (%) = 2.00304e-05 (87.325)
Neigh time (%) = 0 (0)
Comm  time (%) = 9.87435e-07 (4.30484)
Outpt time (%) = 0 (0)
Other time (%) = 1.91992e-06 (8.37013)

Nlocal:    41 ave 41 max 41 min
Histogram: 1 0 0 0 0 0 0 0 0 0
Nghost:    185 ave 185 max 185 min
Histogram: 1 0 0 0 0 0 0 0 0 0
Neighs:    355 ave 355 max 355 min
Histogram: 1 0 0 0 0 0 0 0 0 0

Total # of neighbors = 355
Ave neighs/atom = 8.65854
Neighbor list builds = 0
Dangerous builds = 0
	# write_dump all atom ${dumpfile}
        next i
jump SELF loop1
        displace_atoms upper move 0.0 ${ystep1} 0.0 units lattice
        displace_atoms upper move 0.0 0.002 0.0 units lattice
        min_style ${style}
        min_style hftn
        minimize ${etol} ${ftol} ${maxiter} ${maxeval}
        minimize 1e-12 ${ftol} ${maxiter} ${maxeval}
        minimize 1e-12 1e-08 ${maxiter} ${maxeval}
        minimize 1e-12 1e-08 10000 ${maxeval}
        minimize 1e-12 1e-08 10000 20000
WARNING: Resetting reneighboring criteria during minimization (../min.cpp:168)
Memory usage per processor = 4.85962 Mbytes
Step Temp PotEng Lx Ly Lz 
       1            0   -120.84107    1.1224537    39.003897    1.1224537 
Loop time of 1.20376e-05 on 1 procs for 0 steps with 41 atoms

Minimization stats:
  Stopping criterion = force tolerance
  Energy initial, next-to-last, final = 
        -120.841065373     -120.841065373     -120.841065373
  Force two-norm initial, final = 4.17293e-17 4.17293e-17
  Force max component initial, final = 4.03323e-17 4.03323e-17
  Final line search alpha, max atom move = 0 0
  Iterations, force evaluations = 0 0

Pair  time (%) = 8.8918e-06 (73.867)
Neigh time (%) = 0 (0)
Comm  time (%) = 2.15427e-06 (17.8962)
Outpt time (%) = 0 (0)
Other time (%) = 9.91509e-07 (8.23678)

Nlocal:    41 ave 41 max 41 min
Histogram: 1 0 0 0 0 0 0 0 0 0
Nghost:    185 ave 185 max 185 min
Histogram: 1 0 0 0 0 0 0 0 0 0
Neighs:    355 ave 355 max 355 min
Histogram: 1 0 0 0 0 0 0 0 0 0

Total # of neighbors = 355
Ave neighs/atom = 8.65854
Neighbor list builds = 0
Dangerous builds = 0
	# write_dump all atom ${dumpfile}
        next i
jump SELF loop1
        displace_atoms upper move 0.0 ${ystep1} 0.0 units lattice
        displace_atoms upper move 0.0 0.002 0.0 units lattice
        min_style ${style}
        min_style hftn
        minimize ${etol} ${ftol} ${maxiter} ${maxeval}
        minimize 1e-12 ${ftol} ${maxiter} ${maxeval}
        minimize 1e-12 1e-08 ${maxiter} ${maxeval}
        minimize 1e-12 1e-08 10000 ${maxeval}
        minimize 1e-12 1e-08 10000 20000
WARNING: Resetting reneighboring criteria during minimization (../min.cpp:168)
Memory usage per processor = 4.85962 Mbytes
Step Temp PotEng Lx Ly Lz 
       1            0   -120.83277    1.1224537    39.007786    1.1224537 
Loop time of 1.19791e-05 on 1 procs for 0 steps with 41 atoms

Minimization stats:
  Stopping criterion = force tolerance
  Energy initial, next-to-last, final = 
        -120.832766301     -120.832766301     -120.832766301
  Force two-norm initial, final = 6.35316e-17 6.35316e-17
  Force max component initial, final = 4.90873e-17 4.90873e-17
  Final line search alpha, max atom move = 0 0
  Iterations, force evaluations = 0 0

Pair  time (%) = 9.07178e-06 (75.7298)
Neigh time (%) = 0 (0)
Comm  time (%) = 2.03738e-06 (17.0078)
Outpt time (%) = 0 (0)
Other time (%) = 8.69972e-07 (7.26239)

Nlocal:    41 ave 41 max 41 min
Histogram: 1 0 0 0 0 0 0 0 0 0
Nghost:    185 ave 185 max 185 min
Histogram: 1 0 0 0 0 0 0 0 0 0
Neighs:    355 ave 355 max 355 min
Histogram: 1 0 0 0 0 0 0 0 0 0

Total # of neighbors = 355
Ave neighs/atom = 8.65854
Neighbor list builds = 0
Dangerous builds = 0
	# write_dump all atom ${dumpfile}
        next i
jump SELF loop1
        displace_atoms upper move 0.0 ${ystep1} 0.0 units lattice
        displace_atoms upper move 0.0 0.002 0.0 units lattice
        min_style ${style}
        min_style hftn
        minimize ${etol} ${ftol} ${maxiter} ${maxeval}
        minimize 1e-12 ${ftol} ${maxiter} ${maxeval}
        minimize 1e-12 1e-08 ${maxiter} ${maxeval}
        minimize 1e-12 1e-08 10000 ${maxeval}
        minimize 1e-12 1e-08 10000 20000
WARNING: Resetting reneighboring criteria during minimization (../min.cpp:168)
Memory usage per processor = 4.85962 Mbytes
Step Temp PotEng Lx Ly Lz 
       1            0   -120.82437    1.1224537    39.011674    1.1224537 
Loop time of 1.31017e-05 on 1 procs for 0 steps with 41 atoms

Minimization stats:
  Stopping criterion = force tolerance
  Energy initial, next-to-last, final = 
         -120.82437485      -120.82437485      -120.82437485
  Force two-norm initial, final = 6.5392e-17 6.5392e-17
  Force max component initial, final = 5.14725e-17 5.14725e-17
  Final line search alpha, max atom move = 0 0
  Iterations, force evaluations = 0 0

Pair  time (%) = 8.95595e-06 (68.357)
Neigh time (%) = 0 (0)
Comm  time (%) = 1.80572e-06 (13.7823)
Outpt time (%) = 0 (0)
Other time (%) = 2.34006e-06 (17.8607)

Nlocal:    41 ave 41 max 41 min
Histogram: 1 0 0 0 0 0 0 0 0 0
Nghost:    185 ave 185 max 185 min
Histogram: 1 0 0 0 0 0 0 0 0 0
Neighs:    355 ave 355 max 355 min
Histogram: 1 0 0 0 0 0 0 0 0 0

Total # of neighbors = 355
Ave neighs/atom = 8.65854
Neighbor list builds = 0
Dangerous builds = 0
	# write_dump all atom ${dumpfile}
        next i
jump SELF loop1
        displace_atoms upper move 0.0 ${ystep1} 0.0 units lattice
        displace_atoms upper move 0.0 0.002 0.0 units lattice
        min_style ${style}
        min_style hftn
        minimize ${etol} ${ftol} ${maxiter} ${maxeval}
        minimize 1e-12 ${ftol} ${maxiter} ${maxeval}
        minimize 1e-12 1e-08 ${maxiter} ${maxeval}
        minimize 1e-12 1e-08 10000 ${maxeval}
        minimize 1e-12 1e-08 10000 20000
WARNING: Resetting reneighboring criteria during minimization (../min.cpp:168)
Memory usage per processor = 4.85962 Mbytes
Step Temp PotEng Lx Ly Lz 
       1            0   -120.81589    1.1224537    39.015562    1.1224537 
Loop time of 1.29902e-05 on 1 procs for 0 steps with 41 atoms

Minimization stats:
  Stopping criterion = force tolerance
  Energy initial, next-to-last, final = 
        -120.815892133     -120.815892133     -120.815892133
  Force two-norm initial, final = 5.10235e-17 5.10235e-17
  Force max component initial, final = 4.03323e-17 4.03323e-17
  Final line search alpha, max atom move = 0 0
  Iterations, force evaluations = 0 0

Pair  time (%) = 9.08284e-06 (69.9207)
Neigh time (%) = 0 (0)
Comm  time (%) = 2.0595e-06 (15.8543)
Outpt time (%) = 0 (0)
Other time (%) = 1.84786e-06 (14.225)

Nlocal:    41 ave 41 max 41 min
Histogram: 1 0 0 0 0 0 0 0 0 0
Nghost:    185 ave 185 max 185 min
Histogram: 1 0 0 0 0 0 0 0 0 0
Neighs:    355 ave 355 max 355 min
Histogram: 1 0 0 0 0 0 0 0 0 0

Total # of neighbors = 355
Ave neighs/atom = 8.65854
Neighbor list builds = 0
Dangerous builds = 0
	# write_dump all atom ${dumpfile}
        next i
jump SELF loop1
        displace_atoms upper move 0.0 ${ystep1} 0.0 units lattice
        displace_atoms upper move 0.0 0.002 0.0 units lattice
        min_style ${style}
        min_style hftn
        minimize ${etol} ${ftol} ${maxiter} ${maxeval}
        minimize 1e-12 ${ftol} ${maxiter} ${maxeval}
        minimize 1e-12 1e-08 ${maxiter} ${maxeval}
        minimize 1e-12 1e-08 10000 ${maxeval}
        minimize 1e-12 1e-08 10000 20000
WARNING: Resetting reneighboring criteria during minimization (../min.cpp:168)
Memory usage per processor = 4.85962 Mbytes
Step Temp PotEng Lx Ly Lz 
       1            0   -120.80732    1.1224537    39.019451    1.1224537 
Loop time of 1.20313e-05 on 1 procs for 0 steps with 41 atoms

Minimization stats:
  Stopping criterion = force tolerance
  Energy initial, next-to-last, final = 
        -120.807318686     -120.807318686     -120.807318686
  Force two-norm initial, final = 4.12602e-17 4.12602e-17
  Force max component initial, final = 4.03323e-17 4.03323e-17
  Final line search alpha, max atom move = 0 0
  Iterations, force evaluations = 0 0

Pair  time (%) = 8.88552e-06 (73.8534)
Neigh time (%) = 0 (0)
Comm  time (%) = 2.14169e-06 (17.801)
Outpt time (%) = 0 (0)
Other time (%) = 1.00408e-06 (8.34559)

Nlocal:    41 ave 41 max 41 min
Histogram: 1 0 0 0 0 0 0 0 0 0
Nghost:    185 ave 185 max 185 min
Histogram: 1 0 0 0 0 0 0 0 0 0
Neighs:    355 ave 355 max 355 min
Histogram: 1 0 0 0 0 0 0 0 0 0

Total # of neighbors = 355
Ave neighs/atom = 8.65854
Neighbor list builds = 0
Dangerous builds = 0
	# write_dump all atom ${dumpfile}
        next i
jump SELF loop1
        displace_atoms upper move 0.0 ${ystep1} 0.0 units lattice
        displace_atoms upper move 0.0 0.002 0.0 units lattice
        min_style ${style}
        min_style hftn
        minimize ${etol} ${ftol} ${maxiter} ${maxeval}
        minimize 1e-12 ${ftol} ${maxiter} ${maxeval}
        minimize 1e-12 1e-08 ${maxiter} ${maxeval}
        minimize 1e-12 1e-08 10000 ${maxeval}
        minimize 1e-12 1e-08 10000 20000
WARNING: Resetting reneighboring criteria during minimization (../min.cpp:168)
Memory usage per processor = 4.85962 Mbytes
Step Temp PotEng Lx Ly Lz 
       1            0   -120.79866    1.1224537    39.023339    1.1224537 
Loop time of 1.29674e-05 on 1 procs for 0 steps with 41 atoms

Minimization stats:
  Stopping criterion = force tolerance
  Energy initial, next-to-last, final = 
        -120.798655993     -120.798655993     -120.798655993
  Force two-norm initial, final = 4.18862e-17 4.18862e-17
  Force max component initial, final = 4.03323e-17 4.03323e-17
  Final line search alpha, max atom move = 0 0
  Iterations, force evaluations = 0 0

Pair  time (%) = 9.06002e-06 (69.8678)
Neigh time (%) = 0 (0)
Comm  time (%) = 2.01375e-06 (15.5294)
Outpt time (%) = 0 (0)
Other time (%) = 1.89361e-06 (14.6029)

Nlocal:    41 ave 41 max 41 min
Histogram: 1 0 0 0 0 0 0 0 0 0
Nghost:    185 ave 185 max 185 min
Histogram: 1 0 0 0 0 0 0 0 0 0
Neighs:    355 ave 355 max 355 min
Histogram: 1 0 0 0 0 0 0 0 0 0

Total # of neighbors = 355
Ave neighs/atom = 8.65854
Neighbor list builds = 0
Dangerous builds = 0
	# write_dump all atom ${dumpfile}
        next i
jump SELF loop1
        displace_atoms upper move 0.0 ${ystep1} 0.0 units lattice
        displace_atoms upper move 0.0 0.002 0.0 units lattice
        min_style ${style}
        min_style hftn
        minimize ${etol} ${ftol} ${maxiter} ${maxeval}
        minimize 1e-12 ${ftol} ${maxiter} ${maxeval}
        minimize 1e-12 1e-08 ${maxiter} ${maxeval}
        minimize 1e-12 1e-08 10000 ${maxeval}
        minimize 1e-12 1e-08 10000 20000
WARNING: Resetting reneighboring criteria during minimization (../min.cpp:168)
Memory usage per processor = 4.85962 Mbytes
Step Temp PotEng Lx Ly Lz 
       1            0    -120.7899    1.1224537    39.027227    1.1224537 
Loop time of 1.20084e-05 on 1 procs for 0 steps with 41 atoms

Minimization stats:
  Stopping criterion = force tolerance
  Energy initial, next-to-last, final = 
        -120.789904795     -120.789904795     -120.789904795
  Force two-norm initial, final = 6.82003e-17 6.82003e-17
  Force max component initial, final = 5.49962e-17 5.49962e-17
  Final line search alpha, max atom move = 0 0
  Iterations, force evaluations = 0 0

Pair  time (%) = 1.00547e-05 (83.7306)
Neigh time (%) = 0 (0)
Comm  time (%) = 1.04948e-06 (8.73961)
Outpt time (%) = 0 (0)
Other time (%) = 9.04198e-07 (7.52974)

Nlocal:    41 ave 41 max 41 min
Histogram: 1 0 0 0 0 0 0 0 0 0
Nghost:    185 ave 185 max 185 min
Histogram: 1 0 0 0 0 0 0 0 0 0
Neighs:    355 ave 355 max 355 min
Histogram: 1 0 0 0 0 0 0 0 0 0

Total # of neighbors = 355
Ave neighs/atom = 8.65854
Neighbor list builds = 0
Dangerous builds = 0
	# write_dump all atom ${dumpfile}
        next i
jump SELF loop1
        displace_atoms upper move 0.0 ${ystep1} 0.0 units lattice
        displace_atoms upper move 0.0 0.002 0.0 units lattice
        min_style ${style}
        min_style hftn
        minimize ${etol} ${ftol} ${maxiter} ${maxeval}
        minimize 1e-12 ${ftol} ${maxiter} ${maxeval}
        minimize 1e-12 1e-08 ${maxiter} ${maxeval}
        minimize 1e-12 1e-08 10000 ${maxeval}
        minimize 1e-12 1e-08 10000 20000
WARNING: Resetting reneighboring criteria during minimization (../min.cpp:168)
Memory usage per processor = 4.85962 Mbytes
Step Temp PotEng Lx Ly Lz 
       1            0   -120.78107    1.1224537    39.031116    1.1224537 
Loop time of 1.39751e-05 on 1 procs for 0 steps with 41 atoms

Minimization stats:
  Stopping criterion = force tolerance
  Energy initial, next-to-last, final = 
        -120.781066191     -120.781066191     -120.781066191
  Force two-norm initial, final = 6.23662e-17 6.23662e-17
  Force max component initial, final = 4.75694e-17 4.75694e-17
  Final line search alpha, max atom move = 0 0
  Iterations, force evaluations = 0 0

Pair  time (%) = 1.00677e-05 (72.0405)
Neigh time (%) = 0 (0)
Comm  time (%) = 1.07556e-06 (7.69628)
Outpt time (%) = 0 (0)
Other time (%) = 2.8318e-06 (20.2632)

Nlocal:    41 ave 41 max 41 min
Histogram: 1 0 0 0 0 0 0 0 0 0
Nghost:    185 ave 185 max 185 min
Histogram: 1 0 0 0 0 0 0 0 0 0
Neighs:    355 ave 355 max 355 min
Histogram: 1 0 0 0 0 0 0 0 0 0

Total # of neighbors = 355
Ave neighs/atom = 8.65854
Neighbor list builds = 0
Dangerous builds = 0
	# write_dump all atom ${dumpfile}
        next i
jump SELF loop1
        displace_atoms upper move 0.0 ${ystep1} 0.0 units lattice
        displace_atoms upper move 0.0 0.002 0.0 units lattice
        min_style ${style}
        min_style hftn
        minimize ${etol} ${ftol} ${maxiter} ${maxeval}
        minimize 1e-12 ${ftol} ${maxiter} ${maxeval}
        minimize 1e-12 1e-08 ${maxiter} ${maxeval}
        minimize 1e-12 1e-08 10000 ${maxeval}
        minimize 1e-12 1e-08 10000 20000
WARNING: Resetting reneighboring criteria during minimization (../min.cpp:168)
Memory usage per processor = 4.85962 Mbytes
Step Temp PotEng Lx Ly Lz 
       1            0   -120.77214    1.1224537    39.035004    1.1224537 
Loop time of 2.50477e-05 on 1 procs for 0 steps with 41 atoms

Minimization stats:
  Stopping criterion = force tolerance
  Energy initial, next-to-last, final = 
        -120.772141196     -120.772141196     -120.772141196
  Force two-norm initial, final = 4.15671e-17 4.15671e-17
  Force max component initial, final = 4.03323e-17 4.03323e-17
  Final line search alpha, max atom move = 0 0
  Iterations, force evaluations = 0 0

Pair  time (%) = 1.99482e-05 (79.641)
Neigh time (%) = 0 (0)
Comm  time (%) = 2.01503e-06 (8.04479)
Outpt time (%) = 0 (0)
Other time (%) = 3.08442e-06 (12.3142)

Nlocal:    41 ave 41 max 41 min
Histogram: 1 0 0 0 0 0 0 0 0 0
Nghost:    185 ave 185 max 185 min
Histogram: 1 0 0 0 0 0 0 0 0 0
Neighs:    355 ave 355 max 355 min
Histogram: 1 0 0 0 0 0 0 0 0 0

Total # of neighbors = 355
Ave neighs/atom = 8.65854
Neighbor list builds = 0
Dangerous builds = 0
	# write_dump all atom ${dumpfile}
        next i
jump SELF loop1
        displace_atoms upper move 0.0 ${ystep1} 0.0 units lattice
        displace_atoms upper move 0.0 0.002 0.0 units lattice
        min_style ${style}
        min_style hftn
        minimize ${etol} ${ftol} ${maxiter} ${maxeval}
        minimize 1e-12 ${ftol} ${maxiter} ${maxeval}
        minimize 1e-12 1e-08 ${maxiter} ${maxeval}
        minimize 1e-12 1e-08 10000 ${maxeval}
        minimize 1e-12 1e-08 10000 20000
WARNING: Resetting reneighboring criteria during minimization (../min.cpp:168)
Memory usage per processor = 4.85962 Mbytes
Step Temp PotEng Lx Ly Lz 
       1            0   -120.76313    1.1224537    39.038892    1.1224537 
Loop time of 1.20276e-05 on 1 procs for 0 steps with 41 atoms

Minimization stats:
  Stopping criterion = force tolerance
  Energy initial, next-to-last, final = 
        -120.763130817     -120.763130817     -120.763130817
  Force two-norm initial, final = 4.58047e-17 4.58047e-17
  Force max component initial, final = 4.03323e-17 4.03323e-17
  Final line search alpha, max atom move = 0 0
  Iterations, force evaluations = 0 0

Pair  time (%) = 1.00739e-05 (83.7566)
Neigh time (%) = 0 (0)
Comm  time (%) = 1.0879e-06 (9.04507)
Outpt time (%) = 0 (0)
Other time (%) = 8.65781e-07 (7.1983)

Nlocal:    41 ave 41 max 41 min
Histogram: 1 0 0 0 0 0 0 0 0 0
Nghost:    185 ave 185 max 185 min
Histogram: 1 0 0 0 0 0 0 0 0 0
Neighs:    355 ave 355 max 355 min
Histogram: 1 0 0 0 0 0 0 0 0 0

Total # of neighbors = 355
Ave neighs/atom = 8.65854
Neighbor list builds = 0
Dangerous builds = 0
	# write_dump all atom ${dumpfile}
        next i
jump SELF loop1
        displace_atoms upper move 0.0 ${ystep1} 0.0 units lattice
        displace_atoms upper move 0.0 0.002 0.0 units lattice
        min_style ${style}
        min_style hftn
        minimize ${etol} ${ftol} ${maxiter} ${maxeval}
        minimize 1e-12 ${ftol} ${maxiter} ${maxeval}
        minimize 1e-12 1e-08 ${maxiter} ${maxeval}
        minimize 1e-12 1e-08 10000 ${maxeval}
        minimize 1e-12 1e-08 10000 20000
WARNING: Resetting reneighboring criteria during minimization (../min.cpp:168)
Memory usage per processor = 4.85962 Mbytes
Step Temp PotEng Lx Ly Lz 
       1            0   -120.75404    1.1224537     39.04278    1.1224537 
Loop time of 1.29353e-05 on 1 procs for 0 steps with 41 atoms

Minimization stats:
  Stopping criterion = force tolerance
  Energy initial, next-to-last, final = 
        -120.754036082     -120.754036082     -120.754036082
  Force two-norm initial, final = 5.19329e-17 5.19329e-17
  Force max component initial, final = 4.03323e-17 4.03323e-17
  Final line search alpha, max atom move = 0 0
  Iterations, force evaluations = 0 0

Pair  time (%) = 9.02789e-06 (69.7929)
Neigh time (%) = 0 (0)
Comm  time (%) = 1.94961e-06 (15.072)
Outpt time (%) = 0 (0)
Other time (%) = 1.95776e-06 (15.135)

Nlocal:    41 ave 41 max 41 min
Histogram: 1 0 0 0 0 0 0 0 0 0
Nghost:    185 ave 185 max 185 min
Histogram: 1 0 0 0 0 0 0 0 0 0
Neighs:    355 ave 355 max 355 min
Histogram: 1 0 0 0 0 0 0 0 0 0

Total # of neighbors = 355
Ave neighs/atom = 8.65854
Neighbor list builds = 0
Dangerous builds = 0
	# write_dump all atom ${dumpfile}
        next i
jump SELF loop1
        displace_atoms upper move 0.0 ${ystep1} 0.0 units lattice
        displace_atoms upper move 0.0 0.002 0.0 units lattice
        min_style ${style}
        min_style hftn
        minimize ${etol} ${ftol} ${maxiter} ${maxeval}
        minimize 1e-12 ${ftol} ${maxiter} ${maxeval}
        minimize 1e-12 1e-08 ${maxiter} ${maxeval}
        minimize 1e-12 1e-08 10000 ${maxeval}
        minimize 1e-12 1e-08 10000 20000
WARNING: Resetting reneighboring criteria during minimization (../min.cpp:168)
Memory usage per processor = 4.85962 Mbytes
Step Temp PotEng Lx Ly Lz 
       1            0   -120.74486    1.1224537    39.046669    1.1224537 
Loop time of 1.19755e-05 on 1 procs for 0 steps with 41 atoms

Minimization stats:
  Stopping criterion = force tolerance
  Energy initial, next-to-last, final = 
        -120.744858114     -120.744858114     -120.744858114
  Force two-norm initial, final = 6.26561e-17 6.26561e-17
  Force max component initial, final = 4.79488e-17 4.79488e-17
  Final line search alpha, max atom move = 0 0
  Iterations, force evaluations = 0 0

Pair  time (%) = 9.06817e-06 (75.7225)
Neigh time (%) = 0 (0)
Comm  time (%) = 1.98383e-06 (16.5657)
Outpt time (%) = 0 (0)
Other time (%) = 9.23523e-07 (7.71175)

Nlocal:    41 ave 41 max 41 min
Histogram: 1 0 0 0 0 0 0 0 0 0
Nghost:    185 ave 185 max 185 min
Histogram: 1 0 0 0 0 0 0 0 0 0
Neighs:    355 ave 355 max 355 min
Histogram: 1 0 0 0 0 0 0 0 0 0

Total # of neighbors = 355
Ave neighs/atom = 8.65854
Neighbor list builds = 0
Dangerous builds = 0
	# write_dump all atom ${dumpfile}
        next i
jump SELF loop1
        displace_atoms upper move 0.0 ${ystep1} 0.0 units lattice
        displace_atoms upper move 0.0 0.002 0.0 units lattice
        min_style ${style}
        min_style hftn
        minimize ${etol} ${ftol} ${maxiter} ${maxeval}
        minimize 1e-12 ${ftol} ${maxiter} ${maxeval}
        minimize 1e-12 1e-08 ${maxiter} ${maxeval}
        minimize 1e-12 1e-08 10000 ${maxeval}
        minimize 1e-12 1e-08 10000 20000
WARNING: Resetting reneighboring criteria during minimization (../min.cpp:168)
Memory usage per processor = 4.85962 Mbytes
Step Temp PotEng Lx Ly Lz 
       1            0    -120.7356    1.1224537    39.050557    1.1224537 
Loop time of 1.28901e-05 on 1 procs for 0 steps with 41 atoms

Minimization stats:
  Stopping criterion = force tolerance
  Energy initial, next-to-last, final = 
         -120.73559775      -120.73559775      -120.73559775
  Force two-norm initial, final = 6.24904e-17 6.24904e-17
  Force max component initial, final = 4.7732e-17 4.7732e-17
  Final line search alpha, max atom move = 0 0
  Iterations, force evaluations = 0 0

Pair  time (%) = 8.98272e-06 (69.6871)
Neigh time (%) = 0 (0)
Comm  time (%) = 1.85915e-06 (14.4231)
Outpt time (%) = 0 (0)
Other time (%) = 2.04821e-06 (15.8898)

Nlocal:    41 ave 41 max 41 min
Histogram: 1 0 0 0 0 0 0 0 0 0
Nghost:    185 ave 185 max 185 min
Histogram: 1 0 0 0 0 0 0 0 0 0
Neighs:    355 ave 355 max 355 min
Histogram: 1 0 0 0 0 0 0 0 0 0

Total # of neighbors = 355
Ave neighs/atom = 8.65854
Neighbor list builds = 0
Dangerous builds = 0
	# write_dump all atom ${dumpfile}
        next i
jump SELF loop1
        displace_atoms upper move 0.0 ${ystep1} 0.0 units lattice
        displace_atoms upper move 0.0 0.002 0.0 units lattice
        min_style ${style}
        min_style hftn
        minimize ${etol} ${ftol} ${maxiter} ${maxeval}
        minimize 1e-12 ${ftol} ${maxiter} ${maxeval}
        minimize 1e-12 1e-08 ${maxiter} ${maxeval}
        minimize 1e-12 1e-08 10000 ${maxeval}
        minimize 1e-12 1e-08 10000 20000
WARNING: Resetting reneighboring criteria during minimization (../min.cpp:168)
Memory usage per processor = 4.85962 Mbytes
Step Temp PotEng Lx Ly Lz 
       1            0   -120.72626    1.1224537    39.054445    1.1224537 
Loop time of 1.21028e-05 on 1 procs for 0 steps with 41 atoms

Minimization stats:
  Stopping criterion = force tolerance
  Energy initial, next-to-last, final = 
        -120.726256355     -120.726256355     -120.726256355
  Force two-norm initial, final = 4.20205e-17 4.20205e-17
  Force max component initial, final = 4.03323e-17 4.03323e-17
  Final line search alpha, max atom move = 0 0
  Iterations, force evaluations = 0 0

Pair  time (%) = 8.95699e-06 (74.0078)
Neigh time (%) = 0 (0)
Comm  time (%) = 9.99891e-07 (8.26167)
Outpt time (%) = 0 (0)
Other time (%) = 2.14588e-06 (17.7305)

Nlocal:    41 ave 41 max 41 min
Histogram: 1 0 0 0 0 0 0 0 0 0
Nghost:    185 ave 185 max 185 min
Histogram: 1 0 0 0 0 0 0 0 0 0
Neighs:    355 ave 355 max 355 min
Histogram: 1 0 0 0 0 0 0 0 0 0

Total # of neighbors = 355
Ave neighs/atom = 8.65854
Neighbor list builds = 0
Dangerous builds = 0
	# write_dump all atom ${dumpfile}
        next i
jump SELF loop1
        displace_atoms upper move 0.0 ${ystep1} 0.0 units lattice
        displace_atoms upper move 0.0 0.002 0.0 units lattice
        min_style ${style}
        min_style hftn
        minimize ${etol} ${ftol} ${maxiter} ${maxeval}
        minimize 1e-12 ${ftol} ${maxiter} ${maxeval}
        minimize 1e-12 1e-08 ${maxiter} ${maxeval}
        minimize 1e-12 1e-08 10000 ${maxeval}
        minimize 1e-12 1e-08 10000 20000
WARNING: Resetting reneighboring criteria during minimization (../min.cpp:168)
Memory usage per processor = 4.85962 Mbytes
Step Temp PotEng Lx Ly Lz 
       1            0   -120.71683    1.1224537    39.058334    1.1224537 
Loop time of 1.19518e-05 on 1 procs for 0 steps with 41 atoms

Minimization stats:
  Stopping criterion = force tolerance
  Energy initial, next-to-last, final = 
         -120.71683464      -120.71683464      -120.71683464
  Force two-norm initial, final = 5.41494e-17 5.41494e-17
  Force max component initial, final = 4.03323e-17 4.03323e-17
  Final line search alpha, max atom move = 0 0
  Iterations, force evaluations = 0 0

Pair  time (%) = 9.04442e-06 (75.6743)
Neigh time (%) = 0 (0)
Comm  time (%) = 9.82662e-07 (8.22189)
Outpt time (%) = 0 (0)
Other time (%) = 1.92469e-06 (16.1038)

Nlocal:    41 ave 41 max 41 min
Histogram: 1 0 0 0 0 0 0 0 0 0
Nghost:    185 ave 185 max 185 min
Histogram: 1 0 0 0 0 0 0 0 0 0
Neighs:    355 ave 355 max 355 min
Histogram: 1 0 0 0 0 0 0 0 0 0

Total # of neighbors = 355
Ave neighs/atom = 8.65854
Neighbor list builds = 0
Dangerous builds = 0
	# write_dump all atom ${dumpfile}
        next i
jump SELF loop1
        displace_atoms upper move 0.0 ${ystep1} 0.0 units lattice
        displace_atoms upper move 0.0 0.002 0.0 units lattice
        min_style ${style}
        min_style hftn
        minimize ${etol} ${ftol} ${maxiter} ${maxeval}
        minimize 1e-12 ${ftol} ${maxiter} ${maxeval}
        minimize 1e-12 1e-08 ${maxiter} ${maxeval}
        minimize 1e-12 1e-08 10000 ${maxeval}
        minimize 1e-12 1e-08 10000 20000
WARNING: Resetting reneighboring criteria during minimization (../min.cpp:168)
Memory usage per processor = 4.85962 Mbytes
Step Temp PotEng Lx Ly Lz 
       1            0   -120.70733    1.1224537    39.062222    1.1224537 
Loop time of 1.28933e-05 on 1 procs for 0 steps with 41 atoms

Minimization stats:
  Stopping criterion = force tolerance
  Energy initial, next-to-last, final = 
        -120.707333895     -120.707333895     -120.707333895
  Force two-norm initial, final = 4.43106e-17 4.43106e-17
  Force max component initial, final = 4.03323e-17 4.03323e-17
  Final line search alpha, max atom move = 0 0
  Iterations, force evaluations = 0 0

Pair  time (%) = 8.9861e-06 (69.6956)
Neigh time (%) = 0 (0)
Comm  time (%) = 1.8659e-06 (14.4718)
Outpt time (%) = 0 (0)
Other time (%) = 2.04134e-06 (15.8325)

Nlocal:    41 ave 41 max 41 min
Histogram: 1 0 0 0 0 0 0 0 0 0
Nghost:    185 ave 185 max 185 min
Histogram: 1 0 0 0 0 0 0 0 0 0
Neighs:    355 ave 355 max 355 min
Histogram: 1 0 0 0 0 0 0 0 0 0

Total # of neighbors = 355
Ave neighs/atom = 8.65854
Neighbor list builds = 0
Dangerous builds = 0
	# write_dump all atom ${dumpfile}
        next i
jump SELF loop1
        displace_atoms upper move 0.0 ${ystep1} 0.0 units lattice
        displace_atoms upper move 0.0 0.002 0.0 units lattice
        min_style ${style}
        min_style hftn
        minimize ${etol} ${ftol} ${maxiter} ${maxeval}
        minimize 1e-12 ${ftol} ${maxiter} ${maxeval}
        minimize 1e-12 1e-08 ${maxiter} ${maxeval}
        minimize 1e-12 1e-08 10000 ${maxeval}
        minimize 1e-12 1e-08 10000 20000
WARNING: Resetting reneighboring criteria during minimization (../min.cpp:168)
Memory usage per processor = 4.85962 Mbytes
Step Temp PotEng Lx Ly Lz 
       1            0   -120.69776    1.1224537     39.06611    1.1224537 
Loop time of 1.19209e-05 on 1 procs for 0 steps with 41 atoms

Minimization stats:
  Stopping criterion = force tolerance
  Energy initial, next-to-last, final = 
        -120.697755233     -120.697755233     -120.697755233
  Force two-norm initial, final = 4.034e-17 4.034e-17
  Force max component initial, final = 4.03323e-17 4.03323e-17
  Final line search alpha, max atom move = 0 0
  Iterations, force evaluations = 0 0

Pair  time (%) = 9.01357e-06 (75.6113)
Neigh time (%) = 0 (0)
Comm  time (%) = 8.74512e-07 (7.33594)
Outpt time (%) = 0 (0)
Other time (%) = 2.03284e-06 (17.0527)

Nlocal:    41 ave 41 max 41 min
Histogram: 1 0 0 0 0 0 0 0 0 0
Nghost:    185 ave 185 max 185 min
Histogram: 1 0 0 0 0 0 0 0 0 0
Neighs:    355 ave 355 max 355 min
Histogram: 1 0 0 0 0 0 0 0 0 0

Total # of neighbors = 355
Ave neighs/atom = 8.65854
Neighbor list builds = 0
Dangerous builds = 0
	# write_dump all atom ${dumpfile}
        next i
jump SELF loop1
        displace_atoms upper move 0.0 ${ystep1} 0.0 units lattice
        displace_atoms upper move 0.0 0.002 0.0 units lattice
        min_style ${style}
        min_style hftn
        minimize ${etol} ${ftol} ${maxiter} ${maxeval}
        minimize 1e-12 ${ftol} ${maxiter} ${maxeval}
        minimize 1e-12 1e-08 ${maxiter} ${maxeval}
        minimize 1e-12 1e-08 10000 ${maxeval}
        minimize 1e-12 1e-08 10000 20000
WARNING: Resetting reneighboring criteria during minimization (../min.cpp:168)
Memory usage per processor = 4.85962 Mbytes
Step Temp PotEng Lx Ly Lz 
       1            0    -120.6881    1.1224537    39.069998    1.1224537 
Loop time of 1.51083e-05 on 1 procs for 0 steps with 41 atoms

Minimization stats:
  Stopping criterion = force tolerance
  Energy initial, next-to-last, final = 
        -120.688099435     -120.688099435     -120.688099435
  Force two-norm initial, final = 4.03641e-17 4.03641e-17
  Force max component initial, final = 4.03323e-17 4.03323e-17
  Final line search alpha, max atom move = 0 0
  Iterations, force evaluations = 0 0

Pair  time (%) = 1.00089e-05 (66.248)
Neigh time (%) = 0 (0)
Comm  time (%) = 1.91154e-06 (12.6523)
Outpt time (%) = 0 (0)
Other time (%) = 3.1878e-06 (21.0997)

Nlocal:    41 ave 41 max 41 min
Histogram: 1 0 0 0 0 0 0 0 0 0
Nghost:    185 ave 185 max 185 min
Histogram: 1 0 0 0 0 0 0 0 0 0
Neighs:    355 ave 355 max 355 min
Histogram: 1 0 0 0 0 0 0 0 0 0

Total # of neighbors = 355
Ave neighs/atom = 8.65854
Neighbor list builds = 0
Dangerous builds = 0
	# write_dump all atom ${dumpfile}
        next i
jump SELF loop1
        displace_atoms upper move 0.0 ${ystep1} 0.0 units lattice
        displace_atoms upper move 0.0 0.002 0.0 units lattice
        min_style ${style}
        min_style hftn
        minimize ${etol} ${ftol} ${maxiter} ${maxeval}
        minimize 1e-12 ${ftol} ${maxiter} ${maxeval}
        minimize 1e-12 1e-08 ${maxiter} ${maxeval}
        minimize 1e-12 1e-08 10000 ${maxeval}
        minimize 1e-12 1e-08 10000 20000
WARNING: Resetting reneighboring criteria during minimization (../min.cpp:168)
Memory usage per processor = 4.85962 Mbytes
Step Temp PotEng Lx Ly Lz 
       1            0   -120.67837    1.1224537    39.073887    1.1224537 
Loop time of 1.30915e-05 on 1 procs for 0 steps with 41 atoms

Minimization stats:
  Stopping criterion = force tolerance
  Energy initial, next-to-last, final = 
        -120.678367822     -120.678367822     -120.678367822
  Force two-norm initial, final = 6.2947e-17 6.2947e-17
  Force max component initial, final = 4.83283e-17 4.83283e-17
  Final line search alpha, max atom move = 0 0
  Iterations, force evaluations = 0 0

Pair  time (%) = 8.99204e-06 (68.6861)
Neigh time (%) = 0 (0)
Comm  time (%) = 8.31438e-07 (6.35098)
Outpt time (%) = 0 (0)
Other time (%) = 3.26801e-06 (24.9629)

Nlocal:    41 ave 41 max 41 min
Histogram: 1 0 0 0 0 0 0 0 0 0
[...]
  Force two-norm initial, final = 9.77287e-20 9.77287e-20
  Force max component initial, final = 5.42101e-20 5.42101e-20
  Final line search alpha, max atom move = 0 0
  Iterations, force evaluations = 0 0

Pair  time (%) = 2.00414e-05 (64.7424)
Neigh time (%) = 0 (0)
Comm  time (%) = 4.10876e-06 (13.2731)
Outpt time (%) = 0 (0)
Other time (%) = 6.80541e-06 (21.9845)

Nlocal:    41 ave 41 max 41 min
Histogram: 1 0 0 0 0 0 0 0 0 0
Nghost:    185 ave 185 max 185 min
Histogram: 1 0 0 0 0 0 0 0 0 0
Neighs:    349 ave 349 max 349 min
Histogram: 1 0 0 0 0 0 0 0 0 0

Total # of neighbors = 349
Ave neighs/atom = 8.5122
Neighbor list builds = 0
Dangerous builds = 0
	# write_dump all atom ${dumpfile}
        next i
jump SELF loop1
        displace_atoms upper move 0.0 ${ystep1} 0.0 units lattice
        displace_atoms upper move 0.0 0.002 0.0 units lattice
        min_style ${style}
        min_style hftn
        minimize ${etol} ${ftol} ${maxiter} ${maxeval}
        minimize 1e-12 ${ftol} ${maxiter} ${maxeval}
        minimize 1e-12 1e-08 ${maxiter} ${maxeval}
        minimize 1e-12 1e-08 10000 ${maxeval}
        minimize 1e-12 1e-08 10000 20000
WARNING: Resetting reneighboring criteria during minimization (../min.cpp:168)
Memory usage per processor = 4.85969 Mbytes
Step Temp PotEng Lx Ly Lz 
       1            0   -118.99997    1.1224537    40.792513    1.1224537 
Loop time of 1.30857e-05 on 1 procs for 0 steps with 41 atoms

Minimization stats:
  Stopping criterion = force tolerance
  Energy initial, next-to-last, final = 
         -118.99996903      -118.99996903      -118.99996903
  Force two-norm initial, final = 9.77287e-20 9.77287e-20
  Force max component initial, final = 5.42101e-20 5.42101e-20
  Final line search alpha, max atom move = 0 0
  Iterations, force evaluations = 0 0

Pair  time (%) = 8.93988e-06 (68.3181)
Neigh time (%) = 0 (0)
Comm  time (%) = 2.01189e-06 (15.3748)
Outpt time (%) = 0 (0)
Other time (%) = 2.13389e-06 (16.3071)

Nlocal:    41 ave 41 max 41 min
Histogram: 1 0 0 0 0 0 0 0 0 0
Nghost:    185 ave 185 max 185 min
Histogram: 1 0 0 0 0 0 0 0 0 0
Neighs:    349 ave 349 max 349 min
Histogram: 1 0 0 0 0 0 0 0 0 0

Total # of neighbors = 349
Ave neighs/atom = 8.5122
Neighbor list builds = 0
Dangerous builds = 0
	# write_dump all atom ${dumpfile}
        next i
jump SELF loop1
        displace_atoms upper move 0.0 ${ystep1} 0.0 units lattice
        displace_atoms upper move 0.0 0.002 0.0 units lattice
        min_style ${style}
        min_style hftn
        minimize ${etol} ${ftol} ${maxiter} ${maxeval}
        minimize 1e-12 ${ftol} ${maxiter} ${maxeval}
        minimize 1e-12 1e-08 ${maxiter} ${maxeval}
        minimize 1e-12 1e-08 10000 ${maxeval}
        minimize 1e-12 1e-08 10000 20000
WARNING: Resetting reneighboring criteria during minimization (../min.cpp:168)
Memory usage per processor = 4.85969 Mbytes
Step Temp PotEng Lx Ly Lz 
       1            0   -118.99997    1.1224537    40.796401    1.1224537 
Loop time of 1.28882e-05 on 1 procs for 0 steps with 41 atoms

Minimization stats:
  Stopping criterion = force tolerance
  Energy initial, next-to-last, final = 
         -118.99996903      -118.99996903      -118.99996903
  Force two-norm initial, final = 1.01418e-19 1.01418e-19
  Force max component initial, final = 5.42101e-20 5.42101e-20
  Final line search alpha, max atom move = 0 0
  Iterations, force evaluations = 0 0

Pair  time (%) = 8.98086e-06 (69.6827)
Neigh time (%) = 0 (0)
Comm  time (%) = 1.85554e-06 (14.3972)
Outpt time (%) = 0 (0)
Other time (%) = 2.05182e-06 (15.9201)

Nlocal:    41 ave 41 max 41 min
Histogram: 1 0 0 0 0 0 0 0 0 0
Nghost:    185 ave 185 max 185 min
Histogram: 1 0 0 0 0 0 0 0 0 0
Neighs:    349 ave 349 max 349 min
Histogram: 1 0 0 0 0 0 0 0 0 0

Total # of neighbors = 349
Ave neighs/atom = 8.5122
Neighbor list builds = 0
Dangerous builds = 0
	# write_dump all atom ${dumpfile}
        next i
jump SELF loop1
        displace_atoms upper move 0.0 ${ystep1} 0.0 units lattice
        displace_atoms upper move 0.0 0.002 0.0 units lattice
        min_style ${style}
        min_style hftn
        minimize ${etol} ${ftol} ${maxiter} ${maxeval}
        minimize 1e-12 ${ftol} ${maxiter} ${maxeval}
        minimize 1e-12 1e-08 ${maxiter} ${maxeval}
        minimize 1e-12 1e-08 10000 ${maxeval}
        minimize 1e-12 1e-08 10000 20000
WARNING: Resetting reneighboring criteria during minimization (../min.cpp:168)
Memory usage per processor = 4.85969 Mbytes
Step Temp PotEng Lx Ly Lz 
       1            0   -118.99997    1.1224537    40.800289    1.1224537 
Loop time of 1.2022e-05 on 1 procs for 0 steps with 41 atoms

Minimization stats:
  Stopping criterion = force tolerance
  Energy initial, next-to-last, final = 
         -118.99996903      -118.99996903      -118.99996903
  Force two-norm initial, final = 9.77287e-20 9.77287e-20
  Force max component initial, final = 5.42101e-20 5.42101e-20
  Final line search alpha, max atom move = 0 0
  Iterations, force evaluations = 0 0

Pair  time (%) = 9.11462e-06 (75.8163)
Neigh time (%) = 0 (0)
Comm  time (%) = 1.07673e-06 (8.95631)
Outpt time (%) = 0 (0)
Other time (%) = 1.83063e-06 (15.2274)

Nlocal:    41 ave 41 max 41 min
Histogram: 1 0 0 0 0 0 0 0 0 0
Nghost:    185 ave 185 max 185 min
Histogram: 1 0 0 0 0 0 0 0 0 0
Neighs:    349 ave 349 max 349 min
Histogram: 1 0 0 0 0 0 0 0 0 0

Total # of neighbors = 349
Ave neighs/atom = 8.5122
Neighbor list builds = 0
Dangerous builds = 0
	# write_dump all atom ${dumpfile}
        next i
jump SELF loop1
        displace_atoms upper move 0.0 ${ystep1} 0.0 units lattice
        displace_atoms upper move 0.0 0.002 0.0 units lattice
        min_style ${style}
        min_style hftn
        minimize ${etol} ${ftol} ${maxiter} ${maxeval}
        minimize 1e-12 ${ftol} ${maxiter} ${maxeval}
        minimize 1e-12 1e-08 ${maxiter} ${maxeval}
        minimize 1e-12 1e-08 10000 ${maxeval}
        minimize 1e-12 1e-08 10000 20000
WARNING: Resetting reneighboring criteria during minimization (../min.cpp:168)
Memory usage per processor = 4.85969 Mbytes
Step Temp PotEng Lx Ly Lz 
       1            0   -118.99997    1.1224537    40.804177    1.1224537 
Loop time of 1.20495e-05 on 1 procs for 0 steps with 41 atoms

Minimization stats:
  Stopping criterion = force tolerance
  Energy initial, next-to-last, final = 
         -118.99996903      -118.99996903      -118.99996903
  Force two-norm initial, final = 1.01418e-19 1.01418e-19
  Force max component initial, final = 5.42101e-20 5.42101e-20
  Final line search alpha, max atom move = 0 0
  Iterations, force evaluations = 0 0

Pair  time (%) = 8.90368e-06 (73.8928)
Neigh time (%) = 0 (0)
Comm  time (%) = 2.17801e-06 (18.0756)
Outpt time (%) = 0 (0)
Other time (%) = 9.67761e-07 (8.03157)

Nlocal:    41 ave 41 max 41 min
Histogram: 1 0 0 0 0 0 0 0 0 0
Nghost:    185 ave 185 max 185 min
Histogram: 1 0 0 0 0 0 0 0 0 0
Neighs:    349 ave 349 max 349 min
Histogram: 1 0 0 0 0 0 0 0 0 0

Total # of neighbors = 349
Ave neighs/atom = 8.5122
Neighbor list builds = 0
Dangerous builds = 0
	# write_dump all atom ${dumpfile}
        next i
jump SELF loop1
        displace_atoms upper move 0.0 ${ystep1} 0.0 units lattice
        displace_atoms upper move 0.0 0.002 0.0 units lattice
        min_style ${style}
        min_style hftn
        minimize ${etol} ${ftol} ${maxiter} ${maxeval}
        minimize 1e-12 ${ftol} ${maxiter} ${maxeval}
        minimize 1e-12 1e-08 ${maxiter} ${maxeval}
        minimize 1e-12 1e-08 10000 ${maxeval}
        minimize 1e-12 1e-08 10000 20000
WARNING: Resetting reneighboring criteria during minimization (../min.cpp:168)
Memory usage per processor = 4.85969 Mbytes
Step Temp PotEng Lx Ly Lz 
       1            0   -118.99997    1.1224537    40.808066    1.1224537 
Loop time of 1.20442e-05 on 1 procs for 0 steps with 41 atoms

Minimization stats:
  Stopping criterion = force tolerance
  Energy initial, next-to-last, final = 
         -118.99996903      -118.99996903      -118.99996903
  Force two-norm initial, final = 9.77287e-20 9.77287e-20
  Force max component initial, final = 5.42101e-20 5.42101e-20
  Final line search alpha, max atom move = 0 0
  Iterations, force evaluations = 0 0

Pair  time (%) = 7.89843e-06 (65.5786)
Neigh time (%) = 0 (0)
Comm  time (%) = 2.07487e-06 (17.2271)
Outpt time (%) = 0 (0)
Other time (%) = 2.07091e-06 (17.1943)

Nlocal:    41 ave 41 max 41 min
Histogram: 1 0 0 0 0 0 0 0 0 0
Nghost:    185 ave 185 max 185 min
Histogram: 1 0 0 0 0 0 0 0 0 0
Neighs:    349 ave 349 max 349 min
Histogram: 1 0 0 0 0 0 0 0 0 0

Total # of neighbors = 349
Ave neighs/atom = 8.5122
Neighbor list builds = 0
Dangerous builds = 0
	# write_dump all atom ${dumpfile}
        next i
jump SELF loop1
        displace_atoms upper move 0.0 ${ystep1} 0.0 units lattice
        displace_atoms upper move 0.0 0.002 0.0 units lattice
        min_style ${style}
        min_style hftn
        minimize ${etol} ${ftol} ${maxiter} ${maxeval}
        minimize 1e-12 ${ftol} ${maxiter} ${maxeval}
        minimize 1e-12 1e-08 ${maxiter} ${maxeval}
        minimize 1e-12 1e-08 10000 ${maxeval}
        minimize 1e-12 1e-08 10000 20000
WARNING: Resetting reneighboring criteria during minimization (../min.cpp:168)
Memory usage per processor = 4.85969 Mbytes
Step Temp PotEng Lx Ly Lz 
       1            0   -118.99997    1.1224537    40.811954    1.1224537 
Loop time of 1.29926e-05 on 1 procs for 0 steps with 41 atoms

Minimization stats:
  Stopping criterion = force tolerance
  Energy initial, next-to-last, final = 
         -118.99996903      -118.99996903      -118.99996903
  Force two-norm initial, final = 9.77287e-20 9.77287e-20
  Force max component initial, final = 5.42101e-20 5.42101e-20
  Final line search alpha, max atom move = 0 0
  Iterations, force evaluations = 0 0

Pair  time (%) = 9.08528e-06 (69.9263)
Neigh time (%) = 0 (0)
Comm  time (%) = 2.06428e-06 (15.888)
Outpt time (%) = 0 (0)
Other time (%) = 1.84309e-06 (14.1856)

Nlocal:    41 ave 41 max 41 min
Histogram: 1 0 0 0 0 0 0 0 0 0
Nghost:    185 ave 185 max 185 min
Histogram: 1 0 0 0 0 0 0 0 0 0
Neighs:    349 ave 349 max 349 min
Histogram: 1 0 0 0 0 0 0 0 0 0

Total # of neighbors = 349
Ave neighs/atom = 8.5122
Neighbor list builds = 0
Dangerous builds = 0
	# write_dump all atom ${dumpfile}
        next i
jump SELF loop1
        displace_atoms upper move 0.0 ${ystep1} 0.0 units lattice
        displace_atoms upper move 0.0 0.002 0.0 units lattice
        min_style ${style}
        min_style hftn
        minimize ${etol} ${ftol} ${maxiter} ${maxeval}
        minimize 1e-12 ${ftol} ${maxiter} ${maxeval}
        minimize 1e-12 1e-08 ${maxiter} ${maxeval}
        minimize 1e-12 1e-08 10000 ${maxeval}
        minimize 1e-12 1e-08 10000 20000
WARNING: Resetting reneighboring criteria during minimization (../min.cpp:168)
Memory usage per processor = 4.85969 Mbytes
Step Temp PotEng Lx Ly Lz 
       1            0   -118.99997    1.1224537    40.815842    1.1224537 
Loop time of 1.4071e-05 on 1 procs for 0 steps with 41 atoms

Minimization stats:
  Stopping criterion = force tolerance
  Energy initial, next-to-last, final = 
         -118.99996903      -118.99996903      -118.99996903
  Force two-norm initial, final = 9.38947e-20 9.38947e-20
  Force max component initial, final = 5.42101e-20 5.42101e-20
  Final line search alpha, max atom move = 0 0
  Iterations, force evaluations = 0 0

Pair  time (%) = 8.97155e-06 (63.7591)
Neigh time (%) = 0 (0)
Comm  time (%) = 2.029e-06 (14.4197)
Outpt time (%) = 0 (0)
Other time (%) = 3.07045e-06 (21.8211)

Nlocal:    41 ave 41 max 41 min
Histogram: 1 0 0 0 0 0 0 0 0 0
Nghost:    185 ave 185 max 185 min
Histogram: 1 0 0 0 0 0 0 0 0 0
Neighs:    349 ave 349 max 349 min
Histogram: 1 0 0 0 0 0 0 0 0 0

Total # of neighbors = 349
Ave neighs/atom = 8.5122
Neighbor list builds = 0
Dangerous builds = 0
	# write_dump all atom ${dumpfile}
        next i
jump SELF loop1
        displace_atoms upper move 0.0 ${ystep1} 0.0 units lattice
        displace_atoms upper move 0.0 0.002 0.0 units lattice
        min_style ${style}
        min_style hftn
        minimize ${etol} ${ftol} ${maxiter} ${maxeval}
        minimize 1e-12 ${ftol} ${maxiter} ${maxeval}
        minimize 1e-12 1e-08 ${maxiter} ${maxeval}
        minimize 1e-12 1e-08 10000 ${maxeval}
        minimize 1e-12 1e-08 10000 20000
WARNING: Resetting reneighboring criteria during minimization (../min.cpp:168)
Memory usage per processor = 4.85969 Mbytes
Step Temp PotEng Lx Ly Lz 
       1            0   -118.99997    1.1224537    40.819731    1.1224537 
Loop time of 1.38968e-05 on 1 procs for 0 steps with 41 atoms

Minimization stats:
  Stopping criterion = force tolerance
  Energy initial, next-to-last, final = 
         -118.99996903      -118.99996903      -118.99996903
  Force two-norm initial, final = 9.38947e-20 9.38947e-20
  Force max component initial, final = 5.42101e-20 5.42101e-20
  Final line search alpha, max atom move = 0 0
  Iterations, force evaluations = 0 0

Pair  time (%) = 9.03581e-06 (65.0206)
Neigh time (%) = 0 (0)
Comm  time (%) = 1.91911e-06 (13.8097)
Outpt time (%) = 0 (0)
Other time (%) = 2.94193e-06 (21.1698)

Nlocal:    41 ave 41 max 41 min
Histogram: 1 0 0 0 0 0 0 0 0 0
Nghost:    185 ave 185 max 185 min
Histogram: 1 0 0 0 0 0 0 0 0 0
Neighs:    349 ave 349 max 349 min
Histogram: 1 0 0 0 0 0 0 0 0 0

Total # of neighbors = 349
Ave neighs/atom = 8.5122
Neighbor list builds = 0
Dangerous builds = 0
	# write_dump all atom ${dumpfile}
        next i
jump SELF loop1
        displace_atoms upper move 0.0 ${ystep1} 0.0 units lattice
        displace_atoms upper move 0.0 0.002 0.0 units lattice
        min_style ${style}
        min_style hftn
        minimize ${etol} ${ftol} ${maxiter} ${maxeval}
        minimize 1e-12 ${ftol} ${maxiter} ${maxeval}
        minimize 1e-12 1e-08 ${maxiter} ${maxeval}
        minimize 1e-12 1e-08 10000 ${maxeval}
        minimize 1e-12 1e-08 10000 20000
WARNING: Resetting reneighboring criteria during minimization (../min.cpp:168)
Memory usage per processor = 4.85969 Mbytes
Step Temp PotEng Lx Ly Lz 
       1            0   -118.99997    1.1224537    40.823619    1.1224537 
Loop time of 1.30517e-05 on 1 procs for 0 steps with 41 atoms

Minimization stats:
  Stopping criterion = force tolerance
  Energy initial, next-to-last, final = 
         -118.99996903      -118.99996903      -118.99996903
  Force two-norm initial, final = 9.38947e-20 9.38947e-20
  Force max component initial, final = 5.42101e-20 5.42101e-20
  Final line search alpha, max atom move = 0 0
  Iterations, force evaluations = 0 0

Pair  time (%) = 8.90589e-06 (68.2356)
Neigh time (%) = 0 (0)
Comm  time (%) = 2.18244e-06 (16.7215)
Outpt time (%) = 0 (0)
Other time (%) = 1.96334e-06 (15.0429)

Nlocal:    41 ave 41 max 41 min
Histogram: 1 0 0 0 0 0 0 0 0 0
Nghost:    185 ave 185 max 185 min
Histogram: 1 0 0 0 0 0 0 0 0 0
Neighs:    349 ave 349 max 349 min
Histogram: 1 0 0 0 0 0 0 0 0 0

Total # of neighbors = 349
Ave neighs/atom = 8.5122
Neighbor list builds = 0
Dangerous builds = 0
	# write_dump all atom ${dumpfile}
        next i
jump SELF loop1
        displace_atoms upper move 0.0 ${ystep1} 0.0 units lattice
        displace_atoms upper move 0.0 0.002 0.0 units lattice
        min_style ${style}
        min_style hftn
        minimize ${etol} ${ftol} ${maxiter} ${maxeval}
        minimize 1e-12 ${ftol} ${maxiter} ${maxeval}
        minimize 1e-12 1e-08 ${maxiter} ${maxeval}
        minimize 1e-12 1e-08 10000 ${maxeval}
        minimize 1e-12 1e-08 10000 20000
WARNING: Resetting reneighboring criteria during minimization (../min.cpp:168)
Memory usage per processor = 4.85969 Mbytes
Step Temp PotEng Lx Ly Lz 
       1            0   -118.99997    1.1224537    40.827507    1.1224537 
Loop time of 1.20791e-05 on 1 procs for 0 steps with 41 atoms

Minimization stats:
  Stopping criterion = force tolerance
  Energy initial, next-to-last, final = 
         -118.99996903      -118.99996903      -118.99996903
  Force two-norm initial, final = 9.38947e-20 9.38947e-20
  Force max component initial, final = 5.42101e-20 5.42101e-20
  Final line search alpha, max atom move = 0 0
  Iterations, force evaluations = 0 0

Pair  time (%) = 8.93336e-06 (73.957)
Neigh time (%) = 0 (0)
Comm  time (%) = 9.9896e-07 (8.27013)
Outpt time (%) = 0 (0)
Other time (%) = 2.14681e-06 (17.7729)

Nlocal:    41 ave 41 max 41 min
Histogram: 1 0 0 0 0 0 0 0 0 0
Nghost:    185 ave 185 max 185 min
Histogram: 1 0 0 0 0 0 0 0 0 0
Neighs:    349 ave 349 max 349 min
Histogram: 1 0 0 0 0 0 0 0 0 0

Total # of neighbors = 349
Ave neighs/atom = 8.5122
Neighbor list builds = 0
Dangerous builds = 0
	# write_dump all atom ${dumpfile}
        next i
jump SELF loop1
        displace_atoms upper move 0.0 ${ystep1} 0.0 units lattice
        displace_atoms upper move 0.0 0.002 0.0 units lattice
        min_style ${style}
        min_style hftn
        minimize ${etol} ${ftol} ${maxiter} ${maxeval}
        minimize 1e-12 ${ftol} ${maxiter} ${maxeval}
        minimize 1e-12 1e-08 ${maxiter} ${maxeval}
        minimize 1e-12 1e-08 10000 ${maxeval}
        minimize 1e-12 1e-08 10000 20000
WARNING: Resetting reneighboring criteria during minimization (../min.cpp:168)
Memory usage per processor = 4.85969 Mbytes
Step Temp PotEng Lx Ly Lz 
       1            0   -118.99997    1.1224537    40.831396    1.1224537 
Loop time of 1.3111e-05 on 1 procs for 0 steps with 41 atoms

Minimization stats:
  Stopping criterion = force tolerance
  Energy initial, next-to-last, final = 
         -118.99996903      -118.99996903      -118.99996903
  Force two-norm initial, final = 9.77287e-20 9.77287e-20
  Force max component initial, final = 5.42101e-20 5.42101e-20
  Final line search alpha, max atom move = 0 0
  Iterations, force evaluations = 0 0

Pair  time (%) = 8.96526e-06 (68.3795)
Neigh time (%) = 0 (0)
Comm  time (%) = 1.82423e-06 (13.9137)
Outpt time (%) = 0 (0)
Other time (%) = 2.32155e-06 (17.7069)

Nlocal:    41 ave 41 max 41 min
Histogram: 1 0 0 0 0 0 0 0 0 0
Nghost:    185 ave 185 max 185 min
Histogram: 1 0 0 0 0 0 0 0 0 0
Neighs:    349 ave 349 max 349 min
Histogram: 1 0 0 0 0 0 0 0 0 0

Total # of neighbors = 349
Ave neighs/atom = 8.5122
Neighbor list builds = 0
Dangerous builds = 0
	# write_dump all atom ${dumpfile}
        next i
jump SELF loop1
        displace_atoms upper move 0.0 ${ystep1} 0.0 units lattice
        displace_atoms upper move 0.0 0.002 0.0 units lattice
        min_style ${style}
        min_style hftn
        minimize ${etol} ${ftol} ${maxiter} ${maxeval}
        minimize 1e-12 ${ftol} ${maxiter} ${maxeval}
        minimize 1e-12 1e-08 ${maxiter} ${maxeval}
        minimize 1e-12 1e-08 10000 ${maxeval}
        minimize 1e-12 1e-08 10000 20000
WARNING: Resetting reneighboring criteria during minimization (../min.cpp:168)
Memory usage per processor = 4.85969 Mbytes
Step Temp PotEng Lx Ly Lz 
       1            0   -118.99997    1.1224537    40.835284    1.1224537 
Loop time of 1.19995e-05 on 1 procs for 0 steps with 41 atoms

Minimization stats:
  Stopping criterion = force tolerance
  Energy initial, next-to-last, final = 
         -118.99996903      -118.99996903      -118.99996903
  Force two-norm initial, final = 9.77287e-20 9.77287e-20
  Force max component initial, final = 5.42101e-20 5.42101e-20
  Final line search alpha, max atom move = 0 0
  Iterations, force evaluations = 0 0

Pair  time (%) = 9.09215e-06 (75.771)
Neigh time (%) = 0 (0)
Comm  time (%) = 2.07813e-06 (17.3185)
Outpt time (%) = 0 (0)
Other time (%) = 8.29226e-07 (6.9105)

Nlocal:    41 ave 41 max 41 min
Histogram: 1 0 0 0 0 0 0 0 0 0
Nghost:    185 ave 185 max 185 min
Histogram: 1 0 0 0 0 0 0 0 0 0
Neighs:    349 ave 349 max 349 min
Histogram: 1 0 0 0 0 0 0 0 0 0

Total # of neighbors = 349
Ave neighs/atom = 8.5122
Neighbor list builds = 0
Dangerous builds = 0
	# write_dump all atom ${dumpfile}
        next i
jump SELF loop1

