LAMMPS (28 Jun 2014)
# attempt at getting surface energy

#file prefix
variable prefix string surf_V_inter1new2
variable dumpfile string ${prefix}.*.dump
variable dumpfile string surf_V_inter1new2.*.dump
variable restartfile string ${prefix}.*.equil
variable restartfile string surf_V_inter1new2.*.equil

#Mass (g/mol)
variable m equal 1

# lattice constant (in Angstroms) and orientation of axes (given by lattice vectors)
variable rho equal 0.9165
variable x1 equal 1
variable x2 equal 0
variable x3 equal 0
variable y1 equal 0
variable y2 equal 1
variable y3 equal 0
# length of lattice in different directions (using orientation of lattice vectors)
variable ax equal sqrt(${x1}*${x1}+${x2}*${x2}+${x3}*${x3})
variable ax equal sqrt(1*${x1}+${x2}*${x2}+${x3}*${x3})
variable ax equal sqrt(1*1+${x2}*${x2}+${x3}*${x3})
variable ax equal sqrt(1*1+0*${x2}+${x3}*${x3})
variable ax equal sqrt(1*1+0*0+${x3}*${x3})
variable ax equal sqrt(1*1+0*0+0*${x3})
variable ax equal sqrt(1*1+0*0+0*0)
variable ay equal sqrt(${y1}*${y1}+${y2}*${y2}+${y3}*${y3})
variable ay equal sqrt(0*${y1}+${y2}*${y2}+${y3}*${y3})
variable ay equal sqrt(0*0+${y2}*${y2}+${y3}*${y3})
variable ay equal sqrt(0*0+1*${y2}+${y3}*${y3})
variable ay equal sqrt(0*0+1*1+${y3}*${y3})
variable ay equal sqrt(0*0+1*1+0*${y3})
variable ay equal sqrt(0*0+1*1+0*0)
variable az equal 1

# size of box in lattice units
variable lxpos equal 1
variable lxneg equal 0
variable lypos equal 10
variable lyneg equal -1*${lypos}
variable lyneg equal -1*10
variable lzpos equal 1
variable lzneg equal 0

# Define minimization parameters and damping
variable etol equal 1.0e-12
variable ftol equal 1.0e-8
variable maxiter equal 10000
variable maxeval equal 20000
variable style string cg

# boundary conditions
dimension	2
boundary	p s p
atom_style	atomic

# create geometry
units		lj
lattice         hex ${rho}
lattice         hex 0.9165
Lattice spacing in x,y,z = 1.12245 1.94415 1.12245
region		myregion block ${lxneg} ${lxpos} ${lyneg} ${lypos} ${lzneg} ${lzpos} units lattice
region		myregion block 0 ${lxpos} ${lyneg} ${lypos} ${lzneg} ${lzpos} units lattice
region		myregion block 0 1 ${lyneg} ${lypos} ${lzneg} ${lzpos} units lattice
region		myregion block 0 1 -10 ${lypos} ${lzneg} ${lzpos} units lattice
region		myregion block 0 1 -10 10 ${lzneg} ${lzpos} units lattice
region		myregion block 0 1 -10 10 0 ${lzpos} units lattice
region		myregion block 0 1 -10 10 0 1 units lattice
create_box	1 myregion
Created orthogonal box = (0 -19.4415 0) to (1.12245 19.4415 1.12245)
  1 by 1 by 1 MPI processor grid
create_atoms	1 box
Created 41 atoms

# define masses
mass * $m
mass * 1

# my fake/morse potential
pair_style      table linear 1000
pair_coeff      * * da_potential_ductile dummy
neighbor	0.3 bin
neigh_modify	delay 5

# define groups
region	    upper block INF INF 0.01 ${lypos} INF INF units lattice
region	    upper block INF INF 0.01 10 INF INF units lattice
group		upper region upper
20 atoms in group upper

# Setup output
thermo 1
thermo_style custom step temp pe lx ly lz
thermo_modify norm no

# Compute initial state by relaxing box
min_style ${style}
min_style cg
minimize ${etol} ${ftol} ${maxiter} ${maxeval}
minimize 1e-12 ${ftol} ${maxiter} ${maxeval}
minimize 1e-12 1e-08 ${maxiter} ${maxeval}
minimize 1e-12 1e-08 10000 ${maxeval}
minimize 1e-12 1e-08 10000 20000
WARNING: Resetting reneighboring criteria during minimization (../min.cpp:168)
Memory usage per processor = 3.35941 Mbytes
Step Temp PotEng Lx Ly Lz 
       0            0   -120.99771    1.1224537    38.890715    1.1224537 
       1            0   -120.99771    1.1224537    38.890715    1.1224537 
Loop time of 0.000342961 on 1 procs for 1 steps with 41 atoms

Minimization stats:
  Stopping criterion = linesearch alpha is zero
  Energy initial, next-to-last, final = 
        -120.997714581     -120.997714581     -120.997714581
  Force two-norm initial, final = 0.0496089 0.0496089
  Force max component initial, final = 0.0350788 0.0350788
  Final line search alpha, max atom move = 3.8147e-06 1.33815e-07
  Iterations, force evaluations = 1 19

Pair  time (%) = 0.000241585 (70.441)
Neigh time (%) = 0 (0)
Comm  time (%) = 3.02555e-05 (8.82186)
Outpt time (%) = 0 (0)
Other time (%) = 7.11204e-05 (20.7372)

Nlocal:    41 ave 41 max 41 min
Histogram: 1 0 0 0 0 0 0 0 0 0
Nghost:    185 ave 185 max 185 min
Histogram: 1 0 0 0 0 0 0 0 0 0
Neighs:    359 ave 359 max 359 min
Histogram: 1 0 0 0 0 0 0 0 0 0

Total # of neighbors = 359
Ave neighs/atom = 8.7561
Neighbor list builds = 0
Dangerous builds = 0

# don't allow atoms to relax in y-direction
fix 2 all setforce NULL 0.0 NULL

# Energy curve will have nstep steps
variable nsteps equal 500
variable sstep1 equal 1.0
variable ystep1 equal ${sstep1}/(${ay}*${nsteps})
variable ystep1 equal 1/(${ay}*${nsteps})
variable ystep1 equal 1/(1*${nsteps})
variable ystep1 equal 1/(1*500)

variable i loop ${nsteps}
variable i loop 500
label loop1
        displace_atoms upper move 0.0 ${ystep1} 0.0 units lattice
        displace_atoms upper move 0.0 0.002 0.0 units lattice
        min_style ${style}
        min_style cg
        minimize ${etol} ${ftol} ${maxiter} ${maxeval}
        minimize 1e-12 ${ftol} ${maxiter} ${maxeval}
        minimize 1e-12 1e-08 ${maxiter} ${maxeval}
        minimize 1e-12 1e-08 10000 ${maxeval}
        minimize 1e-12 1e-08 10000 20000
WARNING: Resetting reneighboring criteria during minimization (../min.cpp:168)
Memory usage per processor = 3.35941 Mbytes
Step Temp PotEng Lx Ly Lz 
       1            0   -120.99747    1.1224537    38.894603    1.1224537 
       2            0   -120.99747    1.1224537    38.894603    1.1224537 
Loop time of 0.000115884 on 1 procs for 1 steps with 41 atoms

Minimization stats:
  Stopping criterion = linesearch alpha is zero
  Energy initial, next-to-last, final = 
        -120.997466475     -120.997466475     -120.997466475
  Force two-norm initial, final = 1.66389e-17 1.66389e-17
  Force max component initial, final = 6.93889e-18 6.93889e-18
  Final line search alpha, max atom move = 0.5 3.46945e-18
  Iterations, force evaluations = 1 2

Pair  time (%) = 3.82393e-05 (32.9979)
Neigh time (%) = 0 (0)
Comm  time (%) = 4.90795e-06 (4.23523)
Outpt time (%) = 0 (0)
Other time (%) = 7.27368e-05 (62.7669)

Nlocal:    41 ave 41 max 41 min
Histogram: 1 0 0 0 0 0 0 0 0 0
Nghost:    185 ave 185 max 185 min
Histogram: 1 0 0 0 0 0 0 0 0 0
Neighs:    359 ave 359 max 359 min
Histogram: 1 0 0 0 0 0 0 0 0 0

Total # of neighbors = 359
Ave neighs/atom = 8.7561
Neighbor list builds = 0
Dangerous builds = 0
	# write_dump all atom ${dumpfile}
        next i
jump SELF loop1
        displace_atoms upper move 0.0 ${ystep1} 0.0 units lattice
        displace_atoms upper move 0.0 0.002 0.0 units lattice
        min_style ${style}
        min_style cg
        minimize ${etol} ${ftol} ${maxiter} ${maxeval}
        minimize 1e-12 ${ftol} ${maxiter} ${maxeval}
        minimize 1e-12 1e-08 ${maxiter} ${maxeval}
        minimize 1e-12 1e-08 10000 ${maxeval}
        minimize 1e-12 1e-08 10000 20000
WARNING: Resetting reneighboring criteria during minimization (../min.cpp:168)
Memory usage per processor = 3.35941 Mbytes
Step Temp PotEng Lx Ly Lz 
       2            0   -120.99664    1.1224537    38.898491    1.1224537 
       3            0   -120.99664    1.1224537    38.898491    1.1224537 
Loop time of 8.50346e-05 on 1 procs for 1 steps with 41 atoms

Minimization stats:
  Stopping criterion = linesearch alpha is zero
  Energy initial, next-to-last, final = 
        -120.996640483     -120.996640483     -120.996640483
  Force two-norm initial, final = 2.02302e-17 2.02302e-17
  Force max component initial, final = 1.38778e-17 1.38778e-17
  Final line search alpha, max atom move = 0.5 6.93889e-18
  Iterations, force evaluations = 1 2

Pair  time (%) = 3.70226e-05 (43.5383)
Neigh time (%) = 0 (0)
Comm  time (%) = 5.14346e-06 (6.04867)
Outpt time (%) = 0 (0)
Other time (%) = 4.28685e-05 (50.413)

Nlocal:    41 ave 41 max 41 min
Histogram: 1 0 0 0 0 0 0 0 0 0
Nghost:    185 ave 185 max 185 min
Histogram: 1 0 0 0 0 0 0 0 0 0
Neighs:    359 ave 359 max 359 min
Histogram: 1 0 0 0 0 0 0 0 0 0

Total # of neighbors = 359
Ave neighs/atom = 8.7561
Neighbor list builds = 0
Dangerous builds = 0
	# write_dump all atom ${dumpfile}
        next i
jump SELF loop1
        displace_atoms upper move 0.0 ${ystep1} 0.0 units lattice
        displace_atoms upper move 0.0 0.002 0.0 units lattice
        min_style ${style}
        min_style cg
        minimize ${etol} ${ftol} ${maxiter} ${maxeval}
        minimize 1e-12 ${ftol} ${maxiter} ${maxeval}
        minimize 1e-12 1e-08 ${maxiter} ${maxeval}
        minimize 1e-12 1e-08 10000 ${maxeval}
        minimize 1e-12 1e-08 10000 20000
WARNING: Resetting reneighboring criteria during minimization (../min.cpp:168)
Memory usage per processor = 3.35941 Mbytes
Step Temp PotEng Lx Ly Lz 
       3            0    -120.9953    1.1224537    38.902379    1.1224537 
       4            0    -120.9953    1.1224537    38.902379    1.1224537 
Loop time of 5.50185e-05 on 1 procs for 1 steps with 41 atoms

Minimization stats:
  Stopping criterion = linesearch alpha is zero
  Energy initial, next-to-last, final = 
        -120.995304158     -120.995304158     -120.995304158
  Force two-norm initial, final = 1.76908e-17 1.76908e-17
  Force max component initial, final = 6.93889e-18 6.93889e-18
  Final line search alpha, max atom move = 0.5 3.46945e-18
  Iterations, force evaluations = 1 2

Pair  time (%) = 3.79274e-05 (68.9358)
Neigh time (%) = 0 (0)
Comm  time (%) = 5.04579e-06 (9.17108)
Outpt time (%) = 0 (0)
Other time (%) = 1.20453e-05 (21.8931)

Nlocal:    41 ave 41 max 41 min
Histogram: 1 0 0 0 0 0 0 0 0 0
Nghost:    185 ave 185 max 185 min
Histogram: 1 0 0 0 0 0 0 0 0 0
Neighs:    359 ave 359 max 359 min
Histogram: 1 0 0 0 0 0 0 0 0 0

Total # of neighbors = 359
Ave neighs/atom = 8.7561
Neighbor list builds = 0
Dangerous builds = 0
	# write_dump all atom ${dumpfile}
        next i
jump SELF loop1
        displace_atoms upper move 0.0 ${ystep1} 0.0 units lattice
        displace_atoms upper move 0.0 0.002 0.0 units lattice
        min_style ${style}
        min_style cg
        minimize ${etol} ${ftol} ${maxiter} ${maxeval}
        minimize 1e-12 ${ftol} ${maxiter} ${maxeval}
        minimize 1e-12 1e-08 ${maxiter} ${maxeval}
        minimize 1e-12 1e-08 10000 ${maxeval}
        minimize 1e-12 1e-08 10000 20000
WARNING: Resetting reneighboring criteria during minimization (../min.cpp:168)
Memory usage per processor = 3.35941 Mbytes
Step Temp PotEng Lx Ly Lz 
       4            0    -120.9935    1.1224537    38.906268    1.1224537 
       5            0    -120.9935    1.1224537    38.906268    1.1224537 
Loop time of 5.39742e-05 on 1 procs for 1 steps with 41 atoms

Minimization stats:
  Stopping criterion = linesearch alpha is zero
  Energy initial, next-to-last, final = 
        -120.993499078     -120.993499078     -120.993499078
  Force two-norm initial, final = 1.5123e-17 1.5123e-17
  Force max component initial, final = 3.46945e-18 3.46945e-18
  Final line search alpha, max atom move = 0.5 1.73472e-18
  Iterations, force evaluations = 1 2

Pair  time (%) = 3.69408e-05 (68.4416)
Neigh time (%) = 0 (0)
Comm  time (%) = 4.21831e-06 (7.81542)
Outpt time (%) = 0 (0)
Other time (%) = 1.28151e-05 (23.743)

Nlocal:    41 ave 41 max 41 min
Histogram: 1 0 0 0 0 0 0 0 0 0
Nghost:    185 ave 185 max 185 min
Histogram: 1 0 0 0 0 0 0 0 0 0
Neighs:    359 ave 359 max 359 min
Histogram: 1 0 0 0 0 0 0 0 0 0

Total # of neighbors = 359
Ave neighs/atom = 8.7561
Neighbor list builds = 0
Dangerous builds = 0
	# write_dump all atom ${dumpfile}
        next i
jump SELF loop1
        displace_atoms upper move 0.0 ${ystep1} 0.0 units lattice
        displace_atoms upper move 0.0 0.002 0.0 units lattice
        min_style ${style}
        min_style cg
        minimize ${etol} ${ftol} ${maxiter} ${maxeval}
        minimize 1e-12 ${ftol} ${maxiter} ${maxeval}
        minimize 1e-12 1e-08 ${maxiter} ${maxeval}
        minimize 1e-12 1e-08 10000 ${maxeval}
        minimize 1e-12 1e-08 10000 20000
WARNING: Resetting reneighboring criteria during minimization (../min.cpp:168)
Memory usage per processor = 3.35941 Mbytes
Step Temp PotEng Lx Ly Lz 
       5            0   -120.99115    1.1224537    38.910156    1.1224537 
       6            0   -120.99115    1.1224537    38.910156    1.1224537 
Loop time of 5.38807e-05 on 1 procs for 1 steps with 41 atoms

Minimization stats:
  Stopping criterion = linesearch alpha is zero
  Energy initial, next-to-last, final = 
        -120.991149494     -120.991149494     -120.991149494
  Force two-norm initial, final = 2.13871e-17 2.13871e-17
  Force max component initial, final = 1.38778e-17 1.38778e-17
  Final line search alpha, max atom move = 0.5 6.93889e-18
  Iterations, force evaluations = 1 2

Pair  time (%) = 3.8137e-05 (70.7803)
Neigh time (%) = 0 (0)
Comm  time (%) = 3.74939e-06 (6.95868)
Outpt time (%) = 0 (0)
Other time (%) = 1.19944e-05 (22.261)

Nlocal:    41 ave 41 max 41 min
Histogram: 1 0 0 0 0 0 0 0 0 0
Nghost:    185 ave 185 max 185 min
Histogram: 1 0 0 0 0 0 0 0 0 0
Neighs:    359 ave 359 max 359 min
Histogram: 1 0 0 0 0 0 0 0 0 0

Total # of neighbors = 359
Ave neighs/atom = 8.7561
Neighbor list builds = 0
Dangerous builds = 0
	# write_dump all atom ${dumpfile}
        next i
jump SELF loop1
        displace_atoms upper move 0.0 ${ystep1} 0.0 units lattice
        displace_atoms upper move 0.0 0.002 0.0 units lattice
        min_style ${style}
        min_style cg
        minimize ${etol} ${ftol} ${maxiter} ${maxeval}
        minimize 1e-12 ${ftol} ${maxiter} ${maxeval}
        minimize 1e-12 1e-08 ${maxiter} ${maxeval}
        minimize 1e-12 1e-08 10000 ${maxeval}
        minimize 1e-12 1e-08 10000 20000
WARNING: Resetting reneighboring criteria during minimization (../min.cpp:168)
Memory usage per processor = 3.35941 Mbytes
Step Temp PotEng Lx Ly Lz 
       6            0   -120.98836    1.1224537    38.914044    1.1224537 
       7            0   -120.98836    1.1224537    38.914044    1.1224537 
Loop time of 5.2933e-05 on 1 procs for 1 steps with 41 atoms

Minimization stats:
  Stopping criterion = linesearch alpha is zero
  Energy initial, next-to-last, final = 
        -120.988362158     -120.988362158     -120.988362158
  Force two-norm initial, final = 1.83586e-17 1.83586e-17
  Force max component initial, final = 1.04083e-17 1.04083e-17
  Final line search alpha, max atom move = 0.5 5.20417e-18
  Iterations, force evaluations = 1 2

Pair  time (%) = 3.72473e-05 (70.3669)
Neigh time (%) = 0 (0)
Comm  time (%) = 4.83135e-06 (9.1273)
Outpt time (%) = 0 (0)
Other time (%) = 1.08543e-05 (20.5058)

Nlocal:    41 ave 41 max 41 min
Histogram: 1 0 0 0 0 0 0 0 0 0
Nghost:    185 ave 185 max 185 min
Histogram: 1 0 0 0 0 0 0 0 0 0
Neighs:    359 ave 359 max 359 min
Histogram: 1 0 0 0 0 0 0 0 0 0

Total # of neighbors = 359
Ave neighs/atom = 8.7561
Neighbor list builds = 0
Dangerous builds = 0
	# write_dump all atom ${dumpfile}
        next i
jump SELF loop1
        displace_atoms upper move 0.0 ${ystep1} 0.0 units lattice
        displace_atoms upper move 0.0 0.002 0.0 units lattice
        min_style ${style}
        min_style cg
        minimize ${etol} ${ftol} ${maxiter} ${maxeval}
        minimize 1e-12 ${ftol} ${maxiter} ${maxeval}
        minimize 1e-12 1e-08 ${maxiter} ${maxeval}
        minimize 1e-12 1e-08 10000 ${maxeval}
        minimize 1e-12 1e-08 10000 20000
WARNING: Resetting reneighboring criteria during minimization (../min.cpp:168)
Memory usage per processor = 3.35941 Mbytes
Step Temp PotEng Lx Ly Lz 
       7            0   -120.98512    1.1224537    38.917933    1.1224537 
       8            0   -120.98512    1.1224537    38.917933    1.1224537 
Loop time of 5.40623e-05 on 1 procs for 1 steps with 41 atoms

Minimization stats:
  Stopping criterion = linesearch alpha is zero
  Energy initial, next-to-last, final = 
        -120.985124406     -120.985124406     -120.985124406
  Force two-norm initial, final = 2.19427e-17 2.19427e-17
  Force max component initial, final = 1.04083e-17 1.04083e-17
  Final line search alpha, max atom move = 0.5 5.20417e-18
  Iterations, force evaluations = 1 2

Pair  time (%) = 3.79664e-05 (70.2271)
Neigh time (%) = 0 (0)
Comm  time (%) = 4.88537e-06 (9.03655)
Outpt time (%) = 0 (0)
Other time (%) = 1.12106e-05 (20.7364)

Nlocal:    41 ave 41 max 41 min
Histogram: 1 0 0 0 0 0 0 0 0 0
Nghost:    185 ave 185 max 185 min
Histogram: 1 0 0 0 0 0 0 0 0 0
Neighs:    359 ave 359 max 359 min
Histogram: 1 0 0 0 0 0 0 0 0 0

Total # of neighbors = 359
Ave neighs/atom = 8.7561
Neighbor list builds = 0
Dangerous builds = 0
	# write_dump all atom ${dumpfile}
        next i
jump SELF loop1
        displace_atoms upper move 0.0 ${ystep1} 0.0 units lattice
        displace_atoms upper move 0.0 0.002 0.0 units lattice
        min_style ${style}
        min_style cg
        minimize ${etol} ${ftol} ${maxiter} ${maxeval}
        minimize 1e-12 ${ftol} ${maxiter} ${maxeval}
        minimize 1e-12 1e-08 ${maxiter} ${maxeval}
        minimize 1e-12 1e-08 10000 ${maxeval}
        minimize 1e-12 1e-08 10000 20000
WARNING: Resetting reneighboring criteria during minimization (../min.cpp:168)
Memory usage per processor = 3.35941 Mbytes
Step Temp PotEng Lx Ly Lz 
       8            0   -120.98142    1.1224537    38.921821    1.1224537 
       9            0   -120.98142    1.1224537    38.921821    1.1224537 
Loop time of 5.40287e-05 on 1 procs for 1 steps with 41 atoms

Minimization stats:
  Stopping criterion = linesearch alpha is zero
  Energy initial, next-to-last, final = 
        -120.981422734     -120.981422734     -120.981422734
  Force two-norm initial, final = 2.61938e-17 2.61938e-17
  Force max component initial, final = 2.08167e-17 2.08167e-17
  Final line search alpha, max atom move = 0.5 1.04083e-17
  Iterations, force evaluations = 1 2

Pair  time (%) = 3.68655e-05 (68.2331)
Neigh time (%) = 0 (0)
Comm  time (%) = 4.87559e-06 (9.02407)
Outpt time (%) = 0 (0)
Other time (%) = 1.22876e-05 (22.7428)

Nlocal:    41 ave 41 max 41 min
Histogram: 1 0 0 0 0 0 0 0 0 0
Nghost:    185 ave 185 max 185 min
Histogram: 1 0 0 0 0 0 0 0 0 0
Neighs:    359 ave 359 max 359 min
Histogram: 1 0 0 0 0 0 0 0 0 0

Total # of neighbors = 359
Ave neighs/atom = 8.7561
Neighbor list builds = 0
Dangerous builds = 0
	# write_dump all atom ${dumpfile}
        next i
jump SELF loop1
        displace_atoms upper move 0.0 ${ystep1} 0.0 units lattice
        displace_atoms upper move 0.0 0.002 0.0 units lattice
        min_style ${style}
        min_style cg
        minimize ${etol} ${ftol} ${maxiter} ${maxeval}
        minimize 1e-12 ${ftol} ${maxiter} ${maxeval}
        minimize 1e-12 1e-08 ${maxiter} ${maxeval}
        minimize 1e-12 1e-08 10000 ${maxeval}
        minimize 1e-12 1e-08 10000 20000
WARNING: Resetting reneighboring criteria during minimization (../min.cpp:168)
Memory usage per processor = 3.35941 Mbytes
Step Temp PotEng Lx Ly Lz 
       9            0   -120.97733    1.1224537    38.925709    1.1224537 
      10            0   -120.97733    1.1224537    38.925709    1.1224537 
Loop time of 5.30087e-05 on 1 procs for 1 steps with 41 atoms

Minimization stats:
  Stopping criterion = linesearch alpha is zero
  Energy initial, next-to-last, final = 
        -120.977329095     -120.977329095     -120.977329095
  Force two-norm initial, final = 1.80278e-17 1.80278e-17
  Force max component initial, final = 1.04083e-17 1.04083e-17
  Final line search alpha, max atom move = 0.5 5.20417e-18
  Iterations, force evaluations = 1 2

Pair  time (%) = 3.79048e-05 (71.5068)
Neigh time (%) = 0 (0)
Comm  time (%) = 4.23903e-06 (7.99686)
Outpt time (%) = 0 (0)
Other time (%) = 1.08648e-05 (20.4963)

Nlocal:    41 ave 41 max 41 min
Histogram: 1 0 0 0 0 0 0 0 0 0
Nghost:    185 ave 185 max 185 min
Histogram: 1 0 0 0 0 0 0 0 0 0
Neighs:    359 ave 359 max 359 min
Histogram: 1 0 0 0 0 0 0 0 0 0

Total # of neighbors = 359
Ave neighs/atom = 8.7561
Neighbor list builds = 0
Dangerous builds = 0
	# write_dump all atom ${dumpfile}
        next i
jump SELF loop1
        displace_atoms upper move 0.0 ${ystep1} 0.0 units lattice
        displace_atoms upper move 0.0 0.002 0.0 units lattice
        min_style ${style}
        min_style cg
        minimize ${etol} ${ftol} ${maxiter} ${maxeval}
        minimize 1e-12 ${ftol} ${maxiter} ${maxeval}
        minimize 1e-12 1e-08 ${maxiter} ${maxeval}
        minimize 1e-12 1e-08 10000 ${maxeval}
        minimize 1e-12 1e-08 10000 20000
WARNING: Resetting reneighboring criteria during minimization (../min.cpp:168)
Memory usage per processor = 3.35941 Mbytes
Step Temp PotEng Lx Ly Lz 
      10            0    -120.9728    1.1224537    38.929597    1.1224537 
      11            0    -120.9728    1.1224537    38.929597    1.1224537 
Loop time of 8.78891e-05 on 1 procs for 1 steps with 41 atoms

Minimization stats:
  Stopping criterion = linesearch alpha is zero
  Energy initial, next-to-last, final = 
        -120.972796148     -120.972796148     -120.972796148
  Force two-norm initial, final = 1.5123e-17 1.5123e-17
  Force max component initial, final = 3.46945e-18 3.46945e-18
  Final line search alpha, max atom move = 0.5 1.73472e-18
  Iterations, force evaluations = 1 2

Pair  time (%) = 3.7116e-05 (42.2305)
Neigh time (%) = 0 (0)
Comm  time (%) = 2.85311e-06 (3.24626)
Outpt time (%) = 0 (0)
Other time (%) = 4.792e-05 (54.5233)

Nlocal:    41 ave 41 max 41 min
Histogram: 1 0 0 0 0 0 0 0 0 0
Nghost:    185 ave 185 max 185 min
Histogram: 1 0 0 0 0 0 0 0 0 0
Neighs:    359 ave 359 max 359 min
Histogram: 1 0 0 0 0 0 0 0 0 0

Total # of neighbors = 359
Ave neighs/atom = 8.7561
Neighbor list builds = 0
Dangerous builds = 0
	# write_dump all atom ${dumpfile}
        next i
jump SELF loop1
        displace_atoms upper move 0.0 ${ystep1} 0.0 units lattice
        displace_atoms upper move 0.0 0.002 0.0 units lattice
        min_style ${style}
        min_style cg
        minimize ${etol} ${ftol} ${maxiter} ${maxeval}
        minimize 1e-12 ${ftol} ${maxiter} ${maxeval}
        minimize 1e-12 1e-08 ${maxiter} ${maxeval}
        minimize 1e-12 1e-08 10000 ${maxeval}
        minimize 1e-12 1e-08 10000 20000
WARNING: Resetting reneighboring criteria during minimization (../min.cpp:168)
Memory usage per processor = 3.35941 Mbytes
Step Temp PotEng Lx Ly Lz 
      11            0   -120.96788    1.1224537    38.933486    1.1224537 
      12            0   -120.96788    1.1224537    38.933486    1.1224537 
Loop time of 5.30656e-05 on 1 procs for 1 steps with 41 atoms

Minimization stats:
  Stopping criterion = linesearch alpha is zero
  Energy initial, next-to-last, final = 
        -120.967881636     -120.967881636     -120.967881636
  Force two-norm initial, final = 2.27507e-17 2.27507e-17
  Force max component initial, final = 1.73472e-17 1.73472e-17
  Final line search alpha, max atom move = 0.5 8.67362e-18
  Iterations, force evaluations = 1 2

Pair  time (%) = 3.79299e-05 (71.4773)
Neigh time (%) = 0 (0)
Comm  time (%) = 3.28908e-06 (6.19814)
Outpt time (%) = 0 (0)
Other time (%) = 1.18467e-05 (22.3246)

Nlocal:    41 ave 41 max 41 min
Histogram: 1 0 0 0 0 0 0 0 0 0
Nghost:    185 ave 185 max 185 min
Histogram: 1 0 0 0 0 0 0 0 0 0
Neighs:    359 ave 359 max 359 min
Histogram: 1 0 0 0 0 0 0 0 0 0

Total # of neighbors = 359
Ave neighs/atom = 8.7561
Neighbor list builds = 0
Dangerous builds = 0
	# write_dump all atom ${dumpfile}
        next i
jump SELF loop1
        displace_atoms upper move 0.0 ${ystep1} 0.0 units lattice
        displace_atoms upper move 0.0 0.002 0.0 units lattice
        min_style ${style}
        min_style cg
        minimize ${etol} ${ftol} ${maxiter} ${maxeval}
        minimize 1e-12 ${ftol} ${maxiter} ${maxeval}
        minimize 1e-12 1e-08 ${maxiter} ${maxeval}
        minimize 1e-12 1e-08 10000 ${maxeval}
        minimize 1e-12 1e-08 10000 20000
WARNING: Resetting reneighboring criteria during minimization (../min.cpp:168)
Memory usage per processor = 3.35941 Mbytes
Step Temp PotEng Lx Ly Lz 
      12            0   -120.96259    1.1224537    38.937374    1.1224537 
      13            0   -120.96259    1.1224537    38.937374    1.1224537 
Loop time of 5.40456e-05 on 1 procs for 1 steps with 41 atoms

Minimization stats:
  Stopping criterion = linesearch alpha is zero
  Energy initial, next-to-last, final = 
        -120.962594114     -120.962594114     -120.962594114
  Force two-norm initial, final = 1.66389e-17 1.66389e-17
  Force max component initial, final = 6.93889e-18 6.93889e-18
  Final line search alpha, max atom move = 0.5 3.46945e-18
  Iterations, force evaluations = 1 2

Pair  time (%) = 3.69161e-05 (68.3055)
Neigh time (%) = 0 (0)
Comm  time (%) = 3.97686e-06 (7.35835)
Outpt time (%) = 0 (0)
Other time (%) = 1.31526e-05 (24.3361)

Nlocal:    41 ave 41 max 41 min
Histogram: 1 0 0 0 0 0 0 0 0 0
Nghost:    185 ave 185 max 185 min
Histogram: 1 0 0 0 0 0 0 0 0 0
Neighs:    359 ave 359 max 359 min
Histogram: 1 0 0 0 0 0 0 0 0 0

Total # of neighbors = 359
Ave neighs/atom = 8.7561
Neighbor list builds = 0
Dangerous builds = 0
	# write_dump all atom ${dumpfile}
        next i
jump SELF loop1
        displace_atoms upper move 0.0 ${ystep1} 0.0 units lattice
        displace_atoms upper move 0.0 0.002 0.0 units lattice
        min_style ${style}
        min_style cg
        minimize ${etol} ${ftol} ${maxiter} ${maxeval}
        minimize 1e-12 ${ftol} ${maxiter} ${maxeval}
        minimize 1e-12 1e-08 ${maxiter} ${maxeval}
        minimize 1e-12 1e-08 10000 ${maxeval}
        minimize 1e-12 1e-08 10000 20000
WARNING: Resetting reneighboring criteria during minimization (../min.cpp:168)
Memory usage per processor = 3.35941 Mbytes
Step Temp PotEng Lx Ly Lz 
      13            0   -120.95692    1.1224537    38.941262    1.1224537 
      14            0   -120.95692    1.1224537    38.941262    1.1224537 
Loop time of 5.40719e-05 on 1 procs for 1 steps with 41 atoms

Minimization stats:
  Stopping criterion = linesearch alpha is zero
  Energy initial, next-to-last, final = 
        -120.956918686     -120.956918686     -120.956918686
  Force two-norm initial, final = 1.5123e-17 1.5123e-17
  Force max component initial, final = 3.46945e-18 3.46945e-18
  Final line search alpha, max atom move = 0.5 1.73472e-18
  Iterations, force evaluations = 1 2

Pair  time (%) = 3.79487e-05 (70.182)
Neigh time (%) = 0 (0)
Comm  time (%) = 3.08838e-06 (5.71162)
Outpt time (%) = 0 (0)
Other time (%) = 1.30348e-05 (24.1064)

Nlocal:    41 ave 41 max 41 min
Histogram: 1 0 0 0 0 0 0 0 0 0
Nghost:    185 ave 185 max 185 min
Histogram: 1 0 0 0 0 0 0 0 0 0
Neighs:    359 ave 359 max 359 min
Histogram: 1 0 0 0 0 0 0 0 0 0

Total # of neighbors = 359
Ave neighs/atom = 8.7561
Neighbor list builds = 0
Dangerous builds = 0
	# write_dump all atom ${dumpfile}
        next i
jump SELF loop1
        displace_atoms upper move 0.0 ${ystep1} 0.0 units lattice
        displace_atoms upper move 0.0 0.002 0.0 units lattice
        min_style ${style}
        min_style cg
        minimize ${etol} ${ftol} ${maxiter} ${maxeval}
        minimize 1e-12 ${ftol} ${maxiter} ${maxeval}
        minimize 1e-12 1e-08 ${maxiter} ${maxeval}
        minimize 1e-12 1e-08 10000 ${maxeval}
        minimize 1e-12 1e-08 10000 20000
WARNING: Resetting reneighboring criteria during minimization (../min.cpp:168)
Memory usage per processor = 3.35941 Mbytes
Step Temp PotEng Lx Ly Lz 
      14            0   -120.95092    1.1224537    38.945151    1.1224537 
      15            0   -120.95092    1.1224537    38.945151    1.1224537 
Loop time of 5.29783e-05 on 1 procs for 1 steps with 41 atoms

Minimization stats:
  Stopping criterion = linesearch alpha is zero
  Energy initial, next-to-last, final = 
         -120.95091816      -120.95091816      -120.95091816
  Force two-norm initial, final = 1.47196e-17 1.47196e-17
  Force max component initial, final = 3.46945e-18 3.46945e-18
  Final line search alpha, max atom move = 0.5 1.73472e-18
  Iterations, force evaluations = 1 2

Pair  time (%) = 3.82909e-05 (72.2765)
Neigh time (%) = 0 (0)
Comm  time (%) = 5.05743e-06 (9.54623)
Outpt time (%) = 0 (0)
Other time (%) = 9.62999e-06 (18.1772)

Nlocal:    41 ave 41 max 41 min
Histogram: 1 0 0 0 0 0 0 0 0 0
Nghost:    185 ave 185 max 185 min
Histogram: 1 0 0 0 0 0 0 0 0 0
Neighs:    359 ave 359 max 359 min
Histogram: 1 0 0 0 0 0 0 0 0 0

Total # of neighbors = 359
Ave neighs/atom = 8.7561
Neighbor list builds = 0
Dangerous builds = 0
	# write_dump all atom ${dumpfile}
        next i
jump SELF loop1
        displace_atoms upper move 0.0 ${ystep1} 0.0 units lattice
        displace_atoms upper move 0.0 0.002 0.0 units lattice
        min_style ${style}
        min_style cg
        minimize ${etol} ${ftol} ${maxiter} ${maxeval}
        minimize 1e-12 ${ftol} ${maxiter} ${maxeval}
        minimize 1e-12 1e-08 ${maxiter} ${maxeval}
        minimize 1e-12 1e-08 10000 ${maxeval}
        minimize 1e-12 1e-08 10000 20000
WARNING: Resetting reneighboring criteria during minimization (../min.cpp:168)
Memory usage per processor = 3.35941 Mbytes
Step Temp PotEng Lx Ly Lz 
      15            0   -120.94455    1.1224537    38.949039    1.1224537 
      16            0   -120.94455    1.1224537    38.949039    1.1224537 
Loop time of 4.0991e-05 on 1 procs for 1 steps with 41 atoms

Minimization stats:
  Stopping criterion = linesearch alpha is zero
  Energy initial, next-to-last, final = 
        -120.944545087     -120.944545087     -120.944545087
  Force two-norm initial, final = 2.83986e-17 2.83986e-17
  Force max component initial, final = 2.42861e-17 2.42861e-17
  Final line search alpha, max atom move = 0.5 1.21431e-17
  Iterations, force evaluations = 1 2

Pair  time (%) = 3.17526e-05 (77.4624)
Neigh time (%) = 0 (0)
Comm  time (%) = 3.13355e-06 (7.64449)
Outpt time (%) = 0 (0)
Other time (%) = 6.10482e-06 (14.8931)

Nlocal:    41 ave 41 max 41 min
Histogram: 1 0 0 0 0 0 0 0 0 0
Nghost:    185 ave 185 max 185 min
Histogram: 1 0 0 0 0 0 0 0 0 0
Neighs:    359 ave 359 max 359 min
Histogram: 1 0 0 0 0 0 0 0 0 0

Total # of neighbors = 359
Ave neighs/atom = 8.7561
Neighbor list builds = 0
Dangerous builds = 0
	# write_dump all atom ${dumpfile}
        next i
jump SELF loop1
        displace_atoms upper move 0.0 ${ystep1} 0.0 units lattice
        displace_atoms upper move 0.0 0.002 0.0 units lattice
        min_style ${style}
        min_style cg
        minimize ${etol} ${ftol} ${maxiter} ${maxeval}
        minimize 1e-12 ${ftol} ${maxiter} ${maxeval}
        minimize 1e-12 1e-08 ${maxiter} ${maxeval}
        minimize 1e-12 1e-08 10000 ${maxeval}
        minimize 1e-12 1e-08 10000 20000
WARNING: Resetting reneighboring criteria during minimization (../min.cpp:168)
Memory usage per processor = 3.35941 Mbytes
Step Temp PotEng Lx Ly Lz 
      16            0   -120.93787    1.1224537    38.952927    1.1224537 
      17            0   -120.93787    1.1224537    38.952927    1.1224537 
Loop time of 5.30173e-05 on 1 procs for 1 steps with 41 atoms

Minimization stats:
  Stopping criterion = linesearch alpha is zero
  Energy initial, next-to-last, final = 
        -120.937865594     -120.937865594     -120.937865594
  Force two-norm initial, final = 2.83986e-17 2.83986e-17
  Force max component initial, final = 2.42861e-17 2.42861e-17
  Final line search alpha, max atom move = 0.5 1.21431e-17
  Iterations, force evaluations = 1 2

Pair  time (%) = 3.7977e-05 (71.6314)
Neigh time (%) = 0 (0)
Comm  time (%) = 5.33706e-06 (10.0666)
Outpt time (%) = 0 (0)
Other time (%) = 9.70322e-06 (18.302)

Nlocal:    41 ave 41 max 41 min
Histogram: 1 0 0 0 0 0 0 0 0 0
Nghost:    185 ave 185 max 185 min
Histogram: 1 0 0 0 0 0 0 0 0 0
Neighs:    359 ave 359 max 359 min
Histogram: 1 0 0 0 0 0 0 0 0 0

Total # of neighbors = 359
Ave neighs/atom = 8.7561
Neighbor list builds = 0
Dangerous builds = 0
	# write_dump all atom ${dumpfile}
        next i
jump SELF loop1
        displace_atoms upper move 0.0 ${ystep1} 0.0 units lattice
        displace_atoms upper move 0.0 0.002 0.0 units lattice
        min_style ${style}
        min_style cg
        minimize ${etol} ${ftol} ${maxiter} ${maxeval}
        minimize 1e-12 ${ftol} ${maxiter} ${maxeval}
        minimize 1e-12 1e-08 ${maxiter} ${maxeval}
        minimize 1e-12 1e-08 10000 ${maxeval}
        minimize 1e-12 1e-08 10000 20000
WARNING: Resetting reneighboring criteria during minimization (../min.cpp:168)
Memory usage per processor = 3.35941 Mbytes
Step Temp PotEng Lx Ly Lz 
      17            0   -120.93086    1.1224537    38.956816    1.1224537 
      18            0   -120.93086    1.1224537    38.956816    1.1224537 
Loop time of 5.50515e-05 on 1 procs for 1 steps with 41 atoms

Minimization stats:
  Stopping criterion = linesearch alpha is zero
  Energy initial, next-to-last, final = 
        -120.930861741     -120.930861741     -120.930861741
  Force two-norm initial, final = 2.54951e-17 2.54951e-17
  Force max component initial, final = 2.08167e-17 2.08167e-17
  Final line search alpha, max atom move = 0.5 1.04083e-17
  Iterations, force evaluations = 1 2

Pair  time (%) = 3.89806e-05 (70.8075)
Neigh time (%) = 0 (0)
Comm  time (%) = 3.72168e-06 (6.76036)
Outpt time (%) = 0 (0)
Other time (%) = 1.23492e-05 (22.4321)

Nlocal:    41 ave 41 max 41 min
Histogram: 1 0 0 0 0 0 0 0 0 0
Nghost:    185 ave 185 max 185 min
Histogram: 1 0 0 0 0 0 0 0 0 0
Neighs:    359 ave 359 max 359 min
Histogram: 1 0 0 0 0 0 0 0 0 0

Total # of neighbors = 359
Ave neighs/atom = 8.7561
Neighbor list builds = 0
Dangerous builds = 0
	# write_dump all atom ${dumpfile}
        next i
jump SELF loop1
        displace_atoms upper move 0.0 ${ystep1} 0.0 units lattice
        displace_atoms upper move 0.0 0.002 0.0 units lattice
        min_style ${style}
        min_style cg
        minimize ${etol} ${ftol} ${maxiter} ${maxeval}
        minimize 1e-12 ${ftol} ${maxiter} ${maxeval}
        minimize 1e-12 1e-08 ${maxiter} ${maxeval}
        minimize 1e-12 1e-08 10000 ${maxeval}
        minimize 1e-12 1e-08 10000 20000
WARNING: Resetting reneighboring criteria during minimization (../min.cpp:168)
Memory usage per processor = 3.35941 Mbytes
Step Temp PotEng Lx Ly Lz 
      18            0   -120.92356    1.1224537    38.960704    1.1224537 
      19            0   -120.92356    1.1224537    38.960704    1.1224537 
Loop time of 5.40438e-05 on 1 procs for 1 steps with 41 atoms

Minimization stats:
  Stopping criterion = linesearch alpha is zero
  Energy initial, next-to-last, final = 
        -120.923555884     -120.923555884     -120.923555884
  Force two-norm initial, final = 5.71143e-17 5.71143e-17
  Force max component initial, final = 5.20417e-17 5.20417e-17
  Final line search alpha, max atom move = 0.5 2.60209e-17
  Iterations, force evaluations = 1 2

Pair  time (%) = 3.69112e-05 (68.2987)
Neigh time (%) = 0 (0)
Comm  time (%) = 5.15918e-06 (9.54628)
Outpt time (%) = 0 (0)
Other time (%) = 1.19734e-05 (22.155)

Nlocal:    41 ave 41 max 41 min
Histogram: 1 0 0 0 0 0 0 0 0 0
Nghost:    185 ave 185 max 185 min
Histogram: 1 0 0 0 0 0 0 0 0 0
Neighs:    359 ave 359 max 359 min
Histogram: 1 0 0 0 0 0 0 0 0 0

Total # of neighbors = 359
Ave neighs/atom = 8.7561
Neighbor list builds = 0
Dangerous builds = 0
	# write_dump all atom ${dumpfile}
        next i
jump SELF loop1
        displace_atoms upper move 0.0 ${ystep1} 0.0 units lattice
        displace_atoms upper move 0.0 0.002 0.0 units lattice
        min_style ${style}
        min_style cg
        minimize ${etol} ${ftol} ${maxiter} ${maxeval}
        minimize 1e-12 ${ftol} ${maxiter} ${maxeval}
        minimize 1e-12 1e-08 ${maxiter} ${maxeval}
        minimize 1e-12 1e-08 10000 ${maxeval}
        minimize 1e-12 1e-08 10000 20000
WARNING: Resetting reneighboring criteria during minimization (../min.cpp:168)
Memory usage per processor = 3.35941 Mbytes
Step Temp PotEng Lx Ly Lz 
      19            0   -120.91597    1.1224537    38.964592    1.1224537 
      20            0   -120.91597    1.1224537    38.964592    1.1224537 
Loop time of 9.50785e-05 on 1 procs for 1 steps with 41 atoms

Minimization stats:
  Stopping criterion = linesearch alpha is zero
  Energy initial, next-to-last, final = 
        -120.915965523     -120.915965523     -120.915965523
  Force two-norm initial, final = 6.81638e-17 6.81638e-17
  Force max component initial, final = 5.20417e-17 5.20417e-17
  Final line search alpha, max atom move = 0.5 2.60209e-17
  Iterations, force evaluations = 1 2

Pair  time (%) = 4.38408e-05 (46.1102)
Neigh time (%) = 0 (0)
Comm  time (%) = 1.79787e-05 (18.9093)
Outpt time (%) = 0 (0)
Other time (%) = 3.32589e-05 (34.9805)

Nlocal:    41 ave 41 max 41 min
Histogram: 1 0 0 0 0 0 0 0 0 0
Nghost:    185 ave 185 max 185 min
Histogram: 1 0 0 0 0 0 0 0 0 0
Neighs:    359 ave 359 max 359 min
Histogram: 1 0 0 0 0 0 0 0 0 0

Total # of neighbors = 359
Ave neighs/atom = 8.7561
Neighbor list builds = 0
Dangerous builds = 0
	# write_dump all atom ${dumpfile}
        next i
jump SELF loop1
        displace_atoms upper move 0.0 ${ystep1} 0.0 units lattice
        displace_atoms upper move 0.0 0.002 0.0 units lattice
        min_style ${style}
        min_style cg
        minimize ${etol} ${ftol} ${maxiter} ${maxeval}
        minimize 1e-12 ${ftol} ${maxiter} ${maxeval}
        minimize 1e-12 1e-08 ${maxiter} ${maxeval}
        minimize 1e-12 1e-08 10000 ${maxeval}
        minimize 1e-12 1e-08 10000 20000
WARNING: Resetting reneighboring criteria during minimization (../min.cpp:168)
Memory usage per processor = 3.35941 Mbytes
Step Temp PotEng Lx Ly Lz 
      20            0   -120.90808    1.1224537     38.96848    1.1224537 
      21            0   -120.90808    1.1224537     38.96848    1.1224537 
Loop time of 5.30097e-05 on 1 procs for 1 steps with 41 atoms

Minimization stats:
  Stopping criterion = linesearch alpha is zero
  Energy initial, next-to-last, final = 
        -120.908083133     -120.908083133     -120.908083133
  Force two-norm initial, final = 5.78472e-17 5.78472e-17
  Force max component initial, final = 5.20417e-17 5.20417e-17
  Final line search alpha, max atom move = 0.5 2.60209e-17
  Iterations, force evaluations = 1 2

Pair  time (%) = 3.70006e-05 (69.7997)
Neigh time (%) = 0 (0)
Comm  time (%) = 2.90747e-06 (5.48479)
Outpt time (%) = 0 (0)
Other time (%) = 1.31016e-05 (24.7155)

Nlocal:    41 ave 41 max 41 min
Histogram: 1 0 0 0 0 0 0 0 0 0
Nghost:    185 ave 185 max 185 min
Histogram: 1 0 0 0 0 0 0 0 0 0
Neighs:    359 ave 359 max 359 min
Histogram: 1 0 0 0 0 0 0 0 0 0

Total # of neighbors = 359
Ave neighs/atom = 8.7561
Neighbor list builds = 0
Dangerous builds = 0
	# write_dump all atom ${dumpfile}
        next i
jump SELF loop1
        displace_atoms upper move 0.0 ${ystep1} 0.0 units lattice
        displace_atoms upper move 0.0 0.002 0.0 units lattice
        min_style ${style}
        min_style cg
        minimize ${etol} ${ftol} ${maxiter} ${maxeval}
        minimize 1e-12 ${ftol} ${maxiter} ${maxeval}
        minimize 1e-12 1e-08 ${maxiter} ${maxeval}
        minimize 1e-12 1e-08 10000 ${maxeval}
        minimize 1e-12 1e-08 10000 20000
WARNING: Resetting reneighboring criteria during minimization (../min.cpp:168)
Memory usage per processor = 3.35941 Mbytes
Step Temp PotEng Lx Ly Lz 
      21            0   -120.89995    1.1224537    38.972369    1.1224537 
      22            0   -120.89995    1.1224537    38.972369    1.1224537 
Loop time of 8.59945e-05 on 1 procs for 1 steps with 41 atoms

Minimization stats:
  Stopping criterion = linesearch alpha is zero
  Energy initial, next-to-last, final = 
        -120.899949217     -120.899949217     -120.899949217
  Force two-norm initial, final = 7.03366e-17 7.03366e-17
  Force max component initial, final = 5.20417e-17 5.20417e-17
  Final line search alpha, max atom move = 0.5 2.60209e-17
  Iterations, force evaluations = 1 2

Pair  time (%) = 3.79945e-05 (44.1824)
Neigh time (%) = 0 (0)
Comm  time (%) = 6.13357e-06 (7.13252)
Outpt time (%) = 0 (0)
Other time (%) = 4.18664e-05 (48.685)

Nlocal:    41 ave 41 max 41 min
Histogram: 1 0 0 0 0 0 0 0 0 0
Nghost:    185 ave 185 max 185 min
Histogram: 1 0 0 0 0 0 0 0 0 0
Neighs:    359 ave 359 max 359 min
Histogram: 1 0 0 0 0 0 0 0 0 0

Total # of neighbors = 359
Ave neighs/atom = 8.7561
Neighbor list builds = 0
Dangerous builds = 0
	# write_dump all atom ${dumpfile}
        next i
jump SELF loop1
        displace_atoms upper move 0.0 ${ystep1} 0.0 units lattice
        displace_atoms upper move 0.0 0.002 0.0 units lattice
        min_style ${style}
        min_style cg
        minimize ${etol} ${ftol} ${maxiter} ${maxeval}
        minimize 1e-12 ${ftol} ${maxiter} ${maxeval}
        minimize 1e-12 1e-08 ${maxiter} ${maxeval}
        minimize 1e-12 1e-08 10000 ${maxeval}
        minimize 1e-12 1e-08 10000 20000
WARNING: Resetting reneighboring criteria during minimization (../min.cpp:168)
Memory usage per processor = 3.35941 Mbytes
Step Temp PotEng Lx Ly Lz 
      22            0   -120.89154    1.1224537    38.976257    1.1224537 
      23            0   -120.89154    1.1224537    38.976257    1.1224537 
Loop time of 5.40116e-05 on 1 procs for 1 steps with 41 atoms

Minimization stats:
  Stopping criterion = linesearch alpha is zero
  Energy initial, next-to-last, final = 
        -120.891537457     -120.891537457     -120.891537457
  Force two-norm initial, final = 5.49664e-17 5.49664e-17
  Force max component initial, final = 5.20417e-17 5.20417e-17
  Final line search alpha, max atom move = 0.5 2.60209e-17
  Iterations, force evaluations = 1 2

Pair  time (%) = 3.80062e-05 (70.3668)
Neigh time (%) = 0 (0)
Comm  time (%) = 4.15707e-06 (7.69664)
Outpt time (%) = 0 (0)
Other time (%) = 1.18483e-05 (21.9366)

Nlocal:    41 ave 41 max 41 min
Histogram: 1 0 0 0 0 0 0 0 0 0
Nghost:    185 ave 185 max 185 min
Histogram: 1 0 0 0 0 0 0 0 0 0
Neighs:    359 ave 359 max 359 min
Histogram: 1 0 0 0 0 0 0 0 0 0

Total # of neighbors = 359
Ave neighs/atom = 8.7561
Neighbor list builds = 0
Dangerous builds = 0
	# write_dump all atom ${dumpfile}
        next i
jump SELF loop1
        displace_atoms upper move 0.0 ${ystep1} 0.0 units lattice
        displace_atoms upper move 0.0 0.002 0.0 units lattice
        min_style ${style}
        min_style cg
        minimize ${etol} ${ftol} ${maxiter} ${maxeval}
        minimize 1e-12 ${ftol} ${maxiter} ${maxeval}
        minimize 1e-12 1e-08 ${maxiter} ${maxeval}
        minimize 1e-12 1e-08 10000 ${maxeval}
        minimize 1e-12 1e-08 10000 20000
WARNING: Resetting reneighboring criteria during minimization (../min.cpp:168)
Memory usage per processor = 3.35941 Mbytes
Step Temp PotEng Lx Ly Lz 
      23            0    -120.8829    1.1224537    38.980145    1.1224537 
      24            0    -120.8829    1.1224537    38.980145    1.1224537 
Loop time of 5.39563e-05 on 1 procs for 1 steps with 41 atoms

Minimization stats:
  Stopping criterion = linesearch alpha is zero
  Energy initial, next-to-last, final = 
        -120.882900687     -120.882900687     -120.882900687
  Force two-norm initial, final = 6.45354e-17 6.45354e-17
  Force max component initial, final = 5.20417e-17 5.20417e-17
  Final line search alpha, max atom move = 0.5 2.60209e-17
  Iterations, force evaluations = 1 2

Pair  time (%) = 3.68407e-05 (68.2787)
Neigh time (%) = 0 (0)
Comm  time (%) = 5.01808e-06 (9.30027)
Outpt time (%) = 0 (0)
Other time (%) = 1.20975e-05 (22.421)

Nlocal:    41 ave 41 max 41 min
Histogram: 1 0 0 0 0 0 0 0 0 0
Nghost:    185 ave 185 max 185 min
Histogram: 1 0 0 0 0 0 0 0 0 0
Neighs:    359 ave 359 max 359 min
Histogram: 1 0 0 0 0 0 0 0 0 0

Total # of neighbors = 359
Ave neighs/atom = 8.7561
Neighbor list builds = 0
Dangerous builds = 0
	# write_dump all atom ${dumpfile}
        next i
jump SELF loop1
        displace_atoms upper move 0.0 ${ystep1} 0.0 units lattice
        displace_atoms upper move 0.0 0.002 0.0 units lattice
        min_style ${style}
        min_style cg
        minimize ${etol} ${ftol} ${maxiter} ${maxeval}
        minimize 1e-12 ${ftol} ${maxiter} ${maxeval}
        minimize 1e-12 1e-08 ${maxiter} ${maxeval}
        minimize 1e-12 1e-08 10000 ${maxeval}
        minimize 1e-12 1e-08 10000 20000
WARNING: Resetting reneighboring criteria during minimization (../min.cpp:168)
Memory usage per processor = 3.35941 Mbytes
Step Temp PotEng Lx Ly Lz 
      24            0     -120.874    1.1224537    38.984034    1.1224537 
      25            0     -120.874    1.1224537    38.984034    1.1224537 
Loop time of 5.3108e-05 on 1 procs for 1 steps with 41 atoms

Minimization stats:
  Stopping criterion = linesearch alpha is zero
  Energy initial, next-to-last, final = 
        -120.874004984     -120.874004984     -120.874004984
  Force two-norm initial, final = 6.81638e-17 6.81638e-17
  Force max component initial, final = 5.20417e-17 5.20417e-17
  Final line search alpha, max atom move = 0.5 2.60209e-17
  Iterations, force evaluations = 1 2

Pair  time (%) = 3.70573e-05 (69.7773)
Neigh time (%) = 0 (0)
Comm  time (%) = 4.92821e-06 (9.2796)
Outpt time (%) = 0 (0)
Other time (%) = 1.11224e-05 (20.9431)

Nlocal:    41 ave 41 max 41 min
Histogram: 1 0 0 0 0 0 0 0 0 0
Nghost:    185 ave 185 max 185 min
Histogram: 1 0 0 0 0 0 0 0 0 0
Neighs:    359 ave 359 max 359 min
Histogram: 1 0 0 0 0 0 0 0 0 0

Total # of neighbors = 359
Ave neighs/atom = 8.7561
Neighbor list builds = 0
Dangerous builds = 0
	# write_dump all atom ${dumpfile}
        next i
jump SELF loop1
        displace_atoms upper move 0.0 ${ystep1} 0.0 units lattice
        displace_atoms upper move 0.0 0.002 0.0 units lattice
        min_style ${style}
        min_style cg
        minimize ${etol} ${ftol} ${maxiter} ${maxeval}
        minimize 1e-12 ${ftol} ${maxiter} ${maxeval}
        minimize 1e-12 1e-08 ${maxiter} ${maxeval}
        minimize 1e-12 1e-08 10000 ${maxeval}
        minimize 1e-12 1e-08 10000 20000
WARNING: Resetting reneighboring criteria during minimization (../min.cpp:168)
Memory usage per processor = 3.35941 Mbytes
Step Temp PotEng Lx Ly Lz 
      25            0    -120.8649    1.1224537    38.987922    1.1224537 
      26            0    -120.8649    1.1224537    38.987922    1.1224537 
Loop time of 4.78935e-05 on 1 procs for 1 steps with 41 atoms

Minimization stats:
  Stopping criterion = linesearch alpha is zero
  Energy initial, next-to-last, final = 
        -120.864902631     -120.864902631     -120.864902631
  Force two-norm initial, final = 5.78472e-17 5.78472e-17
  Force max component initial, final = 5.20417e-17 5.20417e-17
  Final line search alpha, max atom move = 0.5 2.60209e-17
  Iterations, force evaluations = 1 2

Pair  time (%) = 3.30893e-05 (69.0894)
Neigh time (%) = 0 (0)
Comm  time (%) = 2.89956e-06 (6.05418)
Outpt time (%) = 0 (0)
Other time (%) = 1.19046e-05 (24.8565)

Nlocal:    41 ave 41 max 41 min
Histogram: 1 0 0 0 0 0 0 0 0 0
Nghost:    185 ave 185 max 185 min
Histogram: 1 0 0 0 0 0 0 0 0 0
Neighs:    359 ave 359 max 359 min
Histogram: 1 0 0 0 0 0 0 0 0 0

Total # of neighbors = 359
Ave neighs/atom = 8.7561
Neighbor list builds = 0
Dangerous builds = 0
	# write_dump all atom ${dumpfile}
        next i
jump SELF loop1
        displace_atoms upper move 0.0 ${ystep1} 0.0 units lattice
        displace_atoms upper move 0.0 0.002 0.0 units lattice
        min_style ${style}
        min_style cg
        minimize ${etol} ${ftol} ${maxiter} ${maxeval}
        minimize 1e-12 ${ftol} ${maxiter} ${maxeval}
        minimize 1e-12 1e-08 ${maxiter} ${maxeval}
        minimize 1e-12 1e-08 10000 ${maxeval}
        minimize 1e-12 1e-08 10000 20000
WARNING: Resetting reneighboring criteria during minimization (../min.cpp:168)
Memory usage per processor = 3.35941 Mbytes
Step Temp PotEng Lx Ly Lz 
      26            0   -120.85557    1.1224537     38.99181    1.1224537 
      27            0   -120.85557    1.1224537     38.99181    1.1224537 
Loop time of 4.81062e-05 on 1 procs for 1 steps with 41 atoms

Minimization stats:
  Stopping criterion = linesearch alpha is zero
  Energy initial, next-to-last, final = 
        -120.855567866     -120.855567866     -120.855567866
  Force two-norm initial, final = 5.45266e-17 5.45266e-17
  Force max component initial, final = 5.20417e-17 5.20417e-17
  Final line search alpha, max atom move = 0.5 2.60209e-17
  Iterations, force evaluations = 1 2

Pair  time (%) = 3.40588e-05 (70.7992)
Neigh time (%) = 0 (0)
Comm  time (%) = 3.83833e-06 (7.97887)
Outpt time (%) = 0 (0)
Other time (%) = 1.0209e-05 (21.2219)

Nlocal:    41 ave 41 max 41 min
Histogram: 1 0 0 0 0 0 0 0 0 0
Nghost:    185 ave 185 max 185 min
Histogram: 1 0 0 0 0 0 0 0 0 0
Neighs:    359 ave 359 max 359 min
Histogram: 1 0 0 0 0 0 0 0 0 0

Total # of neighbors = 359
Ave neighs/atom = 8.7561
Neighbor list builds = 0
Dangerous builds = 0
	# write_dump all atom ${dumpfile}
        next i
jump SELF loop1
        displace_atoms upper move 0.0 ${ystep1} 0.0 units lattice
        displace_atoms upper move 0.0 0.002 0.0 units lattice
        min_style ${style}
        min_style cg
        minimize ${etol} ${ftol} ${maxiter} ${maxeval}
        minimize 1e-12 ${ftol} ${maxiter} ${maxeval}
        minimize 1e-12 1e-08 ${maxiter} ${maxeval}
        minimize 1e-12 1e-08 10000 ${maxeval}
        minimize 1e-12 1e-08 10000 20000
WARNING: Resetting reneighboring criteria during minimization (../min.cpp:168)
Memory usage per processor = 3.35941 Mbytes
Step Temp PotEng Lx Ly Lz 
      27            0   -120.84604    1.1224537    38.995698    1.1224537 
      28            0   -120.84604    1.1224537    38.995698    1.1224537 
Loop time of 0.000115895 on 1 procs for 1 steps with 41 atoms

Minimization stats:
  Stopping criterion = linesearch alpha is zero
  Energy initial, next-to-last, final = 
        -120.846040907     -120.846040907     -120.846040907
  Force two-norm initial, final = 6.41613e-17 6.41613e-17
  Force max component initial, final = 5.20417e-17 5.20417e-17
  Final line search alpha, max atom move = 0.5 2.60209e-17
  Iterations, force evaluations = 1 2

Pair  time (%) = 3.4053e-05 (29.3826)
Neigh time (%) = 0 (0)
Comm  time (%) = 5.11133e-06 (4.4103)
Outpt time (%) = 0 (0)
Other time (%) = 7.6731e-05 (66.2071)

Nlocal:    41 ave 41 max 41 min
Histogram: 1 0 0 0 0 0 0 0 0 0
Nghost:    185 ave 185 max 185 min
Histogram: 1 0 0 0 0 0 0 0 0 0
Neighs:    359 ave 359 max 359 min
Histogram: 1 0 0 0 0 0 0 0 0 0

Total # of neighbors = 359
Ave neighs/atom = 8.7561
Neighbor list builds = 0
Dangerous builds = 0
	# write_dump all atom ${dumpfile}
        next i
jump SELF loop1
        displace_atoms upper move 0.0 ${ystep1} 0.0 units lattice
        displace_atoms upper move 0.0 0.002 0.0 units lattice
        min_style ${style}
        min_style cg
        minimize ${etol} ${ftol} ${maxiter} ${maxeval}
        minimize 1e-12 ${ftol} ${maxiter} ${maxeval}
        minimize 1e-12 1e-08 ${maxiter} ${maxeval}
        minimize 1e-12 1e-08 10000 ${maxeval}
        minimize 1e-12 1e-08 10000 20000
WARNING: Resetting reneighboring criteria during minimization (../min.cpp:168)
Memory usage per processor = 3.35941 Mbytes
Step Temp PotEng Lx Ly Lz 
      28            0    -120.8363    1.1224537    38.999587    1.1224537 
      29            0    -120.8363    1.1224537    38.999587    1.1224537 
Loop time of 4.90062e-05 on 1 procs for 1 steps with 41 atoms

Minimization stats:
  Stopping criterion = linesearch alpha is zero
  Energy initial, next-to-last, final = 
        -120.836304341     -120.836304341     -120.836304341
  Force two-norm initial, final = 7.49754e-17 7.49754e-17
  Force max component initial, final = 5.20417e-17 5.20417e-17
  Final line search alpha, max atom move = 0.5 2.60209e-17
  Iterations, force evaluations = 1 2

Pair  time (%) = 3.39971e-05 (69.3731)
Neigh time (%) = 0 (0)
Comm  time (%) = 4.99981e-06 (10.2024)
Outpt time (%) = 0 (0)
Other time (%) = 1.00093e-05 (20.4245)

Nlocal:    41 ave 41 max 41 min
Histogram: 1 0 0 0 0 0 0 0 0 0
Nghost:    185 ave 185 max 185 min
Histogram: 1 0 0 0 0 0 0 0 0 0
Neighs:    359 ave 359 max 359 min
Histogram: 1 0 0 0 0 0 0 0 0 0

Total # of neighbors = 359
Ave neighs/atom = 8.7561
Neighbor list builds = 0
Dangerous builds = 0
	# write_dump all atom ${dumpfile}
        next i
jump SELF loop1
        displace_atoms upper move 0.0 ${ystep1} 0.0 units lattice
        displace_atoms upper move 0.0 0.002 0.0 units lattice
        min_style ${style}
        min_style cg
        minimize ${etol} ${ftol} ${maxiter} ${maxeval}
        minimize 1e-12 ${ftol} ${maxiter} ${maxeval}
        minimize 1e-12 1e-08 ${maxiter} ${maxeval}
        minimize 1e-12 1e-08 10000 ${maxeval}
        minimize 1e-12 1e-08 10000 20000
WARNING: Resetting reneighboring criteria during minimization (../min.cpp:168)
Memory usage per processor = 3.35941 Mbytes
Step Temp PotEng Lx Ly Lz 
      29            0   -120.82639    1.1224537    39.003475    1.1224537 
      30            0   -120.82639    1.1224537    39.003475    1.1224537 
Loop time of 4.808e-05 on 1 procs for 1 steps with 41 atoms

Minimization stats:
  Stopping criterion = linesearch alpha is zero
  Energy initial, next-to-last, final = 
        -120.826391435     -120.826391435     -120.826391435
  Force two-norm initial, final = 6.45354e-17 6.45354e-17
  Force max component initial, final = 5.20417e-17 5.20417e-17
  Final line search alpha, max atom move = 0.5 2.60209e-17
  Iterations, force evaluations = 1 2

Pair  time (%) = 3.39339e-05 (70.578)
Neigh time (%) = 0 (0)
Comm  time (%) = 2.11154e-06 (4.39173)
Outpt time (%) = 0 (0)
Other time (%) = 1.20346e-05 (25.0303)

Nlocal:    41 ave 41 max 41 min
Histogram: 1 0 0 0 0 0 0 0 0 0
Nghost:    185 ave 185 max 185 min
Histogram: 1 0 0 0 0 0 0 0 0 0
Neighs:    359 ave 359 max 359 min
Histogram: 1 0 0 0 0 0 0 0 0 0

Total # of neighbors = 359
Ave neighs/atom = 8.7561
Neighbor list builds = 0
Dangerous builds = 0
	# write_dump all atom ${dumpfile}
        next i
jump SELF loop1
        displace_atoms upper move 0.0 ${ystep1} 0.0 units lattice
        displace_atoms upper move 0.0 0.002 0.0 units lattice
        min_style ${style}
        min_style cg
        minimize ${etol} ${ftol} ${maxiter} ${maxeval}
        minimize 1e-12 ${ftol} ${maxiter} ${maxeval}
        minimize 1e-12 1e-08 ${maxiter} ${maxeval}
        minimize 1e-12 1e-08 10000 ${maxeval}
        minimize 1e-12 1e-08 10000 20000
WARNING: Resetting reneighboring criteria during minimization (../min.cpp:168)
Memory usage per processor = 3.35941 Mbytes
Step Temp PotEng Lx Ly Lz 
      30            0   -120.81629    1.1224537    39.007363    1.1224537 
      31            0   -120.81629    1.1224537    39.007363    1.1224537 
Loop time of 5.10445e-05 on 1 procs for 1 steps with 41 atoms

Minimization stats:
  Stopping criterion = linesearch alpha is zero
  Energy initial, next-to-last, final = 
        -120.816288789     -120.816288789     -120.816288789
  Force two-norm initial, final = 7.49754e-17 7.49754e-17
  Force max component initial, final = 5.20417e-17 5.20417e-17
  Final line search alpha, max atom move = 0.5 2.60209e-17
  Iterations, force evaluations = 1 2

Pair  time (%) = 3.41054e-05 (66.815)
Neigh time (%) = 0 (0)
Comm  time (%) = 5.97781e-06 (11.711)
Outpt time (%) = 0 (0)
Other time (%) = 1.09613e-05 (21.474)

Nlocal:    41 ave 41 max 41 min
Histogram: 1 0 0 0 0 0 0 0 0 0
Nghost:    185 ave 185 max 185 min
Histogram: 1 0 0 0 0 0 0 0 0 0
Neighs:    359 ave 359 max 359 min
Histogram: 1 0 0 0 0 0 0 0 0 0

Total # of neighbors = 359
Ave neighs/atom = 8.7561
Neighbor list builds = 0
Dangerous builds = 0
	# write_dump all atom ${dumpfile}
        next i
jump SELF loop1
        displace_atoms upper move 0.0 ${ystep1} 0.0 units lattice
        displace_atoms upper move 0.0 0.002 0.0 units lattice
        min_style ${style}
        min_style cg
        minimize ${etol} ${ftol} ${maxiter} ${maxeval}
        minimize 1e-12 ${ftol} ${maxiter} ${maxeval}
        minimize 1e-12 1e-08 ${maxiter} ${maxeval}
        minimize 1e-12 1e-08 10000 ${maxeval}
        minimize 1e-12 1e-08 10000 20000
WARNING: Resetting reneighboring criteria during minimization (../min.cpp:168)
Memory usage per processor = 3.35941 Mbytes
Step Temp PotEng Lx Ly Lz 
      31            0   -120.80603    1.1224537    39.011252    1.1224537 
      32            0   -120.80603    1.1224537    39.011252    1.1224537 
Loop time of 4.99658e-05 on 1 procs for 1 steps with 41 atoms

Minimization stats:
  Stopping criterion = linesearch alpha is zero
  Energy initial, next-to-last, final = 
        -120.806026385     -120.806026385     -120.806026385
  Force two-norm initial, final = 5.45266e-17 5.45266e-17
  Force max component initial, final = 5.20417e-17 5.20417e-17
  Final line search alpha, max atom move = 0.5 2.60209e-17
  Iterations, force evaluations = 1 2

Pair  time (%) = 3.39684e-05 (67.9832)
Neigh time (%) = 0 (0)
Comm  time (%) = 6.13451e-06 (12.2774)
Outpt time (%) = 0 (0)
Other time (%) = 9.86294e-06 (19.7394)

Nlocal:    41 ave 41 max 41 min
Histogram: 1 0 0 0 0 0 0 0 0 0
Nghost:    185 ave 185 max 185 min
Histogram: 1 0 0 0 0 0 0 0 0 0
Neighs:    359 ave 359 max 359 min
Histogram: 1 0 0 0 0 0 0 0 0 0

Total # of neighbors = 359
Ave neighs/atom = 8.7561
Neighbor list builds = 0
Dangerous builds = 0
	# write_dump all atom ${dumpfile}
        next i
jump SELF loop1
        displace_atoms upper move 0.0 ${ystep1} 0.0 units lattice
        displace_atoms upper move 0.0 0.002 0.0 units lattice
        min_style ${style}
        min_style cg
        minimize ${etol} ${ftol} ${maxiter} ${maxeval}
        minimize 1e-12 ${ftol} ${maxiter} ${maxeval}
        minimize 1e-12 1e-08 ${maxiter} ${maxeval}
        minimize 1e-12 1e-08 10000 ${maxeval}
        minimize 1e-12 1e-08 10000 20000
WARNING: Resetting reneighboring criteria during minimization (../min.cpp:168)
Memory usage per processor = 3.35941 Mbytes
Step Temp PotEng Lx Ly Lz 
      32            0   -120.79559    1.1224537     39.01514    1.1224537 
      33            0   -120.79559    1.1224537     39.01514    1.1224537 
Loop time of 4.79661e-05 on 1 procs for 1 steps with 41 atoms

Minimization stats:
  Stopping criterion = linesearch alpha is zero
  Energy initial, next-to-last, final = 
        -120.795591881     -120.795591881     -120.795591881
  Force two-norm initial, final = 7.03366e-17 7.03366e-17
  Force max component initial, final = 5.20417e-17 5.20417e-17
  Final line search alpha, max atom move = 0.5 2.60209e-17
  Iterations, force evaluations = 1 2

Pair  time (%) = 3.38767e-05 (70.6264)
Neigh time (%) = 0 (0)
Comm  time (%) = 4.236e-06 (8.83124)
Outpt time (%) = 0 (0)
Other time (%) = 9.85339e-06 (20.5424)

Nlocal:    41 ave 41 max 41 min
Histogram: 1 0 0 0 0 0 0 0 0 0
Nghost:    185 ave 185 max 185 min
Histogram: 1 0 0 0 0 0 0 0 0 0
Neighs:    359 ave 359 max 359 min
Histogram: 1 0 0 0 0 0 0 0 0 0

Total # of neighbors = 359
Ave neighs/atom = 8.7561
Neighbor list builds = 0
Dangerous builds = 0
	# write_dump all atom ${dumpfile}
        next i
jump SELF loop1
        displace_atoms upper move 0.0 ${ystep1} 0.0 units lattice
        displace_atoms upper move 0.0 0.002 0.0 units lattice
        min_style ${style}
        min_style cg
        minimize ${etol} ${ftol} ${maxiter} ${maxeval}
        minimize 1e-12 ${ftol} ${maxiter} ${maxeval}
        minimize 1e-12 1e-08 ${maxiter} ${maxeval}
        minimize 1e-12 1e-08 10000 ${maxeval}
        minimize 1e-12 1e-08 10000 20000
WARNING: Resetting reneighboring criteria during minimization (../min.cpp:168)
Memory usage per processor = 3.35941 Mbytes
Step Temp PotEng Lx Ly Lz 
      33            0   -120.78502    1.1224537    39.019028    1.1224537 
      34            0   -120.78502    1.1224537    39.019028    1.1224537 
Loop time of 4.79337e-05 on 1 procs for 1 steps with 41 atoms

Minimization stats:
  Stopping criterion = linesearch alpha is zero
  Energy initial, next-to-last, final = 
        -120.785015068     -120.785015068     -120.785015068
  Force two-norm initial, final = 5.40833e-17 5.40833e-17
  Force max component initial, final = 5.20417e-17 5.20417e-17
  Final line search alpha, max atom move = 0.5 2.60209e-17
  Iterations, force evaluations = 1 2

Pair  time (%) = 3.29717e-05 (68.7862)
Neigh time (%) = 0 (0)
Comm  time (%) = 3.141e-06 (6.55281)
Outpt time (%) = 0 (0)
Other time (%) = 1.18209e-05 (24.661)

Nlocal:    41 ave 41 max 41 min
Histogram: 1 0 0 0 0 0 0 0 0 0
Nghost:    185 ave 185 max 185 min
Histogram: 1 0 0 0 0 0 0 0 0 0
Neighs:    359 ave 359 max 359 min
Histogram: 1 0 0 0 0 0 0 0 0 0

Total # of neighbors = 359
Ave neighs/atom = 8.7561
Neighbor list builds = 0
Dangerous builds = 0
	# write_dump all atom ${dumpfile}
        next i
jump SELF loop1
        displace_atoms upper move 0.0 ${ystep1} 0.0 units lattice
        displace_atoms upper move 0.0 0.002 0.0 units lattice
        min_style ${style}
        min_style cg
        minimize ${etol} ${ftol} ${maxiter} ${maxeval}
        minimize 1e-12 ${ftol} ${maxiter} ${maxeval}
        minimize 1e-12 1e-08 ${maxiter} ${maxeval}
        minimize 1e-12 1e-08 10000 ${maxeval}
        minimize 1e-12 1e-08 10000 20000
WARNING: Resetting reneighboring criteria during minimization (../min.cpp:168)
Memory usage per processor = 3.35941 Mbytes
Step Temp PotEng Lx Ly Lz 
      34            0   -120.77434    1.1224537    39.022917    1.1224537 
      35            0   -120.77434    1.1224537    39.022917    1.1224537 
Loop time of 4.80541e-05 on 1 procs for 1 steps with 41 atoms

Minimization stats:
  Stopping criterion = linesearch alpha is zero
  Energy initial, next-to-last, final = 
        -120.774335002     -120.774335002     -120.774335002
  Force two-norm initial, final = 6.61018e-17 6.61018e-17
  Force max component initial, final = 5.20417e-17 5.20417e-17
  Final line search alpha, max atom move = 0.5 2.60209e-17
  Iterations, force evaluations = 1 2

Pair  time (%) = 3.39024e-05 (70.5503)
Neigh time (%) = 0 (0)
Comm  time (%) = 5.00248e-06 (10.4101)
Outpt time (%) = 0 (0)
Other time (%) = 9.14931e-06 (19.0396)

Nlocal:    41 ave 41 max 41 min
Histogram: 1 0 0 0 0 0 0 0 0 0
Nghost:    185 ave 185 max 185 min
Histogram: 1 0 0 0 0 0 0 0 0 0
Neighs:    359 ave 359 max 359 min
Histogram: 1 0 0 0 0 0 0 0 0 0

Total # of neighbors = 359
Ave neighs/atom = 8.7561
Neighbor list builds = 0
Dangerous builds = 0
	# write_dump all atom ${dumpfile}
        next i
jump SELF loop1
        displace_atoms upper move 0.0 ${ystep1} 0.0 units lattice
        displace_atoms upper move 0.0 0.002 0.0 units lattice
        min_style ${style}
        min_style cg
        minimize ${etol} ${ftol} ${maxiter} ${maxeval}
        minimize 1e-12 ${ftol} ${maxiter} ${maxeval}
        minimize 1e-12 1e-08 ${maxiter} ${maxeval}
        minimize 1e-12 1e-08 10000 ${maxeval}
        minimize 1e-12 1e-08 10000 20000
WARNING: Resetting reneighboring criteria during minimization (../min.cpp:168)
Memory usage per processor = 3.35941 Mbytes
Step Temp PotEng Lx Ly Lz 
      35            0   -120.76359    1.1224537    39.026805    1.1224537 
      36            0   -120.76359    1.1224537    39.026805    1.1224537 
Loop time of 4.80749e-05 on 1 procs for 1 steps with 41 atoms

Minimization stats:
  Stopping criterion = linesearch alpha is zero
  Energy initial, next-to-last, final = 
        -120.763593837     -120.763593837     -120.763593837
  Force two-norm initial, final = 5.40833e-17 5.40833e-17
  Force max component initial, final = 5.20417e-17 5.20417e-17
  Final line search alpha, max atom move = 0.5 2.60209e-17
  Iterations, force evaluations = 1 2

Pair  time (%) = 3.39645e-05 (70.6492)
Neigh time (%) = 0 (0)
Comm  time (%) = 4.17314e-06 (8.6805)
Outpt time (%) = 0 (0)
Other time (%) = 9.93721e-06 (20.6703)

Nlocal:    41 ave 41 max 41 min
Histogram: 1 0 0 0 0 0 0 0 0 0
Nghost:    185 ave 185 max 185 min
Histogram: 1 0 0 0 0 0 0 0 0 0
Neighs:    359 ave 359 max 359 min
Histogram: 1 0 0 0 0 0 0 0 0 0

Total # of neighbors = 359
Ave neighs/atom = 8.7561
Neighbor list builds = 0
Dangerous builds = 0
	# write_dump all atom ${dumpfile}
        next i
jump SELF loop1
        displace_atoms upper move 0.0 ${ystep1} 0.0 units lattice
        displace_atoms upper move 0.0 0.002 0.0 units lattice
        min_style ${style}
        min_style cg
        minimize ${etol} ${ftol} ${maxiter} ${maxeval}
        minimize 1e-12 ${ftol} ${maxiter} ${maxeval}
        minimize 1e-12 1e-08 ${maxiter} ${maxeval}
        minimize 1e-12 1e-08 10000 ${maxeval}
        minimize 1e-12 1e-08 10000 20000
WARNING: Resetting reneighboring criteria during minimization (../min.cpp:168)
Memory usage per processor = 3.35941 Mbytes
Step Temp PotEng Lx Ly Lz 
      36            0   -120.75279    1.1224537    39.030693    1.1224537 
      37            0   -120.75279    1.1224537    39.030693    1.1224537 
Loop time of 4.80345e-05 on 1 procs for 1 steps with 41 atoms

Minimization stats:
  Stopping criterion = linesearch alpha is zero
  Energy initial, next-to-last, final = 
        -120.752788204     -120.752788204     -120.752788204
  Force two-norm initial, final = 6.23536e-17 6.23536e-17
  Force max component initial, final = 5.20417e-17 5.20417e-17
  Final line search alpha, max atom move = 0.5 2.60209e-17
  Iterations, force evaluations = 1 2

Pair  time (%) = 3.40354e-05 (70.8562)
Neigh time (%) = 0 (0)
Comm  time (%) = 1.83808e-06 (3.82659)
Outpt time (%) = 0 (0)
Other time (%) = 1.2161e-05 (25.3172)

Nlocal:    41 ave 41 max 41 min
Histogram: 1 0 0 0 0 0 0 0 0 0
Nghost:    185 ave 185 max 185 min
Histogram: 1 0 0 0 0 0 0 0 0 0
Neighs:    359 ave 359 max 359 min
Histogram: 1 0 0 0 0 0 0 0 0 0

Total # of neighbors = 359
Ave neighs/atom = 8.7561
Neighbor list builds = 0
Dangerous builds = 0
	# write_dump all atom ${dumpfile}
        next i
jump SELF loop1
        displace_atoms upper move 0.0 ${ystep1} 0.0 units lattice
        displace_atoms upper move 0.0 0.002 0.0 units lattice
        min_style ${style}
        min_style cg
        minimize ${etol} ${ftol} ${maxiter} ${maxeval}
        minimize 1e-12 ${ftol} ${maxiter} ${maxeval}
        minimize 1e-12 1e-08 ${maxiter} ${maxeval}
        minimize 1e-12 1e-08 10000 ${maxeval}
        minimize 1e-12 1e-08 10000 20000
WARNING: Resetting reneighboring criteria during minimization (../min.cpp:168)
Memory usage per processor = 3.35941 Mbytes
Step Temp PotEng Lx Ly Lz 
      37            0   -120.74192    1.1224537    39.034581    1.1224537 
      38            0   -120.74192    1.1224537    39.034581    1.1224537 
Loop time of 4.40675e-05 on 1 procs for 1 steps with 41 atoms

Minimization stats:
  Stopping criterion = linesearch alpha is zero
  Energy initial, next-to-last, final = 
        -120.741922939     -120.741922939     -120.741922939
  Force two-norm initial, final = 6.45354e-17 6.45354e-17
  Force max component initial, final = 5.20417e-17 5.20417e-17
  Final line search alpha, max atom move = 0.5 2.60209e-17
  Iterations, force evaluations = 1 2

Pair  time (%) = 3.38962e-05 (76.9188)
Neigh time (%) = 0 (0)
Comm  time (%) = 2.03645e-06 (4.62121)
Outpt time (%) = 0 (0)
Other time (%) = 8.13487e-06 (18.46)

Nlocal:    41 ave 41 max 41 min
Histogram: 1 0 0 0 0 0 0 0 0 0
Nghost:    185 ave 185 max 185 min
Histogram: 1 0 0 0 0 0 0 0 0 0
Neighs:    359 ave 359 max 359 min
Histogram: 1 0 0 0 0 0 0 0 0 0

Total # of neighbors = 359
Ave neighs/atom = 8.7561
Neighbor list builds = 0
Dangerous builds = 0
	# write_dump all atom ${dumpfile}
        next i
jump SELF loop1
        displace_atoms upper move 0.0 ${ystep1} 0.0 units lattice
        displace_atoms upper move 0.0 0.002 0.0 units lattice
        min_style ${style}
        min_style cg
        minimize ${etol} ${ftol} ${maxiter} ${maxeval}
        minimize 1e-12 ${ftol} ${maxiter} ${maxeval}
        minimize 1e-12 1e-08 ${maxiter} ${maxeval}
        minimize 1e-12 1e-08 10000 ${maxeval}
        minimize 1e-12 1e-08 10000 20000
WARNING: Resetting reneighboring criteria during minimization (../min.cpp:168)
Memory usage per processor = 3.35941 Mbytes
Step Temp PotEng Lx Ly Lz 
      38            0     -120.731    1.1224537     39.03847    1.1224537 
      39            0     -120.731    1.1224537     39.03847    1.1224537 
Loop time of 4.79596e-05 on 1 procs for 1 steps with 41 atoms

Minimization stats:
  Stopping criterion = linesearch alpha is zero
  Energy initial, next-to-last, final = 
        -120.730996362     -120.730996362     -120.730996362
  Force two-norm initial, final = 5.66912e-17 5.66912e-17
  Force max component initial, final = 5.20417e-17 5.20417e-17
  Final line search alpha, max atom move = 0.5 2.60209e-17
  Iterations, force evaluations = 1 2

Pair  time (%) = 3.38572e-05 (70.5952)
Neigh time (%) = 0 (0)
Comm  time (%) = 4.19689e-06 (8.75088)
Outpt time (%) = 0 (0)
Other time (%) = 9.90555e-06 (20.6539)

Nlocal:    41 ave 41 max 41 min
Histogram: 1 0 0 0 0 0 0 0 0 0
Nghost:    185 ave 185 max 185 min
Histogram: 1 0 0 0 0 0 0 0 0 0
Neighs:    359 ave 359 max 359 min
Histogram: 1 0 0 0 0 0 0 0 0 0

Total # of neighbors = 359
Ave neighs/atom = 8.7561
Neighbor list builds = 0
Dangerous builds = 0
	# write_dump all atom ${dumpfile}
        next i
jump SELF loop1
        displace_atoms upper move 0.0 ${ystep1} 0.0 units lattice
        displace_atoms upper move 0.0 0.002 0.0 units lattice
        min_style ${style}
        min_style cg
        minimize ${etol} ${ftol} ${maxiter} ${maxeval}
        minimize 1e-12 ${ftol} ${maxiter} ${maxeval}
        minimize 1e-12 1e-08 ${maxiter} ${maxeval}
        minimize 1e-12 1e-08 10000 ${maxeval}
        minimize 1e-12 1e-08 10000 20000
WARNING: Resetting reneighboring criteria during minimization (../min.cpp:168)
Memory usage per processor = 3.35941 Mbytes
Step Temp PotEng Lx Ly Lz 
      39            0   -120.72001    1.1224537    39.042358    1.1224537 
      40            0   -120.72001    1.1224537    39.042358    1.1224537 
Loop time of 7.70139e-05 on 1 procs for 1 steps with 41 atoms

Minimization stats:
  Stopping criterion = linesearch alpha is zero
  Energy initial, next-to-last, final = 
        -120.720011296     -120.720011296     -120.720011296
  Force two-norm initial, final = 6.61018e-17 6.61018e-17
  Force max component initial, final = 5.20417e-17 5.20417e-17
  Final line search alpha, max atom move = 0.5 2.60209e-17
  Iterations, force evaluations = 1 2

Pair  time (%) = 3.49669e-05 (45.4033)
Neigh time (%) = 0 (0)
Comm  time (%) = 3.74729e-06 (4.86574)
Outpt time (%) = 0 (0)
Other time (%) = 3.82997e-05 (49.7309)

Nlocal:    41 ave 41 max 41 min
Histogram: 1 0 0 0 0 0 0 0 0 0
Nghost:    185 ave 185 max 185 min
Histogram: 1 0 0 0 0 0 0 0 0 0
Neighs:    359 ave 359 max 359 min
Histogram: 1 0 0 0 0 0 0 0 0 0

Total # of neighbors = 359
Ave neighs/atom = 8.7561
Neighbor list builds = 0
Dangerous builds = 0
	# write_dump all atom ${dumpfile}
        next i
jump SELF loop1
        displace_atoms upper move 0.0 ${ystep1} 0.0 units lattice
        displace_atoms upper move 0.0 0.002 0.0 units lattice
        min_style ${style}
        min_style cg
        minimize ${etol} ${ftol} ${maxiter} ${maxeval}
        minimize 1e-12 ${ftol} ${maxiter} ${maxeval}
        minimize 1e-12 1e-08 ${maxiter} ${maxeval}
        minimize 1e-12 1e-08 10000 ${maxeval}
        minimize 1e-12 1e-08 10000 20000
WARNING: Resetting reneighboring criteria during minimization (../min.cpp:168)
Memory usage per processor = 3.35941 Mbytes
Step Temp PotEng Lx Ly Lz 
      40            0   -120.70897    1.1224537    39.046246    1.1224537 
      41            0   -120.70897    1.1224537    39.046246    1.1224537 
Loop time of 4.89223e-05 on 1 procs for 1 steps with 41 atoms

Minimization stats:
  Stopping criterion = linesearch alpha is zero
  Energy initial, next-to-last, final = 
        -120.708968065     -120.708968065     -120.708968065
  Force two-norm initial, final = 6.85161e-17 6.85161e-17
  Force max component initial, final = 5.20417e-17 5.20417e-17
  Final line search alpha, max atom move = 0.5 2.60209e-17
  Iterations, force evaluations = 1 2

Pair  time (%) = 3.30764e-05 (67.6101)
Neigh time (%) = 0 (0)
Comm  time (%) = 2.87348e-06 (5.87356)
Outpt time (%) = 0 (0)
Other time (%) = 1.29724e-05 (26.5163)

Nlocal:    41 ave 41 max 41 min
Histogram: 1 0 0 0 0 0 0 0 0 0
Nghost:    185 ave 185 max 185 min
Histogram: 1 0 0 0 0 0 0 0 0 0
Neighs:    359 ave 359 max 359 min
Histogram: 1 0 0 0 0 0 0 0 0 0

Total # of neighbors = 359
Ave neighs/atom = 8.7561
Neighbor list builds = 0
Dangerous builds = 0
	# write_dump all atom ${dumpfile}
        next i
jump SELF loop1
        displace_atoms upper move 0.0 ${ystep1} 0.0 units lattice
        displace_atoms upper move 0.0 0.002 0.0 units lattice
        min_style ${style}
        min_style cg
        minimize ${etol} ${ftol} ${maxiter} ${maxeval}
        minimize 1e-12 ${ftol} ${maxiter} ${maxeval}
        minimize 1e-12 1e-08 ${maxiter} ${maxeval}
        minimize 1e-12 1e-08 10000 ${maxeval}
        minimize 1e-12 1e-08 10000 20000
WARNING: Resetting reneighboring criteria during minimization (../min.cpp:168)
Memory usage per processor = 3.35941 Mbytes
Step Temp PotEng Lx Ly Lz 
      41            0   -120.69787    1.1224537    39.050135    1.1224537 
      42            0   -120.69787    1.1224537    39.050135    1.1224537 
Loop time of 4.90289e-05 on 1 procs for 1 steps with 41 atoms

Minimization stats:
  Stopping criterion = linesearch alpha is zero
  Energy initial, next-to-last, final = 
        -120.697867542     -120.697867542     -120.697867542
  Force two-norm initial, final = 6.61018e-17 6.61018e-17
  Force max component initial, final = 5.20417e-17 5.20417e-17
  Final line search alpha, max atom move = 0.5 2.60209e-17
  Iterations, force evaluations = 1 2

Pair  time (%) = 3.31113e-05 (67.5343)
Neigh time (%) = 0 (0)
Comm  time (%) = 3.94357e-06 (8.04336)
Outpt time (%) = 0 (0)
Other time (%) = 1.1974e-05 (24.4224)

Nlocal:    41 ave 41 max 41 min
Histogram: 1 0 0 0 0 0 0 0 0 0
Nghost:    185 ave 185 max 185 min
Histogram: 1 0 0 0 0 0 0 0 0 0
Neighs:    359 ave 359 max 359 min
Histogram: 1 0 0 0 0 0 0 0 0 0

Total # of neighbors = 359
Ave neighs/atom = 8.7561
Neighbor list builds = 0
Dangerous builds = 0
	# write_dump all atom ${dumpfile}
        next i
jump SELF loop1
        displace_atoms upper move 0.0 ${ystep1} 0.0 units lattice
        displace_atoms upper move 0.0 0.002 0.0 units lattice
        min_style ${style}
        min_style cg
        minimize ${etol} ${ftol} ${maxiter} ${maxeval}
        minimize 1e-12 ${ftol} ${maxiter} ${maxeval}
        minimize 1e-12 1e-08 ${maxiter} ${maxeval}
        minimize 1e-12 1e-08 10000 ${maxeval}
        minimize 1e-12 1e-08 10000 20000
WARNING: Resetting reneighboring criteria during minimization (../min.cpp:168)
Memory usage per processor = 3.35941 Mbytes
Step Temp PotEng Lx Ly Lz 
      42            0   -120.68671    1.1224537    39.054023    1.1224537 
      43            0   -120.68671    1.1224537    39.054023    1.1224537 
Loop time of 4.80891e-05 on 1 procs for 1 steps with 41 atoms

Minimization stats:
  Stopping criterion = linesearch alpha is zero
  Energy initial, next-to-last, final = 
        -120.686711958     -120.686711958     -120.686711958
  Force two-norm initial, final = 5.71143e-17 5.71143e-17
  Force max component initial, final = 5.20417e-17 5.20417e-17
  Final line search alpha, max atom move = 0.5 2.60209e-17
  Iterations, force evaluations = 1 2

Pair  time (%) = 3.29608e-05 (68.5411)
Neigh time (%) = 0 (0)
Comm  time (%) = 2.88093e-06 (5.99082)
Outpt time (%) = 0 (0)
Other time (%) = 1.22474e-05 (25.4681)

Nlocal:    41 ave 41 max 41 min
Histogram: 1 0 0 0 0 0 0 0 0 0
Nghost:    185 ave 185 max 185 min
Histogram: 1 0 0 0 0 0 0 0 0 0
Neighs:    359 ave 359 max 359 min
Histogram: 1 0 0 0 0 0 0 0 0 0

Total # of neighbors = 359
Ave neighs/atom = 8.7561
Neighbor list builds = 0
Dangerous builds = 0
	# write_dump all atom ${dumpfile}
        next i
jump SELF loop1
        displace_atoms upper move 0.0 ${ystep1} 0.0 units lattice
        displace_atoms upper move 0.0 0.002 0.0 units lattice
        min_style ${style}
        min_style cg
        minimize ${etol} ${ftol} ${maxiter} ${maxeval}
        minimize 1e-12 ${ftol} ${maxiter} ${maxeval}
        minimize 1e-12 1e-08 ${maxiter} ${maxeval}
        minimize 1e-12 1e-08 10000 ${maxeval}
        minimize 1e-12 1e-08 10000 20000
WARNING: Resetting reneighboring criteria during minimization (../min.cpp:168)
Memory usage per processor = 3.35941 Mbytes
Step Temp PotEng Lx Ly Lz 
      43            0    -120.6755    1.1224537    39.057911    1.1224537 
      44            0    -120.6755    1.1224537    39.057911    1.1224537 
Loop time of 4.78849e-05 on 1 procs for 1 steps with 41 atoms

Minimization stats:
  Stopping criterion = linesearch alpha is zero
  Energy initial, next-to-last, final = 
        -120.675500382     -120.675500382     -120.675500382
  Force two-norm initial, final = 7.74239e-17 7.74239e-17
  Force max component initial, final = 5.55112e-17 5.55112e-17
  Final line search alpha, max atom move = 0.5 2.77556e-17
  Iterations, force evaluations = 1 2

Pair  time (%) = 3.50637e-05 (73.225)
Neigh time (%) = 0 (0)
Comm  time (%) = 3.94078e-06 (8.22969)
Outpt time (%) = 0 (0)
Other time (%) = 8.88039e-06 (18.5453)

Nlocal:    41 ave 41 max 41 min
Histogram: 1 0 0 0 0 0 0 0 0 0
Nghost:    185 ave 185 max 185 min
Histogram: 1 0 0 0 0 0 0 0 0 0
Neighs:    359 ave 359 max 359 min
Histogram: 1 0 0 0 0 0 0 0 0 0

Total # of neighbors = 359
Ave neighs/atom = 8.7561
Neighbor list builds = 0
Dangerous builds = 0
	# write_dump all atom ${dumpfile}
        next i
jump SELF loop1
        displace_atoms upper move 0.0 ${ystep1} 0.0 units lattice
        displace_atoms upper move 0.0 0.002 0.0 units lattice
        min_style ${style}
        min_style cg
        minimize ${etol} ${ftol} ${maxiter} ${maxeval}
        minimize 1e-12 ${ftol} ${maxiter} ${maxeval}
        minimize 1e-12 1e-08 ${maxiter} ${maxeval}
        minimize 1e-12 1e-08 10000 ${maxeval}
        minimize 1e-12 1e-08 10000 20000
WARNING: Resetting reneighboring criteria during minimization (../min.cpp:168)
Memory usage per processor = 3.35941 Mbytes
Step Temp PotEng Lx Ly Lz 
      44            0   -120.66424    1.1224537    39.061799    1.1224537 
      45            0   -120.66424    1.1224537    39.061799    1.1224537 
Loop time of 4.80977e-05 on 1 procs for 1 steps with 41 atoms

Minimization stats:
  Stopping criterion = linesearch alpha is zero
  Energy initial, next-to-last, final = 
        -120.664236197     -120.664236197     -120.664236197
  Force two-norm initial, final = 5.40833e-17 5.40833e-17
  Force max component initial, final = 5.20417e-17 5.20417e-17
  Final line search alpha, max atom move = 0.5 2.60209e-17
  Iterations, force evaluations = 1 2

Pair  time (%) = 3.38941e-05 (70.4693)
Neigh time (%) = 0 (0)
Comm  time (%) = 5.0785e-06 (10.5587)
Outpt time (%) = 0 (0)
Other time (%) = 9.1251e-06 (18.972)

Nlocal:    41 ave 41 max 41 min
Histogram: 1 0 0 0 0 0 0 0 0 0
Nghost:    185 ave 185 max 185 min
Histogram: 1 0 0 0 0 0 0 0 0 0
Neighs:    359 ave 359 max 359 min
Histogram: 1 0 0 0 0 0 0 0 0 0

Total # of neighbors = 359
Ave neighs/atom = 8.7561
Neighbor list builds = 0
Dangerous builds = 0
	# write_dump all atom ${dumpfile}
        next i
jump SELF loop1
        displace_atoms upper move 0.0 ${ystep1} 0.0 units lattice
        displace_atoms upper move 0.0 0.002 0.0 units lattice
        min_style ${style}
        min_style cg
        minimize ${etol} ${ftol} ${maxiter} ${maxeval}
        minimize 1e-12 ${ftol} ${maxiter} ${maxeval}
        minimize 1e-12 1e-08 ${maxiter} ${maxeval}
        minimize 1e-12 1e-08 10000 ${maxeval}
[...]
        min_style ${style}
        min_style cg
        minimize ${etol} ${ftol} ${maxiter} ${maxeval}
        minimize 1e-12 ${ftol} ${maxiter} ${maxeval}
        minimize 1e-12 1e-08 ${maxiter} ${maxeval}
        minimize 1e-12 1e-08 10000 ${maxeval}
        minimize 1e-12 1e-08 10000 20000
WARNING: Resetting reneighboring criteria during minimization (../min.cpp:168)
Memory usage per processor = 3.35948 Mbytes
Step Temp PotEng Lx Ly Lz 
     490            0   -118.99775    1.1224537    40.795979    1.1224537 
     491            0   -118.99775    1.1224537    40.795979    1.1224537 
Loop time of 5.90035e-05 on 1 procs for 1 steps with 41 atoms

Minimization stats:
  Stopping criterion = linesearch alpha is zero
  Energy initial, next-to-last, final = 
        -118.997752357     -118.997752357     -118.997752357
  Force two-norm initial, final = 1.47196e-17 1.47196e-17
  Force max component initial, final = 3.46945e-18 3.46945e-18
  Final line search alpha, max atom move = 0.5 1.73472e-18
  Iterations, force evaluations = 1 2

Pair  time (%) = 3.28225e-05 (55.6281)
Neigh time (%) = 0 (0)
Comm  time (%) = 1.21411e-05 (20.5769)
Outpt time (%) = 0 (0)
Other time (%) = 1.40399e-05 (23.7951)

Nlocal:    41 ave 41 max 41 min
Histogram: 1 0 0 0 0 0 0 0 0 0
Nghost:    185 ave 185 max 185 min
Histogram: 1 0 0 0 0 0 0 0 0 0
Neighs:    349 ave 349 max 349 min
Histogram: 1 0 0 0 0 0 0 0 0 0

Total # of neighbors = 349
Ave neighs/atom = 8.5122
Neighbor list builds = 0
Dangerous builds = 0
	# write_dump all atom ${dumpfile}
        next i
jump SELF loop1
        displace_atoms upper move 0.0 ${ystep1} 0.0 units lattice
        displace_atoms upper move 0.0 0.002 0.0 units lattice
        min_style ${style}
        min_style cg
        minimize ${etol} ${ftol} ${maxiter} ${maxeval}
        minimize 1e-12 ${ftol} ${maxiter} ${maxeval}
        minimize 1e-12 1e-08 ${maxiter} ${maxeval}
        minimize 1e-12 1e-08 10000 ${maxeval}
        minimize 1e-12 1e-08 10000 20000
WARNING: Resetting reneighboring criteria during minimization (../min.cpp:168)
Memory usage per processor = 3.35948 Mbytes
Step Temp PotEng Lx Ly Lz 
     491            0   -118.99775    1.1224537    40.799867    1.1224537 
     492            0   -118.99775    1.1224537    40.799867    1.1224537 
Loop time of 4.80433e-05 on 1 procs for 1 steps with 41 atoms

Minimization stats:
  Stopping criterion = linesearch alpha is zero
  Energy initial, next-to-last, final = 
        -118.997752357     -118.997752357     -118.997752357
  Force two-norm initial, final = 1.47196e-17 1.47196e-17
  Force max component initial, final = 3.46945e-18 3.46945e-18
  Final line search alpha, max atom move = 0.5 1.73472e-18
  Iterations, force evaluations = 1 2

Pair  time (%) = 3.31083e-05 (68.9134)
Neigh time (%) = 0 (0)
Comm  time (%) = 1.9375e-06 (4.03282)
Outpt time (%) = 0 (0)
Other time (%) = 1.29975e-05 (27.0538)

Nlocal:    41 ave 41 max 41 min
Histogram: 1 0 0 0 0 0 0 0 0 0
Nghost:    185 ave 185 max 185 min
Histogram: 1 0 0 0 0 0 0 0 0 0
Neighs:    349 ave 349 max 349 min
Histogram: 1 0 0 0 0 0 0 0 0 0

Total # of neighbors = 349
Ave neighs/atom = 8.5122
Neighbor list builds = 0
Dangerous builds = 0
	# write_dump all atom ${dumpfile}
        next i
jump SELF loop1
        displace_atoms upper move 0.0 ${ystep1} 0.0 units lattice
        displace_atoms upper move 0.0 0.002 0.0 units lattice
        min_style ${style}
        min_style cg
        minimize ${etol} ${ftol} ${maxiter} ${maxeval}
        minimize 1e-12 ${ftol} ${maxiter} ${maxeval}
        minimize 1e-12 1e-08 ${maxiter} ${maxeval}
        minimize 1e-12 1e-08 10000 ${maxeval}
        minimize 1e-12 1e-08 10000 20000
WARNING: Resetting reneighboring criteria during minimization (../min.cpp:168)
Memory usage per processor = 3.35948 Mbytes
Step Temp PotEng Lx Ly Lz 
     492            0   -118.99775    1.1224537    40.803755    1.1224537 
     493            0   -118.99775    1.1224537    40.803755    1.1224537 
Loop time of 4.80879e-05 on 1 procs for 1 steps with 41 atoms

Minimization stats:
  Stopping criterion = linesearch alpha is zero
  Energy initial, next-to-last, final = 
        -118.997752357     -118.997752357     -118.997752357
  Force two-norm initial, final = 1.47196e-17 1.47196e-17
  Force max component initial, final = 3.46945e-18 3.46945e-18
  Final line search alpha, max atom move = 0.5 1.73472e-18
  Iterations, force evaluations = 1 2

Pair  time (%) = 3.1004e-05 (64.4735)
Neigh time (%) = 0 (0)
Comm  time (%) = 3.11283e-06 (6.47321)
Outpt time (%) = 0 (0)
Other time (%) = 1.39711e-05 (29.0533)

Nlocal:    41 ave 41 max 41 min
Histogram: 1 0 0 0 0 0 0 0 0 0
Nghost:    185 ave 185 max 185 min
Histogram: 1 0 0 0 0 0 0 0 0 0
Neighs:    349 ave 349 max 349 min
Histogram: 1 0 0 0 0 0 0 0 0 0

Total # of neighbors = 349
Ave neighs/atom = 8.5122
Neighbor list builds = 0
Dangerous builds = 0
	# write_dump all atom ${dumpfile}
        next i
jump SELF loop1
        displace_atoms upper move 0.0 ${ystep1} 0.0 units lattice
        displace_atoms upper move 0.0 0.002 0.0 units lattice
        min_style ${style}
        min_style cg
        minimize ${etol} ${ftol} ${maxiter} ${maxeval}
        minimize 1e-12 ${ftol} ${maxiter} ${maxeval}
        minimize 1e-12 1e-08 ${maxiter} ${maxeval}
        minimize 1e-12 1e-08 10000 ${maxeval}
        minimize 1e-12 1e-08 10000 20000
WARNING: Resetting reneighboring criteria during minimization (../min.cpp:168)
Memory usage per processor = 3.35948 Mbytes
Step Temp PotEng Lx Ly Lz 
     493            0   -118.99775    1.1224537    40.807643    1.1224537 
     494            0   -118.99775    1.1224537    40.807643    1.1224537 
Loop time of 4.70951e-05 on 1 procs for 1 steps with 41 atoms

Minimization stats:
  Stopping criterion = linesearch alpha is zero
  Energy initial, next-to-last, final = 
        -118.997752357     -118.997752357     -118.997752357
  Force two-norm initial, final = 1.47196e-17 1.47196e-17
  Force max component initial, final = 3.46945e-18 3.46945e-18
  Final line search alpha, max atom move = 0.5 1.73472e-18
  Iterations, force evaluations = 1 2

Pair  time (%) = 3.38863e-05 (71.9529)
Neigh time (%) = 0 (0)
Comm  time (%) = 5.01657e-06 (10.652)
Outpt time (%) = 0 (0)
Other time (%) = 8.19226e-06 (17.3951)

Nlocal:    41 ave 41 max 41 min
Histogram: 1 0 0 0 0 0 0 0 0 0
Nghost:    185 ave 185 max 185 min
Histogram: 1 0 0 0 0 0 0 0 0 0
Neighs:    349 ave 349 max 349 min
Histogram: 1 0 0 0 0 0 0 0 0 0

Total # of neighbors = 349
Ave neighs/atom = 8.5122
Neighbor list builds = 0
Dangerous builds = 0
	# write_dump all atom ${dumpfile}
        next i
jump SELF loop1
        displace_atoms upper move 0.0 ${ystep1} 0.0 units lattice
        displace_atoms upper move 0.0 0.002 0.0 units lattice
        min_style ${style}
        min_style cg
        minimize ${etol} ${ftol} ${maxiter} ${maxeval}
        minimize 1e-12 ${ftol} ${maxiter} ${maxeval}
        minimize 1e-12 1e-08 ${maxiter} ${maxeval}
        minimize 1e-12 1e-08 10000 ${maxeval}
        minimize 1e-12 1e-08 10000 20000
WARNING: Resetting reneighboring criteria during minimization (../min.cpp:168)
Memory usage per processor = 3.35948 Mbytes
Step Temp PotEng Lx Ly Lz 
     494            0   -118.99775    1.1224537    40.811532    1.1224537 
     495            0   -118.99775    1.1224537    40.811532    1.1224537 
Loop time of 4.79304e-05 on 1 procs for 1 steps with 41 atoms

Minimization stats:
  Stopping criterion = linesearch alpha is zero
  Energy initial, next-to-last, final = 
        -118.997752357     -118.997752357     -118.997752357
  Force two-norm initial, final = 1.47196e-17 1.47196e-17
  Force max component initial, final = 3.46945e-18 3.46945e-18
  Final line search alpha, max atom move = 0.5 1.73472e-18
  Iterations, force evaluations = 1 2

Pair  time (%) = 3.30083e-05 (68.8671)
Neigh time (%) = 0 (0)
Comm  time (%) = 1.97568e-06 (4.12199)
Outpt time (%) = 0 (0)
Other time (%) = 1.29464e-05 (27.0109)

Nlocal:    41 ave 41 max 41 min
Histogram: 1 0 0 0 0 0 0 0 0 0
Nghost:    185 ave 185 max 185 min
Histogram: 1 0 0 0 0 0 0 0 0 0
Neighs:    349 ave 349 max 349 min
Histogram: 1 0 0 0 0 0 0 0 0 0

Total # of neighbors = 349
Ave neighs/atom = 8.5122
Neighbor list builds = 0
Dangerous builds = 0
	# write_dump all atom ${dumpfile}
        next i
jump SELF loop1
        displace_atoms upper move 0.0 ${ystep1} 0.0 units lattice
        displace_atoms upper move 0.0 0.002 0.0 units lattice
        min_style ${style}
        min_style cg
        minimize ${etol} ${ftol} ${maxiter} ${maxeval}
        minimize 1e-12 ${ftol} ${maxiter} ${maxeval}
        minimize 1e-12 1e-08 ${maxiter} ${maxeval}
        minimize 1e-12 1e-08 10000 ${maxeval}
        minimize 1e-12 1e-08 10000 20000
WARNING: Resetting reneighboring criteria during minimization (../min.cpp:168)
Memory usage per processor = 3.35948 Mbytes
Step Temp PotEng Lx Ly Lz 
     495            0   -118.99775    1.1224537     40.81542    1.1224537 
     496            0   -118.99775    1.1224537     40.81542    1.1224537 
Loop time of 1.69117e-05 on 1 procs for 1 steps with 41 atoms

Minimization stats:
  Stopping criterion = linesearch alpha is zero
  Energy initial, next-to-last, final = 
        -118.997752357     -118.997752357     -118.997752357
  Force two-norm initial, final = 1.47196e-17 1.47196e-17
  Force max component initial, final = 3.46945e-18 3.46945e-18
  Final line search alpha, max atom move = 0.5 1.73472e-18
  Iterations, force evaluations = 1 2

Pair  time (%) = 1.10185e-05 (65.1532)
Neigh time (%) = 0 (0)
Comm  time (%) = 2.93076e-06 (17.3298)
Outpt time (%) = 0 (0)
Other time (%) = 2.96242e-06 (17.517)

Nlocal:    41 ave 41 max 41 min
Histogram: 1 0 0 0 0 0 0 0 0 0
Nghost:    185 ave 185 max 185 min
Histogram: 1 0 0 0 0 0 0 0 0 0
Neighs:    349 ave 349 max 349 min
Histogram: 1 0 0 0 0 0 0 0 0 0

Total # of neighbors = 349
Ave neighs/atom = 8.5122
Neighbor list builds = 0
Dangerous builds = 0
	# write_dump all atom ${dumpfile}
        next i
jump SELF loop1
        displace_atoms upper move 0.0 ${ystep1} 0.0 units lattice
        displace_atoms upper move 0.0 0.002 0.0 units lattice
        min_style ${style}
        min_style cg
        minimize ${etol} ${ftol} ${maxiter} ${maxeval}
        minimize 1e-12 ${ftol} ${maxiter} ${maxeval}
        minimize 1e-12 1e-08 ${maxiter} ${maxeval}
        minimize 1e-12 1e-08 10000 ${maxeval}
        minimize 1e-12 1e-08 10000 20000
WARNING: Resetting reneighboring criteria during minimization (../min.cpp:168)
Memory usage per processor = 3.35948 Mbytes
Step Temp PotEng Lx Ly Lz 
     496            0   -118.99775    1.1224537    40.819308    1.1224537 
     497            0   -118.99775    1.1224537    40.819308    1.1224537 
Loop time of 4.6973e-05 on 1 procs for 1 steps with 41 atoms

Minimization stats:
  Stopping criterion = linesearch alpha is zero
  Energy initial, next-to-last, final = 
        -118.997752357     -118.997752357     -118.997752357
  Force two-norm initial, final = 1.47196e-17 1.47196e-17
  Force max component initial, final = 3.46945e-18 3.46945e-18
  Final line search alpha, max atom move = 0.5 1.73472e-18
  Iterations, force evaluations = 1 2

Pair  time (%) = 3.30433e-05 (70.3454)
Neigh time (%) = 0 (0)
Comm  time (%) = 5.04579e-06 (10.7419)
Outpt time (%) = 0 (0)
Other time (%) = 8.88389e-06 (18.9127)

Nlocal:    41 ave 41 max 41 min
Histogram: 1 0 0 0 0 0 0 0 0 0
Nghost:    185 ave 185 max 185 min
Histogram: 1 0 0 0 0 0 0 0 0 0
Neighs:    349 ave 349 max 349 min
Histogram: 1 0 0 0 0 0 0 0 0 0

Total # of neighbors = 349
Ave neighs/atom = 8.5122
Neighbor list builds = 0
Dangerous builds = 0
	# write_dump all atom ${dumpfile}
        next i
jump SELF loop1
        displace_atoms upper move 0.0 ${ystep1} 0.0 units lattice
        displace_atoms upper move 0.0 0.002 0.0 units lattice
        min_style ${style}
        min_style cg
        minimize ${etol} ${ftol} ${maxiter} ${maxeval}
        minimize 1e-12 ${ftol} ${maxiter} ${maxeval}
        minimize 1e-12 1e-08 ${maxiter} ${maxeval}
        minimize 1e-12 1e-08 10000 ${maxeval}
        minimize 1e-12 1e-08 10000 20000
WARNING: Resetting reneighboring criteria during minimization (../min.cpp:168)
Memory usage per processor = 3.35948 Mbytes
Step Temp PotEng Lx Ly Lz 
     497            0   -118.99775    1.1224537    40.823197    1.1224537 
     498            0   -118.99775    1.1224537    40.823197    1.1224537 
Loop time of 4.9974e-05 on 1 procs for 1 steps with 41 atoms

Minimization stats:
  Stopping criterion = linesearch alpha is zero
  Energy initial, next-to-last, final = 
        -118.997752357     -118.997752357     -118.997752357
  Force two-norm initial, final = 1.47196e-17 1.47196e-17
  Force max component initial, final = 3.46945e-18 3.46945e-18
  Final line search alpha, max atom move = 0.5 1.73472e-18
  Iterations, force evaluations = 1 2

Pair  time (%) = 3.30393e-05 (66.1129)
Neigh time (%) = 0 (0)
Comm  time (%) = 4.99142e-06 (9.98805)
Outpt time (%) = 0 (0)
Other time (%) = 1.19433e-05 (23.899)

Nlocal:    41 ave 41 max 41 min
Histogram: 1 0 0 0 0 0 0 0 0 0
Nghost:    185 ave 185 max 185 min
Histogram: 1 0 0 0 0 0 0 0 0 0
Neighs:    349 ave 349 max 349 min
Histogram: 1 0 0 0 0 0 0 0 0 0

Total # of neighbors = 349
Ave neighs/atom = 8.5122
Neighbor list builds = 0
Dangerous builds = 0
	# write_dump all atom ${dumpfile}
        next i
jump SELF loop1
        displace_atoms upper move 0.0 ${ystep1} 0.0 units lattice
        displace_atoms upper move 0.0 0.002 0.0 units lattice
        min_style ${style}
        min_style cg
        minimize ${etol} ${ftol} ${maxiter} ${maxeval}
        minimize 1e-12 ${ftol} ${maxiter} ${maxeval}
        minimize 1e-12 1e-08 ${maxiter} ${maxeval}
        minimize 1e-12 1e-08 10000 ${maxeval}
        minimize 1e-12 1e-08 10000 20000
WARNING: Resetting reneighboring criteria during minimization (../min.cpp:168)
Memory usage per processor = 3.35948 Mbytes
Step Temp PotEng Lx Ly Lz 
     498            0   -118.99775    1.1224537    40.827085    1.1224537 
     499            0   -118.99775    1.1224537    40.827085    1.1224537 
Loop time of 4.8089e-05 on 1 procs for 1 steps with 41 atoms

Minimization stats:
  Stopping criterion = linesearch alpha is zero
  Energy initial, next-to-last, final = 
        -118.997752357     -118.997752357     -118.997752357
  Force two-norm initial, final = 1.47196e-17 1.47196e-17
  Force max component initial, final = 3.46945e-18 3.46945e-18
  Final line search alpha, max atom move = 0.5 1.73472e-18
  Iterations, force evaluations = 1 2

Pair  time (%) = 3.30068e-05 (68.6369)
Neigh time (%) = 0 (0)
Comm  time (%) = 1.97289e-06 (4.10259)
Outpt time (%) = 0 (0)
Other time (%) = 1.31093e-05 (27.2605)

Nlocal:    41 ave 41 max 41 min
Histogram: 1 0 0 0 0 0 0 0 0 0
Nghost:    185 ave 185 max 185 min
Histogram: 1 0 0 0 0 0 0 0 0 0
Neighs:    349 ave 349 max 349 min
Histogram: 1 0 0 0 0 0 0 0 0 0

Total # of neighbors = 349
Ave neighs/atom = 8.5122
Neighbor list builds = 0
Dangerous builds = 0
	# write_dump all atom ${dumpfile}
        next i
jump SELF loop1
        displace_atoms upper move 0.0 ${ystep1} 0.0 units lattice
        displace_atoms upper move 0.0 0.002 0.0 units lattice
        min_style ${style}
        min_style cg
        minimize ${etol} ${ftol} ${maxiter} ${maxeval}
        minimize 1e-12 ${ftol} ${maxiter} ${maxeval}
        minimize 1e-12 1e-08 ${maxiter} ${maxeval}
        minimize 1e-12 1e-08 10000 ${maxeval}
        minimize 1e-12 1e-08 10000 20000
WARNING: Resetting reneighboring criteria during minimization (../min.cpp:168)
Memory usage per processor = 3.35948 Mbytes
Step Temp PotEng Lx Ly Lz 
     499            0   -118.99775    1.1224537    40.830973    1.1224537 
     500            0   -118.99775    1.1224537    40.830973    1.1224537 
Loop time of 4.70497e-05 on 1 procs for 1 steps with 41 atoms

Minimization stats:
  Stopping criterion = linesearch alpha is zero
  Energy initial, next-to-last, final = 
        -118.997752357     -118.997752357     -118.997752357
  Force two-norm initial, final = 1.47196e-17 1.47196e-17
  Force max component initial, final = 3.46945e-18 3.46945e-18
  Final line search alpha, max atom move = 0.5 1.73472e-18
  Iterations, force evaluations = 1 2

Pair  time (%) = 3.39887e-05 (72.24)
Neigh time (%) = 0 (0)
Comm  time (%) = 3.98292e-06 (8.46534)
Outpt time (%) = 0 (0)
Other time (%) = 9.07807e-06 (19.2946)

Nlocal:    41 ave 41 max 41 min
Histogram: 1 0 0 0 0 0 0 0 0 0
Nghost:    185 ave 185 max 185 min
Histogram: 1 0 0 0 0 0 0 0 0 0
Neighs:    349 ave 349 max 349 min
Histogram: 1 0 0 0 0 0 0 0 0 0

Total # of neighbors = 349
Ave neighs/atom = 8.5122
Neighbor list builds = 0
Dangerous builds = 0
	# write_dump all atom ${dumpfile}
        next i
jump SELF loop1
        displace_atoms upper move 0.0 ${ystep1} 0.0 units lattice
        displace_atoms upper move 0.0 0.002 0.0 units lattice
        min_style ${style}
        min_style cg
        minimize ${etol} ${ftol} ${maxiter} ${maxeval}
        minimize 1e-12 ${ftol} ${maxiter} ${maxeval}
        minimize 1e-12 1e-08 ${maxiter} ${maxeval}
        minimize 1e-12 1e-08 10000 ${maxeval}
        minimize 1e-12 1e-08 10000 20000
WARNING: Resetting reneighboring criteria during minimization (../min.cpp:168)
Memory usage per processor = 3.35948 Mbytes
Step Temp PotEng Lx Ly Lz 
     500            0   -118.99775    1.1224537    40.834861    1.1224537 
     501            0   -118.99775    1.1224537    40.834861    1.1224537 
Loop time of 4.69178e-05 on 1 procs for 1 steps with 41 atoms

Minimization stats:
  Stopping criterion = linesearch alpha is zero
  Energy initial, next-to-last, final = 
        -118.997752357     -118.997752357     -118.997752357
  Force two-norm initial, final = 1.47196e-17 1.47196e-17
  Force max component initial, final = 3.46945e-18 3.46945e-18
  Final line search alpha, max atom move = 0.5 1.73472e-18
  Iterations, force evaluations = 1 2

Pair  time (%) = 3.407e-05 (72.6163)
Neigh time (%) = 0 (0)
Comm  time (%) = 2.90712e-06 (6.1962)
Outpt time (%) = 0 (0)
Other time (%) = 9.9407e-06 (21.1875)

Nlocal:    41 ave 41 max 41 min
Histogram: 1 0 0 0 0 0 0 0 0 0
Nghost:    185 ave 185 max 185 min
Histogram: 1 0 0 0 0 0 0 0 0 0
Neighs:    349 ave 349 max 349 min
Histogram: 1 0 0 0 0 0 0 0 0 0

Total # of neighbors = 349
Ave neighs/atom = 8.5122
Neighbor list builds = 0
Dangerous builds = 0
	# write_dump all atom ${dumpfile}
        next i
jump SELF loop1

unfix 2
min_style ${style}
min_style cg
minimize ${etol} ${ftol} ${maxiter} ${maxeval}
minimize 1e-12 ${ftol} ${maxiter} ${maxeval}
minimize 1e-12 1e-08 ${maxiter} ${maxeval}
minimize 1e-12 1e-08 10000 ${maxeval}
minimize 1e-12 1e-08 10000 20000
WARNING: Resetting reneighboring criteria during minimization (../min.cpp:168)
Memory usage per processor = 3.35948 Mbytes
Step Temp PotEng Lx Ly Lz 
     501            0   -118.99775    1.1224537    40.834861    1.1224537 
     502            0   -118.99775    1.1224537    40.834861    1.1224537 
Loop time of 0.000275913 on 1 procs for 1 steps with 41 atoms

Minimization stats:
  Stopping criterion = linesearch alpha is zero
  Energy initial, next-to-last, final = 
        -118.997752357     -118.997752357     -118.997752357
  Force two-norm initial, final = 0.0701576 0.0701576
  Force max component initial, final = 0.0350788 0.0350788
  Final line search alpha, max atom move = 1.90735e-06 6.69075e-08
  Iterations, force evaluations = 1 20

Pair  time (%) = 0.000225053 (81.5668)
Neigh time (%) = 0 (0)
Comm  time (%) = 2.58737e-05 (9.37748)
Outpt time (%) = 0 (0)
Other time (%) = 2.4986e-05 (9.05576)

Nlocal:    41 ave 41 max 41 min
Histogram: 1 0 0 0 0 0 0 0 0 0
Nghost:    185 ave 185 max 185 min
Histogram: 1 0 0 0 0 0 0 0 0 0
Neighs:    349 ave 349 max 349 min
Histogram: 1 0 0 0 0 0 0 0 0 0

Total # of neighbors = 349
Ave neighs/atom = 8.5122
Neighbor list builds = 0
Dangerous builds = 0

