LAMMPS (28 Jun 2014)
# attempt at getting surface energy

#file prefix
variable prefix string surf_V_brittle_3d
variable dumpfile string ${prefix}.*.dump
variable dumpfile string surf_V_brittle_3d.*.dump
variable restartfile string ${prefix}.*.equil
variable restartfile string surf_V_brittle_3d.*.equil

#Mass (g/mol)
variable m equal 1.0

# lattice constant (in Angstroms) and orientation of axes (given by lattice vectors)
variable rho equal 1.0
variable x1 equal 1
variable x2 equal 1
variable x3 equal -2
variable y1 equal 1
variable y2 equal 1
variable y3 equal 1
variable z1 equal 1
variable z2 equal -1
variable z3 equal 0
# length of lattice in different directions (using orientation of lattice vectors)
variable ax equal sqrt(${x1}*${x1}+${x2}*${x2}+${x3}*${x3})
variable ax equal sqrt(1*${x1}+${x2}*${x2}+${x3}*${x3})
variable ax equal sqrt(1*1+${x2}*${x2}+${x3}*${x3})
variable ax equal sqrt(1*1+1*${x2}+${x3}*${x3})
variable ax equal sqrt(1*1+1*1+${x3}*${x3})
variable ax equal sqrt(1*1+1*1+-2*${x3})
variable ax equal sqrt(1*1+1*1+-2*-2)
variable ay equal sqrt(${y1}*${y1}+${y2}*${y2}+${y3}*${y3})
variable ay equal sqrt(1*${y1}+${y2}*${y2}+${y3}*${y3})
variable ay equal sqrt(1*1+${y2}*${y2}+${y3}*${y3})
variable ay equal sqrt(1*1+1*${y2}+${y3}*${y3})
variable ay equal sqrt(1*1+1*1+${y3}*${y3})
variable ay equal sqrt(1*1+1*1+1*${y3})
variable ay equal sqrt(1*1+1*1+1*1)
variable az equal sqrt(${z1}*${z1}+${z2}*${z2}+${z3}*${z3})
variable az equal sqrt(1*${z1}+${z2}*${z2}+${z3}*${z3})
variable az equal sqrt(1*1+${z2}*${z2}+${z3}*${z3})
variable az equal sqrt(1*1+-1*${z2}+${z3}*${z3})
variable az equal sqrt(1*1+-1*-1+${z3}*${z3})
variable az equal sqrt(1*1+-1*-1+0*${z3})
variable az equal sqrt(1*1+-1*-1+0*0)

# size of box in lattice units
variable lxpos equal 2
variable lxneg equal 0
variable lypos equal 15
variable lyneg equal -1*${lypos}
variable lyneg equal -1*15
variable lzpos equal 2
variable lzneg equal 0

# boundary conditions
dimension	3
boundary	p s p
atom_style	atomic

# Define minimization parameters and damping
variable etol equal 1.0e-12
variable ftol equal 1.0e-8
variable maxiter equal 10000
variable maxeval equal 20000
variable style string hftn

# create geometry
units		lj
lattice         fcc ${rho} orient x 1 1 -2 orient y 1 1 1 orient z 1 -1 0 spacing ${ax} ${ay} ${az}
lattice         fcc 1 orient x 1 1 -2 orient y 1 1 1 orient z 1 -1 0 spacing ${ax} ${ay} ${az}
lattice         fcc 1 orient x 1 1 -2 orient y 1 1 1 orient z 1 -1 0 spacing 2.44948974278318 ${ay} ${az}
lattice         fcc 1 orient x 1 1 -2 orient y 1 1 1 orient z 1 -1 0 spacing 2.44948974278318 1.73205080756888 ${az}
lattice         fcc 1 orient x 1 1 -2 orient y 1 1 1 orient z 1 -1 0 spacing 2.44948974278318 1.73205080756888 1.4142135623731
Lattice spacing in x,y,z = 3.88832 2.74946 2.24492
region		myregion block ${lxneg} ${lxpos} ${lyneg} ${lypos} ${lzneg} ${lzpos} units lattice
region		myregion block 0 ${lxpos} ${lyneg} ${lypos} ${lzneg} ${lzpos} units lattice
region		myregion block 0 2 ${lyneg} ${lypos} ${lzneg} ${lzpos} units lattice
region		myregion block 0 2 -15 ${lypos} ${lzneg} ${lzpos} units lattice
region		myregion block 0 2 -15 15 ${lzneg} ${lzpos} units lattice
region		myregion block 0 2 -15 15 0 ${lzpos} units lattice
region		myregion block 0 2 -15 15 0 2 units lattice
create_box	1 myregion
Created orthogonal box = (0 -41.2419 0) to (7.77665 41.2419 4.48985)
  1 by 1 by 1 MPI processor grid
create_atoms	1 box
Created 2912 atoms
write_dump all atom init.dump

# define masses
mass * $m
mass * 1

# my fake/morse potential
pair_style      table linear 3001
pair_coeff      * * vpotential_inter23d dummy
neighbor	0.3 bin
neigh_modify	delay 5

# define groups. Nudge to separate planes cleanly
region	    upper block INF INF 0.01 ${lypos} INF INF units lattice
region	    upper block INF INF 0.01 15 INF INF units lattice
group		upper region upper
1440 atoms in group upper

# Setup output
thermo 1
thermo_style custom step temp pe lx ly lz
thermo_modify norm no

# Compute initial state by relaxing box
fix 3 all box/relax x 0.0
min_style ${style}
min_style hftn
minimize ${etol} ${ftol} ${maxiter} ${maxeval}
minimize 1e-12 ${ftol} ${maxiter} ${maxeval}
minimize 1e-12 1e-08 ${maxiter} ${maxeval}
minimize 1e-12 1e-08 10000 ${maxeval}
minimize 1e-12 1e-08 10000 20000
WARNING: Resetting reneighboring criteria during minimization (../min.cpp:168)
Memory usage per processor = 5.28939 Mbytes
Step Temp PotEng Lx Ly Lz 
       0            0   -17375.986    7.7766452    82.500275    4.4898482 
       1            0   -17375.986    7.7766452    82.500275    4.4898482 
       2            0   -17375.986    7.7766452    82.500275    4.4898482 
       3            0   -17375.986    7.7766452    82.500275    4.4898482 
       4            0   -17375.986    7.7766452    82.500275    4.4898482 
       5            0   -17375.986    7.7766452    82.500275    4.4898482 
       6            0   -17375.986    7.7766452    82.500275    4.4898482 
       7            0   -17375.986    7.7766452    82.500275    4.4898482 
       8            0   -17375.986    7.7766452    82.500275    4.4898482 
       9            0   -17375.986    7.7766452    82.500275    4.4898482 
      10            0   -17375.986    7.7766452    82.500275    4.4898482 
      11            0   -17375.986    7.7766452    82.500275    4.4898482 
      12            0   -17375.986    7.7766452    82.500275    4.4898482 
      13            0   -17375.986    7.7766452    82.500275    4.4898482 
      14            0   -17375.986    7.7766452    82.500275    4.4898482 
      15            0   -17375.986    7.7766452    82.500275    4.4898482 
Loop time of 0.248787 on 1 procs for 14 steps with 2912 atoms

Minimization stats:
  Stopping criterion = trust region too small
  Energy initial, next-to-last, final = 
        -17375.9855515     -17375.9855515     -17375.9855515
  Force two-norm initial, final = 0.840484 0.840484
  Force max component initial, final = 0.840481 0.840481
  Final line search alpha, max atom move = 0 0
  Iterations, force evaluations = 14 88

Pair  time (%) = 0.226988 (91.238)
Neigh time (%) = 0 (0)
Comm  time (%) = 0.00593595 (2.38596)
Outpt time (%) = 0.00125347 (0.503833)
Other time (%) = 0.0146093 (5.87219)

Nlocal:    2912 ave 2912 max 2912 min
Histogram: 1 0 0 0 0 0 0 0 0 0
Nghost:    7129 ave 7129 max 7129 min
Histogram: 1 0 0 0 0 0 0 0 0 0
Neighs:    77856 ave 77856 max 77856 min
Histogram: 1 0 0 0 0 0 0 0 0 0

Total # of neighbors = 77856
Ave neighs/atom = 26.7363
Neighbor list builds = 0
Dangerous builds = 0
unfix 3

# don't allow atoms to relax in y-direction
fix 2 all setforce NULL 0.0 NULL

# GSF energy curve will have 100*2 steps
variable nsteps equal 300
variable sstep1 equal 1.5
variable ystep1 equal ${sstep1}/(${ay}*${nsteps})
variable ystep1 equal 1.5/(${ay}*${nsteps})
variable ystep1 equal 1.5/(1.73205080756888*${nsteps})
variable ystep1 equal 1.5/(1.73205080756888*300)

variable i loop ${nsteps}
variable i loop 300
label loop1
        displace_atoms upper move 0.0 ${ystep1} 0.0 units lattice
        displace_atoms upper move 0.0 0.00288675134594812 0.0 units lattice
        min_style ${style}
        min_style hftn
        minimize ${etol} ${ftol} ${maxiter} ${maxeval}
        minimize 1e-12 ${ftol} ${maxiter} ${maxeval}
        minimize 1e-12 1e-08 ${maxiter} ${maxeval}
        minimize 1e-12 1e-08 10000 ${maxeval}
        minimize 1e-12 1e-08 10000 20000
WARNING: Resetting reneighboring criteria during minimization (../min.cpp:168)
Memory usage per processor = 5.28939 Mbytes
Step Temp PotEng Lx Ly Lz 
      15            0   -17375.822    7.7766452    82.508212    4.4898482 
Loop time of 0.00240591 on 1 procs for 0 steps with 2912 atoms

Minimization stats:
  Stopping criterion = force tolerance
  Energy initial, next-to-last, final = 
        -17375.8217205     -17375.8217205     -17375.8217205
  Force two-norm initial, final = 8.51156e-11 8.51156e-11
  Force max component initial, final = 2.7994e-12 2.7994e-12
  Final line search alpha, max atom move = 0 0
  Iterations, force evaluations = 0 0

Pair  time (%) = 0.00231691 (96.3008)
Neigh time (%) = 0 (0)
Comm  time (%) = 5.28711e-05 (2.19755)
Outpt time (%) = 0 (0)
Other time (%) = 3.61289e-05 (1.50167)

Nlocal:    2912 ave 2912 max 2912 min
Histogram: 1 0 0 0 0 0 0 0 0 0
Nghost:    7129 ave 7129 max 7129 min
Histogram: 1 0 0 0 0 0 0 0 0 0
Neighs:    77856 ave 77856 max 77856 min
Histogram: 1 0 0 0 0 0 0 0 0 0

Total # of neighbors = 77856
Ave neighs/atom = 26.7363
Neighbor list builds = 0
Dangerous builds = 0
	# write_dump all atom ${dumpfile}
        next i
jump SELF loop1
        displace_atoms upper move 0.0 ${ystep1} 0.0 units lattice
        displace_atoms upper move 0.0 0.00288675134594812 0.0 units lattice
        min_style ${style}
        min_style hftn
        minimize ${etol} ${ftol} ${maxiter} ${maxeval}
        minimize 1e-12 ${ftol} ${maxiter} ${maxeval}
        minimize 1e-12 1e-08 ${maxiter} ${maxeval}
        minimize 1e-12 1e-08 10000 ${maxeval}
        minimize 1e-12 1e-08 10000 20000
WARNING: Resetting reneighboring criteria during minimization (../min.cpp:168)
Memory usage per processor = 5.28939 Mbytes
Step Temp PotEng Lx Ly Lz 
      15            0   -17375.355    7.7766452    82.516149    4.4898482 
Loop time of 0.001884 on 1 procs for 0 steps with 2912 atoms

Minimization stats:
  Stopping criterion = force tolerance
  Energy initial, next-to-last, final = 
        -17375.3554661     -17375.3554661     -17375.3554661
  Force two-norm initial, final = 8.50972e-11 8.50972e-11
  Force max component initial, final = 2.7994e-12 2.7994e-12
  Final line search alpha, max atom move = 0 0
  Iterations, force evaluations = 0 0

Pair  time (%) = 0.00181991 (96.598)
Neigh time (%) = 0 (0)
Comm  time (%) = 3.40523e-05 (1.80744)
Outpt time (%) = 0 (0)
Other time (%) = 3.00416e-05 (1.59456)

Nlocal:    2912 ave 2912 max 2912 min
Histogram: 1 0 0 0 0 0 0 0 0 0
Nghost:    7129 ave 7129 max 7129 min
Histogram: 1 0 0 0 0 0 0 0 0 0
Neighs:    77856 ave 77856 max 77856 min
Histogram: 1 0 0 0 0 0 0 0 0 0

Total # of neighbors = 77856
Ave neighs/atom = 26.7363
Neighbor list builds = 0
Dangerous builds = 0
	# write_dump all atom ${dumpfile}
        next i
jump SELF loop1
        displace_atoms upper move 0.0 ${ystep1} 0.0 units lattice
        displace_atoms upper move 0.0 0.00288675134594812 0.0 units lattice
        min_style ${style}
        min_style hftn
        minimize ${etol} ${ftol} ${maxiter} ${maxeval}
        minimize 1e-12 ${ftol} ${maxiter} ${maxeval}
        minimize 1e-12 1e-08 ${maxiter} ${maxeval}
        minimize 1e-12 1e-08 10000 ${maxeval}
        minimize 1e-12 1e-08 10000 20000
WARNING: Resetting reneighboring criteria during minimization (../min.cpp:168)
Memory usage per processor = 5.28939 Mbytes
Step Temp PotEng Lx Ly Lz 
      15            0   -17374.622    7.7766452    82.524086    4.4898482 
Loop time of 0.00277103 on 1 procs for 0 steps with 2912 atoms

Minimization stats:
  Stopping criterion = force tolerance
  Energy initial, next-to-last, final = 
        -17374.6218503     -17374.6218503     -17374.6218503
  Force two-norm initial, final = 8.50788e-11 8.50788e-11
  Force max component initial, final = 2.7994e-12 2.7994e-12
  Final line search alpha, max atom move = 0 0
  Iterations, force evaluations = 0 0

Pair  time (%) = 0.00270694 (97.687)
Neigh time (%) = 0 (0)
Comm  time (%) = 3.39531e-05 (1.22529)
Outpt time (%) = 0 (0)
Other time (%) = 3.01407e-05 (1.08771)

Nlocal:    2912 ave 2912 max 2912 min
Histogram: 1 0 0 0 0 0 0 0 0 0
Nghost:    7129 ave 7129 max 7129 min
Histogram: 1 0 0 0 0 0 0 0 0 0
Neighs:    77856 ave 77856 max 77856 min
Histogram: 1 0 0 0 0 0 0 0 0 0

Total # of neighbors = 77856
Ave neighs/atom = 26.7363
Neighbor list builds = 0
Dangerous builds = 0
	# write_dump all atom ${dumpfile}
        next i
jump SELF loop1
        displace_atoms upper move 0.0 ${ystep1} 0.0 units lattice
        displace_atoms upper move 0.0 0.00288675134594812 0.0 units lattice
        min_style ${style}
        min_style hftn
        minimize ${etol} ${ftol} ${maxiter} ${maxeval}
        minimize 1e-12 ${ftol} ${maxiter} ${maxeval}
        minimize 1e-12 1e-08 ${maxiter} ${maxeval}
        minimize 1e-12 1e-08 10000 ${maxeval}
        minimize 1e-12 1e-08 10000 20000
WARNING: Resetting reneighboring criteria during minimization (../min.cpp:168)
Memory usage per processor = 5.28939 Mbytes
Step Temp PotEng Lx Ly Lz 
      15            0   -17373.653    7.7766452    82.532023    4.4898482 
Loop time of 0.0022429 on 1 procs for 0 steps with 2912 atoms

Minimization stats:
  Stopping criterion = force tolerance
  Energy initial, next-to-last, final = 
        -17373.6531956     -17373.6531956     -17373.6531956
  Force two-norm initial, final = 8.50672e-11 8.50672e-11
  Force max component initial, final = 2.7994e-12 2.7994e-12
  Final line search alpha, max atom move = 0 0
  Iterations, force evaluations = 0 0

Pair  time (%) = 0.00212709 (94.8366)
Neigh time (%) = 0 (0)
Comm  time (%) = 6.19225e-05 (2.76083)
Outpt time (%) = 0 (0)
Other time (%) = 5.38878e-05 (2.4026)

Nlocal:    2912 ave 2912 max 2912 min
Histogram: 1 0 0 0 0 0 0 0 0 0
Nghost:    7129 ave 7129 max 7129 min
Histogram: 1 0 0 0 0 0 0 0 0 0
Neighs:    77856 ave 77856 max 77856 min
Histogram: 1 0 0 0 0 0 0 0 0 0

Total # of neighbors = 77856
Ave neighs/atom = 26.7363
Neighbor list builds = 0
Dangerous builds = 0
	# write_dump all atom ${dumpfile}
        next i
jump SELF loop1
        displace_atoms upper move 0.0 ${ystep1} 0.0 units lattice
        displace_atoms upper move 0.0 0.00288675134594812 0.0 units lattice
        min_style ${style}
        min_style hftn
        minimize ${etol} ${ftol} ${maxiter} ${maxeval}
        minimize 1e-12 ${ftol} ${maxiter} ${maxeval}
        minimize 1e-12 1e-08 ${maxiter} ${maxeval}
        minimize 1e-12 1e-08 10000 ${maxeval}
        minimize 1e-12 1e-08 10000 20000
WARNING: Resetting reneighboring criteria during minimization (../min.cpp:168)
Memory usage per processor = 5.28939 Mbytes
Step Temp PotEng Lx Ly Lz 
      15            0   -17372.479    7.7766452     82.53996    4.4898482 
Loop time of 0.00210694 on 1 procs for 0 steps with 2912 atoms

Minimization stats:
  Stopping criterion = force tolerance
  Energy initial, next-to-last, final = 
        -17372.4792093     -17372.4792093     -17372.4792093
  Force two-norm initial, final = 8.50557e-11 8.50557e-11
  Force max component initial, final = 2.7994e-12 2.7994e-12
  Final line search alpha, max atom move = 0 0
  Iterations, force evaluations = 0 0

Pair  time (%) = 0.00204504 (97.062)
Neigh time (%) = 0 (0)
Comm  time (%) = 3.37737e-05 (1.60297)
Outpt time (%) = 0 (0)
Other time (%) = 2.8128e-05 (1.33502)

Nlocal:    2912 ave 2912 max 2912 min
Histogram: 1 0 0 0 0 0 0 0 0 0
Nghost:    7129 ave 7129 max 7129 min
Histogram: 1 0 0 0 0 0 0 0 0 0
Neighs:    77856 ave 77856 max 77856 min
Histogram: 1 0 0 0 0 0 0 0 0 0

Total # of neighbors = 77856
Ave neighs/atom = 26.7363
Neighbor list builds = 0
Dangerous builds = 0
	# write_dump all atom ${dumpfile}
        next i
jump SELF loop1
        displace_atoms upper move 0.0 ${ystep1} 0.0 units lattice
        displace_atoms upper move 0.0 0.00288675134594812 0.0 units lattice
        min_style ${style}
        min_style hftn
        minimize ${etol} ${ftol} ${maxiter} ${maxeval}
        minimize 1e-12 ${ftol} ${maxiter} ${maxeval}
        minimize 1e-12 1e-08 ${maxiter} ${maxeval}
        minimize 1e-12 1e-08 10000 ${maxeval}
        minimize 1e-12 1e-08 10000 20000
WARNING: Resetting reneighboring criteria during minimization (../min.cpp:168)
Memory usage per processor = 5.28939 Mbytes
Step Temp PotEng Lx Ly Lz 
      15            0   -17371.127    7.7766452    82.547897    4.4898482 
Loop time of 0.0030201 on 1 procs for 0 steps with 2912 atoms

Minimization stats:
  Stopping criterion = force tolerance
  Energy initial, next-to-last, final = 
        -17371.1267864     -17371.1267864     -17371.1267864
  Force two-norm initial, final = 8.5043e-11 8.5043e-11
  Force max component initial, final = 2.7994e-12 2.7994e-12
  Final line search alpha, max atom move = 0 0
  Iterations, force evaluations = 0 0

Pair  time (%) = 0.002893 (95.7917)
Neigh time (%) = 0 (0)
Comm  time (%) = 6.81182e-05 (2.2555)
Outpt time (%) = 0 (0)
Other time (%) = 5.89757e-05 (1.95277)

Nlocal:    2912 ave 2912 max 2912 min
Histogram: 1 0 0 0 0 0 0 0 0 0
Nghost:    7129 ave 7129 max 7129 min
Histogram: 1 0 0 0 0 0 0 0 0 0
Neighs:    77856 ave 77856 max 77856 min
Histogram: 1 0 0 0 0 0 0 0 0 0

Total # of neighbors = 77856
Ave neighs/atom = 26.7363
Neighbor list builds = 0
Dangerous builds = 0
	# write_dump all atom ${dumpfile}
        next i
jump SELF loop1
        displace_atoms upper move 0.0 ${ystep1} 0.0 units lattice
        displace_atoms upper move 0.0 0.00288675134594812 0.0 units lattice
        min_style ${style}
        min_style hftn
        minimize ${etol} ${ftol} ${maxiter} ${maxeval}
        minimize 1e-12 ${ftol} ${maxiter} ${maxeval}
        minimize 1e-12 1e-08 ${maxiter} ${maxeval}
        minimize 1e-12 1e-08 10000 ${maxeval}
        minimize 1e-12 1e-08 10000 20000
WARNING: Resetting reneighboring criteria during minimization (../min.cpp:168)
Memory usage per processor = 5.28939 Mbytes
Step Temp PotEng Lx Ly Lz 
      15            0    -17369.62    7.7766452    82.555834    4.4898482 
Loop time of 0.00212404 on 1 procs for 0 steps with 2912 atoms

Minimization stats:
  Stopping criterion = force tolerance
  Energy initial, next-to-last, final = 
        -17369.6203127     -17369.6203127     -17369.6203127
  Force two-norm initial, final = 8.50351e-11 8.50351e-11
  Force max component initial, final = 2.7994e-12 2.7994e-12
  Final line search alpha, max atom move = 0 0
  Iterations, force evaluations = 0 0

Pair  time (%) = 0.00205799 (96.8905)
Neigh time (%) = 0 (0)
Comm  time (%) = 3.49912e-05 (1.64739)
Outpt time (%) = 0 (0)
Other time (%) = 3.10563e-05 (1.46214)

Nlocal:    2912 ave 2912 max 2912 min
Histogram: 1 0 0 0 0 0 0 0 0 0
Nghost:    7129 ave 7129 max 7129 min
Histogram: 1 0 0 0 0 0 0 0 0 0
Neighs:    77856 ave 77856 max 77856 min
Histogram: 1 0 0 0 0 0 0 0 0 0

Total # of neighbors = 77856
Ave neighs/atom = 26.7363
Neighbor list builds = 0
Dangerous builds = 0
	# write_dump all atom ${dumpfile}
        next i
jump SELF loop1
        displace_atoms upper move 0.0 ${ystep1} 0.0 units lattice
        displace_atoms upper move 0.0 0.00288675134594812 0.0 units lattice
        min_style ${style}
        min_style hftn
        minimize ${etol} ${ftol} ${maxiter} ${maxeval}
        minimize 1e-12 ${ftol} ${maxiter} ${maxeval}
        minimize 1e-12 1e-08 ${maxiter} ${maxeval}
        minimize 1e-12 1e-08 10000 ${maxeval}
        minimize 1e-12 1e-08 10000 20000
WARNING: Resetting reneighboring criteria during minimization (../min.cpp:168)
Memory usage per processor = 5.28939 Mbytes
Step Temp PotEng Lx Ly Lz 
      15            0   -17367.982    7.7766452    82.563771    4.4898482 
Loop time of 0.00201497 on 1 procs for 0 steps with 2912 atoms

Minimization stats:
  Stopping criterion = force tolerance
  Energy initial, next-to-last, final = 
        -17367.9823934     -17367.9823934     -17367.9823934
  Force two-norm initial, final = 8.50252e-11 8.50252e-11
  Force max component initial, final = 2.7994e-12 2.7994e-12
  Final line search alpha, max atom move = 0 0
  Iterations, force evaluations = 0 0

Pair  time (%) = 0.00195211 (96.8806)
Neigh time (%) = 0 (0)
Comm  time (%) = 3.38499e-05 (1.67992)
Outpt time (%) = 0 (0)
Other time (%) = 2.90057e-05 (1.43951)

Nlocal:    2912 ave 2912 max 2912 min
Histogram: 1 0 0 0 0 0 0 0 0 0
Nghost:    7129 ave 7129 max 7129 min
Histogram: 1 0 0 0 0 0 0 0 0 0
Neighs:    77856 ave 77856 max 77856 min
Histogram: 1 0 0 0 0 0 0 0 0 0

Total # of neighbors = 77856
Ave neighs/atom = 26.7363
Neighbor list builds = 0
Dangerous builds = 0
	# write_dump all atom ${dumpfile}
        next i
jump SELF loop1
        displace_atoms upper move 0.0 ${ystep1} 0.0 units lattice
        displace_atoms upper move 0.0 0.00288675134594812 0.0 units lattice
        min_style ${style}
        min_style hftn
        minimize ${etol} ${ftol} ${maxiter} ${maxeval}
        minimize 1e-12 ${ftol} ${maxiter} ${maxeval}
        minimize 1e-12 1e-08 ${maxiter} ${maxeval}
        minimize 1e-12 1e-08 10000 ${maxeval}
        minimize 1e-12 1e-08 10000 20000
WARNING: Resetting reneighboring criteria during minimization (../min.cpp:168)
Memory usage per processor = 5.28939 Mbytes
Step Temp PotEng Lx Ly Lz 
      15            0   -17366.225    7.7766452    82.571708    4.4898482 
Loop time of 0.00210689 on 1 procs for 0 steps with 2912 atoms

Minimization stats:
  Stopping criterion = force tolerance
  Energy initial, next-to-last, final = 
        -17366.2246478     -17366.2246478     -17366.2246478
  Force two-norm initial, final = 8.50553e-11 8.50553e-11
  Force max component initial, final = 2.7994e-12 2.7994e-12
  Final line search alpha, max atom move = 0 0
  Iterations, force evaluations = 0 0

Pair  time (%) = 0.00204303 (96.9692)
Neigh time (%) = 0 (0)
Comm  time (%) = 3.40895e-05 (1.61801)
Outpt time (%) = 0 (0)
Other time (%) = 2.97659e-05 (1.41279)

Nlocal:    2912 ave 2912 max 2912 min
Histogram: 1 0 0 0 0 0 0 0 0 0
Nghost:    7129 ave 7129 max 7129 min
Histogram: 1 0 0 0 0 0 0 0 0 0
Neighs:    77664 ave 77664 max 77664 min
Histogram: 1 0 0 0 0 0 0 0 0 0

Total # of neighbors = 77664
Ave neighs/atom = 26.6703
Neighbor list builds = 0
Dangerous builds = 0
	# write_dump all atom ${dumpfile}
        next i
jump SELF loop1
        displace_atoms upper move 0.0 ${ystep1} 0.0 units lattice
        displace_atoms upper move 0.0 0.00288675134594812 0.0 units lattice
        min_style ${style}
        min_style hftn
        minimize ${etol} ${ftol} ${maxiter} ${maxeval}
        minimize 1e-12 ${ftol} ${maxiter} ${maxeval}
        minimize 1e-12 1e-08 ${maxiter} ${maxeval}
        minimize 1e-12 1e-08 10000 ${maxeval}
        minimize 1e-12 1e-08 10000 20000
WARNING: Resetting reneighboring criteria during minimization (../min.cpp:168)
Memory usage per processor = 5.28939 Mbytes
Step Temp PotEng Lx Ly Lz 
      15            0   -17364.297    7.7766452    82.579645    4.4898482 
Loop time of 0.00208907 on 1 procs for 0 steps with 2912 atoms

Minimization stats:
  Stopping criterion = force tolerance
  Energy initial, next-to-last, final = 
        -17364.2971397     -17364.2971397     -17364.2971397
  Force two-norm initial, final = 8.50511e-11 8.50511e-11
  Force max component initial, final = 2.7994e-12 2.7994e-12
  Final line search alpha, max atom move = 0 0
  Iterations, force evaluations = 0 0

Pair  time (%) = 0.00204793 (98.0307)
Neigh time (%) = 0 (0)
Comm  time (%) = 2.39197e-05 (1.145)
Outpt time (%) = 0 (0)
Other time (%) = 1.72204e-05 (0.82431)

Nlocal:    2912 ave 2912 max 2912 min
Histogram: 1 0 0 0 0 0 0 0 0 0
Nghost:    7129 ave 7129 max 7129 min
Histogram: 1 0 0 0 0 0 0 0 0 0
Neighs:    77664 ave 77664 max 77664 min
Histogram: 1 0 0 0 0 0 0 0 0 0

Total # of neighbors = 77664
Ave neighs/atom = 26.6703
Neighbor list builds = 0
Dangerous builds = 0
	# write_dump all atom ${dumpfile}
        next i
jump SELF loop1
        displace_atoms upper move 0.0 ${ystep1} 0.0 units lattice
        displace_atoms upper move 0.0 0.00288675134594812 0.0 units lattice
        min_style ${style}
        min_style hftn
        minimize ${etol} ${ftol} ${maxiter} ${maxeval}
        minimize 1e-12 ${ftol} ${maxiter} ${maxeval}
        minimize 1e-12 1e-08 ${maxiter} ${maxeval}
        minimize 1e-12 1e-08 10000 ${maxeval}
        minimize 1e-12 1e-08 10000 20000
WARNING: Resetting reneighboring criteria during minimization (../min.cpp:168)
Memory usage per processor = 5.28939 Mbytes
Step Temp PotEng Lx Ly Lz 
      15            0   -17362.199    7.7766452    82.587582    4.4898482 
Loop time of 0.00188911 on 1 procs for 0 steps with 2912 atoms

Minimization stats:
  Stopping criterion = force tolerance
  Energy initial, next-to-last, final = 
        -17362.1991005     -17362.1991005     -17362.1991005
  Force two-norm initial, final = 8.50462e-11 8.50462e-11
  Force max component initial, final = 2.7994e-12 2.7994e-12
  Final line search alpha, max atom move = 0 0
  Iterations, force evaluations = 0 0

Pair  time (%) = 0.00185911 (98.4119)
Neigh time (%) = 0 (0)
Comm  time (%) = 1.80242e-05 (0.954114)
Outpt time (%) = 0 (0)
Other time (%) = 1.19758e-05 (0.633938)

Nlocal:    2912 ave 2912 max 2912 min
Histogram: 1 0 0 0 0 0 0 0 0 0
Nghost:    7129 ave 7129 max 7129 min
Histogram: 1 0 0 0 0 0 0 0 0 0
Neighs:    77664 ave 77664 max 77664 min
Histogram: 1 0 0 0 0 0 0 0 0 0

Total # of neighbors = 77664
Ave neighs/atom = 26.6703
Neighbor list builds = 0
Dangerous builds = 0
	# write_dump all atom ${dumpfile}
        next i
jump SELF loop1
        displace_atoms upper move 0.0 ${ystep1} 0.0 units lattice
        displace_atoms upper move 0.0 0.00288675134594812 0.0 units lattice
        min_style ${style}
        min_style hftn
        minimize ${etol} ${ftol} ${maxiter} ${maxeval}
        minimize 1e-12 ${ftol} ${maxiter} ${maxeval}
        minimize 1e-12 1e-08 ${maxiter} ${maxeval}
        minimize 1e-12 1e-08 10000 ${maxeval}
        minimize 1e-12 1e-08 10000 20000
WARNING: Resetting reneighboring criteria during minimization (../min.cpp:168)
Memory usage per processor = 5.28939 Mbytes
Step Temp PotEng Lx Ly Lz 
      15            0   -17359.943    7.7766452    82.595519    4.4898482 
Loop time of 0.00314094 on 1 procs for 0 steps with 2912 atoms

Minimization stats:
  Stopping criterion = force tolerance
  Energy initial, next-to-last, final = 
        -17359.9433944     -17359.9433944     -17359.9433944
  Force two-norm initial, final = 8.50402e-11 8.50402e-11
  Force max component initial, final = 2.7994e-12 2.7994e-12
  Final line search alpha, max atom move = 0 0
  Iterations, force evaluations = 0 0

Pair  time (%) = 0.00304504 (96.9467)
Neigh time (%) = 0 (0)
Comm  time (%) = 5.48415e-05 (1.74602)
Outpt time (%) = 0 (0)
Other time (%) = 4.10603e-05 (1.30726)

Nlocal:    2912 ave 2912 max 2912 min
Histogram: 1 0 0 0 0 0 0 0 0 0
Nghost:    7129 ave 7129 max 7129 min
Histogram: 1 0 0 0 0 0 0 0 0 0
Neighs:    77664 ave 77664 max 77664 min
Histogram: 1 0 0 0 0 0 0 0 0 0

Total # of neighbors = 77664
Ave neighs/atom = 26.6703
Neighbor list builds = 0
Dangerous builds = 0
	# write_dump all atom ${dumpfile}
        next i
jump SELF loop1
        displace_atoms upper move 0.0 ${ystep1} 0.0 units lattice
        displace_atoms upper move 0.0 0.00288675134594812 0.0 units lattice
        min_style ${style}
        min_style hftn
        minimize ${etol} ${ftol} ${maxiter} ${maxeval}
        minimize 1e-12 ${ftol} ${maxiter} ${maxeval}
        minimize 1e-12 1e-08 ${maxiter} ${maxeval}
        minimize 1e-12 1e-08 10000 ${maxeval}
        minimize 1e-12 1e-08 10000 20000
WARNING: Resetting reneighboring criteria during minimization (../min.cpp:168)
Memory usage per processor = 5.28939 Mbytes
Step Temp PotEng Lx Ly Lz 
      15            0   -17357.543    7.7766452    82.603456    4.4898482 
Loop time of 0.00486196 on 1 procs for 0 steps with 2912 atoms

Minimization stats:
  Stopping criterion = force tolerance
  Energy initial, next-to-last, final = 
        -17357.5431338     -17357.5431338     -17357.5431338
  Force two-norm initial, final = 8.50358e-11 8.50358e-11
  Force max component initial, final = 2.7994e-12 2.7994e-12
  Final line search alpha, max atom move = 0 0
  Iterations, force evaluations = 0 0

Pair  time (%) = 0.00482902 (99.3223)
Neigh time (%) = 0 (0)
Comm  time (%) = 1.51813e-05 (0.312245)
Outpt time (%) = 0 (0)
Other time (%) = 1.77667e-05 (0.365423)

Nlocal:    2912 ave 2912 max 2912 min
Histogram: 1 0 0 0 0 0 0 0 0 0
Nghost:    7129 ave 7129 max 7129 min
Histogram: 1 0 0 0 0 0 0 0 0 0
Neighs:    77664 ave 77664 max 77664 min
Histogram: 1 0 0 0 0 0 0 0 0 0

Total # of neighbors = 77664
Ave neighs/atom = 26.6703
Neighbor list builds = 0
Dangerous builds = 0
	# write_dump all atom ${dumpfile}
        next i
jump SELF loop1
        displace_atoms upper move 0.0 ${ystep1} 0.0 units lattice
        displace_atoms upper move 0.0 0.00288675134594812 0.0 units lattice
        min_style ${style}
        min_style hftn
        minimize ${etol} ${ftol} ${maxiter} ${maxeval}
        minimize 1e-12 ${ftol} ${maxiter} ${maxeval}
        minimize 1e-12 1e-08 ${maxiter} ${maxeval}
        minimize 1e-12 1e-08 10000 ${maxeval}
        minimize 1e-12 1e-08 10000 20000
WARNING: Resetting reneighboring criteria during minimization (../min.cpp:168)
Memory usage per processor = 5.28939 Mbytes
Step Temp PotEng Lx Ly Lz 
      15            0   -17355.012    7.7766452    82.611393    4.4898482 
Loop time of 0.00210212 on 1 procs for 0 steps with 2912 atoms

Minimization stats:
  Stopping criterion = force tolerance
  Energy initial, next-to-last, final = 
        -17355.0116577     -17355.0116577     -17355.0116577
  Force two-norm initial, final = 8.50313e-11 8.50313e-11
  Force max component initial, final = 2.7994e-12 2.7994e-12
  Final line search alpha, max atom move = 0 0
  Iterations, force evaluations = 0 0

Pair  time (%) = 0.00206898 (98.4235)
Neigh time (%) = 0 (0)
Comm  time (%) = 1.60367e-05 (0.762882)
Outpt time (%) = 0 (0)
Other time (%) = 1.71035e-05 (0.813633)

Nlocal:    2912 ave 2912 max 2912 min
Histogram: 1 0 0 0 0 0 0 0 0 0
Nghost:    7129 ave 7129 max 7129 min
Histogram: 1 0 0 0 0 0 0 0 0 0
Neighs:    77664 ave 77664 max 77664 min
Histogram: 1 0 0 0 0 0 0 0 0 0

Total # of neighbors = 77664
Ave neighs/atom = 26.6703
Neighbor list builds = 0
Dangerous builds = 0
	# write_dump all atom ${dumpfile}
        next i
jump SELF loop1
        displace_atoms upper move 0.0 ${ystep1} 0.0 units lattice
        displace_atoms upper move 0.0 0.00288675134594812 0.0 units lattice
        min_style ${style}
        min_style hftn
        minimize ${etol} ${ftol} ${maxiter} ${maxeval}
        minimize 1e-12 ${ftol} ${maxiter} ${maxeval}
        minimize 1e-12 1e-08 ${maxiter} ${maxeval}
        minimize 1e-12 1e-08 10000 ${maxeval}
        minimize 1e-12 1e-08 10000 20000
WARNING: Resetting reneighboring criteria during minimization (../min.cpp:168)
Memory usage per processor = 5.28939 Mbytes
Step Temp PotEng Lx Ly Lz 
      15            0   -17352.362    7.7766452     82.61933    4.4898482 
Loop time of 0.00194195 on 1 procs for 0 steps with 2912 atoms

Minimization stats:
  Stopping criterion = force tolerance
  Energy initial, next-to-last, final = 
        -17352.3623848     -17352.3623848     -17352.3623848
  Force two-norm initial, final = 8.50247e-11 8.50247e-11
  Force max component initial, final = 2.7994e-12 2.7994e-12
  Final line search alpha, max atom move = 0 0
  Iterations, force evaluations = 0 0

Pair  time (%) = 0.00187094 (96.3435)
Neigh time (%) = 0 (0)
Comm  time (%) = 3.59584e-05 (1.85166)
Outpt time (%) = 0 (0)
Other time (%) = 3.50496e-05 (1.80487)

Nlocal:    2912 ave 2912 max 2912 min
Histogram: 1 0 0 0 0 0 0 0 0 0
Nghost:    7129 ave 7129 max 7129 min
Histogram: 1 0 0 0 0 0 0 0 0 0
Neighs:    77664 ave 77664 max 77664 min
Histogram: 1 0 0 0 0 0 0 0 0 0

Total # of neighbors = 77664
Ave neighs/atom = 26.6703
Neighbor list builds = 0
Dangerous builds = 0
	# write_dump all atom ${dumpfile}
        next i
jump SELF loop1
        displace_atoms upper move 0.0 ${ystep1} 0.0 units lattice
        displace_atoms upper move 0.0 0.00288675134594812 0.0 units lattice
        min_style ${style}
        min_style hftn
        minimize ${etol} ${ftol} ${maxiter} ${maxeval}
        minimize 1e-12 ${ftol} ${maxiter} ${maxeval}
        minimize 1e-12 1e-08 ${maxiter} ${maxeval}
        minimize 1e-12 1e-08 10000 ${maxeval}
        minimize 1e-12 1e-08 10000 20000
WARNING: Resetting reneighboring criteria during minimization (../min.cpp:168)
Memory usage per processor = 5.28939 Mbytes
Step Temp PotEng Lx Ly Lz 
      15            0   -17349.609    7.7766452    82.627267    4.4898482 
Loop time of 0.00191201 on 1 procs for 0 steps with 2912 atoms

Minimization stats:
  Stopping criterion = force tolerance
  Energy initial, next-to-last, final = 
        -17349.6091777     -17349.6091777     -17349.6091777
  Force two-norm initial, final = 8.50205e-11 8.50205e-11
  Force max component initial, final = 2.7994e-12 2.7994e-12
  Final line search alpha, max atom move = 0 0
  Iterations, force evaluations = 0 0

Pair  time (%) = 0.00184596 (96.5456)
Neigh time (%) = 0 (0)
Comm  time (%) = 3.48365e-05 (1.82198)
Outpt time (%) = 0 (0)
Other time (%) = 3.12111e-05 (1.63237)

Nlocal:    2912 ave 2912 max 2912 min
Histogram: 1 0 0 0 0 0 0 0 0 0
Nghost:    7129 ave 7129 max 7129 min
Histogram: 1 0 0 0 0 0 0 0 0 0
Neighs:    77664 ave 77664 max 77664 min
Histogram: 1 0 0 0 0 0 0 0 0 0

Total # of neighbors = 77664
Ave neighs/atom = 26.6703
Neighbor list builds = 0
Dangerous builds = 0
	# write_dump all atom ${dumpfile}
        next i
jump SELF loop1
        displace_atoms upper move 0.0 ${ystep1} 0.0 units lattice
        displace_atoms upper move 0.0 0.00288675134594812 0.0 units lattice
        min_style ${style}
        min_style hftn
        minimize ${etol} ${ftol} ${maxiter} ${maxeval}
        minimize 1e-12 ${ftol} ${maxiter} ${maxeval}
        minimize 1e-12 1e-08 ${maxiter} ${maxeval}
        minimize 1e-12 1e-08 10000 ${maxeval}
        minimize 1e-12 1e-08 10000 20000
WARNING: Resetting reneighboring criteria during minimization (../min.cpp:168)
Memory usage per processor = 5.28939 Mbytes
Step Temp PotEng Lx Ly Lz 
      15            0   -17346.766    7.7766452    82.635204    4.4898482 
Loop time of 0.00232901 on 1 procs for 0 steps with 2912 atoms

Minimization stats:
  Stopping criterion = force tolerance
  Energy initial, next-to-last, final = 
        -17346.7659792     -17346.7659792     -17346.7659792
  Force two-norm initial, final = 8.50159e-11 8.50159e-11
  Force max component initial, final = 2.7994e-12 2.7994e-12
  Final line search alpha, max atom move = 0 0
  Iterations, force evaluations = 0 0

Pair  time (%) = 0.0022559 (96.8611)
Neigh time (%) = 0 (0)
Comm  time (%) = 3.6995e-05 (1.58845)
Outpt time (%) = 0 (0)
Other time (%) = 3.61112e-05 (1.5505)

Nlocal:    2912 ave 2912 max 2912 min
Histogram: 1 0 0 0 0 0 0 0 0 0
Nghost:    7129 ave 7129 max 7129 min
Histogram: 1 0 0 0 0 0 0 0 0 0
Neighs:    77664 ave 77664 max 77664 min
Histogram: 1 0 0 0 0 0 0 0 0 0

Total # of neighbors = 77664
Ave neighs/atom = 26.6703
Neighbor list builds = 0
Dangerous builds = 0
	# write_dump all atom ${dumpfile}
        next i
jump SELF loop1
        displace_atoms upper move 0.0 ${ystep1} 0.0 units lattice
        displace_atoms upper move 0.0 0.00288675134594812 0.0 units lattice
        min_style ${style}
        min_style hftn
        minimize ${etol} ${ftol} ${maxiter} ${maxeval}
        minimize 1e-12 ${ftol} ${maxiter} ${maxeval}
        minimize 1e-12 1e-08 ${maxiter} ${maxeval}
        minimize 1e-12 1e-08 10000 ${maxeval}
        minimize 1e-12 1e-08 10000 20000
WARNING: Resetting reneighboring criteria during minimization (../min.cpp:168)
Memory usage per processor = 5.28939 Mbytes
Step Temp PotEng Lx Ly Lz 
      15            0   -17343.847    7.7766452    82.643141    4.4898482 
Loop time of 0.00214492 on 1 procs for 0 steps with 2912 atoms

Minimization stats:
  Stopping criterion = force tolerance
  Energy initial, next-to-last, final = 
        -17343.8468184     -17343.8468184     -17343.8468184
  Force two-norm initial, final = 8.501e-11 8.501e-11
  Force max component initial, final = 2.7994e-12 2.7994e-12
  Final line search alpha, max atom move = 0 0
  Iterations, force evaluations = 0 0

Pair  time (%) = 0.00206302 (96.1816)
Neigh time (%) = 0 (0)
Comm  time (%) = 5.20889e-05 (2.42847)
Outpt time (%) = 0 (0)
Other time (%) = 2.98128e-05 (1.38992)

Nlocal:    2912 ave 2912 max 2912 min
Histogram: 1 0 0 0 0 0 0 0 0 0
Nghost:    7129 ave 7129 max 7129 min
Histogram: 1 0 0 0 0 0 0 0 0 0
Neighs:    77664 ave 77664 max 77664 min
Histogram: 1 0 0 0 0 0 0 0 0 0

Total # of neighbors = 77664
Ave neighs/atom = 26.6703
Neighbor list builds = 0
Dangerous builds = 0
	# write_dump all atom ${dumpfile}
        next i
jump SELF loop1
        displace_atoms upper move 0.0 ${ystep1} 0.0 units lattice
        displace_atoms upper move 0.0 0.00288675134594812 0.0 units lattice
        min_style ${style}
        min_style hftn
        minimize ${etol} ${ftol} ${maxiter} ${maxeval}
        minimize 1e-12 ${ftol} ${maxiter} ${maxeval}
        minimize 1e-12 1e-08 ${maxiter} ${maxeval}
        minimize 1e-12 1e-08 10000 ${maxeval}
        minimize 1e-12 1e-08 10000 20000
WARNING: Resetting reneighboring criteria during minimization (../min.cpp:168)
Memory usage per processor = 5.28939 Mbytes
Step Temp PotEng Lx Ly Lz 
      15            0   -17340.866    7.7766452    82.651078    4.4898482 
Loop time of 0.00201011 on 1 procs for 0 steps with 2912 atoms

Minimization stats:
  Stopping criterion = force tolerance
  Energy initial, next-to-last, final = 
        -17340.8660903     -17340.8660903     -17340.8660903
  Force two-norm initial, final = 8.50055e-11 8.50055e-11
  Force max component initial, final = 2.7994e-12 2.7994e-12
  Final line search alpha, max atom move = 0 0
  Iterations, force evaluations = 0 0

Pair  time (%) = 0.00193997 (96.5106)
Neigh time (%) = 0 (0)
Comm  time (%) = 4.00146e-05 (1.99067)
Outpt time (%) = 0 (0)
Other time (%) = 3.01255e-05 (1.4987)

Nlocal:    2912 ave 2912 max 2912 min
Histogram: 1 0 0 0 0 0 0 0 0 0
Nghost:    7129 ave 7129 max 7129 min
Histogram: 1 0 0 0 0 0 0 0 0 0
Neighs:    77664 ave 77664 max 77664 min
Histogram: 1 0 0 0 0 0 0 0 0 0

Total # of neighbors = 77664
Ave neighs/atom = 26.6703
Neighbor list builds = 0
Dangerous builds = 0
	# write_dump all atom ${dumpfile}
        next i
jump SELF loop1
        displace_atoms upper move 0.0 ${ystep1} 0.0 units lattice
        displace_atoms upper move 0.0 0.00288675134594812 0.0 units lattice
        min_style ${style}
        min_style hftn
        minimize ${etol} ${ftol} ${maxiter} ${maxeval}
        minimize 1e-12 ${ftol} ${maxiter} ${maxeval}
        minimize 1e-12 1e-08 ${maxiter} ${maxeval}
        minimize 1e-12 1e-08 10000 ${maxeval}
        minimize 1e-12 1e-08 10000 20000
WARNING: Resetting reneighboring criteria during minimization (../min.cpp:168)
Memory usage per processor = 5.28939 Mbytes
Step Temp PotEng Lx Ly Lz 
      15            0   -17337.838    7.7766452    82.659015    4.4898482 
Loop time of 0.00229088 on 1 procs for 0 steps with 2912 atoms

Minimization stats:
  Stopping criterion = force tolerance
  Energy initial, next-to-last, final = 
        -17337.8382697     -17337.8382697     -17337.8382697
  Force two-norm initial, final = 8.5001e-11 8.5001e-11
  Force max component initial, final = 2.7994e-12 2.7994e-12
  Final line search alpha, max atom move = 0 0
  Iterations, force evaluations = 0 0

Pair  time (%) = 0.00222798 (97.2543)
Neigh time (%) = 0 (0)
Comm  time (%) = 3.40234e-05 (1.48517)
Outpt time (%) = 0 (0)
Other time (%) = 2.88783e-05 (1.26058)

Nlocal:    2912 ave 2912 max 2912 min
Histogram: 1 0 0 0 0 0 0 0 0 0
Nghost:    7129 ave 7129 max 7129 min
Histogram: 1 0 0 0 0 0 0 0 0 0
Neighs:    77664 ave 77664 max 77664 min
Histogram: 1 0 0 0 0 0 0 0 0 0

Total # of neighbors = 77664
Ave neighs/atom = 26.6703
Neighbor list builds = 0
Dangerous builds = 0
	# write_dump all atom ${dumpfile}
        next i
jump SELF loop1
        displace_atoms upper move 0.0 ${ystep1} 0.0 units lattice
        displace_atoms upper move 0.0 0.00288675134594812 0.0 units lattice
        min_style ${style}
        min_style hftn
        minimize ${etol} ${ftol} ${maxiter} ${maxeval}
        minimize 1e-12 ${ftol} ${maxiter} ${maxeval}
        minimize 1e-12 1e-08 ${maxiter} ${maxeval}
        minimize 1e-12 1e-08 10000 ${maxeval}
        minimize 1e-12 1e-08 10000 20000
WARNING: Resetting reneighboring criteria during minimization (../min.cpp:168)
Memory usage per processor = 5.28939 Mbytes
Step Temp PotEng Lx Ly Lz 
      15            0   -17334.778    7.7766452    82.666952    4.4898482 
Loop time of 0.00167394 on 1 procs for 0 steps with 2912 atoms

Minimization stats:
  Stopping criterion = force tolerance
  Energy initial, next-to-last, final = 
        -17334.7780175     -17334.7780175     -17334.7780175
  Force two-norm initial, final = 8.49951e-11 8.49951e-11
  Force max component initial, final = 2.7994e-12 2.7994e-12
  Final line search alpha, max atom move = 0 0
  Iterations, force evaluations = 0 0

Pair  time (%) = 0.00161104 (96.2423)
Neigh time (%) = 0 (0)
Comm  time (%) = 3.51601e-05 (2.10044)
Outpt time (%) = 0 (0)
Other time (%) = 2.77417e-05 (1.65727)

Nlocal:    2912 ave 2912 max 2912 min
Histogram: 1 0 0 0 0 0 0 0 0 0
Nghost:    7129 ave 7129 max 7129 min
Histogram: 1 0 0 0 0 0 0 0 0 0
Neighs:    77664 ave 77664 max 77664 min
Histogram: 1 0 0 0 0 0 0 0 0 0

Total # of neighbors = 77664
Ave neighs/atom = 26.6703
Neighbor list builds = 0
Dangerous builds = 0
	# write_dump all atom ${dumpfile}
        next i
jump SELF loop1
        displace_atoms upper move 0.0 ${ystep1} 0.0 units lattice
        displace_atoms upper move 0.0 0.00288675134594812 0.0 units lattice
        min_style ${style}
        min_style hftn
        minimize ${etol} ${ftol} ${maxiter} ${maxeval}
        minimize 1e-12 ${ftol} ${maxiter} ${maxeval}
        minimize 1e-12 1e-08 ${maxiter} ${maxeval}
        minimize 1e-12 1e-08 10000 ${maxeval}
        minimize 1e-12 1e-08 10000 20000
WARNING: Resetting reneighboring criteria during minimization (../min.cpp:168)
Memory usage per processor = 5.28939 Mbytes
Step Temp PotEng Lx Ly Lz 
      15            0     -17331.7    7.7766452    82.674889    4.4898482 
Loop time of 0.00209893 on 1 procs for 0 steps with 2912 atoms

Minimization stats:
  Stopping criterion = force tolerance
  Energy initial, next-to-last, final = 
        -17331.7002102     -17331.7002102     -17331.7002102
  Force two-norm initial, final = 8.49903e-11 8.49903e-11
  Force max component initial, final = 2.7994e-12 2.7994e-12
  Final line search alpha, max atom move = 0 0
  Iterations, force evaluations = 0 0

Pair  time (%) = 0.00203607 (97.0054)
Neigh time (%) = 0 (0)
Comm  time (%) = 3.40786e-05 (1.62362)
Outpt time (%) = 0 (0)
Other time (%) = 2.87768e-05 (1.37103)

Nlocal:    2912 ave 2912 max 2912 min
Histogram: 1 0 0 0 0 0 0 0 0 0
Nghost:    7129 ave 7129 max 7129 min
Histogram: 1 0 0 0 0 0 0 0 0 0
Neighs:    77664 ave 77664 max 77664 min
Histogram: 1 0 0 0 0 0 0 0 0 0

Total # of neighbors = 77664
Ave neighs/atom = 26.6703
Neighbor list builds = 0
Dangerous builds = 0
	# write_dump all atom ${dumpfile}
        next i
jump SELF loop1
        displace_atoms upper move 0.0 ${ystep1} 0.0 units lattice
        displace_atoms upper move 0.0 0.00288675134594812 0.0 units lattice
        min_style ${style}
        min_style hftn
        minimize ${etol} ${ftol} ${maxiter} ${maxeval}
        minimize 1e-12 ${ftol} ${maxiter} ${maxeval}
        minimize 1e-12 1e-08 ${maxiter} ${maxeval}
        minimize 1e-12 1e-08 10000 ${maxeval}
        minimize 1e-12 1e-08 10000 20000
WARNING: Resetting reneighboring criteria during minimization (../min.cpp:168)
Memory usage per processor = 5.28939 Mbytes
Step Temp PotEng Lx Ly Lz 
      15            0    -17328.62    7.7766452    82.682826    4.4898482 
Loop time of 0.00176295 on 1 procs for 0 steps with 2912 atoms

Minimization stats:
  Stopping criterion = force tolerance
  Energy initial, next-to-last, final = 
         -17328.619866      -17328.619866      -17328.619866
  Force two-norm initial, final = 8.49863e-11 8.49863e-11
  Force max component initial, final = 2.7994e-12 2.7994e-12
  Final line search alpha, max atom move = 0 0
  Iterations, force evaluations = 0 0

Pair  time (%) = 0.00169309 (96.0372)
Neigh time (%) = 0 (0)
Comm  time (%) = 3.99715e-05 (2.26731)
Outpt time (%) = 0 (0)
Other time (%) = 2.98907e-05 (1.69549)

Nlocal:    2912 ave 2912 max 2912 min
Histogram: 1 0 0 0 0 0 0 0 0 0
Nghost:    7129 ave 7129 max 7129 min
Histogram: 1 0 0 0 0 0 0 0 0 0
Neighs:    77664 ave 77664 max 77664 min
Histogram: 1 0 0 0 0 0 0 0 0 0

Total # of neighbors = 77664
Ave neighs/atom = 26.6703
Neighbor list builds = 0
Dangerous builds = 0
	# write_dump all atom ${dumpfile}
        next i
jump SELF loop1
        displace_atoms upper move 0.0 ${ystep1} 0.0 units lattice
        displace_atoms upper move 0.0 0.00288675134594812 0.0 units lattice
        min_style ${style}
        min_style hftn
        minimize ${etol} ${ftol} ${maxiter} ${maxeval}
        minimize 1e-12 ${ftol} ${maxiter} ${maxeval}
        minimize 1e-12 1e-08 ${maxiter} ${maxeval}
        minimize 1e-12 1e-08 10000 ${maxeval}
        minimize 1e-12 1e-08 10000 20000
WARNING: Resetting reneighboring criteria during minimization (../min.cpp:168)
Memory usage per processor = 5.28939 Mbytes
Step Temp PotEng Lx Ly Lz 
      15            0   -17325.552    7.7766452    82.690763    4.4898482 
Loop time of 0.00231709 on 1 procs for 0 steps with 2912 atoms

Minimization stats:
  Stopping criterion = force tolerance
  Energy initial, next-to-last, final = 
        -17325.5521726     -17325.5521726     -17325.5521726
  Force two-norm initial, final = 8.49799e-11 8.49799e-11
  Force max component initial, final = 2.7994e-12 2.7994e-12
  Final line search alpha, max atom move = 0 0
  Iterations, force evaluations = 0 0

Pair  time (%) = 0.00223595 (96.4982)
Neigh time (%) = 0 (0)
Comm  time (%) = 4.30968e-05 (1.85995)
Outpt time (%) = 0 (0)
Other time (%) = 3.80434e-05 (1.64186)

Nlocal:    2912 ave 2912 max 2912 min
Histogram: 1 0 0 0 0 0 0 0 0 0
Nghost:    7129 ave 7129 max 7129 min
Histogram: 1 0 0 0 0 0 0 0 0 0
Neighs:    77664 ave 77664 max 77664 min
Histogram: 1 0 0 0 0 0 0 0 0 0

Total # of neighbors = 77664
Ave neighs/atom = 26.6703
Neighbor list builds = 0
Dangerous builds = 0
	# write_dump all atom ${dumpfile}
        next i
jump SELF loop1
        displace_atoms upper move 0.0 ${ystep1} 0.0 units lattice
        displace_atoms upper move 0.0 0.00288675134594812 0.0 units lattice
        min_style ${style}
        min_style hftn
        minimize ${etol} ${ftol} ${maxiter} ${maxeval}
        minimize 1e-12 ${ftol} ${maxiter} ${maxeval}
        minimize 1e-12 1e-08 ${maxiter} ${maxeval}
        minimize 1e-12 1e-08 10000 ${maxeval}
        minimize 1e-12 1e-08 10000 20000
WARNING: Resetting reneighboring criteria during minimization (../min.cpp:168)
Memory usage per processor = 5.28939 Mbytes
Step Temp PotEng Lx Ly Lz 
      15            0   -17322.513    7.7766452      82.6987    4.4898482 
Loop time of 0.002026 on 1 procs for 0 steps with 2912 atoms

Minimization stats:
  Stopping criterion = force tolerance
  Energy initial, next-to-last, final = 
        -17322.5125375     -17322.5125375     -17322.5125375
  Force two-norm initial, final = 8.49753e-11 8.49753e-11
  Force max component initial, final = 2.7994e-12 2.7994e-12
  Final line search alpha, max atom move = 0 0
  Iterations, force evaluations = 0 0

Pair  time (%) = 0.0019619 (96.8364)
Neigh time (%) = 0 (0)
Comm  time (%) = 3.39422e-05 (1.67533)
Outpt time (%) = 0 (0)
Other time (%) = 3.01517e-05 (1.48824)

Nlocal:    2912 ave 2912 max 2912 min
Histogram: 1 0 0 0 0 0 0 0 0 0
Nghost:    7129 ave 7129 max 7129 min
Histogram: 1 0 0 0 0 0 0 0 0 0
Neighs:    77664 ave 77664 max 77664 min
Histogram: 1 0 0 0 0 0 0 0 0 0

Total # of neighbors = 77664
Ave neighs/atom = 26.6703
Neighbor list builds = 0
Dangerous builds = 0
	# write_dump all atom ${dumpfile}
        next i
jump SELF loop1
        displace_atoms upper move 0.0 ${ystep1} 0.0 units lattice
        displace_atoms upper move 0.0 0.00288675134594812 0.0 units lattice
        min_style ${style}
        min_style hftn
        minimize ${etol} ${ftol} ${maxiter} ${maxeval}
        minimize 1e-12 ${ftol} ${maxiter} ${maxeval}
        minimize 1e-12 1e-08 ${maxiter} ${maxeval}
        minimize 1e-12 1e-08 10000 ${maxeval}
        minimize 1e-12 1e-08 10000 20000
WARNING: Resetting reneighboring criteria during minimization (../min.cpp:168)
Memory usage per processor = 5.28939 Mbytes
Step Temp PotEng Lx Ly Lz 
      15            0   -17319.516    7.7766452    82.706637    4.4898482 
Loop time of 0.00209596 on 1 procs for 0 steps with 2912 atoms

Minimization stats:
  Stopping criterion = force tolerance
  Energy initial, next-to-last, final = 
        -17319.5164349     -17319.5164349     -17319.5164349
  Force two-norm initial, final = 8.49713e-11 8.49713e-11
  Force max component initial, final = 2.7994e-12 2.7994e-12
  Final line search alpha, max atom move = 0 0
  Iterations, force evaluations = 0 0

Pair  time (%) = 0.0020331 (97.0011)
Neigh time (%) = 0 (0)
Comm  time (%) = 3.40025e-05 (1.62229)
Outpt time (%) = 0 (0)
Other time (%) = 2.8853e-05 (1.3766)

Nlocal:    2912 ave 2912 max 2912 min
Histogram: 1 0 0 0 0 0 0 0 0 0
Nghost:    7129 ave 7129 max 7129 min
Histogram: 1 0 0 0 0 0 0 0 0 0
Neighs:    77664 ave 77664 max 77664 min
Histogram: 1 0 0 0 0 0 0 0 0 0

Total # of neighbors = 77664
Ave neighs/atom = 26.6703
Neighbor list builds = 0
Dangerous builds = 0
	# write_dump all atom ${dumpfile}
        next i
jump SELF loop1
        displace_atoms upper move 0.0 ${ystep1} 0.0 units lattice
        displace_atoms upper move 0.0 0.00288675134594812 0.0 units lattice
        min_style ${style}
        min_style hftn
        minimize ${etol} ${ftol} ${maxiter} ${maxeval}
        minimize 1e-12 ${ftol} ${maxiter} ${maxeval}
        minimize 1e-12 1e-08 ${maxiter} ${maxeval}
        minimize 1e-12 1e-08 10000 ${maxeval}
        minimize 1e-12 1e-08 10000 20000
WARNING: Resetting reneighboring criteria during minimization (../min.cpp:168)
Memory usage per processor = 5.28939 Mbytes
Step Temp PotEng Lx Ly Lz 
      15            0   -17316.579    7.7766452    82.714574    4.4898482 
Loop time of 0.00232811 on 1 procs for 0 steps with 2912 atoms

Minimization stats:
  Stopping criterion = force tolerance
  Energy initial, next-to-last, final = 
        -17316.5794835     -17316.5794835     -17316.5794835
  Force two-norm initial, final = 8.49653e-11 8.49653e-11
  Force max component initial, final = 2.7994e-12 2.7994e-12
  Final line search alpha, max atom move = 0 0
  Iterations, force evaluations = 0 0

Pair  time (%) = 0.00223193 (95.8685)
Neigh time (%) = 0 (0)
Comm  time (%) = 5.11467e-05 (2.19692)
Outpt time (%) = 0 (0)
Other time (%) = 4.50398e-05 (1.9346)

Nlocal:    2912 ave 2912 max 2912 min
Histogram: 1 0 0 0 0 0 0 0 0 0
Nghost:    7129 ave 7129 max 7129 min
Histogram: 1 0 0 0 0 0 0 0 0 0
Neighs:    77664 ave 77664 max 77664 min
Histogram: 1 0 0 0 0 0 0 0 0 0

Total # of neighbors = 77664
Ave neighs/atom = 26.6703
Neighbor list builds = 0
Dangerous builds = 0
	# write_dump all atom ${dumpfile}
        next i
jump SELF loop1
        displace_atoms upper move 0.0 ${ystep1} 0.0 units lattice
        displace_atoms upper move 0.0 0.00288675134594812 0.0 units lattice
        min_style ${style}
        min_style hftn
        minimize ${etol} ${ftol} ${maxiter} ${maxeval}
        minimize 1e-12 ${ftol} ${maxiter} ${maxeval}
        minimize 1e-12 1e-08 ${maxiter} ${maxeval}
        minimize 1e-12 1e-08 10000 ${maxeval}
        minimize 1e-12 1e-08 10000 20000
WARNING: Resetting reneighboring criteria during minimization (../min.cpp:168)
Memory usage per processor = 5.28939 Mbytes
Step Temp PotEng Lx Ly Lz 
      15            0   -17313.718    7.7766452    82.722511    4.4898482 
Loop time of 0.00167909 on 1 procs for 0 steps with 2912 atoms

Minimization stats:
  Stopping criterion = force tolerance
  Energy initial, next-to-last, final = 
         -17313.717712      -17313.717712      -17313.717712
  Force two-norm initial, final = 8.49603e-11 8.49603e-11
  Force max component initial, final = 2.7994e-12 2.7994e-12
  Final line search alpha, max atom move = 0 0
  Iterations, force evaluations = 0 0

Pair  time (%) = 0.001605 (95.5873)
Neigh time (%) = 0 (0)
Comm  time (%) = 4.39921e-05 (2.61999)
Outpt time (%) = 0 (0)
Other time (%) = 3.01017e-05 (1.79274)

Nlocal:    2912 ave 2912 max 2912 min
Histogram: 1 0 0 0 0 0 0 0 0 0
Nghost:    7129 ave 7129 max 7129 min
Histogram: 1 0 0 0 0 0 0 0 0 0
Neighs:    77664 ave 77664 max 77664 min
Histogram: 1 0 0 0 0 0 0 0 0 0

Total # of neighbors = 77664
Ave neighs/atom = 26.6703
Neighbor list builds = 0
Dangerous builds = 0
	# write_dump all atom ${dumpfile}
        next i
jump SELF loop1
        displace_atoms upper move 0.0 ${ystep1} 0.0 units lattice
        displace_atoms upper move 0.0 0.00288675134594812 0.0 units lattice
        min_style ${style}
        min_style hftn
        minimize ${etol} ${ftol} ${maxiter} ${maxeval}
        minimize 1e-12 ${ftol} ${maxiter} ${maxeval}
        minimize 1e-12 1e-08 ${maxiter} ${maxeval}
        minimize 1e-12 1e-08 10000 ${maxeval}
        minimize 1e-12 1e-08 10000 20000
WARNING: Resetting reneighboring criteria during minimization (../min.cpp:168)
Memory usage per processor = 5.28939 Mbytes
Step Temp PotEng Lx Ly Lz 
      15            0   -17310.947    7.7766452    82.730448    4.4898482 
Loop time of 0.00216896 on 1 procs for 0 steps with 2912 atoms

Minimization stats:
  Stopping criterion = force tolerance
  Energy initial, next-to-last, final = 
        -17310.9468641     -17310.9468641     -17310.9468641
  Force two-norm initial, final = 8.49561e-11 8.49561e-11
  Force max component initial, final = 2.7994e-12 2.7994e-12
  Final line search alpha, max atom move = 0 0
  Iterations, force evaluations = 0 0

Pair  time (%) = 0.00210201 (96.913)
Neigh time (%) = 0 (0)
Comm  time (%) = 3.50551e-05 (1.61622)
Outpt time (%) = 0 (0)
Other time (%) = 3.18998e-05 (1.47074)

Nlocal:    2912 ave 2912 max 2912 min
Histogram: 1 0 0 0 0 0 0 0 0 0
Nghost:    7129 ave 7129 max 7129 min
Histogram: 1 0 0 0 0 0 0 0 0 0
Neighs:    77664 ave 77664 max 77664 min
Histogram: 1 0 0 0 0 0 0 0 0 0

Total # of neighbors = 77664
Ave neighs/atom = 26.6703
Neighbor list builds = 0
Dangerous builds = 0
	# write_dump all atom ${dumpfile}
        next i
jump SELF loop1
        displace_atoms upper move 0.0 ${ystep1} 0.0 units lattice
        displace_atoms upper move 0.0 0.00288675134594812 0.0 units lattice
        min_style ${style}
        min_style hftn
        minimize ${etol} ${ftol} ${maxiter} ${maxeval}
        minimize 1e-12 ${ftol} ${maxiter} ${maxeval}
        minimize 1e-12 1e-08 ${maxiter} ${maxeval}
        minimize 1e-12 1e-08 10000 ${maxeval}
        minimize 1e-12 1e-08 10000 20000
WARNING: Resetting reneighboring criteria during minimization (../min.cpp:168)
Memory usage per processor = 5.28939 Mbytes
Step Temp PotEng Lx Ly Lz 
      15            0   -17308.283    7.7766452    82.738385    4.4898482 
Loop time of 0.00197712 on 1 procs for 0 steps with 2912 atoms

Minimization stats:
  Stopping criterion = force tolerance
  Energy initial, next-to-last, final = 
        -17308.2832631     -17308.2832631     -17308.2832631
  Force two-norm initial, final = 8.49501e-11 8.49501e-11
  Force max component initial, final = 2.7994e-12 2.7994e-12
  Final line search alpha, max atom move = 0 0
  Iterations, force evaluations = 0 0

Pair  time (%) = 0.00191303 (96.7582)
Neigh time (%) = 0 (0)
Comm  time (%) = 3.50134e-05 (1.77093)
Outpt time (%) = 0 (0)
Other time (%) = 2.90804e-05 (1.47085)

Nlocal:    2912 ave 2912 max 2912 min
Histogram: 1 0 0 0 0 0 0 0 0 0
Nghost:    7129 ave 7129 max 7129 min
Histogram: 1 0 0 0 0 0 0 0 0 0
Neighs:    77664 ave 77664 max 77664 min
Histogram: 1 0 0 0 0 0 0 0 0 0

Total # of neighbors = 77664
Ave neighs/atom = 26.6703
Neighbor list builds = 0
Dangerous builds = 0
	# write_dump all atom ${dumpfile}
        next i
jump SELF loop1
        displace_atoms upper move 0.0 ${ystep1} 0.0 units lattice
        displace_atoms upper move 0.0 0.00288675134594812 0.0 units lattice
        min_style ${style}
        min_style hftn
        minimize ${etol} ${ftol} ${maxiter} ${maxeval}
        minimize 1e-12 ${ftol} ${maxiter} ${maxeval}
        minimize 1e-12 1e-08 ${maxiter} ${maxeval}
        minimize 1e-12 1e-08 10000 ${maxeval}
        minimize 1e-12 1e-08 10000 20000
WARNING: Resetting reneighboring criteria during minimization (../min.cpp:168)
Memory usage per processor = 5.28939 Mbytes
Step Temp PotEng Lx Ly Lz 
      15            0   -17305.743    7.7766452    82.746322    4.4898482 
Loop time of 0.002186 on 1 procs for 0 steps with 2912 atoms

Minimization stats:
  Stopping criterion = force tolerance
  Energy initial, next-to-last, final = 
        -17305.7431214     -17305.7431214     -17305.7431214
  Force two-norm initial, final = 8.49453e-11 8.49453e-11
  Force max component initial, final = 2.7994e-12 2.7994e-12
  Final line search alpha, max atom move = 0 0
  Iterations, force evaluations = 0 0

Pair  time (%) = 0.0021231 (97.1225)
Neigh time (%) = 0 (0)
Comm  time (%) = 3.49161e-05 (1.59726)
Outpt time (%) = 0 (0)
Other time (%) = 2.79857e-05 (1.28022)

Nlocal:    2912 ave 2912 max 2912 min
Histogram: 1 0 0 0 0 0 0 0 0 0
Nghost:    7129 ave 7129 max 7129 min
Histogram: 1 0 0 0 0 0 0 0 0 0
Neighs:    77664 ave 77664 max 77664 min
Histogram: 1 0 0 0 0 0 0 0 0 0

Total # of neighbors = 77664
Ave neighs/atom = 26.6703
Neighbor list builds = 0
Dangerous builds = 0
	# write_dump all atom ${dumpfile}
        next i
jump SELF loop1
        displace_atoms upper move 0.0 ${ystep1} 0.0 units lattice
        displace_atoms upper move 0.0 0.00288675134594812 0.0 units lattice
        min_style ${style}
        min_style hftn
        minimize ${etol} ${ftol} ${maxiter} ${maxeval}
        minimize 1e-12 ${ftol} ${maxiter} ${maxeval}
        minimize 1e-12 1e-08 ${maxiter} ${maxeval}
        minimize 1e-12 1e-08 10000 ${maxeval}
        minimize 1e-12 1e-08 10000 20000
WARNING: Resetting reneighboring criteria during minimization (../min.cpp:168)
Memory usage per processor = 5.28939 Mbytes
Step Temp PotEng Lx Ly Lz 
      15            0   -17303.343    7.7766452    82.754259    4.4898482 
Loop time of 0.00533606 on 1 procs for 0 steps with 2912 atoms

Minimization stats:
  Stopping criterion = force tolerance
  Energy initial, next-to-last, final = 
        -17303.3427431     -17303.3427431     -17303.3427431
  Force two-norm initial, final = 8.49428e-11 8.49428e-11
  Force max component initial, final = 2.7994e-12 2.7994e-12
  Final line search alpha, max atom move = 0 0
  Iterations, force evaluations = 0 0

Pair  time (%) = 0.00528712 (99.0827)
Neigh time (%) = 0 (0)
Comm  time (%) = 3.19515e-05 (0.598783)
Outpt time (%) = 0 (0)
Other time (%) = 1.69966e-05 (0.318524)

Nlocal:    2912 ave 2912 max 2912 min
Histogram: 1 0 0 0 0 0 0 0 0 0
Nghost:    7129 ave 7129 max 7129 min
Histogram: 1 0 0 0 0 0 0 0 0 0
Neighs:    77664 ave 77664 max 77664 min
Histogram: 1 0 0 0 0 0 0 0 0 0

Total # of neighbors = 77664
Ave neighs/atom = 26.6703
Neighbor list builds = 0
Dangerous builds = 0
	# write_dump all atom ${dumpfile}
        next i
jump SELF loop1
        displace_atoms upper move 0.0 ${ystep1} 0.0 units lattice
        displace_atoms upper move 0.0 0.00288675134594812 0.0 units lattice
        min_style ${style}
        min_style hftn
        minimize ${etol} ${ftol} ${maxiter} ${maxeval}
        minimize 1e-12 ${ftol} ${maxiter} ${maxeval}
        minimize 1e-12 1e-08 ${maxiter} ${maxeval}
        minimize 1e-12 1e-08 10000 ${maxeval}
        minimize 1e-12 1e-08 10000 20000
WARNING: Resetting reneighboring criteria during minimization (../min.cpp:168)
Memory usage per processor = 5.28939 Mbytes
Step Temp PotEng Lx Ly Lz 
      15            0   -17301.092    7.7766452    82.762196    4.4898482 
Loop time of 0.00238692 on 1 procs for 0 steps with 2912 atoms

Minimization stats:
  Stopping criterion = force tolerance
  Energy initial, next-to-last, final = 
        -17301.0916925     -17301.0916925     -17301.0916925
  Force two-norm initial, final = 8.49422e-11 8.49422e-11
  Force max component initial, final = 2.7994e-12 2.7994e-12
  Final line search alpha, max atom move = 0 0
  Iterations, force evaluations = 0 0

Pair  time (%) = 0.00228106 (95.5652)
Neigh time (%) = 0 (0)
Comm  time (%) = 5.72113e-05 (2.39687)
Outpt time (%) = 0 (0)
Other time (%) = 4.86441e-05 (2.03795)

Nlocal:    2912 ave 2912 max 2912 min
Histogram: 1 0 0 0 0 0 0 0 0 0
Nghost:    7129 ave 7129 max 7129 min
Histogram: 1 0 0 0 0 0 0 0 0 0
Neighs:    77664 ave 77664 max 77664 min
Histogram: 1 0 0 0 0 0 0 0 0 0

Total # of neighbors = 77664
Ave neighs/atom = 26.6703
Neighbor list builds = 0
Dangerous builds = 0
	# write_dump all atom ${dumpfile}
        next i
jump SELF loop1
        displace_atoms upper move 0.0 ${ystep1} 0.0 units lattice
        displace_atoms upper move 0.0 0.00288675134594812 0.0 units lattice
        min_style ${style}
        min_style hftn
        minimize ${etol} ${ftol} ${maxiter} ${maxeval}
        minimize 1e-12 ${ftol} ${maxiter} ${maxeval}
        minimize 1e-12 1e-08 ${maxiter} ${maxeval}
        minimize 1e-12 1e-08 10000 ${maxeval}
        minimize 1e-12 1e-08 10000 20000
WARNING: Resetting reneighboring criteria during minimization (../min.cpp:168)
Memory usage per processor = 5.28939 Mbytes
Step Temp PotEng Lx Ly Lz 
      15            0   -17298.987    7.7766452    82.770133    4.4898482 
Loop time of 0.00236608 on 1 procs for 0 steps with 2912 atoms

Minimization stats:
  Stopping criterion = force tolerance
  Energy initial, next-to-last, final = 
        -17298.9869523     -17298.9869523     -17298.9869523
  Force two-norm initial, final = 8.4943e-11 8.4943e-11
  Force max component initial, final = 2.7994e-12 2.7994e-12
  Final line search alpha, max atom move = 0 0
  Iterations, force evaluations = 0 0

Pair  time (%) = 0.00230294 (97.3314)
Neigh time (%) = 0 (0)
Comm  time (%) = 3.30702e-05 (1.39768)
Outpt time (%) = 0 (0)
Other time (%) = 3.007e-05 (1.27088)

Nlocal:    2912 ave 2912 max 2912 min
Histogram: 1 0 0 0 0 0 0 0 0 0
Nghost:    7129 ave 7129 max 7129 min
Histogram: 1 0 0 0 0 0 0 0 0 0
Neighs:    77664 ave 77664 max 77664 min
Histogram: 1 0 0 0 0 0 0 0 0 0

Total # of neighbors = 77664
Ave neighs/atom = 26.6703
Neighbor list builds = 0
Dangerous builds = 0
	# write_dump all atom ${dumpfile}
        next i
jump SELF loop1
        displace_atoms upper move 0.0 ${ystep1} 0.0 units lattice
        displace_atoms upper move 0.0 0.00288675134594812 0.0 units lattice
        min_style ${style}
        min_style hftn
        minimize ${etol} ${ftol} ${maxiter} ${maxeval}
        minimize 1e-12 ${ftol} ${maxiter} ${maxeval}
        minimize 1e-12 1e-08 ${maxiter} ${maxeval}
        minimize 1e-12 1e-08 10000 ${maxeval}
        minimize 1e-12 1e-08 10000 20000
WARNING: Resetting reneighboring criteria during minimization (../min.cpp:168)
Memory usage per processor = 5.28939 Mbytes
Step Temp PotEng Lx Ly Lz 
      15            0   -17297.024    7.7766452     82.77807    4.4898482 
Loop time of 0.00263004 on 1 procs for 0 steps with 2912 atoms

Minimization stats:
  Stopping criterion = force tolerance
  Energy initial, next-to-last, final = 
        -17297.0240826     -17297.0240826     -17297.0240826
  Force two-norm initial, final = 8.49446e-11 8.49446e-11
  Force max component initial, final = 2.7994e-12 2.7994e-12
  Final line search alpha, max atom move = 0 0
  Iterations, force evaluations = 0 0

Pair  time (%) = 0.0025669 (97.5993)
Neigh time (%) = 0 (0)
Comm  time (%) = 3.30738e-05 (1.25754)
Outpt time (%) = 0 (0)
Other time (%) = 3.00664e-05 (1.14319)

Nlocal:    2912 ave 2912 max 2912 min
Histogram: 1 0 0 0 0 0 0 0 0 0
Nghost:    7129 ave 7129 max 7129 min
Histogram: 1 0 0 0 0 0 0 0 0 0
Neighs:    77664 ave 77664 max 77664 min
Histogram: 1 0 0 0 0 0 0 0 0 0

Total # of neighbors = 77664
Ave neighs/atom = 26.6703
Neighbor list builds = 0
Dangerous builds = 0
	# write_dump all atom ${dumpfile}
        next i
jump SELF loop1
        displace_atoms upper move 0.0 ${ystep1} 0.0 units lattice
        displace_atoms upper move 0.0 0.00288675134594812 0.0 units lattice
        min_style ${style}
        min_style hftn
        minimize ${etol} ${ftol} ${maxiter} ${maxeval}
        minimize 1e-12 ${ftol} ${maxiter} ${maxeval}
        minimize 1e-12 1e-08 ${maxiter} ${maxeval}
        minimize 1e-12 1e-08 10000 ${maxeval}
        minimize 1e-12 1e-08 10000 20000
WARNING: Resetting reneighboring criteria during minimization (../min.cpp:168)
Memory usage per processor = 5.28939 Mbytes
Step Temp PotEng Lx Ly Lz 
      15            0   -17295.199    7.7766452    82.786007    4.4898482 
Loop time of 0.00177602 on 1 procs for 0 steps with 2912 atoms

Minimization stats:
  Stopping criterion = force tolerance
  Energy initial, next-to-last, final = 
        -17295.1985667     -17295.1985667     -17295.1985667
  Force two-norm initial, final = 8.49441e-11 8.49441e-11
  Force max component initial, final = 2.7994e-12 2.7994e-12
  Final line search alpha, max atom move = 0 0
  Iterations, force evaluations = 0 0

Pair  time (%) = 0.00171288 (96.4449)
Neigh time (%) = 0 (0)
Comm  time (%) = 3.40429e-05 (1.91681)
Outpt time (%) = 0 (0)
Other time (%) = 2.90973e-05 (1.63834)

Nlocal:    2912 ave 2912 max 2912 min
Histogram: 1 0 0 0 0 0 0 0 0 0
Nghost:    7129 ave 7129 max 7129 min
Histogram: 1 0 0 0 0 0 0 0 0 0
Neighs:    77664 ave 77664 max 77664 min
Histogram: 1 0 0 0 0 0 0 0 0 0

Total # of neighbors = 77664
Ave neighs/atom = 26.6703
Neighbor list builds = 0
Dangerous builds = 0
	# write_dump all atom ${dumpfile}
        next i
jump SELF loop1
        displace_atoms upper move 0.0 ${ystep1} 0.0 units lattice
        displace_atoms upper move 0.0 0.00288675134594812 0.0 units lattice
        min_style ${style}
        min_style hftn
        minimize ${etol} ${ftol} ${maxiter} ${maxeval}
        minimize 1e-12 ${ftol} ${maxiter} ${maxeval}
        minimize 1e-12 1e-08 ${maxiter} ${maxeval}
        minimize 1e-12 1e-08 10000 ${maxeval}
        minimize 1e-12 1e-08 10000 20000
WARNING: Resetting reneighboring criteria during minimization (../min.cpp:168)
Memory usage per processor = 5.28939 Mbytes
Step Temp PotEng Lx Ly Lz 
      15            0   -17293.506    7.7766452    82.793944    4.4898482 
Loop time of 0.00255403 on 1 procs for 0 steps with 2912 atoms

Minimization stats:
  Stopping criterion = force tolerance
  Energy initial, next-to-last, final = 
        -17293.5060426     -17293.5060426     -17293.5060426
  Force two-norm initial, final = 8.49449e-11 8.49449e-11
  Force max component initial, final = 2.7994e-12 2.7994e-12
  Final line search alpha, max atom move = 0 0
  Iterations, force evaluations = 0 0

Pair  time (%) = 0.00248994 (97.4905)
Neigh time (%) = 0 (0)
Comm  time (%) = 3.29108e-05 (1.28858)
Outpt time (%) = 0 (0)
Other time (%) = 3.1183e-05 (1.22093)

Nlocal:    2912 ave 2912 max 2912 min
Histogram: 1 0 0 0 0 0 0 0 0 0
Nghost:    7129 ave 7129 max 7129 min
Histogram: 1 0 0 0 0 0 0 0 0 0
Neighs:    77664 ave 77664 max 77664 min
Histogram: 1 0 0 0 0 0 0 0 0 0

Total # of neighbors = 77664
Ave neighs/atom = 26.6703
Neighbor list builds = 0
Dangerous builds = 0
	# write_dump all atom ${dumpfile}
        next i
jump SELF loop1
        displace_atoms upper move 0.0 ${ystep1} 0.0 units lattice
        displace_atoms upper move 0.0 0.00288675134594812 0.0 units lattice
        min_style ${style}
        min_style hftn
        minimize ${etol} ${ftol} ${maxiter} ${maxeval}
        minimize 1e-12 ${ftol} ${maxiter} ${maxeval}
        minimize 1e-12 1e-08 ${maxiter} ${maxeval}
        minimize 1e-12 1e-08 10000 ${maxeval}
        minimize 1e-12 1e-08 10000 20000
WARNING: Resetting reneighboring criteria during minimization (../min.cpp:168)
Memory usage per processor = 5.29063 Mbytes
Step Temp PotEng Lx Ly Lz 
      15            0   -17291.942    7.7766452    82.801881    4.4898482 
Loop time of 0.00243907 on 1 procs for 0 steps with 2912 atoms

Minimization stats:
  Stopping criterion = force tolerance
  Energy initial, next-to-last, final = 
        -17291.9416806     -17291.9416806     -17291.9416806
  Force two-norm initial, final = 8.49466e-11 8.49466e-11
  Force max component initial, final = 2.7994e-12 2.7994e-12
  Final line search alpha, max atom move = 0 0
  Iterations, force evaluations = 0 0

Pair  time (%) = 0.00233797 (95.8552)
Neigh time (%) = 0 (0)
Comm  time (%) = 5.30945e-05 (2.17683)
Outpt time (%) = 0 (0)
Other time (%) = 4.79994e-05 (1.96794)

Nlocal:    2912 ave 2912 max 2912 min
Histogram: 1 0 0 0 0 0 0 0 0 0
Nghost:    7129 ave 7129 max 7129 min
Histogram: 1 0 0 0 0 0 0 0 0 0
Neighs:    77664 ave 77664 max 77664 min
Histogram: 1 0 0 0 0 0 0 0 0 0

Total # of neighbors = 77664
Ave neighs/atom = 26.6703
Neighbor list builds = 0
Dangerous builds = 0
	# write_dump all atom ${dumpfile}
        next i
jump SELF loop1
        displace_atoms upper move 0.0 ${ystep1} 0.0 units lattice
        displace_atoms upper move 0.0 0.00288675134594812 0.0 units lattice
        min_style ${style}
        min_style hftn
        minimize ${etol} ${ftol} ${maxiter} ${maxeval}
        minimize 1e-12 ${ftol} ${maxiter} ${maxeval}
        minimize 1e-12 1e-08 ${maxiter} ${maxeval}
        minimize 1e-12 1e-08 10000 ${maxeval}
        minimize 1e-12 1e-08 10000 20000
WARNING: Resetting reneighboring criteria during minimization (../min.cpp:168)
Memory usage per processor = 5.29063 Mbytes
Step Temp PotEng Lx Ly Lz 
      15            0   -17290.501    7.7766452    82.809818    4.4898482 
Loop time of 0.00368389 on 1 procs for 0 steps with 2912 atoms

Minimization stats:
  Stopping criterion = force tolerance
  Energy initial, next-to-last, final = 
        -17290.5009472     -17290.5009472     -17290.5009472
  Force two-norm initial, final = 8.49459e-11 8.49459e-11
  Force max component initial, final = 2.7994e-12 2.7994e-12
  Final line search alpha, max atom move = 0 0
  Iterations, force evaluations = 0 0

Pair  time (%) = 0.00361999 (98.2654)
Neigh time (%) = 0 (0)
Comm  time (%) = 3.41528e-05 (0.927084)
Outpt time (%) = 0 (0)
Other time (%) = 2.9749e-05 (0.807543)

Nlocal:    2912 ave 2912 max 2912 min
Histogram: 1 0 0 0 0 0 0 0 0 0
Nghost:    7129 ave 7129 max 7129 min
Histogram: 1 0 0 0 0 0 0 0 0 0
Neighs:    77664 ave 77664 max 77664 min
Histogram: 1 0 0 0 0 0 0 0 0 0

Total # of neighbors = 77664
Ave neighs/atom = 26.6703
Neighbor list builds = 0
Dangerous builds = 0
	# write_dump all atom ${dumpfile}
        next i
jump SELF loop1
        displace_atoms upper move 0.0 ${ystep1} 0.0 units lattice
        displace_atoms upper move 0.0 0.00288675134594812 0.0 units lattice
        min_style ${style}
        min_style hftn
        minimize ${etol} ${ftol} ${maxiter} ${maxeval}
        minimize 1e-12 ${ftol} ${maxiter} ${maxeval}
        minimize 1e-12 1e-08 ${maxiter} ${maxeval}
        minimize 1e-12 1e-08 10000 ${maxeval}
        minimize 1e-12 1e-08 10000 20000
WARNING: Resetting reneighboring criteria during minimization (../min.cpp:168)
Memory usage per processor = 5.29063 Mbytes
Step Temp PotEng Lx Ly Lz 
      15            0   -17289.179    7.7766452    82.817755    4.4898482 
Loop time of 0.00286203 on 1 procs for 0 steps with 2912 atoms

Minimization stats:
  Stopping criterion = force tolerance
  Energy initial, next-to-last, final = 
        -17289.1790081     -17289.1790081     -17289.1790081
  Force two-norm initial, final = 8.49468e-11 8.49468e-11
  Force max component initial, final = 2.7994e-12 2.7994e-12
  Final line search alpha, max atom move = 0 0
  Iterations, force evaluations = 0 0

Pair  time (%) = 0.00279508 (97.6608)
Neigh time (%) = 0 (0)
Comm  time (%) = 3.60671e-05 (1.26019)
Outpt time (%) = 0 (0)
Other time (%) = 3.0881e-05 (1.07899)

Nlocal:    2912 ave 2912 max 2912 min
Histogram: 1 0 0 0 0 0 0 0 0 0
Nghost:    7129 ave 7129 max 7129 min
Histogram: 1 0 0 0 0 0 0 0 0 0
Neighs:    77664 ave 77664 max 77664 min
Histogram: 1 0 0 0 0 0 0 0 0 0

Total # of neighbors = 77664
Ave neighs/atom = 26.6703
Neighbor list builds = 0
Dangerous builds = 0
	# write_dump all atom ${dumpfile}
        next i
jump SELF loop1
        displace_atoms upper move 0.0 ${ystep1} 0.0 units lattice
        displace_atoms upper move 0.0 0.00288675134594812 0.0 units lattice
        min_style ${style}
        min_style hftn
        minimize ${etol} ${ftol} ${maxiter} ${maxeval}
        minimize 1e-12 ${ftol} ${maxiter} ${maxeval}
        minimize 1e-12 1e-08 ${maxiter} ${maxeval}
        minimize 1e-12 1e-08 10000 ${maxeval}
        minimize 1e-12 1e-08 10000 20000
WARNING: Resetting reneighboring criteria during minimization (../min.cpp:168)
Memory usage per processor = 5.29063 Mbytes
Step Temp PotEng Lx Ly Lz 
      15            0   -17287.971    7.7766452    82.825692    4.4898482 
Loop time of 0.00338393 on 1 procs for 0 steps with 2912 atoms

Minimization stats:
  Stopping criterion = force tolerance
  Energy initial, next-to-last, final = 
         -17287.971281      -17287.971281      -17287.971281
  Force two-norm initial, final = 8.49485e-11 8.49485e-11
  Force max component initial, final = 2.7994e-12 2.7994e-12
  Final line search alpha, max atom move = 0 0
  Iterations, force evaluations = 0 0

Pair  time (%) = 0.00332003 (98.1116)
Neigh time (%) = 0 (0)
Comm  time (%) = 3.51608e-05 (1.03905)
Outpt time (%) = 0 (0)
Other time (%) = 2.8741e-05 (0.849336)

Nlocal:    2912 ave 2912 max 2912 min
Histogram: 1 0 0 0 0 0 0 0 0 0
Nghost:    7129 ave 7129 max 7129 min
Histogram: 1 0 0 0 0 0 0 0 0 0
Neighs:    77664 ave 77664 max 77664 min
Histogram: 1 0 0 0 0 0 0 0 0 0

Total # of neighbors = 77664
Ave neighs/atom = 26.6703
Neighbor list builds = 0
Dangerous builds = 0
	# write_dump all atom ${dumpfile}
        next i
jump SELF loop1
        displace_atoms upper move 0.0 ${ystep1} 0.0 units lattice
        displace_atoms upper move 0.0 0.00288675134594812 0.0 units lattice
        min_style ${style}
        min_style hftn
        minimize ${etol} ${ftol} ${maxiter} ${maxeval}
        minimize 1e-12 ${ftol} ${maxiter} ${maxeval}
        minimize 1e-12 1e-08 ${maxiter} ${maxeval}
        minimize 1e-12 1e-08 10000 ${maxeval}
        minimize 1e-12 1e-08 10000 20000
WARNING: Resetting reneighboring criteria during minimization (../min.cpp:168)
Memory usage per processor = 5.29063 Mbytes
Step Temp PotEng Lx Ly Lz 
      15            0   -17286.873    7.7766452    82.833629    4.4898482 
Loop time of 0.00333311 on 1 procs for 0 steps with 2912 atoms

Minimization stats:
  Stopping criterion = force tolerance
  Energy initial, next-to-last, final = 
        -17286.8727868     -17286.8727868     -17286.8727868
  Force two-norm initial, final = 8.49481e-11 8.49481e-11
  Force max component initial, final = 2.7994e-12 2.7994e-12
  Final line search alpha, max atom move = 0 0
  Iterations, force evaluations = 0 0

Pair  time (%) = 0.00327193 (98.1643)
Neigh time (%) = 0 (0)
Comm  time (%) = 3.31188e-05 (0.993628)
Outpt time (%) = 0 (0)
Other time (%) = 2.80679e-05 (0.842091)

Nlocal:    2912 ave 2912 max 2912 min
Histogram: 1 0 0 0 0 0 0 0 0 0
Nghost:    7129 ave 7129 max 7129 min
Histogram: 1 0 0 0 0 0 0 0 0 0
Neighs:    77664 ave 77664 max 77664 min
Histogram: 1 0 0 0 0 0 0 0 0 0

Total # of neighbors = 77664
Ave neighs/atom = 26.6703
Neighbor list builds = 0
Dangerous builds = 0
	# write_dump all atom ${dumpfile}
        next i
jump SELF loop1
        displace_atoms upper move 0.0 ${ystep1} 0.0 units lattice
        displace_atoms upper move 0.0 0.00288675134594812 0.0 units lattice
        min_style ${style}
        min_style hftn
        minimize ${etol} ${ftol} ${maxiter} ${maxeval}
        minimize 1e-12 ${ftol} ${maxiter} ${maxeval}
        minimize 1e-12 1e-08 ${maxiter} ${maxeval}
        minimize 1e-12 1e-08 10000 ${maxeval}
        minimize 1e-12 1e-08 10000 20000
WARNING: Resetting reneighboring criteria during minimization (../min.cpp:168)
Memory usage per processor = 5.29063 Mbytes
Step Temp PotEng Lx Ly Lz 
      15            0   -17285.879    7.7766452    82.841566    4.4898482 
Loop time of 0.00207311 on 1 procs for 0 steps with 2912 atoms

Minimization stats:
  Stopping criterion = force tolerance
  Energy initial, next-to-last, final = 
        -17285.8786752     -17285.8786752     -17285.8786752
  Force two-norm initial, final = 8.49489e-11 8.49489e-11
  Force max component initial, final = 2.7994e-12 2.7994e-12
  Final line search alpha, max atom move = 0 0
  Iterations, force evaluations = 0 0

Pair  time (%) = 0.00199297 (96.1343)
Neigh time (%) = 0 (0)
Comm  time (%) = 5.00731e-05 (2.41537)
Outpt time (%) = 0 (0)
Other time (%) = 3.00671e-05 (1.45034)

Nlocal:    2912 ave 2912 max 2912 min
Histogram: 1 0 0 0 0 0 0 0 0 0
Nghost:    7129 ave 7129 max 7129 min
Histogram: 1 0 0 0 0 0 0 0 0 0
Neighs:    77664 ave 77664 max 77664 min
Histogram: 1 0 0 0 0 0 0 0 0 0

Total # of neighbors = 77664
Ave neighs/atom = 26.6703
Neighbor list builds = 0
Dangerous builds = 0
	# write_dump all atom ${dumpfile}
        next i
jump SELF loop1
        displace_atoms upper move 0.0 ${ystep1} 0.0 units lattice
        displace_atoms upper move 0.0 0.00288675134594812 0.0 units lattice
        min_style ${style}
        min_style hftn
        minimize ${etol} ${ftol} ${maxiter} ${maxeval}
        minimize 1e-12 ${ftol} ${maxiter} ${maxeval}
        minimize 1e-12 1e-08 ${maxiter} ${maxeval}
        minimize 1e-12 1e-08 10000 ${maxeval}
        minimize 1e-12 1e-08 10000 20000
WARNING: Resetting reneighboring criteria during minimization (../min.cpp:168)
Memory usage per processor = 5.29063 Mbytes
Step Temp PotEng Lx Ly Lz 
      15            0   -17284.984    7.7766452    82.849503    4.4898482 
Loop time of 0.00216996 on 1 procs for 0 steps with 2912 atoms

Minimization stats:
  Stopping criterion = force tolerance
  Energy initial, next-to-last, final = 
        -17284.9840253     -17284.9840253     -17284.9840253
  Force two-norm initial, final = 8.49496e-11 8.49496e-11
  Force max component initial, final = 2.7994e-12 2.7994e-12
  Final line search alpha, max atom move = 0 0
  Iterations, force evaluations = 0 0

Pair  time (%) = 0.00210606 (97.0552)
Neigh time (%) = 0 (0)
Comm  time (%) = 3.40164e-05 (1.5676)
Outpt time (%) = 0 (0)
Other time (%) = 2.98853e-05 (1.37723)

Nlocal:    2912 ave 2912 max 2912 min
Histogram: 1 0 0 0 0 0 0 0 0 0
Nghost:    7129 ave 7129 max 7129 min
Histogram: 1 0 0 0 0 0 0 0 0 0
Neighs:    77664 ave 77664 max 77664 min
Histogram: 1 0 0 0 0 0 0 0 0 0

Total # of neighbors = 77664
Ave neighs/atom = 26.6703
Neighbor list builds = 0
Dangerous builds = 0
	# write_dump all atom ${dumpfile}
        next i
jump SELF loop1
        displace_atoms upper move 0.0 ${ystep1} 0.0 units lattice
        displace_atoms upper move 0.0 0.00288675134594812 0.0 units lattice
        min_style ${style}
        min_style hftn
        minimize ${etol} ${ftol} ${maxiter} ${maxeval}
        minimize 1e-12 ${ftol} ${maxiter} ${maxeval}
        minimize 1e-12 1e-08 ${maxiter} ${maxeval}
        minimize 1e-12 1e-08 10000 ${maxeval}
        minimize 1e-12 1e-08 10000 20000
WARNING: Resetting reneighboring criteria during minimization (../min.cpp:168)
Memory usage per processor = 5.29063 Mbytes
Step Temp PotEng Lx Ly Lz 
      15            0   -17284.184    7.7766452     82.85744    4.4898482 
Loop time of 0.00260607 on 1 procs for 0 steps with 2912 atoms

Minimization stats:
  Stopping criterion = force tolerance
  Energy initial, next-to-last, final = 
        -17284.1838542     -17284.1838542     -17284.1838542
  Force two-norm initial, final = 8.49505e-11 8.49505e-11
  Force max component initial, final = 2.7994e-12 2.7994e-12
  Final line search alpha, max atom move = 0 0
  Iterations, force evaluations = 0 0

[...]
Histogram: 1 0 0 0 0 0 0 0 0 0
Nghost:    7129 ave 7129 max 7129 min
Histogram: 1 0 0 0 0 0 0 0 0 0
Neighs:    77088 ave 77088 max 77088 min
Histogram: 1 0 0 0 0 0 0 0 0 0

Total # of neighbors = 77088
Ave neighs/atom = 26.4725
Neighbor list builds = 0
Dangerous builds = 0
	# write_dump all atom ${dumpfile}
        next i
jump SELF loop1
        displace_atoms upper move 0.0 ${ystep1} 0.0 units lattice
        displace_atoms upper move 0.0 0.00288675134594812 0.0 units lattice
        min_style ${style}
        min_style hftn
        minimize ${etol} ${ftol} ${maxiter} ${maxeval}
        minimize 1e-12 ${ftol} ${maxiter} ${maxeval}
        minimize 1e-12 1e-08 ${maxiter} ${maxeval}
        minimize 1e-12 1e-08 10000 ${maxeval}
        minimize 1e-12 1e-08 10000 20000
WARNING: Resetting reneighboring criteria during minimization (../min.cpp:168)
Memory usage per processor = 5.29104 Mbytes
Step Temp PotEng Lx Ly Lz 
      15            0   -17279.986    7.7766452    84.802007    4.4898482 
Loop time of 0.002466 on 1 procs for 0 steps with 2912 atoms

Minimization stats:
  Stopping criterion = force tolerance
  Energy initial, next-to-last, final = 
        -17279.9856313     -17279.9856313     -17279.9856313
  Force two-norm initial, final = 8.49663e-11 8.49663e-11
  Force max component initial, final = 2.7994e-12 2.7994e-12
  Final line search alpha, max atom move = 0 0
  Iterations, force evaluations = 0 0

Pair  time (%) = 0.00240406 (97.4879)
Neigh time (%) = 0 (0)
Comm  time (%) = 3.39784e-05 (1.37787)
Outpt time (%) = 0 (0)
Other time (%) = 2.79697e-05 (1.13421)

Nlocal:    2912 ave 2912 max 2912 min
Histogram: 1 0 0 0 0 0 0 0 0 0
Nghost:    7129 ave 7129 max 7129 min
Histogram: 1 0 0 0 0 0 0 0 0 0
Neighs:    77088 ave 77088 max 77088 min
Histogram: 1 0 0 0 0 0 0 0 0 0

Total # of neighbors = 77088
Ave neighs/atom = 26.4725
Neighbor list builds = 0
Dangerous builds = 0
	# write_dump all atom ${dumpfile}
        next i
jump SELF loop1
        displace_atoms upper move 0.0 ${ystep1} 0.0 units lattice
        displace_atoms upper move 0.0 0.00288675134594812 0.0 units lattice
        min_style ${style}
        min_style hftn
        minimize ${etol} ${ftol} ${maxiter} ${maxeval}
        minimize 1e-12 ${ftol} ${maxiter} ${maxeval}
        minimize 1e-12 1e-08 ${maxiter} ${maxeval}
        minimize 1e-12 1e-08 10000 ${maxeval}
        minimize 1e-12 1e-08 10000 20000
WARNING: Resetting reneighboring criteria during minimization (../min.cpp:168)
Memory usage per processor = 5.29104 Mbytes
Step Temp PotEng Lx Ly Lz 
      15            0   -17279.986    7.7766452    84.809944    4.4898482 
Loop time of 0.00210396 on 1 procs for 0 steps with 2912 atoms

Minimization stats:
  Stopping criterion = force tolerance
  Energy initial, next-to-last, final = 
        -17279.9856313     -17279.9856313     -17279.9856313
  Force two-norm initial, final = 8.49669e-11 8.49669e-11
  Force max component initial, final = 2.7994e-12 2.7994e-12
  Final line search alpha, max atom move = 0 0
  Iterations, force evaluations = 0 0

Pair  time (%) = 0.00204111 (97.0125)
Neigh time (%) = 0 (0)
Comm  time (%) = 3.29086e-05 (1.56413)
Outpt time (%) = 0 (0)
Other time (%) = 2.99468e-05 (1.42335)

Nlocal:    2912 ave 2912 max 2912 min
Histogram: 1 0 0 0 0 0 0 0 0 0
Nghost:    7129 ave 7129 max 7129 min
Histogram: 1 0 0 0 0 0 0 0 0 0
Neighs:    77088 ave 77088 max 77088 min
Histogram: 1 0 0 0 0 0 0 0 0 0

Total # of neighbors = 77088
Ave neighs/atom = 26.4725
Neighbor list builds = 0
Dangerous builds = 0
	# write_dump all atom ${dumpfile}
        next i
jump SELF loop1
        displace_atoms upper move 0.0 ${ystep1} 0.0 units lattice
        displace_atoms upper move 0.0 0.00288675134594812 0.0 units lattice
        min_style ${style}
        min_style hftn
        minimize ${etol} ${ftol} ${maxiter} ${maxeval}
        minimize 1e-12 ${ftol} ${maxiter} ${maxeval}
        minimize 1e-12 1e-08 ${maxiter} ${maxeval}
        minimize 1e-12 1e-08 10000 ${maxeval}
        minimize 1e-12 1e-08 10000 20000
WARNING: Resetting reneighboring criteria during minimization (../min.cpp:168)
Memory usage per processor = 5.29104 Mbytes
Step Temp PotEng Lx Ly Lz 
      15            0   -17279.986    7.7766452    84.817881    4.4898482 
Loop time of 0.00202191 on 1 procs for 0 steps with 2912 atoms

Minimization stats:
  Stopping criterion = force tolerance
  Energy initial, next-to-last, final = 
        -17279.9856313     -17279.9856313     -17279.9856313
  Force two-norm initial, final = 8.49674e-11 8.49674e-11
  Force max component initial, final = 2.7994e-12 2.7994e-12
  Final line search alpha, max atom move = 0 0
  Iterations, force evaluations = 0 0

Pair  time (%) = 0.00195706 (96.7924)
Neigh time (%) = 0 (0)
Comm  time (%) = 3.60121e-05 (1.7811)
Outpt time (%) = 0 (0)
Other time (%) = 2.88432e-05 (1.42653)

Nlocal:    2912 ave 2912 max 2912 min
Histogram: 1 0 0 0 0 0 0 0 0 0
Nghost:    7129 ave 7129 max 7129 min
Histogram: 1 0 0 0 0 0 0 0 0 0
Neighs:    77088 ave 77088 max 77088 min
Histogram: 1 0 0 0 0 0 0 0 0 0

Total # of neighbors = 77088
Ave neighs/atom = 26.4725
Neighbor list builds = 0
Dangerous builds = 0
	# write_dump all atom ${dumpfile}
        next i
jump SELF loop1
        displace_atoms upper move 0.0 ${ystep1} 0.0 units lattice
        displace_atoms upper move 0.0 0.00288675134594812 0.0 units lattice
        min_style ${style}
        min_style hftn
        minimize ${etol} ${ftol} ${maxiter} ${maxeval}
        minimize 1e-12 ${ftol} ${maxiter} ${maxeval}
        minimize 1e-12 1e-08 ${maxiter} ${maxeval}
        minimize 1e-12 1e-08 10000 ${maxeval}
        minimize 1e-12 1e-08 10000 20000
WARNING: Resetting reneighboring criteria during minimization (../min.cpp:168)
Memory usage per processor = 5.29104 Mbytes
Step Temp PotEng Lx Ly Lz 
      15            0   -17279.986    7.7766452    84.825818    4.4898482 
Loop time of 0.00198707 on 1 procs for 0 steps with 2912 atoms

Minimization stats:
  Stopping criterion = force tolerance
  Energy initial, next-to-last, final = 
        -17279.9856313     -17279.9856313     -17279.9856313
  Force two-norm initial, final = 8.49663e-11 8.49663e-11
  Force max component initial, final = 2.7994e-12 2.7994e-12
  Final line search alpha, max atom move = 0 0
  Iterations, force evaluations = 0 0

Pair  time (%) = 0.00192106 (96.6785)
Neigh time (%) = 0 (0)
Comm  time (%) = 3.49387e-05 (1.75831)
Outpt time (%) = 0 (0)
Other time (%) = 3.10625e-05 (1.56324)

Nlocal:    2912 ave 2912 max 2912 min
Histogram: 1 0 0 0 0 0 0 0 0 0
Nghost:    7129 ave 7129 max 7129 min
Histogram: 1 0 0 0 0 0 0 0 0 0
Neighs:    77088 ave 77088 max 77088 min
Histogram: 1 0 0 0 0 0 0 0 0 0

Total # of neighbors = 77088
Ave neighs/atom = 26.4725
Neighbor list builds = 0
Dangerous builds = 0
	# write_dump all atom ${dumpfile}
        next i
jump SELF loop1
        displace_atoms upper move 0.0 ${ystep1} 0.0 units lattice
        displace_atoms upper move 0.0 0.00288675134594812 0.0 units lattice
        min_style ${style}
        min_style hftn
        minimize ${etol} ${ftol} ${maxiter} ${maxeval}
        minimize 1e-12 ${ftol} ${maxiter} ${maxeval}
        minimize 1e-12 1e-08 ${maxiter} ${maxeval}
        minimize 1e-12 1e-08 10000 ${maxeval}
        minimize 1e-12 1e-08 10000 20000
WARNING: Resetting reneighboring criteria during minimization (../min.cpp:168)
Memory usage per processor = 5.29104 Mbytes
Step Temp PotEng Lx Ly Lz 
      15            0   -17279.986    7.7766452    84.833755    4.4898482 
Loop time of 0.00169093 on 1 procs for 0 steps with 2912 atoms

Minimization stats:
  Stopping criterion = force tolerance
  Energy initial, next-to-last, final = 
        -17279.9856313     -17279.9856313     -17279.9856313
  Force two-norm initial, final = 8.49669e-11 8.49669e-11
  Force max component initial, final = 2.7994e-12 2.7994e-12
  Final line search alpha, max atom move = 0 0
  Iterations, force evaluations = 0 0

Pair  time (%) = 0.00162802 (96.28)
Neigh time (%) = 0 (0)
Comm  time (%) = 3.42077e-05 (2.02302)
Outpt time (%) = 0 (0)
Other time (%) = 2.8694e-05 (1.69694)

Nlocal:    2912 ave 2912 max 2912 min
Histogram: 1 0 0 0 0 0 0 0 0 0
Nghost:    7129 ave 7129 max 7129 min
Histogram: 1 0 0 0 0 0 0 0 0 0
Neighs:    77088 ave 77088 max 77088 min
Histogram: 1 0 0 0 0 0 0 0 0 0

Total # of neighbors = 77088
Ave neighs/atom = 26.4725
Neighbor list builds = 0
Dangerous builds = 0
	# write_dump all atom ${dumpfile}
        next i
jump SELF loop1
        displace_atoms upper move 0.0 ${ystep1} 0.0 units lattice
        displace_atoms upper move 0.0 0.00288675134594812 0.0 units lattice
        min_style ${style}
        min_style hftn
        minimize ${etol} ${ftol} ${maxiter} ${maxeval}
        minimize 1e-12 ${ftol} ${maxiter} ${maxeval}
        minimize 1e-12 1e-08 ${maxiter} ${maxeval}
        minimize 1e-12 1e-08 10000 ${maxeval}
        minimize 1e-12 1e-08 10000 20000
WARNING: Resetting reneighboring criteria during minimization (../min.cpp:168)
Memory usage per processor = 5.29104 Mbytes
Step Temp PotEng Lx Ly Lz 
      15            0   -17279.986    7.7766452    84.841692    4.4898482 
Loop time of 0.00528998 on 1 procs for 0 steps with 2912 atoms

Minimization stats:
  Stopping criterion = force tolerance
  Energy initial, next-to-last, final = 
        -17279.9856313     -17279.9856313     -17279.9856313
  Force two-norm initial, final = 8.49674e-11 8.49674e-11
  Force max component initial, final = 2.7994e-12 2.7994e-12
  Final line search alpha, max atom move = 0 0
  Iterations, force evaluations = 0 0

Pair  time (%) = 0.00522708 (98.8109)
Neigh time (%) = 0 (0)
Comm  time (%) = 3.29142e-05 (0.622199)
Outpt time (%) = 0 (0)
Other time (%) = 2.99875e-05 (0.566874)

Nlocal:    2912 ave 2912 max 2912 min
Histogram: 1 0 0 0 0 0 0 0 0 0
Nghost:    7129 ave 7129 max 7129 min
Histogram: 1 0 0 0 0 0 0 0 0 0
Neighs:    77088 ave 77088 max 77088 min
Histogram: 1 0 0 0 0 0 0 0 0 0

Total # of neighbors = 77088
Ave neighs/atom = 26.4725
Neighbor list builds = 0
Dangerous builds = 0
	# write_dump all atom ${dumpfile}
        next i
jump SELF loop1
        displace_atoms upper move 0.0 ${ystep1} 0.0 units lattice
        displace_atoms upper move 0.0 0.00288675134594812 0.0 units lattice
        min_style ${style}
        min_style hftn
        minimize ${etol} ${ftol} ${maxiter} ${maxeval}
        minimize 1e-12 ${ftol} ${maxiter} ${maxeval}
        minimize 1e-12 1e-08 ${maxiter} ${maxeval}
        minimize 1e-12 1e-08 10000 ${maxeval}
        minimize 1e-12 1e-08 10000 20000
WARNING: Resetting reneighboring criteria during minimization (../min.cpp:168)
Memory usage per processor = 5.29104 Mbytes
Step Temp PotEng Lx Ly Lz 
      15            0   -17279.986    7.7766452    84.849629    4.4898482 
Loop time of 0.00251691 on 1 procs for 0 steps with 2912 atoms

Minimization stats:
  Stopping criterion = force tolerance
  Energy initial, next-to-last, final = 
        -17279.9856313     -17279.9856313     -17279.9856313
  Force two-norm initial, final = 8.49663e-11 8.49663e-11
  Force max component initial, final = 2.7994e-12 2.7994e-12
  Final line search alpha, max atom move = 0 0
  Iterations, force evaluations = 0 0

Pair  time (%) = 0.00241901 (96.1102)
Neigh time (%) = 0 (0)
Comm  time (%) = 5.30962e-05 (2.10958)
Outpt time (%) = 0 (0)
Other time (%) = 4.48056e-05 (1.78018)

Nlocal:    2912 ave 2912 max 2912 min
Histogram: 1 0 0 0 0 0 0 0 0 0
Nghost:    7129 ave 7129 max 7129 min
Histogram: 1 0 0 0 0 0 0 0 0 0
Neighs:    77088 ave 77088 max 77088 min
Histogram: 1 0 0 0 0 0 0 0 0 0

Total # of neighbors = 77088
Ave neighs/atom = 26.4725
Neighbor list builds = 0
Dangerous builds = 0
	# write_dump all atom ${dumpfile}
        next i
jump SELF loop1
        displace_atoms upper move 0.0 ${ystep1} 0.0 units lattice
        displace_atoms upper move 0.0 0.00288675134594812 0.0 units lattice
        min_style ${style}
        min_style hftn
        minimize ${etol} ${ftol} ${maxiter} ${maxeval}
        minimize 1e-12 ${ftol} ${maxiter} ${maxeval}
        minimize 1e-12 1e-08 ${maxiter} ${maxeval}
        minimize 1e-12 1e-08 10000 ${maxeval}
        minimize 1e-12 1e-08 10000 20000
WARNING: Resetting reneighboring criteria during minimization (../min.cpp:168)
Memory usage per processor = 5.29104 Mbytes
Step Temp PotEng Lx Ly Lz 
      15            0   -17279.986    7.7766452    84.857566    4.4898482 
Loop time of 0.00225203 on 1 procs for 0 steps with 2912 atoms

Minimization stats:
  Stopping criterion = force tolerance
  Energy initial, next-to-last, final = 
        -17279.9856313     -17279.9856313     -17279.9856313
  Force two-norm initial, final = 8.49665e-11 8.49665e-11
  Force max component initial, final = 2.7994e-12 2.7994e-12
  Final line search alpha, max atom move = 0 0
  Iterations, force evaluations = 0 0

Pair  time (%) = 0.00219903 (97.6466)
Neigh time (%) = 0 (0)
Comm  time (%) = 3.11219e-05 (1.38195)
Outpt time (%) = 0 (0)
Other time (%) = 2.1878e-05 (0.971482)

Nlocal:    2912 ave 2912 max 2912 min
Histogram: 1 0 0 0 0 0 0 0 0 0
Nghost:    7129 ave 7129 max 7129 min
Histogram: 1 0 0 0 0 0 0 0 0 0
Neighs:    77088 ave 77088 max 77088 min
Histogram: 1 0 0 0 0 0 0 0 0 0

Total # of neighbors = 77088
Ave neighs/atom = 26.4725
Neighbor list builds = 0
Dangerous builds = 0
	# write_dump all atom ${dumpfile}
        next i
jump SELF loop1
        displace_atoms upper move 0.0 ${ystep1} 0.0 units lattice
        displace_atoms upper move 0.0 0.00288675134594812 0.0 units lattice
        min_style ${style}
        min_style hftn
        minimize ${etol} ${ftol} ${maxiter} ${maxeval}
        minimize 1e-12 ${ftol} ${maxiter} ${maxeval}
        minimize 1e-12 1e-08 ${maxiter} ${maxeval}
        minimize 1e-12 1e-08 10000 ${maxeval}
        minimize 1e-12 1e-08 10000 20000
WARNING: Resetting reneighboring criteria during minimization (../min.cpp:168)
Memory usage per processor = 5.29104 Mbytes
Step Temp PotEng Lx Ly Lz 
      15            0   -17279.986    7.7766452    84.865503    4.4898482 
Loop time of 0.00244696 on 1 procs for 0 steps with 2912 atoms

Minimization stats:
  Stopping criterion = force tolerance
  Energy initial, next-to-last, final = 
        -17279.9856313     -17279.9856313     -17279.9856313
  Force two-norm initial, final = 8.49674e-11 8.49674e-11
  Force max component initial, final = 2.7994e-12 2.7994e-12
  Final line search alpha, max atom move = 0 0
  Iterations, force evaluations = 0 0

Pair  time (%) = 0.00237696 (97.139)
Neigh time (%) = 0 (0)
Comm  time (%) = 3.78252e-05 (1.5458)
Outpt time (%) = 0 (0)
Other time (%) = 3.21828e-05 (1.31521)

Nlocal:    2912 ave 2912 max 2912 min
Histogram: 1 0 0 0 0 0 0 0 0 0
Nghost:    7129 ave 7129 max 7129 min
Histogram: 1 0 0 0 0 0 0 0 0 0
Neighs:    77088 ave 77088 max 77088 min
Histogram: 1 0 0 0 0 0 0 0 0 0

Total # of neighbors = 77088
Ave neighs/atom = 26.4725
Neighbor list builds = 0
Dangerous builds = 0
	# write_dump all atom ${dumpfile}
        next i
jump SELF loop1
        displace_atoms upper move 0.0 ${ystep1} 0.0 units lattice
        displace_atoms upper move 0.0 0.00288675134594812 0.0 units lattice
        min_style ${style}
        min_style hftn
        minimize ${etol} ${ftol} ${maxiter} ${maxeval}
        minimize 1e-12 ${ftol} ${maxiter} ${maxeval}
        minimize 1e-12 1e-08 ${maxiter} ${maxeval}
        minimize 1e-12 1e-08 10000 ${maxeval}
        minimize 1e-12 1e-08 10000 20000
WARNING: Resetting reneighboring criteria during minimization (../min.cpp:168)
Memory usage per processor = 5.29104 Mbytes
Step Temp PotEng Lx Ly Lz 
      15            0   -17279.986    7.7766452     84.87344    4.4898482 
Loop time of 0.00181007 on 1 procs for 0 steps with 2912 atoms

Minimization stats:
  Stopping criterion = force tolerance
  Energy initial, next-to-last, final = 
        -17279.9856313     -17279.9856313     -17279.9856313
  Force two-norm initial, final = 8.49663e-11 8.49663e-11
  Force max component initial, final = 2.7994e-12 2.7994e-12
  Final line search alpha, max atom move = 0 0
  Iterations, force evaluations = 0 0

Pair  time (%) = 0.00174793 (96.567)
Neigh time (%) = 0 (0)
Comm  time (%) = 3.31011e-05 (1.82871)
Outpt time (%) = 0 (0)
Other time (%) = 2.90391e-05 (1.6043)

Nlocal:    2912 ave 2912 max 2912 min
Histogram: 1 0 0 0 0 0 0 0 0 0
Nghost:    7129 ave 7129 max 7129 min
Histogram: 1 0 0 0 0 0 0 0 0 0
Neighs:    77088 ave 77088 max 77088 min
Histogram: 1 0 0 0 0 0 0 0 0 0

Total # of neighbors = 77088
Ave neighs/atom = 26.4725
Neighbor list builds = 0
Dangerous builds = 0
	# write_dump all atom ${dumpfile}
        next i
jump SELF loop1
        displace_atoms upper move 0.0 ${ystep1} 0.0 units lattice
        displace_atoms upper move 0.0 0.00288675134594812 0.0 units lattice
        min_style ${style}
        min_style hftn
        minimize ${etol} ${ftol} ${maxiter} ${maxeval}
        minimize 1e-12 ${ftol} ${maxiter} ${maxeval}
        minimize 1e-12 1e-08 ${maxiter} ${maxeval}
        minimize 1e-12 1e-08 10000 ${maxeval}
        minimize 1e-12 1e-08 10000 20000
WARNING: Resetting reneighboring criteria during minimization (../min.cpp:168)
Memory usage per processor = 5.29104 Mbytes
Step Temp PotEng Lx Ly Lz 
      15            0   -17279.986    7.7766452    84.881377    4.4898482 
Loop time of 0.00280498 on 1 procs for 0 steps with 2912 atoms

Minimization stats:
  Stopping criterion = force tolerance
  Energy initial, next-to-last, final = 
        -17279.9856313     -17279.9856313     -17279.9856313
  Force two-norm initial, final = 8.49665e-11 8.49665e-11
  Force max component initial, final = 2.7994e-12 2.7994e-12
  Final line search alpha, max atom move = 0 0
  Iterations, force evaluations = 0 0

Pair  time (%) = 0.00274207 (97.7575)
Neigh time (%) = 0 (0)
Comm  time (%) = 3.29377e-05 (1.17426)
Outpt time (%) = 0 (0)
Other time (%) = 2.9964e-05 (1.06825)

Nlocal:    2912 ave 2912 max 2912 min
Histogram: 1 0 0 0 0 0 0 0 0 0
Nghost:    7129 ave 7129 max 7129 min
Histogram: 1 0 0 0 0 0 0 0 0 0
Neighs:    77088 ave 77088 max 77088 min
Histogram: 1 0 0 0 0 0 0 0 0 0

Total # of neighbors = 77088
Ave neighs/atom = 26.4725
Neighbor list builds = 0
Dangerous builds = 0
	# write_dump all atom ${dumpfile}
        next i
jump SELF loop1

# allow atoms to relax in y-direction, now that two halves have separated
unfix 2
min_style ${style}
min_style hftn
minimize ${etol} ${ftol} ${maxiter} ${maxeval}
minimize 1e-12 ${ftol} ${maxiter} ${maxeval}
minimize 1e-12 1e-08 ${maxiter} ${maxeval}
minimize 1e-12 1e-08 10000 ${maxeval}
minimize 1e-12 1e-08 10000 20000
WARNING: Resetting reneighboring criteria during minimization (../min.cpp:168)
Memory usage per processor = 5.29104 Mbytes
Step Temp PotEng Lx Ly Lz 
      15            0   -17279.986    7.7766452    84.881377    4.4898482 
      16            0   -17279.986    7.7766452    84.881377    4.4898482 
      17            0   -17279.986    7.7766452    84.881377    4.4898482 
Loop time of 1.14916 on 1 procs for 1 steps with 2912 atoms

Minimization stats:
  Stopping criterion = force tolerance
  Energy initial, next-to-last, final = 
        -17279.9856313     -17279.9856313     -17279.9859193
  Force two-norm initial, final = 0.00357281 6.1525e-12
  Force max component initial, final = 0.000315795 5.69712e-13
  Final line search alpha, max atom move = 0 0
  Iterations, force evaluations = 1 495

Pair  time (%) = 1.04914 (91.296)
Neigh time (%) = 0 (0)
Comm  time (%) = 0.0194211 (1.69002)
Outpt time (%) = 0.000199885 (0.017394)
Other time (%) = 0.0804023 (6.9966)

Nlocal:    2912 ave 2912 max 2912 min
Histogram: 1 0 0 0 0 0 0 0 0 0
Nghost:    7129 ave 7129 max 7129 min
Histogram: 1 0 0 0 0 0 0 0 0 0
Neighs:    77088 ave 77088 max 77088 min
Histogram: 1 0 0 0 0 0 0 0 0 0

Total # of neighbors = 77088
Ave neighs/atom = 26.4725
Neighbor list builds = 0
Dangerous builds = 0

write_dump all atom ${dumpfile}
write_dump all atom surf_V_brittle_3d.*.dump


