LAMMPS (28 Jun 2014)
# attempt at getting surface energy

#file prefix
variable prefix string surf_V_ductile_3d
variable dumpfile string ${prefix}.*.dump
variable dumpfile string surf_V_ductile_3d.*.dump
variable restartfile string ${prefix}.*.equil
variable restartfile string surf_V_ductile_3d.*.equil

#Mass (g/mol)
variable m equal 1.0

# lattice constant (in Angstroms) and orientation of axes (given by lattice vectors)
variable rho equal 1.414
variable x1 equal 1
variable x2 equal 1
variable x3 equal -2
variable y1 equal 1
variable y2 equal 1
variable y3 equal 1
variable z1 equal 1
variable z2 equal -1
variable z3 equal 0
# length of lattice in different directions (using orientation of lattice vectors)
variable ax equal sqrt(${x1}*${x1}+${x2}*${x2}+${x3}*${x3})
variable ax equal sqrt(1*${x1}+${x2}*${x2}+${x3}*${x3})
variable ax equal sqrt(1*1+${x2}*${x2}+${x3}*${x3})
variable ax equal sqrt(1*1+1*${x2}+${x3}*${x3})
variable ax equal sqrt(1*1+1*1+${x3}*${x3})
variable ax equal sqrt(1*1+1*1+-2*${x3})
variable ax equal sqrt(1*1+1*1+-2*-2)
variable ay equal sqrt(${y1}*${y1}+${y2}*${y2}+${y3}*${y3})
variable ay equal sqrt(1*${y1}+${y2}*${y2}+${y3}*${y3})
variable ay equal sqrt(1*1+${y2}*${y2}+${y3}*${y3})
variable ay equal sqrt(1*1+1*${y2}+${y3}*${y3})
variable ay equal sqrt(1*1+1*1+${y3}*${y3})
variable ay equal sqrt(1*1+1*1+1*${y3})
variable ay equal sqrt(1*1+1*1+1*1)
variable az equal sqrt(${z1}*${z1}+${z2}*${z2}+${z3}*${z3})
variable az equal sqrt(1*${z1}+${z2}*${z2}+${z3}*${z3})
variable az equal sqrt(1*1+${z2}*${z2}+${z3}*${z3})
variable az equal sqrt(1*1+-1*${z2}+${z3}*${z3})
variable az equal sqrt(1*1+-1*-1+${z3}*${z3})
variable az equal sqrt(1*1+-1*-1+0*${z3})
variable az equal sqrt(1*1+-1*-1+0*0)

# size of box in lattice units
variable lxpos equal 2
variable lxneg equal 0
variable lypos equal 15
variable lyneg equal -1*${lypos}
variable lyneg equal -1*15
variable lzpos equal 2
variable lzneg equal 0

# boundary conditions
dimension	3
boundary	p s p
atom_style	atomic

# Define minimization parameters and damping
variable etol equal 1.0e-12
variable ftol equal 1.0e-8
variable maxiter equal 10000
variable maxeval equal 20000
variable style string hftn

# create geometry
units		lj
lattice         fcc ${rho} orient x 1 1 -2 orient y 1 1 1 orient z 1 -1 0 spacing ${ax} ${ay} ${az}
lattice         fcc 1.414 orient x 1 1 -2 orient y 1 1 1 orient z 1 -1 0 spacing ${ax} ${ay} ${az}
lattice         fcc 1.414 orient x 1 1 -2 orient y 1 1 1 orient z 1 -1 0 spacing 2.44948974278318 ${ay} ${az}
lattice         fcc 1.414 orient x 1 1 -2 orient y 1 1 1 orient z 1 -1 0 spacing 2.44948974278318 1.73205080756888 ${az}
lattice         fcc 1.414 orient x 1 1 -2 orient y 1 1 1 orient z 1 -1 0 spacing 2.44948974278318 1.73205080756888 1.4142135623731
Lattice spacing in x,y,z = 3.46428 2.44961 2.0001
region		myregion block ${lxneg} ${lxpos} ${lyneg} ${lypos} ${lzneg} ${lzpos} units lattice
region		myregion block 0 ${lxpos} ${lyneg} ${lypos} ${lzneg} ${lzpos} units lattice
region		myregion block 0 2 ${lyneg} ${lypos} ${lzneg} ${lzpos} units lattice
region		myregion block 0 2 -15 ${lypos} ${lzneg} ${lzpos} units lattice
region		myregion block 0 2 -15 15 ${lzneg} ${lzpos} units lattice
region		myregion block 0 2 -15 15 0 ${lzpos} units lattice
region		myregion block 0 2 -15 15 0 2 units lattice
create_box	1 myregion
Created orthogonal box = (0 -36.7442 0) to (6.92855 36.7442 4.0002)
  1 by 1 by 1 MPI processor grid
create_atoms	1 box
Created 2912 atoms
write_dump all atom init.dump

# define masses
mass * $m
mass * 1

# my fake/morse potential
pair_style      table linear 3001
pair_coeff      * * vpotential_ductile3dnorm dummy
neighbor	0.3 bin
neigh_modify	delay 5

# define groups. Nudge to separate planes cleanly
region	    upper block INF INF 0.01 ${lypos} INF INF units lattice
region	    upper block INF INF 0.01 15 INF INF units lattice
group		upper region upper
1440 atoms in group upper

# Setup output
thermo 1
thermo_style custom step temp pe lx ly lz
thermo_modify norm no

# Compute initial state by relaxing box
fix 3 all box/relax x 0.0
min_style ${style}
min_style hftn
minimize ${etol} ${ftol} ${maxiter} ${maxeval}
minimize 1e-12 ${ftol} ${maxiter} ${maxeval}
minimize 1e-12 1e-08 ${maxiter} ${maxeval}
minimize 1e-12 1e-08 10000 ${maxeval}
minimize 1e-12 1e-08 10000 20000
WARNING: Resetting reneighboring criteria during minimization (../min.cpp:168)
Memory usage per processor = 5.2861 Mbytes
Step Temp PotEng Lx Ly Lz 
       0            0    -17375.99     6.928552    73.503089    4.0002014 
       1            0    -17375.99     6.928552    73.503089    4.0002014 
       2            0    -17375.99     6.928552    73.503089    4.0002014 
       3            0    -17375.99     6.928552    73.503089    4.0002014 
       4            0    -17375.99     6.928552    73.503089    4.0002014 
       5            0    -17375.99     6.928552    73.503089    4.0002014 
       6            0    -17375.99     6.928552    73.503089    4.0002014 
       7            0    -17375.99     6.928552    73.503089    4.0002014 
       8            0    -17375.99     6.928552    73.503089    4.0002014 
       9            0    -17375.99     6.928552    73.503089    4.0002014 
      10            0    -17375.99     6.928552    73.503089    4.0002014 
      11            0    -17375.99     6.928552    73.503089    4.0002014 
      12            0    -17375.99     6.928552    73.503089    4.0002014 
      13            0    -17375.99     6.928552    73.503089    4.0002014 
      14            0    -17375.99     6.928552    73.503089    4.0002014 
      15            0    -17375.99     6.928552    73.503089    4.0002014 
      16            0    -17375.99     6.928552    73.503089    4.0002014 
Loop time of 3.44889 on 1 procs for 15 steps with 2912 atoms

Minimization stats:
  Stopping criterion = trust region too small
  Energy initial, next-to-last, final = 
        -17375.9899537     -17375.9899537     -17375.9899537
  Force two-norm initial, final = 31.0474 31.0474
  Force max component initial, final = 31.0472 31.0472
  Final line search alpha, max atom move = 0 0
  Iterations, force evaluations = 15 94

Pair  time (%) = 3.37207 (97.7728)
Neigh time (%) = 0 (0)
Comm  time (%) = 0.0480283 (1.39257)
Outpt time (%) = 0.00595296 (0.172605)
Other time (%) = 0.0228309 (0.66198)

Nlocal:    2912 ave 2912 max 2912 min
Histogram: 1 0 0 0 0 0 0 0 0 0
Nghost:    7129 ave 7129 max 7129 min
Histogram: 1 0 0 0 0 0 0 0 0 0
Neighs:    112224 ave 112224 max 112224 min
Histogram: 1 0 0 0 0 0 0 0 0 0

Total # of neighbors = 112224
Ave neighs/atom = 38.5385
Neighbor list builds = 0
Dangerous builds = 0
unfix 3

# don't allow atoms to relax in y-direction
fix 2 all setforce NULL 0.0 NULL

# GSF energy curve will have 100*2 steps
variable nsteps equal 300
variable sstep1 equal 1.5
variable ystep1 equal ${sstep1}/(${ay}*${nsteps})
variable ystep1 equal 1.5/(${ay}*${nsteps})
variable ystep1 equal 1.5/(1.73205080756888*${nsteps})
variable ystep1 equal 1.5/(1.73205080756888*300)

variable i loop ${nsteps}
variable i loop 300
label loop1
        displace_atoms upper move 0.0 ${ystep1} 0.0 units lattice
        displace_atoms upper move 0.0 0.00288675134594812 0.0 units lattice
        min_style ${style}
        min_style hftn
        minimize ${etol} ${ftol} ${maxiter} ${maxeval}
        minimize 1e-12 ${ftol} ${maxiter} ${maxeval}
        minimize 1e-12 1e-08 ${maxiter} ${maxeval}
        minimize 1e-12 1e-08 10000 ${maxeval}
        minimize 1e-12 1e-08 10000 20000
WARNING: Resetting reneighboring criteria during minimization (../min.cpp:168)
Memory usage per processor = 5.2861 Mbytes
Step Temp PotEng Lx Ly Lz 
      16            0   -17375.823     6.928552    73.510161    4.0002014 
Loop time of 0.037224 on 1 procs for 0 steps with 2912 atoms

Minimization stats:
  Stopping criterion = force tolerance
  Energy initial, next-to-last, final = 
        -17375.8229928     -17375.8229928     -17375.8229928
  Force two-norm initial, final = 9.88556e-11 9.88556e-11
  Force max component initial, final = 3.19188e-12 3.19188e-12
  Final line search alpha, max atom move = 0 0
  Iterations, force evaluations = 0 0

Pair  time (%) = 0.036746 (98.7158)
Neigh time (%) = 0 (0)
Comm  time (%) = 0.000458027 (1.23046)
Outpt time (%) = 0 (0)
Other time (%) = 2.00204e-05 (0.0537836)

Nlocal:    2912 ave 2912 max 2912 min
Histogram: 1 0 0 0 0 0 0 0 0 0
Nghost:    7129 ave 7129 max 7129 min
Histogram: 1 0 0 0 0 0 0 0 0 0
Neighs:    112224 ave 112224 max 112224 min
Histogram: 1 0 0 0 0 0 0 0 0 0

Total # of neighbors = 112224
Ave neighs/atom = 38.5385
Neighbor list builds = 0
Dangerous builds = 0
	# write_dump all atom ${dumpfile}
        next i
jump SELF loop1
        displace_atoms upper move 0.0 ${ystep1} 0.0 units lattice
        displace_atoms upper move 0.0 0.00288675134594812 0.0 units lattice
        min_style ${style}
        min_style hftn
        minimize ${etol} ${ftol} ${maxiter} ${maxeval}
        minimize 1e-12 ${ftol} ${maxiter} ${maxeval}
        minimize 1e-12 1e-08 ${maxiter} ${maxeval}
        minimize 1e-12 1e-08 10000 ${maxeval}
        minimize 1e-12 1e-08 10000 20000
WARNING: Resetting reneighboring criteria during minimization (../min.cpp:168)
Memory usage per processor = 5.2861 Mbytes
Step Temp PotEng Lx Ly Lz 
      16            0   -17375.354     6.928552    73.517232    4.0002014 
Loop time of 0.0364701 on 1 procs for 0 steps with 2912 atoms

Minimization stats:
  Stopping criterion = force tolerance
  Energy initial, next-to-last, final = 
        -17375.3541499     -17375.3541499     -17375.3541499
  Force two-norm initial, final = 9.88337e-11 9.88337e-11
  Force max component initial, final = 3.19188e-12 3.19188e-12
  Final line search alpha, max atom move = 0 0
  Iterations, force evaluations = 0 0

Pair  time (%) = 0.035973 (98.6371)
Neigh time (%) = 0 (0)
Comm  time (%) = 0.000463853 (1.27187)
Outpt time (%) = 0 (0)
Other time (%) = 3.31945e-05 (0.0910186)

Nlocal:    2912 ave 2912 max 2912 min
Histogram: 1 0 0 0 0 0 0 0 0 0
Nghost:    7129 ave 7129 max 7129 min
Histogram: 1 0 0 0 0 0 0 0 0 0
Neighs:    112224 ave 112224 max 112224 min
Histogram: 1 0 0 0 0 0 0 0 0 0

Total # of neighbors = 112224
Ave neighs/atom = 38.5385
Neighbor list builds = 0
Dangerous builds = 0
	# write_dump all atom ${dumpfile}
        next i
jump SELF loop1
        displace_atoms upper move 0.0 ${ystep1} 0.0 units lattice
        displace_atoms upper move 0.0 0.00288675134594812 0.0 units lattice
        min_style ${style}
        min_style hftn
        minimize ${etol} ${ftol} ${maxiter} ${maxeval}
        minimize 1e-12 ${ftol} ${maxiter} ${maxeval}
        minimize 1e-12 1e-08 ${maxiter} ${maxeval}
        minimize 1e-12 1e-08 10000 ${maxeval}
        minimize 1e-12 1e-08 10000 20000
WARNING: Resetting reneighboring criteria during minimization (../min.cpp:168)
Memory usage per processor = 5.2861 Mbytes
Step Temp PotEng Lx Ly Lz 
      16            0   -17374.618     6.928552    73.524304    4.0002014 
Loop time of 0.036612 on 1 procs for 0 steps with 2912 atoms

Minimization stats:
  Stopping criterion = force tolerance
  Energy initial, next-to-last, final = 
        -17374.6184459     -17374.6184459     -17374.6184459
  Force two-norm initial, final = 9.88145e-11 9.88145e-11
  Force max component initial, final = 3.19188e-12 3.19188e-12
  Final line search alpha, max atom move = 0 0
  Iterations, force evaluations = 0 0

Pair  time (%) = 0.0361079 (98.6233)
Neigh time (%) = 0 (0)
Comm  time (%) = 0.000469972 (1.28366)
Outpt time (%) = 0 (0)
Other time (%) = 3.40756e-05 (0.0930722)

Nlocal:    2912 ave 2912 max 2912 min
Histogram: 1 0 0 0 0 0 0 0 0 0
Nghost:    7129 ave 7129 max 7129 min
Histogram: 1 0 0 0 0 0 0 0 0 0
Neighs:    112224 ave 112224 max 112224 min
Histogram: 1 0 0 0 0 0 0 0 0 0

Total # of neighbors = 112224
Ave neighs/atom = 38.5385
Neighbor list builds = 0
Dangerous builds = 0
	# write_dump all atom ${dumpfile}
        next i
jump SELF loop1
        displace_atoms upper move 0.0 ${ystep1} 0.0 units lattice
        displace_atoms upper move 0.0 0.00288675134594812 0.0 units lattice
        min_style ${style}
        min_style hftn
        minimize ${etol} ${ftol} ${maxiter} ${maxeval}
        minimize 1e-12 ${ftol} ${maxiter} ${maxeval}
        minimize 1e-12 1e-08 ${maxiter} ${maxeval}
        minimize 1e-12 1e-08 10000 ${maxeval}
        minimize 1e-12 1e-08 10000 20000
WARNING: Resetting reneighboring criteria during minimization (../min.cpp:168)
Memory usage per processor = 5.2861 Mbytes
Step Temp PotEng Lx Ly Lz 
      16            0   -17373.648     6.928552    73.531375    4.0002014 
Loop time of 0.0365381 on 1 procs for 0 steps with 2912 atoms

Minimization stats:
  Stopping criterion = force tolerance
  Energy initial, next-to-last, final = 
        -17373.6480082     -17373.6480082     -17373.6480082
  Force two-norm initial, final = 9.87975e-11 9.87975e-11
  Force max component initial, final = 3.19188e-12 3.19188e-12
  Final line search alpha, max atom move = 0 0
  Iterations, force evaluations = 0 0

Pair  time (%) = 0.036015 (98.5684)
Neigh time (%) = 0 (0)
Comm  time (%) = 0.000488899 (1.33805)
Outpt time (%) = 0 (0)
Other time (%) = 3.41947e-05 (0.0935863)

Nlocal:    2912 ave 2912 max 2912 min
Histogram: 1 0 0 0 0 0 0 0 0 0
Nghost:    7129 ave 7129 max 7129 min
Histogram: 1 0 0 0 0 0 0 0 0 0
Neighs:    112224 ave 112224 max 112224 min
Histogram: 1 0 0 0 0 0 0 0 0 0

Total # of neighbors = 112224
Ave neighs/atom = 38.5385
Neighbor list builds = 0
Dangerous builds = 0
	# write_dump all atom ${dumpfile}
        next i
jump SELF loop1
        displace_atoms upper move 0.0 ${ystep1} 0.0 units lattice
        displace_atoms upper move 0.0 0.00288675134594812 0.0 units lattice
        min_style ${style}
        min_style hftn
        minimize ${etol} ${ftol} ${maxiter} ${maxeval}
        minimize 1e-12 ${ftol} ${maxiter} ${maxeval}
        minimize 1e-12 1e-08 ${maxiter} ${maxeval}
        minimize 1e-12 1e-08 10000 ${maxeval}
        minimize 1e-12 1e-08 10000 20000
WARNING: Resetting reneighboring criteria during minimization (../min.cpp:168)
Memory usage per processor = 5.2861 Mbytes
Step Temp PotEng Lx Ly Lz 
      16            0   -17372.472     6.928552    73.538446    4.0002014 
Loop time of 0.0358941 on 1 procs for 0 steps with 2912 atoms

Minimization stats:
  Stopping criterion = force tolerance
  Energy initial, next-to-last, final = 
        -17372.4723047     -17372.4723047     -17372.4723047
  Force two-norm initial, final = 9.8783e-11 9.8783e-11
  Force max component initial, final = 3.19188e-12 3.19188e-12
  Final line search alpha, max atom move = 0 0
  Iterations, force evaluations = 0 0

Pair  time (%) = 0.035397 (98.6152)
Neigh time (%) = 0 (0)
Comm  time (%) = 0.000463885 (1.29237)
Outpt time (%) = 0 (0)
Other time (%) = 3.3163e-05 (0.0923913)

Nlocal:    2912 ave 2912 max 2912 min
Histogram: 1 0 0 0 0 0 0 0 0 0
Nghost:    7129 ave 7129 max 7129 min
Histogram: 1 0 0 0 0 0 0 0 0 0
Neighs:    112224 ave 112224 max 112224 min
Histogram: 1 0 0 0 0 0 0 0 0 0

Total # of neighbors = 112224
Ave neighs/atom = 38.5385
Neighbor list builds = 0
Dangerous builds = 0
	# write_dump all atom ${dumpfile}
        next i
jump SELF loop1
        displace_atoms upper move 0.0 ${ystep1} 0.0 units lattice
        displace_atoms upper move 0.0 0.00288675134594812 0.0 units lattice
        min_style ${style}
        min_style hftn
        minimize ${etol} ${ftol} ${maxiter} ${maxeval}
        minimize 1e-12 ${ftol} ${maxiter} ${maxeval}
        minimize 1e-12 1e-08 ${maxiter} ${maxeval}
        minimize 1e-12 1e-08 10000 ${maxeval}
        minimize 1e-12 1e-08 10000 20000
WARNING: Resetting reneighboring criteria during minimization (../min.cpp:168)
Memory usage per processor = 5.2861 Mbytes
Step Temp PotEng Lx Ly Lz 
      16            0   -17371.118     6.928552    73.545518    4.0002014 
Loop time of 0.0377771 on 1 procs for 0 steps with 2912 atoms

Minimization stats:
  Stopping criterion = force tolerance
  Energy initial, next-to-last, final = 
        -17371.1182941     -17371.1182941     -17371.1182941
  Force two-norm initial, final = 9.87701e-11 9.87701e-11
  Force max component initial, final = 3.19188e-12 3.19188e-12
  Final line search alpha, max atom move = 0 0
  Iterations, force evaluations = 0 0

Pair  time (%) = 0.037281 (98.6869)
Neigh time (%) = 0 (0)
Comm  time (%) = 0.000462055 (1.22311)
Outpt time (%) = 0 (0)
Other time (%) = 3.39923e-05 (0.0899815)

Nlocal:    2912 ave 2912 max 2912 min
Histogram: 1 0 0 0 0 0 0 0 0 0
Nghost:    7129 ave 7129 max 7129 min
Histogram: 1 0 0 0 0 0 0 0 0 0
Neighs:    112224 ave 112224 max 112224 min
Histogram: 1 0 0 0 0 0 0 0 0 0

Total # of neighbors = 112224
Ave neighs/atom = 38.5385
Neighbor list builds = 0
Dangerous builds = 0
	# write_dump all atom ${dumpfile}
        next i
jump SELF loop1
        displace_atoms upper move 0.0 ${ystep1} 0.0 units lattice
        displace_atoms upper move 0.0 0.00288675134594812 0.0 units lattice
        min_style ${style}
        min_style hftn
        minimize ${etol} ${ftol} ${maxiter} ${maxeval}
        minimize 1e-12 ${ftol} ${maxiter} ${maxeval}
        minimize 1e-12 1e-08 ${maxiter} ${maxeval}
        minimize 1e-12 1e-08 10000 ${maxeval}
        minimize 1e-12 1e-08 10000 20000
WARNING: Resetting reneighboring criteria during minimization (../min.cpp:168)
Memory usage per processor = 5.2861 Mbytes
Step Temp PotEng Lx Ly Lz 
      16            0   -17369.611     6.928552    73.552589    4.0002014 
Loop time of 0.0371351 on 1 procs for 0 steps with 2912 atoms

Minimization stats:
  Stopping criterion = force tolerance
  Energy initial, next-to-last, final = 
        -17369.6105794     -17369.6105794     -17369.6105794
  Force two-norm initial, final = 9.87596e-11 9.87596e-11
  Force max component initial, final = 3.19188e-12 3.19188e-12
  Final line search alpha, max atom move = 0 0
  Iterations, force evaluations = 0 0

Pair  time (%) = 0.0366381 (98.6616)
Neigh time (%) = 0 (0)
Comm  time (%) = 0.000461933 (1.24393)
Outpt time (%) = 0 (0)
Other time (%) = 3.5068e-05 (0.0944337)

Nlocal:    2912 ave 2912 max 2912 min
Histogram: 1 0 0 0 0 0 0 0 0 0
Nghost:    7129 ave 7129 max 7129 min
Histogram: 1 0 0 0 0 0 0 0 0 0
Neighs:    112224 ave 112224 max 112224 min
Histogram: 1 0 0 0 0 0 0 0 0 0

Total # of neighbors = 112224
Ave neighs/atom = 38.5385
Neighbor list builds = 0
Dangerous builds = 0
	# write_dump all atom ${dumpfile}
        next i
jump SELF loop1
        displace_atoms upper move 0.0 ${ystep1} 0.0 units lattice
        displace_atoms upper move 0.0 0.00288675134594812 0.0 units lattice
        min_style ${style}
        min_style hftn
        minimize ${etol} ${ftol} ${maxiter} ${maxeval}
        minimize 1e-12 ${ftol} ${maxiter} ${maxeval}
        minimize 1e-12 1e-08 ${maxiter} ${maxeval}
        minimize 1e-12 1e-08 10000 ${maxeval}
        minimize 1e-12 1e-08 10000 20000
WARNING: Resetting reneighboring criteria during minimization (../min.cpp:168)
Memory usage per processor = 5.2861 Mbytes
Step Temp PotEng Lx Ly Lz 
      16            0   -17367.972     6.928552    73.559661    4.0002014 
Loop time of 0.0382181 on 1 procs for 0 steps with 2912 atoms

Minimization stats:
  Stopping criterion = force tolerance
  Energy initial, next-to-last, final = 
        -17367.9715592     -17367.9715592     -17367.9715592
  Force two-norm initial, final = 9.87498e-11 9.87498e-11
  Force max component initial, final = 3.19188e-12 3.19188e-12
  Final line search alpha, max atom move = 0 0
  Iterations, force evaluations = 0 0

Pair  time (%) = 0.0377151 (98.6839)
Neigh time (%) = 0 (0)
Comm  time (%) = 0.000467826 (1.2241)
Outpt time (%) = 0 (0)
Other time (%) = 3.51748e-05 (0.092037)

Nlocal:    2912 ave 2912 max 2912 min
Histogram: 1 0 0 0 0 0 0 0 0 0
Nghost:    7129 ave 7129 max 7129 min
Histogram: 1 0 0 0 0 0 0 0 0 0
Neighs:    112224 ave 112224 max 112224 min
Histogram: 1 0 0 0 0 0 0 0 0 0

Total # of neighbors = 112224
Ave neighs/atom = 38.5385
Neighbor list builds = 0
Dangerous builds = 0
	# write_dump all atom ${dumpfile}
        next i
jump SELF loop1
        displace_atoms upper move 0.0 ${ystep1} 0.0 units lattice
        displace_atoms upper move 0.0 0.00288675134594812 0.0 units lattice
        min_style ${style}
        min_style hftn
        minimize ${etol} ${ftol} ${maxiter} ${maxeval}
        minimize 1e-12 ${ftol} ${maxiter} ${maxeval}
        minimize 1e-12 1e-08 ${maxiter} ${maxeval}
        minimize 1e-12 1e-08 10000 ${maxeval}
        minimize 1e-12 1e-08 10000 20000
WARNING: Resetting reneighboring criteria during minimization (../min.cpp:168)
Memory usage per processor = 5.2861 Mbytes
Step Temp PotEng Lx Ly Lz 
      16            0   -17366.228     6.928552    73.566732    4.0002014 
Loop time of 0.0439161 on 1 procs for 0 steps with 2912 atoms

Minimization stats:
  Stopping criterion = force tolerance
  Energy initial, next-to-last, final = 
        -17366.2282095     -17366.2282095     -17366.2282095
  Force two-norm initial, final = 9.87115e-11 9.87115e-11
  Force max component initial, final = 3.19188e-12 3.19188e-12
  Final line search alpha, max atom move = 0 0
  Iterations, force evaluations = 0 0

Pair  time (%) = 0.043412 (98.8521)
Neigh time (%) = 0 (0)
Comm  time (%) = 0.000470944 (1.07237)
Outpt time (%) = 0 (0)
Other time (%) = 3.31498e-05 (0.0754845)

Nlocal:    2912 ave 2912 max 2912 min
Histogram: 1 0 0 0 0 0 0 0 0 0
Nghost:    7129 ave 7129 max 7129 min
Histogram: 1 0 0 0 0 0 0 0 0 0
Neighs:    112224 ave 112224 max 112224 min
Histogram: 1 0 0 0 0 0 0 0 0 0

Total # of neighbors = 112224
Ave neighs/atom = 38.5385
Neighbor list builds = 0
Dangerous builds = 0
	# write_dump all atom ${dumpfile}
        next i
jump SELF loop1
        displace_atoms upper move 0.0 ${ystep1} 0.0 units lattice
        displace_atoms upper move 0.0 0.00288675134594812 0.0 units lattice
        min_style ${style}
        min_style hftn
        minimize ${etol} ${ftol} ${maxiter} ${maxeval}
        minimize 1e-12 ${ftol} ${maxiter} ${maxeval}
        minimize 1e-12 1e-08 ${maxiter} ${maxeval}
        minimize 1e-12 1e-08 10000 ${maxeval}
        minimize 1e-12 1e-08 10000 20000
WARNING: Resetting reneighboring criteria during minimization (../min.cpp:168)
Memory usage per processor = 5.2861 Mbytes
Step Temp PotEng Lx Ly Lz 
      16            0   -17364.442     6.928552    73.573804    4.0002014 
Loop time of 0.0361859 on 1 procs for 0 steps with 2912 atoms

Minimization stats:
  Stopping criterion = force tolerance
  Energy initial, next-to-last, final = 
        -17364.4423737     -17364.4423737     -17364.4423737
  Force two-norm initial, final = 9.87105e-11 9.87105e-11
  Force max component initial, final = 3.19188e-12 3.19188e-12
  Final line search alpha, max atom move = 0 0
  Iterations, force evaluations = 0 0

Pair  time (%) = 0.0357311 (98.743)
Neigh time (%) = 0 (0)
Comm  time (%) = 0.00042098 (1.16338)
Outpt time (%) = 0 (0)
Other time (%) = 3.38756e-05 (0.0936153)

Nlocal:    2912 ave 2912 max 2912 min
Histogram: 1 0 0 0 0 0 0 0 0 0
Nghost:    7129 ave 7129 max 7129 min
Histogram: 1 0 0 0 0 0 0 0 0 0
Neighs:    112224 ave 112224 max 112224 min
Histogram: 1 0 0 0 0 0 0 0 0 0

Total # of neighbors = 112224
Ave neighs/atom = 38.5385
Neighbor list builds = 0
Dangerous builds = 0
	# write_dump all atom ${dumpfile}
        next i
jump SELF loop1
        displace_atoms upper move 0.0 ${ystep1} 0.0 units lattice
        displace_atoms upper move 0.0 0.00288675134594812 0.0 units lattice
        min_style ${style}
        min_style hftn
        minimize ${etol} ${ftol} ${maxiter} ${maxeval}
        minimize 1e-12 ${ftol} ${maxiter} ${maxeval}
        minimize 1e-12 1e-08 ${maxiter} ${maxeval}
        minimize 1e-12 1e-08 10000 ${maxeval}
        minimize 1e-12 1e-08 10000 20000
WARNING: Resetting reneighboring criteria during minimization (../min.cpp:168)
Memory usage per processor = 5.2861 Mbytes
Step Temp PotEng Lx Ly Lz 
      16            0   -17362.627     6.928552    73.580875    4.0002014 
Loop time of 0.035763 on 1 procs for 0 steps with 2912 atoms

Minimization stats:
  Stopping criterion = force tolerance
  Energy initial, next-to-last, final = 
        -17362.6267062     -17362.6267062     -17362.6267062
  Force two-norm initial, final = 9.87095e-11 9.87095e-11
  Force max component initial, final = 3.19188e-12 3.19188e-12
  Final line search alpha, max atom move = 0 0
  Iterations, force evaluations = 0 0

Pair  time (%) = 0.0352561 (98.5827)
Neigh time (%) = 0 (0)
Comm  time (%) = 0.000461954 (1.29171)
Outpt time (%) = 0 (0)
Other time (%) = 4.49019e-05 (0.125554)

Nlocal:    2912 ave 2912 max 2912 min
Histogram: 1 0 0 0 0 0 0 0 0 0
Nghost:    7129 ave 7129 max 7129 min
Histogram: 1 0 0 0 0 0 0 0 0 0
Neighs:    112224 ave 112224 max 112224 min
Histogram: 1 0 0 0 0 0 0 0 0 0

Total # of neighbors = 112224
Ave neighs/atom = 38.5385
Neighbor list builds = 0
Dangerous builds = 0
	# write_dump all atom ${dumpfile}
        next i
jump SELF loop1
        displace_atoms upper move 0.0 ${ystep1} 0.0 units lattice
        displace_atoms upper move 0.0 0.00288675134594812 0.0 units lattice
        min_style ${style}
        min_style hftn
        minimize ${etol} ${ftol} ${maxiter} ${maxeval}
        minimize 1e-12 ${ftol} ${maxiter} ${maxeval}
        minimize 1e-12 1e-08 ${maxiter} ${maxeval}
        minimize 1e-12 1e-08 10000 ${maxeval}
        minimize 1e-12 1e-08 10000 20000
WARNING: Resetting reneighboring criteria during minimization (../min.cpp:168)
Memory usage per processor = 5.2861 Mbytes
Step Temp PotEng Lx Ly Lz 
      16            0   -17360.783     6.928552    73.587946    4.0002014 
Loop time of 0.0361569 on 1 procs for 0 steps with 2912 atoms

Minimization stats:
  Stopping criterion = force tolerance
  Energy initial, next-to-last, final = 
        -17360.7828716     -17360.7828716     -17360.7828716
  Force two-norm initial, final = 9.87087e-11 9.87087e-11
  Force max component initial, final = 3.19188e-12 3.19188e-12
  Final line search alpha, max atom move = 0 0
  Iterations, force evaluations = 0 0

Pair  time (%) = 0.035658 (98.6203)
Neigh time (%) = 0 (0)
Comm  time (%) = 0.000465821 (1.28833)
Outpt time (%) = 0 (0)
Other time (%) = 3.3034e-05 (0.091363)

Nlocal:    2912 ave 2912 max 2912 min
Histogram: 1 0 0 0 0 0 0 0 0 0
Nghost:    7129 ave 7129 max 7129 min
Histogram: 1 0 0 0 0 0 0 0 0 0
Neighs:    112224 ave 112224 max 112224 min
Histogram: 1 0 0 0 0 0 0 0 0 0

Total # of neighbors = 112224
Ave neighs/atom = 38.5385
Neighbor list builds = 0
Dangerous builds = 0
	# write_dump all atom ${dumpfile}
        next i
jump SELF loop1
        displace_atoms upper move 0.0 ${ystep1} 0.0 units lattice
        displace_atoms upper move 0.0 0.00288675134594812 0.0 units lattice
        min_style ${style}
        min_style hftn
        minimize ${etol} ${ftol} ${maxiter} ${maxeval}
        minimize 1e-12 ${ftol} ${maxiter} ${maxeval}
        minimize 1e-12 1e-08 ${maxiter} ${maxeval}
        minimize 1e-12 1e-08 10000 ${maxeval}
        minimize 1e-12 1e-08 10000 20000
WARNING: Resetting reneighboring criteria during minimization (../min.cpp:168)
Memory usage per processor = 5.2861 Mbytes
Step Temp PotEng Lx Ly Lz 
      16            0   -17358.913     6.928552    73.595018    4.0002014 
Loop time of 0.0407049 on 1 procs for 0 steps with 2912 atoms

Minimization stats:
  Stopping criterion = force tolerance
  Energy initial, next-to-last, final = 
        -17358.9126363     -17358.9126363     -17358.9126363
  Force two-norm initial, final = 9.87083e-11 9.87083e-11
  Force max component initial, final = 3.19188e-12 3.19188e-12
  Final line search alpha, max atom move = 0 0
  Iterations, force evaluations = 0 0

Pair  time (%) = 0.0399051 (98.035)
Neigh time (%) = 0 (0)
Comm  time (%) = 0.000752964 (1.84981)
Outpt time (%) = 0 (0)
Other time (%) = 4.68915e-05 (0.115199)

Nlocal:    2912 ave 2912 max 2912 min
Histogram: 1 0 0 0 0 0 0 0 0 0
Nghost:    7129 ave 7129 max 7129 min
Histogram: 1 0 0 0 0 0 0 0 0 0
Neighs:    111840 ave 111840 max 111840 min
Histogram: 1 0 0 0 0 0 0 0 0 0

Total # of neighbors = 111840
Ave neighs/atom = 38.4066
Neighbor list builds = 0
Dangerous builds = 0
	# write_dump all atom ${dumpfile}
        next i
jump SELF loop1
        displace_atoms upper move 0.0 ${ystep1} 0.0 units lattice
        displace_atoms upper move 0.0 0.00288675134594812 0.0 units lattice
        min_style ${style}
        min_style hftn
        minimize ${etol} ${ftol} ${maxiter} ${maxeval}
        minimize 1e-12 ${ftol} ${maxiter} ${maxeval}
        minimize 1e-12 1e-08 ${maxiter} ${maxeval}
        minimize 1e-12 1e-08 10000 ${maxeval}
        minimize 1e-12 1e-08 10000 20000
WARNING: Resetting reneighboring criteria during minimization (../min.cpp:168)
Memory usage per processor = 5.28733 Mbytes
Step Temp PotEng Lx Ly Lz 
      16            0   -17357.018     6.928552    73.602089    4.0002014 
Loop time of 0.036515 on 1 procs for 0 steps with 2912 atoms

Minimization stats:
  Stopping criterion = force tolerance
  Energy initial, next-to-last, final = 
        -17357.0177236     -17357.0177236     -17357.0177236
  Force two-norm initial, final = 9.87076e-11 9.87076e-11
  Force max component initial, final = 3.19188e-12 3.19188e-12
  Final line search alpha, max atom move = 0 0
  Iterations, force evaluations = 0 0

Pair  time (%) = 0.036037 (98.6907)
Neigh time (%) = 0 (0)
Comm  time (%) = 0.000443013 (1.21323)
Outpt time (%) = 0 (0)
Other time (%) = 3.50813e-05 (0.0960735)

Nlocal:    2912 ave 2912 max 2912 min
Histogram: 1 0 0 0 0 0 0 0 0 0
Nghost:    7129 ave 7129 max 7129 min
Histogram: 1 0 0 0 0 0 0 0 0 0
Neighs:    111840 ave 111840 max 111840 min
Histogram: 1 0 0 0 0 0 0 0 0 0

Total # of neighbors = 111840
Ave neighs/atom = 38.4066
Neighbor list builds = 0
Dangerous builds = 0
	# write_dump all atom ${dumpfile}
        next i
jump SELF loop1
        displace_atoms upper move 0.0 ${ystep1} 0.0 units lattice
        displace_atoms upper move 0.0 0.00288675134594812 0.0 units lattice
        min_style ${style}
        min_style hftn
        minimize ${etol} ${ftol} ${maxiter} ${maxeval}
        minimize 1e-12 ${ftol} ${maxiter} ${maxeval}
        minimize 1e-12 1e-08 ${maxiter} ${maxeval}
        minimize 1e-12 1e-08 10000 ${maxeval}
        minimize 1e-12 1e-08 10000 20000
WARNING: Resetting reneighboring criteria during minimization (../min.cpp:168)
Memory usage per processor = 5.28733 Mbytes
Step Temp PotEng Lx Ly Lz 
      16            0     -17355.1     6.928552    73.609161    4.0002014 
Loop time of 0.036887 on 1 procs for 0 steps with 2912 atoms

Minimization stats:
  Stopping criterion = force tolerance
  Energy initial, next-to-last, final = 
        -17355.0999534     -17355.0999534     -17355.0999534
  Force two-norm initial, final = 9.87066e-11 9.87066e-11
  Force max component initial, final = 3.19188e-12 3.19188e-12
  Final line search alpha, max atom move = 0 0
  Iterations, force evaluations = 0 0

Pair  time (%) = 0.0363859 (98.6415)
Neigh time (%) = 0 (0)
Comm  time (%) = 0.00046798 (1.26868)
Outpt time (%) = 0 (0)
Other time (%) = 3.31143e-05 (0.0897723)

Nlocal:    2912 ave 2912 max 2912 min
Histogram: 1 0 0 0 0 0 0 0 0 0
Nghost:    7129 ave 7129 max 7129 min
Histogram: 1 0 0 0 0 0 0 0 0 0
Neighs:    111840 ave 111840 max 111840 min
Histogram: 1 0 0 0 0 0 0 0 0 0

Total # of neighbors = 111840
Ave neighs/atom = 38.4066
Neighbor list builds = 0
Dangerous builds = 0
	# write_dump all atom ${dumpfile}
        next i
jump SELF loop1
        displace_atoms upper move 0.0 ${ystep1} 0.0 units lattice
        displace_atoms upper move 0.0 0.00288675134594812 0.0 units lattice
        min_style ${style}
        min_style hftn
        minimize ${etol} ${ftol} ${maxiter} ${maxeval}
        minimize 1e-12 ${ftol} ${maxiter} ${maxeval}
        minimize 1e-12 1e-08 ${maxiter} ${maxeval}
        minimize 1e-12 1e-08 10000 ${maxeval}
        minimize 1e-12 1e-08 10000 20000
WARNING: Resetting reneighboring criteria during minimization (../min.cpp:168)
Memory usage per processor = 5.28733 Mbytes
Step Temp PotEng Lx Ly Lz 
      16            0   -17353.161     6.928552    73.616232    4.0002014 
Loop time of 0.0363399 on 1 procs for 0 steps with 2912 atoms

Minimization stats:
  Stopping criterion = force tolerance
  Energy initial, next-to-last, final = 
        -17353.1611315     -17353.1611315     -17353.1611315
  Force two-norm initial, final = 9.87058e-11 9.87058e-11
  Force max component initial, final = 3.19188e-12 3.19188e-12
  Final line search alpha, max atom move = 0 0
  Iterations, force evaluations = 0 0

Pair  time (%) = 0.035868 (98.7015)
Neigh time (%) = 0 (0)
Comm  time (%) = 0.00043703 (1.20262)
Outpt time (%) = 0 (0)
Other time (%) = 3.48254e-05 (0.0958325)

Nlocal:    2912 ave 2912 max 2912 min
Histogram: 1 0 0 0 0 0 0 0 0 0
Nghost:    7129 ave 7129 max 7129 min
Histogram: 1 0 0 0 0 0 0 0 0 0
Neighs:    111840 ave 111840 max 111840 min
Histogram: 1 0 0 0 0 0 0 0 0 0

Total # of neighbors = 111840
Ave neighs/atom = 38.4066
Neighbor list builds = 0
Dangerous builds = 0
	# write_dump all atom ${dumpfile}
        next i
jump SELF loop1
        displace_atoms upper move 0.0 ${ystep1} 0.0 units lattice
        displace_atoms upper move 0.0 0.00288675134594812 0.0 units lattice
        min_style ${style}
        min_style hftn
        minimize ${etol} ${ftol} ${maxiter} ${maxeval}
        minimize 1e-12 ${ftol} ${maxiter} ${maxeval}
        minimize 1e-12 1e-08 ${maxiter} ${maxeval}
        minimize 1e-12 1e-08 10000 ${maxeval}
        minimize 1e-12 1e-08 10000 20000
WARNING: Resetting reneighboring criteria during minimization (../min.cpp:168)
Memory usage per processor = 5.28733 Mbytes
Step Temp PotEng Lx Ly Lz 
      16            0   -17351.203     6.928552    73.623304    4.0002014 
Loop time of 0.0371121 on 1 procs for 0 steps with 2912 atoms

Minimization stats:
  Stopping criterion = force tolerance
  Energy initial, next-to-last, final = 
        -17351.2030924     -17351.2030924     -17351.2030924
  Force two-norm initial, final = 9.87049e-11 9.87049e-11
  Force max component initial, final = 3.19188e-12 3.19188e-12
  Final line search alpha, max atom move = 0 0
  Iterations, force evaluations = 0 0

Pair  time (%) = 0.036547 (98.4775)
Neigh time (%) = 0 (0)
Comm  time (%) = 0.000512181 (1.38009)
Outpt time (%) = 0 (0)
Other time (%) = 5.28666e-05 (0.142451)

Nlocal:    2912 ave 2912 max 2912 min
Histogram: 1 0 0 0 0 0 0 0 0 0
Nghost:    7129 ave 7129 max 7129 min
Histogram: 1 0 0 0 0 0 0 0 0 0
Neighs:    111840 ave 111840 max 111840 min
Histogram: 1 0 0 0 0 0 0 0 0 0

Total # of neighbors = 111840
Ave neighs/atom = 38.4066
Neighbor list builds = 0
Dangerous builds = 0
	# write_dump all atom ${dumpfile}
        next i
jump SELF loop1
        displace_atoms upper move 0.0 ${ystep1} 0.0 units lattice
        displace_atoms upper move 0.0 0.00288675134594812 0.0 units lattice
        min_style ${style}
        min_style hftn
        minimize ${etol} ${ftol} ${maxiter} ${maxeval}
        minimize 1e-12 ${ftol} ${maxiter} ${maxeval}
        minimize 1e-12 1e-08 ${maxiter} ${maxeval}
        minimize 1e-12 1e-08 10000 ${maxeval}
        minimize 1e-12 1e-08 10000 20000
WARNING: Resetting reneighboring criteria during minimization (../min.cpp:168)
Memory usage per processor = 5.28733 Mbytes
Step Temp PotEng Lx Ly Lz 
      16            0   -17349.228     6.928552    73.630375    4.0002014 
Loop time of 0.0360351 on 1 procs for 0 steps with 2912 atoms

Minimization stats:
  Stopping criterion = force tolerance
  Energy initial, next-to-last, final = 
        -17349.2276981     -17349.2276981     -17349.2276981
  Force two-norm initial, final = 9.87046e-11 9.87046e-11
  Force max component initial, final = 3.19188e-12 3.19188e-12
  Final line search alpha, max atom move = 0 0
  Iterations, force evaluations = 0 0

Pair  time (%) = 0.0355149 (98.5564)
Neigh time (%) = 0 (0)
Comm  time (%) = 0.000469096 (1.30177)
Outpt time (%) = 0 (0)
Other time (%) = 5.11181e-05 (0.141856)

Nlocal:    2912 ave 2912 max 2912 min
Histogram: 1 0 0 0 0 0 0 0 0 0
Nghost:    7129 ave 7129 max 7129 min
Histogram: 1 0 0 0 0 0 0 0 0 0
Neighs:    111840 ave 111840 max 111840 min
Histogram: 1 0 0 0 0 0 0 0 0 0

Total # of neighbors = 111840
Ave neighs/atom = 38.4066
Neighbor list builds = 0
Dangerous builds = 0
	# write_dump all atom ${dumpfile}
        next i
jump SELF loop1
        displace_atoms upper move 0.0 ${ystep1} 0.0 units lattice
        displace_atoms upper move 0.0 0.00288675134594812 0.0 units lattice
        min_style ${style}
        min_style hftn
        minimize ${etol} ${ftol} ${maxiter} ${maxeval}
        minimize 1e-12 ${ftol} ${maxiter} ${maxeval}
        minimize 1e-12 1e-08 ${maxiter} ${maxeval}
        minimize 1e-12 1e-08 10000 ${maxeval}
        minimize 1e-12 1e-08 10000 20000
WARNING: Resetting reneighboring criteria during minimization (../min.cpp:168)
Memory usage per processor = 5.28733 Mbytes
Step Temp PotEng Lx Ly Lz 
      16            0   -17347.237     6.928552    73.637446    4.0002014 
Loop time of 0.0361581 on 1 procs for 0 steps with 2912 atoms

Minimization stats:
  Stopping criterion = force tolerance
  Energy initial, next-to-last, final = 
        -17347.2368394     -17347.2368394     -17347.2368394
  Force two-norm initial, final = 9.87036e-11 9.87036e-11
  Force max component initial, final = 3.19188e-12 3.19188e-12
  Final line search alpha, max atom move = 0 0
  Iterations, force evaluations = 0 0

Pair  time (%) = 0.035656 (98.6114)
Neigh time (%) = 0 (0)
Comm  time (%) = 0.00046895 (1.29694)
Outpt time (%) = 0 (0)
Other time (%) = 3.31441e-05 (0.0916645)

Nlocal:    2912 ave 2912 max 2912 min
Histogram: 1 0 0 0 0 0 0 0 0 0
Nghost:    7129 ave 7129 max 7129 min
Histogram: 1 0 0 0 0 0 0 0 0 0
Neighs:    111840 ave 111840 max 111840 min
Histogram: 1 0 0 0 0 0 0 0 0 0

Total # of neighbors = 111840
Ave neighs/atom = 38.4066
Neighbor list builds = 0
Dangerous builds = 0
	# write_dump all atom ${dumpfile}
        next i
jump SELF loop1
        displace_atoms upper move 0.0 ${ystep1} 0.0 units lattice
        displace_atoms upper move 0.0 0.00288675134594812 0.0 units lattice
        min_style ${style}
        min_style hftn
        minimize ${etol} ${ftol} ${maxiter} ${maxeval}
        minimize 1e-12 ${ftol} ${maxiter} ${maxeval}
        minimize 1e-12 1e-08 ${maxiter} ${maxeval}
        minimize 1e-12 1e-08 10000 ${maxeval}
        minimize 1e-12 1e-08 10000 20000
WARNING: Resetting reneighboring criteria during minimization (../min.cpp:168)
Memory usage per processor = 5.28733 Mbytes
Step Temp PotEng Lx Ly Lz 
      16            0   -17345.232     6.928552    73.644518    4.0002014 
Loop time of 0.037025 on 1 procs for 0 steps with 2912 atoms

Minimization stats:
  Stopping criterion = force tolerance
  Energy initial, next-to-last, final = 
        -17345.2324289     -17345.2324289     -17345.2324289
  Force two-norm initial, final = 9.87031e-11 9.87031e-11
  Force max component initial, final = 3.19188e-12 3.19188e-12
  Final line search alpha, max atom move = 0 0
  Iterations, force evaluations = 0 0

Pair  time (%) = 0.0365301 (98.6635)
Neigh time (%) = 0 (0)
Comm  time (%) = 0.000462106 (1.24809)
Outpt time (%) = 0 (0)
Other time (%) = 3.27494e-05 (0.0884521)

Nlocal:    2912 ave 2912 max 2912 min
Histogram: 1 0 0 0 0 0 0 0 0 0
Nghost:    7129 ave 7129 max 7129 min
Histogram: 1 0 0 0 0 0 0 0 0 0
Neighs:    111840 ave 111840 max 111840 min
Histogram: 1 0 0 0 0 0 0 0 0 0

Total # of neighbors = 111840
Ave neighs/atom = 38.4066
Neighbor list builds = 0
Dangerous builds = 0
	# write_dump all atom ${dumpfile}
        next i
jump SELF loop1
        displace_atoms upper move 0.0 ${ystep1} 0.0 units lattice
        displace_atoms upper move 0.0 0.00288675134594812 0.0 units lattice
        min_style ${style}
        min_style hftn
        minimize ${etol} ${ftol} ${maxiter} ${maxeval}
        minimize 1e-12 ${ftol} ${maxiter} ${maxeval}
        minimize 1e-12 1e-08 ${maxiter} ${maxeval}
        minimize 1e-12 1e-08 10000 ${maxeval}
        minimize 1e-12 1e-08 10000 20000
WARNING: Resetting reneighboring criteria during minimization (../min.cpp:168)
Memory usage per processor = 5.28733 Mbytes
Step Temp PotEng Lx Ly Lz 
      16            0   -17343.216     6.928552    73.651589    4.0002014 
Loop time of 0.0364649 on 1 procs for 0 steps with 2912 atoms

Minimization stats:
  Stopping criterion = force tolerance
  Energy initial, next-to-last, final = 
        -17343.2163942     -17343.2163942     -17343.2163942
  Force two-norm initial, final = 9.87019e-11 9.87019e-11
  Force max component initial, final = 3.19188e-12 3.19188e-12
  Final line search alpha, max atom move = 0 0
  Iterations, force evaluations = 0 0

Pair  time (%) = 0.035996 (98.7141)
Neigh time (%) = 0 (0)
Comm  time (%) = 0.00042709 (1.17124)
Outpt time (%) = 0 (0)
Other time (%) = 4.1825e-05 (0.114699)

Nlocal:    2912 ave 2912 max 2912 min
Histogram: 1 0 0 0 0 0 0 0 0 0
Nghost:    7129 ave 7129 max 7129 min
Histogram: 1 0 0 0 0 0 0 0 0 0
Neighs:    111840 ave 111840 max 111840 min
Histogram: 1 0 0 0 0 0 0 0 0 0

Total # of neighbors = 111840
Ave neighs/atom = 38.4066
Neighbor list builds = 0
Dangerous builds = 0
	# write_dump all atom ${dumpfile}
        next i
jump SELF loop1
        displace_atoms upper move 0.0 ${ystep1} 0.0 units lattice
        displace_atoms upper move 0.0 0.00288675134594812 0.0 units lattice
        min_style ${style}
        min_style hftn
        minimize ${etol} ${ftol} ${maxiter} ${maxeval}
        minimize 1e-12 ${ftol} ${maxiter} ${maxeval}
        minimize 1e-12 1e-08 ${maxiter} ${maxeval}
        minimize 1e-12 1e-08 10000 ${maxeval}
        minimize 1e-12 1e-08 10000 20000
WARNING: Resetting reneighboring criteria during minimization (../min.cpp:168)
Memory usage per processor = 5.28733 Mbytes
Step Temp PotEng Lx Ly Lz 
      16            0   -17341.191     6.928552    73.658661    4.0002014 
Loop time of 0.04033 on 1 procs for 0 steps with 2912 atoms

Minimization stats:
  Stopping criterion = force tolerance
  Energy initial, next-to-last, final = 
        -17341.1906913     -17341.1906913     -17341.1906913
  Force two-norm initial, final = 9.87011e-11 9.87011e-11
  Force max component initial, final = 3.19188e-12 3.19188e-12
  Final line search alpha, max atom move = 0 0
  Iterations, force evaluations = 0 0

Pair  time (%) = 0.0394779 (97.8873)
Neigh time (%) = 0 (0)
Comm  time (%) = 0.000808062 (2.00363)
Outpt time (%) = 0 (0)
Other time (%) = 4.39987e-05 (0.109097)

Nlocal:    2912 ave 2912 max 2912 min
Histogram: 1 0 0 0 0 0 0 0 0 0
Nghost:    7129 ave 7129 max 7129 min
Histogram: 1 0 0 0 0 0 0 0 0 0
Neighs:    111840 ave 111840 max 111840 min
Histogram: 1 0 0 0 0 0 0 0 0 0

Total # of neighbors = 111840
Ave neighs/atom = 38.4066
Neighbor list builds = 0
Dangerous builds = 0
	# write_dump all atom ${dumpfile}
        next i
jump SELF loop1
        displace_atoms upper move 0.0 ${ystep1} 0.0 units lattice
        displace_atoms upper move 0.0 0.00288675134594812 0.0 units lattice
        min_style ${style}
        min_style hftn
        minimize ${etol} ${ftol} ${maxiter} ${maxeval}
        minimize 1e-12 ${ftol} ${maxiter} ${maxeval}
        minimize 1e-12 1e-08 ${maxiter} ${maxeval}
        minimize 1e-12 1e-08 10000 ${maxeval}
        minimize 1e-12 1e-08 10000 20000
WARNING: Resetting reneighboring criteria during minimization (../min.cpp:168)
Memory usage per processor = 5.28733 Mbytes
Step Temp PotEng Lx Ly Lz 
      16            0   -17339.157     6.928552    73.665732    4.0002014 
Loop time of 0.0371129 on 1 procs for 0 steps with 2912 atoms

Minimization stats:
  Stopping criterion = force tolerance
  Energy initial, next-to-last, final = 
        -17339.1572949     -17339.1572949     -17339.1572949
  Force two-norm initial, final = 9.86999e-11 9.86999e-11
  Force max component initial, final = 3.19188e-12 3.19188e-12
  Final line search alpha, max atom move = 0 0
  Iterations, force evaluations = 0 0

Pair  time (%) = 0.036558 (98.5049)
Neigh time (%) = 0 (0)
Comm  time (%) = 0.00050593 (1.36322)
Outpt time (%) = 0 (0)
Other time (%) = 4.89323e-05 (0.131847)

Nlocal:    2912 ave 2912 max 2912 min
Histogram: 1 0 0 0 0 0 0 0 0 0
Nghost:    7129 ave 7129 max 7129 min
Histogram: 1 0 0 0 0 0 0 0 0 0
Neighs:    111648 ave 111648 max 111648 min
Histogram: 1 0 0 0 0 0 0 0 0 0

Total # of neighbors = 111648
Ave neighs/atom = 38.3407
Neighbor list builds = 0
Dangerous builds = 0
	# write_dump all atom ${dumpfile}
        next i
jump SELF loop1
        displace_atoms upper move 0.0 ${ystep1} 0.0 units lattice
        displace_atoms upper move 0.0 0.00288675134594812 0.0 units lattice
        min_style ${style}
        min_style hftn
        minimize ${etol} ${ftol} ${maxiter} ${maxeval}
        minimize 1e-12 ${ftol} ${maxiter} ${maxeval}
        minimize 1e-12 1e-08 ${maxiter} ${maxeval}
        minimize 1e-12 1e-08 10000 ${maxeval}
        minimize 1e-12 1e-08 10000 20000
WARNING: Resetting reneighboring criteria during minimization (../min.cpp:168)
Memory usage per processor = 5.28733 Mbytes
Step Temp PotEng Lx Ly Lz 
      16            0   -17337.118     6.928552    73.672804    4.0002014 
Loop time of 0.0360659 on 1 procs for 0 steps with 2912 atoms

Minimization stats:
  Stopping criterion = force tolerance
  Energy initial, next-to-last, final = 
        -17337.1182205     -17337.1182205     -17337.1182205
  Force two-norm initial, final = 9.86999e-11 9.86999e-11
  Force max component initial, final = 3.19188e-12 3.19188e-12
  Final line search alpha, max atom move = 0 0
  Iterations, force evaluations = 0 0

Pair  time (%) = 0.035569 (98.6224)
Neigh time (%) = 0 (0)
Comm  time (%) = 0.00046399 (1.28651)
Outpt time (%) = 0 (0)
Other time (%) = 3.2865e-05 (0.0911248)

Nlocal:    2912 ave 2912 max 2912 min
Histogram: 1 0 0 0 0 0 0 0 0 0
Nghost:    7129 ave 7129 max 7129 min
Histogram: 1 0 0 0 0 0 0 0 0 0
Neighs:    111648 ave 111648 max 111648 min
Histogram: 1 0 0 0 0 0 0 0 0 0

Total # of neighbors = 111648
Ave neighs/atom = 38.3407
Neighbor list builds = 0
Dangerous builds = 0
	# write_dump all atom ${dumpfile}
        next i
jump SELF loop1
        displace_atoms upper move 0.0 ${ystep1} 0.0 units lattice
        displace_atoms upper move 0.0 0.00288675134594812 0.0 units lattice
        min_style ${style}
        min_style hftn
        minimize ${etol} ${ftol} ${maxiter} ${maxeval}
        minimize 1e-12 ${ftol} ${maxiter} ${maxeval}
        minimize 1e-12 1e-08 ${maxiter} ${maxeval}
        minimize 1e-12 1e-08 10000 ${maxeval}
        minimize 1e-12 1e-08 10000 20000
WARNING: Resetting reneighboring criteria during minimization (../min.cpp:168)
Memory usage per processor = 5.28733 Mbytes
Step Temp PotEng Lx Ly Lz 
      16            0   -17335.075     6.928552    73.679875    4.0002014 
Loop time of 0.036244 on 1 procs for 0 steps with 2912 atoms

Minimization stats:
  Stopping criterion = force tolerance
  Energy initial, next-to-last, final = 
        -17335.0754548     -17335.0754548     -17335.0754548
  Force two-norm initial, final = 9.86994e-11 9.86994e-11
  Force max component initial, final = 3.19188e-12 3.19188e-12
  Final line search alpha, max atom move = 0 0
  Iterations, force evaluations = 0 0

Pair  time (%) = 0.0357669 (98.6837)
Neigh time (%) = 0 (0)
Comm  time (%) = 0.00044415 (1.22544)
Outpt time (%) = 0 (0)
Other time (%) = 3.2944e-05 (0.090895)

Nlocal:    2912 ave 2912 max 2912 min
Histogram: 1 0 0 0 0 0 0 0 0 0
Nghost:    7129 ave 7129 max 7129 min
Histogram: 1 0 0 0 0 0 0 0 0 0
Neighs:    111648 ave 111648 max 111648 min
Histogram: 1 0 0 0 0 0 0 0 0 0

Total # of neighbors = 111648
Ave neighs/atom = 38.3407
Neighbor list builds = 0
Dangerous builds = 0
	# write_dump all atom ${dumpfile}
        next i
jump SELF loop1
        displace_atoms upper move 0.0 ${ystep1} 0.0 units lattice
        displace_atoms upper move 0.0 0.00288675134594812 0.0 units lattice
        min_style ${style}
        min_style hftn
        minimize ${etol} ${ftol} ${maxiter} ${maxeval}
        minimize 1e-12 ${ftol} ${maxiter} ${maxeval}
        minimize 1e-12 1e-08 ${maxiter} ${maxeval}
        minimize 1e-12 1e-08 10000 ${maxeval}
        minimize 1e-12 1e-08 10000 20000
WARNING: Resetting reneighboring criteria during minimization (../min.cpp:168)
Memory usage per processor = 5.28733 Mbytes
Step Temp PotEng Lx Ly Lz 
      16            0   -17333.031     6.928552    73.686946    4.0002014 
Loop time of 0.0373999 on 1 procs for 0 steps with 2912 atoms

Minimization stats:
  Stopping criterion = force tolerance
  Energy initial, next-to-last, final = 
        -17333.0310851     -17333.0310851     -17333.0310851
  Force two-norm initial, final = 9.86981e-11 9.86981e-11
  Force max component initial, final = 3.19188e-12 3.19188e-12
  Final line search alpha, max atom move = 0 0
  Iterations, force evaluations = 0 0

Pair  time (%) = 0.036903 (98.6715)
Neigh time (%) = 0 (0)
Comm  time (%) = 0.000465961 (1.24589)
Outpt time (%) = 0 (0)
Other time (%) = 3.08942e-05 (0.082605)

Nlocal:    2912 ave 2912 max 2912 min
Histogram: 1 0 0 0 0 0 0 0 0 0
Nghost:    7129 ave 7129 max 7129 min
Histogram: 1 0 0 0 0 0 0 0 0 0
Neighs:    111648 ave 111648 max 111648 min
Histogram: 1 0 0 0 0 0 0 0 0 0

Total # of neighbors = 111648
Ave neighs/atom = 38.3407
Neighbor list builds = 0
Dangerous builds = 0
	# write_dump all atom ${dumpfile}
        next i
jump SELF loop1
        displace_atoms upper move 0.0 ${ystep1} 0.0 units lattice
        displace_atoms upper move 0.0 0.00288675134594812 0.0 units lattice
        min_style ${style}
        min_style hftn
        minimize ${etol} ${ftol} ${maxiter} ${maxeval}
        minimize 1e-12 ${ftol} ${maxiter} ${maxeval}
        minimize 1e-12 1e-08 ${maxiter} ${maxeval}
        minimize 1e-12 1e-08 10000 ${maxeval}
        minimize 1e-12 1e-08 10000 20000
WARNING: Resetting reneighboring criteria during minimization (../min.cpp:168)
Memory usage per processor = 5.28733 Mbytes
Step Temp PotEng Lx Ly Lz 
      16            0   -17330.987     6.928552    73.694018    4.0002014 
Loop time of 0.036655 on 1 procs for 0 steps with 2912 atoms

Minimization stats:
  Stopping criterion = force tolerance
  Energy initial, next-to-last, final = 
        -17330.9871256     -17330.9871256     -17330.9871256
  Force two-norm initial, final = 9.86973e-11 9.86973e-11
  Force max component initial, final = 3.19188e-12 3.19188e-12
  Final line search alpha, max atom move = 0 0
  Iterations, force evaluations = 0 0

Pair  time (%) = 0.0361569 (98.6411)
Neigh time (%) = 0 (0)
Comm  time (%) = 0.000465 (1.26859)
Outpt time (%) = 0 (0)
Other time (%) = 3.30937e-05 (0.0902844)

Nlocal:    2912 ave 2912 max 2912 min
Histogram: 1 0 0 0 0 0 0 0 0 0
Nghost:    7129 ave 7129 max 7129 min
Histogram: 1 0 0 0 0 0 0 0 0 0
Neighs:    111648 ave 111648 max 111648 min
Histogram: 1 0 0 0 0 0 0 0 0 0

Total # of neighbors = 111648
Ave neighs/atom = 38.3407
Neighbor list builds = 0
Dangerous builds = 0
	# write_dump all atom ${dumpfile}
        next i
jump SELF loop1
        displace_atoms upper move 0.0 ${ystep1} 0.0 units lattice
        displace_atoms upper move 0.0 0.00288675134594812 0.0 units lattice
        min_style ${style}
        min_style hftn
        minimize ${etol} ${ftol} ${maxiter} ${maxeval}
        minimize 1e-12 ${ftol} ${maxiter} ${maxeval}
        minimize 1e-12 1e-08 ${maxiter} ${maxeval}
        minimize 1e-12 1e-08 10000 ${maxeval}
        minimize 1e-12 1e-08 10000 20000
WARNING: Resetting reneighboring criteria during minimization (../min.cpp:168)
Memory usage per processor = 5.28733 Mbytes
Step Temp PotEng Lx Ly Lz 
      16            0   -17328.946     6.928552    73.701089    4.0002014 
Loop time of 0.035606 on 1 procs for 0 steps with 2912 atoms

Minimization stats:
  Stopping criterion = force tolerance
  Energy initial, next-to-last, final = 
         -17328.945672      -17328.945672      -17328.945672
  Force two-norm initial, final = 9.86965e-11 9.86965e-11
  Force max component initial, final = 3.19188e-12 3.19188e-12
  Final line search alpha, max atom move = 0 0
  Iterations, force evaluations = 0 0

Pair  time (%) = 0.0351089 (98.6039)
Neigh time (%) = 0 (0)
Comm  time (%) = 0.000465093 (1.30622)
Outpt time (%) = 0 (0)
Other time (%) = 3.20009e-05 (0.0898752)

Nlocal:    2912 ave 2912 max 2912 min
Histogram: 1 0 0 0 0 0 0 0 0 0
Nghost:    7129 ave 7129 max 7129 min
Histogram: 1 0 0 0 0 0 0 0 0 0
Neighs:    111648 ave 111648 max 111648 min
Histogram: 1 0 0 0 0 0 0 0 0 0

Total # of neighbors = 111648
Ave neighs/atom = 38.3407
Neighbor list builds = 0
Dangerous builds = 0
	# write_dump all atom ${dumpfile}
        next i
jump SELF loop1
        displace_atoms upper move 0.0 ${ystep1} 0.0 units lattice
        displace_atoms upper move 0.0 0.00288675134594812 0.0 units lattice
        min_style ${style}
        min_style hftn
        minimize ${etol} ${ftol} ${maxiter} ${maxeval}
        minimize 1e-12 ${ftol} ${maxiter} ${maxeval}
        minimize 1e-12 1e-08 ${maxiter} ${maxeval}
        minimize 1e-12 1e-08 10000 ${maxeval}
        minimize 1e-12 1e-08 10000 20000
WARNING: Resetting reneighboring criteria during minimization (../min.cpp:168)
Memory usage per processor = 5.28733 Mbytes
Step Temp PotEng Lx Ly Lz 
      16            0   -17326.909     6.928552    73.708161    4.0002014 
Loop time of 0.035775 on 1 procs for 0 steps with 2912 atoms

Minimization stats:
  Stopping criterion = force tolerance
  Energy initial, next-to-last, final = 
        -17326.9088456     -17326.9088456     -17326.9088456
  Force two-norm initial, final = 9.86957e-11 9.86957e-11
  Force max component initial, final = 3.19188e-12 3.19188e-12
  Final line search alpha, max atom move = 0 0
  Iterations, force evaluations = 0 0

Pair  time (%) = 0.035275 (98.6024)
Neigh time (%) = 0 (0)
Comm  time (%) = 0.000466131 (1.30295)
Outpt time (%) = 0 (0)
Other time (%) = 3.38699e-05 (0.0946746)

Nlocal:    2912 ave 2912 max 2912 min
Histogram: 1 0 0 0 0 0 0 0 0 0
Nghost:    7129 ave 7129 max 7129 min
Histogram: 1 0 0 0 0 0 0 0 0 0
Neighs:    111648 ave 111648 max 111648 min
Histogram: 1 0 0 0 0 0 0 0 0 0

Total # of neighbors = 111648
Ave neighs/atom = 38.3407
Neighbor list builds = 0
Dangerous builds = 0
	# write_dump all atom ${dumpfile}
        next i
jump SELF loop1
        displace_atoms upper move 0.0 ${ystep1} 0.0 units lattice
        displace_atoms upper move 0.0 0.00288675134594812 0.0 units lattice
        min_style ${style}
        min_style hftn
        minimize ${etol} ${ftol} ${maxiter} ${maxeval}
        minimize 1e-12 ${ftol} ${maxiter} ${maxeval}
        minimize 1e-12 1e-08 ${maxiter} ${maxeval}
        minimize 1e-12 1e-08 10000 ${maxeval}
        minimize 1e-12 1e-08 10000 20000
WARNING: Resetting reneighboring criteria during minimization (../min.cpp:168)
Memory usage per processor = 5.28733 Mbytes
Step Temp PotEng Lx Ly Lz 
      16            0   -17324.879     6.928552    73.715232    4.0002014 
Loop time of 0.036827 on 1 procs for 0 steps with 2912 atoms

Minimization stats:
  Stopping criterion = force tolerance
  Energy initial, next-to-last, final = 
        -17324.8787382     -17324.8787382     -17324.8787382
  Force two-norm initial, final = 9.86949e-11 9.86949e-11
  Force max component initial, final = 3.19188e-12 3.19188e-12
  Final line search alpha, max atom move = 0 0
  Iterations, force evaluations = 0 0

Pair  time (%) = 0.0362539 (98.444)
Neigh time (%) = 0 (0)
Comm  time (%) = 0.000493968 (1.34132)
Outpt time (%) = 0 (0)
Other time (%) = 7.90749e-05 (0.21472)

Nlocal:    2912 ave 2912 max 2912 min
Histogram: 1 0 0 0 0 0 0 0 0 0
Nghost:    7129 ave 7129 max 7129 min
Histogram: 1 0 0 0 0 0 0 0 0 0
Neighs:    111648 ave 111648 max 111648 min
Histogram: 1 0 0 0 0 0 0 0 0 0

Total # of neighbors = 111648
Ave neighs/atom = 38.3407
Neighbor list builds = 0
Dangerous builds = 0
	# write_dump all atom ${dumpfile}
        next i
jump SELF loop1
        displace_atoms upper move 0.0 ${ystep1} 0.0 units lattice
        displace_atoms upper move 0.0 0.00288675134594812 0.0 units lattice
        min_style ${style}
        min_style hftn
        minimize ${etol} ${ftol} ${maxiter} ${maxeval}
        minimize 1e-12 ${ftol} ${maxiter} ${maxeval}
        minimize 1e-12 1e-08 ${maxiter} ${maxeval}
        minimize 1e-12 1e-08 10000 ${maxeval}
        minimize 1e-12 1e-08 10000 20000
WARNING: Resetting reneighboring criteria during minimization (../min.cpp:168)
Memory usage per processor = 5.28733 Mbytes
Step Temp PotEng Lx Ly Lz 
      16            0   -17322.857     6.928552    73.722303    4.0002014 
Loop time of 0.036298 on 1 procs for 0 steps with 2912 atoms

Minimization stats:
  Stopping criterion = force tolerance
  Energy initial, next-to-last, final = 
        -17322.8574896     -17322.8574896     -17322.8574896
  Force two-norm initial, final = 9.86941e-11 9.86941e-11
  Force max component initial, final = 3.19188e-12 3.19188e-12
  Final line search alpha, max atom move = 0 0
  Iterations, force evaluations = 0 0

Pair  time (%) = 0.0358031 (98.6367)
Neigh time (%) = 0 (0)
Comm  time (%) = 0.00046299 (1.27553)
Outpt time (%) = 0 (0)
Other time (%) = 3.18649e-05 (0.0877869)

Nlocal:    2912 ave 2912 max 2912 min
Histogram: 1 0 0 0 0 0 0 0 0 0
Nghost:    7129 ave 7129 max 7129 min
Histogram: 1 0 0 0 0 0 0 0 0 0
Neighs:    111648 ave 111648 max 111648 min
Histogram: 1 0 0 0 0 0 0 0 0 0

Total # of neighbors = 111648
Ave neighs/atom = 38.3407
Neighbor list builds = 0
Dangerous builds = 0
	# write_dump all atom ${dumpfile}
        next i
jump SELF loop1
        displace_atoms upper move 0.0 ${ystep1} 0.0 units lattice
        displace_atoms upper move 0.0 0.00288675134594812 0.0 units lattice
        min_style ${style}
        min_style hftn
        minimize ${etol} ${ftol} ${maxiter} ${maxeval}
        minimize 1e-12 ${ftol} ${maxiter} ${maxeval}
        minimize 1e-12 1e-08 ${maxiter} ${maxeval}
        minimize 1e-12 1e-08 10000 ${maxeval}
        minimize 1e-12 1e-08 10000 20000
WARNING: Resetting reneighboring criteria during minimization (../min.cpp:168)
Memory usage per processor = 5.28733 Mbytes
Step Temp PotEng Lx Ly Lz 
      16            0   -17320.847     6.928552    73.729375    4.0002014 
Loop time of 0.043601 on 1 procs for 0 steps with 2912 atoms

Minimization stats:
  Stopping criterion = force tolerance
  Energy initial, next-to-last, final = 
        -17320.8472544     -17320.8472544     -17320.8472544
  Force two-norm initial, final = 9.86933e-11 9.86933e-11
  Force max component initial, final = 3.19188e-12 3.19188e-12
  Final line search alpha, max atom move = 0 0
  Iterations, force evaluations = 0 0

Pair  time (%) = 0.0430959 (98.8417)
Neigh time (%) = 0 (0)
Comm  time (%) = 0.000471129 (1.08055)
Outpt time (%) = 0 (0)
Other time (%) = 3.39181e-05 (0.077792)

Nlocal:    2912 ave 2912 max 2912 min
Histogram: 1 0 0 0 0 0 0 0 0 0
Nghost:    7129 ave 7129 max 7129 min
Histogram: 1 0 0 0 0 0 0 0 0 0
Neighs:    111648 ave 111648 max 111648 min
Histogram: 1 0 0 0 0 0 0 0 0 0

Total # of neighbors = 111648
Ave neighs/atom = 38.3407
Neighbor list builds = 0
Dangerous builds = 0
	# write_dump all atom ${dumpfile}
        next i
jump SELF loop1
        displace_atoms upper move 0.0 ${ystep1} 0.0 units lattice
        displace_atoms upper move 0.0 0.00288675134594812 0.0 units lattice
        min_style ${style}
        min_style hftn
        minimize ${etol} ${ftol} ${maxiter} ${maxeval}
        minimize 1e-12 ${ftol} ${maxiter} ${maxeval}
        minimize 1e-12 1e-08 ${maxiter} ${maxeval}
        minimize 1e-12 1e-08 10000 ${maxeval}
        minimize 1e-12 1e-08 10000 20000
WARNING: Resetting reneighboring criteria during minimization (../min.cpp:168)
Memory usage per processor = 5.28733 Mbytes
Step Temp PotEng Lx Ly Lz 
      16            0    -17318.85     6.928552    73.736446    4.0002014 
Loop time of 0.0357991 on 1 procs for 0 steps with 2912 atoms

Minimization stats:
  Stopping criterion = force tolerance
  Energy initial, next-to-last, final = 
         -17318.850203      -17318.850203      -17318.850203
  Force two-norm initial, final = 9.86925e-11 9.86925e-11
  Force max component initial, final = 3.19188e-12 3.19188e-12
  Final line search alpha, max atom move = 0 0
  Iterations, force evaluations = 0 0

Pair  time (%) = 0.035517 (99.2121)
Neigh time (%) = 0 (0)
Comm  time (%) = 0.000246928 (0.68976)
Outpt time (%) = 0 (0)
Other time (%) = 3.51198e-05 (0.0981027)

Nlocal:    2912 ave 2912 max 2912 min
Histogram: 1 0 0 0 0 0 0 0 0 0
Nghost:    7129 ave 7129 max 7129 min
Histogram: 1 0 0 0 0 0 0 0 0 0
Neighs:    111648 ave 111648 max 111648 min
Histogram: 1 0 0 0 0 0 0 0 0 0

Total # of neighbors = 111648
Ave neighs/atom = 38.3407
Neighbor list builds = 0
Dangerous builds = 0
	# write_dump all atom ${dumpfile}
        next i
jump SELF loop1
        displace_atoms upper move 0.0 ${ystep1} 0.0 units lattice
        displace_atoms upper move 0.0 0.00288675134594812 0.0 units lattice
        min_style ${style}
        min_style hftn
        minimize ${etol} ${ftol} ${maxiter} ${maxeval}
        minimize 1e-12 ${ftol} ${maxiter} ${maxeval}
        minimize 1e-12 1e-08 ${maxiter} ${maxeval}
        minimize 1e-12 1e-08 10000 ${maxeval}
        minimize 1e-12 1e-08 10000 20000
WARNING: Resetting reneighboring criteria during minimization (../min.cpp:168)
Memory usage per processor = 5.28733 Mbytes
Step Temp PotEng Lx Ly Lz 
      16            0   -17316.869     6.928552    73.743518    4.0002014 
Loop time of 0.0578271 on 1 procs for 0 steps with 2912 atoms

Minimization stats:
  Stopping criterion = force tolerance
  Energy initial, next-to-last, final = 
        -17316.8685183     -17316.8685183     -17316.8685183
  Force two-norm initial, final = 9.86916e-11 9.86916e-11
  Force max component initial, final = 3.19188e-12 3.19188e-12
  Final line search alpha, max atom move = 0 0
  Iterations, force evaluations = 0 0

Pair  time (%) = 0.0573641 (99.1993)
Neigh time (%) = 0 (0)
Comm  time (%) = 0.000450158 (0.778456)
Outpt time (%) = 0 (0)
Other time (%) = 1.28414e-05 (0.0222066)

Nlocal:    2912 ave 2912 max 2912 min
Histogram: 1 0 0 0 0 0 0 0 0 0
Nghost:    7129 ave 7129 max 7129 min
Histogram: 1 0 0 0 0 0 0 0 0 0
Neighs:    111648 ave 111648 max 111648 min
Histogram: 1 0 0 0 0 0 0 0 0 0

Total # of neighbors = 111648
Ave neighs/atom = 38.3407
Neighbor list builds = 0
Dangerous builds = 0
	# write_dump all atom ${dumpfile}
        next i
jump SELF loop1
        displace_atoms upper move 0.0 ${ystep1} 0.0 units lattice
        displace_atoms upper move 0.0 0.00288675134594812 0.0 units lattice
        min_style ${style}
        min_style hftn
        minimize ${etol} ${ftol} ${maxiter} ${maxeval}
        minimize 1e-12 ${ftol} ${maxiter} ${maxeval}
        minimize 1e-12 1e-08 ${maxiter} ${maxeval}
        minimize 1e-12 1e-08 10000 ${maxeval}
        minimize 1e-12 1e-08 10000 20000
WARNING: Resetting reneighboring criteria during minimization (../min.cpp:168)
Memory usage per processor = 5.28733 Mbytes
Step Temp PotEng Lx Ly Lz 
      16            0   -17314.904     6.928552    73.750589    4.0002014 
Loop time of 0.0358459 on 1 procs for 0 steps with 2912 atoms

Minimization stats:
  Stopping criterion = force tolerance
  Energy initial, next-to-last, final = 
        -17314.9044209     -17314.9044209     -17314.9044209
  Force two-norm initial, final = 9.86908e-11 9.86908e-11
  Force max component initial, final = 3.19188e-12 3.19188e-12
  Final line search alpha, max atom move = 0 0
  Iterations, force evaluations = 0 0

Pair  time (%) = 0.0353671 (98.6641)
Neigh time (%) = 0 (0)
Comm  time (%) = 0.000445991 (1.24419)
Outpt time (%) = 0 (0)
Other time (%) = 3.28649e-05 (0.0916836)

Nlocal:    2912 ave 2912 max 2912 min
Histogram: 1 0 0 0 0 0 0 0 0 0
Nghost:    7129 ave 7129 max 7129 min
Histogram: 1 0 0 0 0 0 0 0 0 0
Neighs:    111648 ave 111648 max 111648 min
Histogram: 1 0 0 0 0 0 0 0 0 0

Total # of neighbors = 111648
Ave neighs/atom = 38.3407
Neighbor list builds = 0
Dangerous builds = 0
	# write_dump all atom ${dumpfile}
        next i
jump SELF loop1
        displace_atoms upper move 0.0 ${ystep1} 0.0 units lattice
        displace_atoms upper move 0.0 0.00288675134594812 0.0 units lattice
        min_style ${style}
        min_style hftn
        minimize ${etol} ${ftol} ${maxiter} ${maxeval}
        minimize 1e-12 ${ftol} ${maxiter} ${maxeval}
        minimize 1e-12 1e-08 ${maxiter} ${maxeval}
        minimize 1e-12 1e-08 10000 ${maxeval}
        minimize 1e-12 1e-08 10000 20000
WARNING: Resetting reneighboring criteria during minimization (../min.cpp:168)
Memory usage per processor = 5.28733 Mbytes
Step Temp PotEng Lx Ly Lz 
      16            0    -17312.96     6.928552    73.757661    4.0002014 
Loop time of 0.0361361 on 1 procs for 0 steps with 2912 atoms

Minimization stats:
  Stopping criterion = force tolerance
  Energy initial, next-to-last, final = 
        -17312.9601508     -17312.9601508     -17312.9601508
  Force two-norm initial, final = 9.86898e-11 9.86898e-11
  Force max component initial, final = 3.19188e-12 3.19188e-12
  Final line search alpha, max atom move = 0 0
  Iterations, force evaluations = 0 0

Pair  time (%) = 0.035637 (98.619)
Neigh time (%) = 0 (0)
Comm  time (%) = 0.000465995 (1.28956)
Outpt time (%) = 0 (0)
Other time (%) = 3.30522e-05 (0.0914659)

Nlocal:    2912 ave 2912 max 2912 min
Histogram: 1 0 0 0 0 0 0 0 0 0
Nghost:    7129 ave 7129 max 7129 min
Histogram: 1 0 0 0 0 0 0 0 0 0
Neighs:    111648 ave 111648 max 111648 min
Histogram: 1 0 0 0 0 0 0 0 0 0

Total # of neighbors = 111648
Ave neighs/atom = 38.3407
Neighbor list builds = 0
Dangerous builds = 0
	# write_dump all atom ${dumpfile}
        next i
jump SELF loop1
        displace_atoms upper move 0.0 ${ystep1} 0.0 units lattice
        displace_atoms upper move 0.0 0.00288675134594812 0.0 units lattice
        min_style ${style}
        min_style hftn
        minimize ${etol} ${ftol} ${maxiter} ${maxeval}
        minimize 1e-12 ${ftol} ${maxiter} ${maxeval}
        minimize 1e-12 1e-08 ${maxiter} ${maxeval}
        minimize 1e-12 1e-08 10000 ${maxeval}
        minimize 1e-12 1e-08 10000 20000
WARNING: Resetting reneighboring criteria during minimization (../min.cpp:168)
Memory usage per processor = 5.28733 Mbytes
Step Temp PotEng Lx Ly Lz 
      16            0   -17311.038     6.928552    73.764732    4.0002014 
Loop time of 0.036584 on 1 procs for 0 steps with 2912 atoms

Minimization stats:
  Stopping criterion = force tolerance
  Energy initial, next-to-last, final = 
         -17311.037882      -17311.037882      -17311.037882
  Force two-norm initial, final = 9.86891e-11 9.86891e-11
  Force max component initial, final = 3.19188e-12 3.19188e-12
  Final line search alpha, max atom move = 0 0
  Iterations, force evaluations = 0 0

Pair  time (%) = 0.036446 (99.6227)
Neigh time (%) = 0 (0)
Comm  time (%) = 2.99881e-05 (0.0819705)
Outpt time (%) = 0 (0)
Other time (%) = 0.000108059 (0.295373)

Nlocal:    2912 ave 2912 max 2912 min
Histogram: 1 0 0 0 0 0 0 0 0 0
Nghost:    7129 ave 7129 max 7129 min
Histogram: 1 0 0 0 0 0 0 0 0 0
Neighs:    111648 ave 111648 max 111648 min
Histogram: 1 0 0 0 0 0 0 0 0 0

Total # of neighbors = 111648
Ave neighs/atom = 38.3407
Neighbor list builds = 0
Dangerous builds = 0
	# write_dump all atom ${dumpfile}
        next i
jump SELF loop1
        displace_atoms upper move 0.0 ${ystep1} 0.0 units lattice
        displace_atoms upper move 0.0 0.00288675134594812 0.0 units lattice
        min_style ${style}
        min_style hftn
        minimize ${etol} ${ftol} ${maxiter} ${maxeval}
        minimize 1e-12 ${ftol} ${maxiter} ${maxeval}
        minimize 1e-12 1e-08 ${maxiter} ${maxeval}
        minimize 1e-12 1e-08 10000 ${maxeval}
        minimize 1e-12 1e-08 10000 20000
WARNING: Resetting reneighboring criteria during minimization (../min.cpp:168)
Memory usage per processor = 5.28733 Mbytes
Step Temp PotEng Lx Ly Lz 
      16            0    -17309.14     6.928552    73.771803    4.0002014 
Loop time of 0.0361101 on 1 procs for 0 steps with 2912 atoms

Minimization stats:
  Stopping criterion = force tolerance
  Energy initial, next-to-last, final = 
        -17309.1400128     -17309.1400128     -17309.1400128
  Force two-norm initial, final = 9.86878e-11 9.86878e-11
  Force max component initial, final = 3.19188e-12 3.19188e-12
  Final line search alpha, max atom move = 0 0
  Iterations, force evaluations = 0 0

Pair  time (%) = 0.035606 (98.604)
Neigh time (%) = 0 (0)
Comm  time (%) = 0.000470148 (1.30199)
Outpt time (%) = 0 (0)
Other time (%) = 3.39457e-05 (0.0940061)

Nlocal:    2912 ave 2912 max 2912 min
Histogram: 1 0 0 0 0 0 0 0 0 0
Nghost:    7129 ave 7129 max 7129 min
Histogram: 1 0 0 0 0 0 0 0 0 0
Neighs:    111648 ave 111648 max 111648 min
Histogram: 1 0 0 0 0 0 0 0 0 0

Total # of neighbors = 111648
Ave neighs/atom = 38.3407
Neighbor list builds = 0
Dangerous builds = 0
	# write_dump all atom ${dumpfile}
        next i
jump SELF loop1
        displace_atoms upper move 0.0 ${ystep1} 0.0 units lattice
        displace_atoms upper move 0.0 0.00288675134594812 0.0 units lattice
        min_style ${style}
        min_style hftn
        minimize ${etol} ${ftol} ${maxiter} ${maxeval}
        minimize 1e-12 ${ftol} ${maxiter} ${maxeval}
        minimize 1e-12 1e-08 ${maxiter} ${maxeval}
        minimize 1e-12 1e-08 10000 ${maxeval}
        minimize 1e-12 1e-08 10000 20000
WARNING: Resetting reneighboring criteria during minimization (../min.cpp:168)
Memory usage per processor = 5.28733 Mbytes
Step Temp PotEng Lx Ly Lz 
      16            0    -17307.27     6.928552    73.778875    4.0002014 
Loop time of 0.0356481 on 1 procs for 0 steps with 2912 atoms

Minimization stats:
  Stopping criterion = force tolerance
  Energy initial, next-to-last, final = 
        -17307.2695495     -17307.2695495     -17307.2695495
  Force two-norm initial, final = 9.86869e-11 9.86869e-11
  Force max component initial, final = 3.19188e-12 3.19188e-12
  Final line search alpha, max atom move = 0 0
  Iterations, force evaluations = 0 0

Pair  time (%) = 0.035099 (98.4597)
Neigh time (%) = 0 (0)
Comm  time (%) = 0.000513855 (1.44147)
Outpt time (%) = 0 (0)
Other time (%) = 3.52387e-05 (0.0988515)

Nlocal:    2912 ave 2912 max 2912 min
Histogram: 1 0 0 0 0 0 0 0 0 0
Nghost:    7129 ave 7129 max 7129 min
Histogram: 1 0 0 0 0 0 0 0 0 0
Neighs:    111648 ave 111648 max 111648 min
Histogram: 1 0 0 0 0 0 0 0 0 0

Total # of neighbors = 111648
Ave neighs/atom = 38.3407
Neighbor list builds = 0
Dangerous builds = 0
	# write_dump all atom ${dumpfile}
        next i
jump SELF loop1
        displace_atoms upper move 0.0 ${ystep1} 0.0 units lattice
        displace_atoms upper move 0.0 0.00288675134594812 0.0 units lattice
        min_style ${style}
        min_style hftn
        minimize ${etol} ${ftol} ${maxiter} ${maxeval}
        minimize 1e-12 ${ftol} ${maxiter} ${maxeval}
        minimize 1e-12 1e-08 ${maxiter} ${maxeval}
        minimize 1e-12 1e-08 10000 ${maxeval}
        minimize 1e-12 1e-08 10000 20000
WARNING: Resetting reneighboring criteria during minimization (../min.cpp:168)
Memory usage per processor = 5.28733 Mbytes
Step Temp PotEng Lx Ly Lz 
      16            0    -17305.43     6.928552    73.785946    4.0002014 
Loop time of 0.0362461 on 1 procs for 0 steps with 2912 atoms

Minimization stats:
  Stopping criterion = force tolerance
  Energy initial, next-to-last, final = 
        -17305.4300358     -17305.4300358     -17305.4300358
  Force two-norm initial, final = 9.86857e-11 9.86857e-11
  Force max component initial, final = 3.19188e-12 3.19188e-12
  Final line search alpha, max atom move = 0 0
  Iterations, force evaluations = 0 0

Pair  time (%) = 0.035742 (98.6092)
Neigh time (%) = 0 (0)
Comm  time (%) = 0.000470883 (1.29913)
Outpt time (%) = 0 (0)
Other time (%) = 3.32106e-05 (0.0916253)

Nlocal:    2912 ave 2912 max 2912 min
Histogram: 1 0 0 0 0 0 0 0 0 0
Nghost:    7129 ave 7129 max 7129 min
Histogram: 1 0 0 0 0 0 0 0 0 0
Neighs:    111648 ave 111648 max 111648 min
Histogram: 1 0 0 0 0 0 0 0 0 0

Total # of neighbors = 111648
Ave neighs/atom = 38.3407
Neighbor list builds = 0
Dangerous builds = 0
	# write_dump all atom ${dumpfile}
        next i
jump SELF loop1
        displace_atoms upper move 0.0 ${ystep1} 0.0 units lattice
        displace_atoms upper move 0.0 0.00288675134594812 0.0 units lattice
        min_style ${style}
        min_style hftn
        minimize ${etol} ${ftol} ${maxiter} ${maxeval}
        minimize 1e-12 ${ftol} ${maxiter} ${maxeval}
        minimize 1e-12 1e-08 ${maxiter} ${maxeval}
        minimize 1e-12 1e-08 10000 ${maxeval}
        minimize 1e-12 1e-08 10000 20000
WARNING: Resetting reneighboring criteria during minimization (../min.cpp:168)
Memory usage per processor = 5.28733 Mbytes
Step Temp PotEng Lx Ly Lz 
      16            0   -17303.625     6.928552    73.793018    4.0002014 
Loop time of 0.0363399 on 1 procs for 0 steps with 2912 atoms

Minimization stats:
  Stopping criterion = force tolerance
  Energy initial, next-to-last, final = 
        -17303.6249038     -17303.6249038     -17303.6249038
  Force two-norm initial, final = 9.86842e-11 9.86842e-11
  Force max component initial, final = 3.19188e-12 3.19188e-12
  Final line search alpha, max atom move = 0 0
  Iterations, force evaluations = 0 0

Pair  time (%) = 0.0357211 (98.297)
Neigh time (%) = 0 (0)
Comm  time (%) = 0.000563944 (1.55186)
Outpt time (%) = 0 (0)
Other time (%) = 5.49117e-05 (0.151106)

Nlocal:    2912 ave 2912 max 2912 min
Histogram: 1 0 0 0 0 0 0 0 0 0
Nghost:    7129 ave 7129 max 7129 min
Histogram: 1 0 0 0 0 0 0 0 0 0
Neighs:    111648 ave 111648 max 111648 min
Histogram: 1 0 0 0 0 0 0 0 0 0

Total # of neighbors = 111648
Ave neighs/atom = 38.3407
Neighbor list builds = 0
Dangerous builds = 0
	# write_dump all atom ${dumpfile}
        next i
jump SELF loop1
        displace_atoms upper move 0.0 ${ystep1} 0.0 units lattice
        displace_atoms upper move 0.0 0.00288675134594812 0.0 units lattice
        min_style ${style}
        min_style hftn
        minimize ${etol} ${ftol} ${maxiter} ${maxeval}
        minimize 1e-12 ${ftol} ${maxiter} ${maxeval}
        minimize 1e-12 1e-08 ${maxiter} ${maxeval}
        minimize 1e-12 1e-08 10000 ${maxeval}
        minimize 1e-12 1e-08 10000 20000
WARNING: Resetting reneighboring criteria during minimization (../min.cpp:168)
Memory usage per processor = 5.28733 Mbytes
Step Temp PotEng Lx Ly Lz 
      16            0   -17301.858     6.928552    73.800089    4.0002014 
Loop time of 0.036249 on 1 procs for 0 steps with 2912 atoms

Minimization stats:
  Stopping criterion = force tolerance
  Energy initial, next-to-last, final = 
        -17301.8577276     -17301.8577276     -17301.8577276
  Force two-norm initial, final = 9.86831e-11 9.86831e-11
  Force max component initial, final = 3.19188e-12 3.19188e-12
  Final line search alpha, max atom move = 0 0
  Iterations, force evaluations = 0 0

Pair  time (%) = 0.035775 (98.6924)
Neigh time (%) = 0 (0)
Comm  time (%) = 0.000429063 (1.18366)
Outpt time (%) = 0 (0)
Other time (%) = 4.49326e-05 (0.123955)

Nlocal:    2912 ave 2912 max 2912 min
Histogram: 1 0 0 0 0 0 0 0 0 0
Nghost:    7129 ave 7129 max 7129 min
Histogram: 1 0 0 0 0 0 0 0 0 0
Neighs:    111648 ave 111648 max 111648 min
Histogram: 1 0 0 0 0 0 0 0 0 0

Total # of neighbors = 111648
Ave neighs/atom = 38.3407
Neighbor list builds = 0
Dangerous builds = 0
	# write_dump all atom ${dumpfile}
        next i
jump SELF loop1
        displace_atoms upper move 0.0 ${ystep1} 0.0 units lattice
        displace_atoms upper move 0.0 0.00288675134594812 0.0 units lattice
        min_style ${style}
        min_style hftn
        minimize ${etol} ${ftol} ${maxiter} ${maxeval}
        minimize 1e-12 ${ftol} ${maxiter} ${maxeval}
        minimize 1e-12 1e-08 ${maxiter} ${maxeval}
        minimize 1e-12 1e-08 10000 ${maxeval}
        minimize 1e-12 1e-08 10000 20000
WARNING: Resetting reneighboring criteria during minimization (../min.cpp:168)
Memory usage per processor = 5.28733 Mbytes
Step Temp PotEng Lx Ly Lz 
      16            0   -17300.132     6.928552    73.807161    4.0002014 
Loop time of 0.0365889 on 1 procs for 0 steps with 2912 atoms

Minimization stats:
  Stopping criterion = force tolerance
  Energy initial, next-to-last, final = 
         -17300.132102      -17300.132102      -17300.132102
  Force two-norm initial, final = 9.86818e-11 9.86818e-11
  Force max component initial, final = 3.19188e-12 3.19188e-12
  Final line search alpha, max atom move = 0 0
  Iterations, force evaluations = 0 0

Pair  time (%) = 0.0361071 (98.6831)
Neigh time (%) = 0 (0)
Comm  time (%) = 0.000457998 (1.25174)
Outpt time (%) = 0 (0)
Other time (%) = 2.3857e-05 (0.0652027)

Nlocal:    2912 ave 2912 max 2912 min
Histogram: 1 0 0 0 0 0 0 0 0 0
Nghost:    7129 ave 7129 max 7129 min
Histogram: 1 0 0 0 0 0 0 0 0 0
Neighs:    111648 ave 111648 max 111648 min
Histogram: 1 0 0 0 0 0 0 0 0 0

Total # of neighbors = 111648
Ave neighs/atom = 38.3407
Neighbor list builds = 0
Dangerous builds = 0
	# write_dump all atom ${dumpfile}
        next i
jump SELF loop1
        displace_atoms upper move 0.0 ${ystep1} 0.0 units lattice
        displace_atoms upper move 0.0 0.00288675134594812 0.0 units lattice
        min_style ${style}
        min_style hftn
        minimize ${etol} ${ftol} ${maxiter} ${maxeval}
        minimize 1e-12 ${ftol} ${maxiter} ${maxeval}
        minimize 1e-12 1e-08 ${maxiter} ${maxeval}
        minimize 1e-12 1e-08 10000 ${maxeval}
        minimize 1e-12 1e-08 10000 20000
WARNING: Resetting reneighboring criteria during minimization (../min.cpp:168)
Memory usage per processor = 5.28733 Mbytes
Step Temp PotEng Lx Ly Lz 
      16            0   -17298.452     6.928552    73.814232    4.0002014 
Loop time of 0.036538 on 1 procs for 0 steps with 2912 atoms

Minimization stats:
  Stopping criterion = force tolerance
  Energy initial, next-to-last, final = 
        -17298.4515566     -17298.4515566     -17298.4515566
  Force two-norm initial, final = 9.86806e-11 9.86806e-11
  Force max component initial, final = 3.19188e-12 3.19188e-12
  Final line search alpha, max atom move = 0 0
  Iterations, force evaluations = 0 0

Pair  time (%) = 0.0360371 (98.6289)
Neigh time (%) = 0 (0)
Comm  time (%) = 0.000465206 (1.27321)
Outpt time (%) = 0 (0)
Other time (%) = 3.57488e-05 (0.09784)

Nlocal:    2912 ave 2912 max 2912 min
Histogram: 1 0 0 0 0 0 0 0 0 0
Nghost:    7129 ave 7129 max 7129 min
Histogram: 1 0 0 0 0 0 0 0 0 0
Neighs:    111648 ave 111648 max 111648 min
Histogram: 1 0 0 0 0 0 0 0 0 0

Total # of neighbors = 111648
Ave neighs/atom = 38.3407
Neighbor list builds = 0
Dangerous builds = 0
	# write_dump all atom ${dumpfile}
        next i
jump SELF loop1
        displace_atoms upper move 0.0 ${ystep1} 0.0 units lattice
        displace_atoms upper move 0.0 0.00288675134594812 0.0 units lattice
        min_style ${style}
        min_style hftn
        minimize ${etol} ${ftol} ${maxiter} ${maxeval}
        minimize 1e-12 ${ftol} ${maxiter} ${maxeval}
        minimize 1e-12 1e-08 ${maxiter} ${maxeval}
        minimize 1e-12 1e-08 10000 ${maxeval}
        minimize 1e-12 1e-08 10000 20000
WARNING: Resetting reneighboring criteria during minimization (../min.cpp:168)
Memory usage per processor = 5.28733 Mbytes
Step Temp PotEng Lx Ly Lz 
      16            0    -17296.82     6.928552    73.821303    4.0002014 
Loop time of 0.0370151 on 1 procs for 0 steps with 2912 atoms

Minimization stats:
  Stopping criterion = force tolerance
[...]
  Force max component initial, final = 3.19188e-12 3.19188e-12
  Final line search alpha, max atom move = 0 0
  Iterations, force evaluations = 0 0

Pair  time (%) = 0.041979 (97.318)
Neigh time (%) = 0 (0)
Comm  time (%) = 0.00112086 (2.59845)
Outpt time (%) = 0 (0)
Other time (%) = 3.60451e-05 (0.0835617)

Nlocal:    2912 ave 2912 max 2912 min
Histogram: 1 0 0 0 0 0 0 0 0 0
Nghost:    7129 ave 7129 max 7129 min
Histogram: 1 0 0 0 0 0 0 0 0 0
Neighs:    110880 ave 110880 max 110880 min
Histogram: 1 0 0 0 0 0 0 0 0 0

Total # of neighbors = 110880
Ave neighs/atom = 38.0769
Neighbor list builds = 0
Dangerous builds = 0
	# write_dump all atom ${dumpfile}
        next i
jump SELF loop1
        displace_atoms upper move 0.0 ${ystep1} 0.0 units lattice
        displace_atoms upper move 0.0 0.00288675134594812 0.0 units lattice
        min_style ${style}
        min_style hftn
        minimize ${etol} ${ftol} ${maxiter} ${maxeval}
        minimize 1e-12 ${ftol} ${maxiter} ${maxeval}
        minimize 1e-12 1e-08 ${maxiter} ${maxeval}
        minimize 1e-12 1e-08 10000 ${maxeval}
        minimize 1e-12 1e-08 10000 20000
WARNING: Resetting reneighboring criteria during minimization (../min.cpp:168)
Memory usage per processor = 5.28733 Mbytes
Step Temp PotEng Lx Ly Lz 
      16            0    -17279.99     6.928552    75.560874    4.0002014 
Loop time of 0.036696 on 1 procs for 0 steps with 2912 atoms

Minimization stats:
  Stopping criterion = force tolerance
  Energy initial, next-to-last, final = 
        -17279.9900092     -17279.9900092     -17279.9900092
  Force two-norm initial, final = 9.86798e-11 9.86798e-11
  Force max component initial, final = 3.19188e-12 3.19188e-12
  Final line search alpha, max atom move = 0 0
  Iterations, force evaluations = 0 0

Pair  time (%) = 0.0361899 (98.6211)
Neigh time (%) = 0 (0)
Comm  time (%) = 0.000468989 (1.27804)
Outpt time (%) = 0 (0)
Other time (%) = 3.70186e-05 (0.100879)

Nlocal:    2912 ave 2912 max 2912 min
Histogram: 1 0 0 0 0 0 0 0 0 0
Nghost:    7129 ave 7129 max 7129 min
Histogram: 1 0 0 0 0 0 0 0 0 0
Neighs:    110880 ave 110880 max 110880 min
Histogram: 1 0 0 0 0 0 0 0 0 0

Total # of neighbors = 110880
Ave neighs/atom = 38.0769
Neighbor list builds = 0
Dangerous builds = 0
	# write_dump all atom ${dumpfile}
        next i
jump SELF loop1
        displace_atoms upper move 0.0 ${ystep1} 0.0 units lattice
        displace_atoms upper move 0.0 0.00288675134594812 0.0 units lattice
        min_style ${style}
        min_style hftn
        minimize ${etol} ${ftol} ${maxiter} ${maxeval}
        minimize 1e-12 ${ftol} ${maxiter} ${maxeval}
        minimize 1e-12 1e-08 ${maxiter} ${maxeval}
        minimize 1e-12 1e-08 10000 ${maxeval}
        minimize 1e-12 1e-08 10000 20000
WARNING: Resetting reneighboring criteria during minimization (../min.cpp:168)
Memory usage per processor = 5.28733 Mbytes
Step Temp PotEng Lx Ly Lz 
      16            0    -17279.99     6.928552    75.567945    4.0002014 
Loop time of 0.0367771 on 1 procs for 0 steps with 2912 atoms

Minimization stats:
  Stopping criterion = force tolerance
  Energy initial, next-to-last, final = 
        -17279.9900092     -17279.9900092     -17279.9900092
  Force two-norm initial, final = 9.86802e-11 9.86802e-11
  Force max component initial, final = 3.19188e-12 3.19188e-12
  Final line search alpha, max atom move = 0 0
  Iterations, force evaluations = 0 0

Pair  time (%) = 0.03642 (99.0291)
Neigh time (%) = 0 (0)
Comm  time (%) = 0.000333885 (0.907861)
Outpt time (%) = 0 (0)
Other time (%) = 2.31698e-05 (0.0630007)

Nlocal:    2912 ave 2912 max 2912 min
Histogram: 1 0 0 0 0 0 0 0 0 0
Nghost:    7129 ave 7129 max 7129 min
Histogram: 1 0 0 0 0 0 0 0 0 0
Neighs:    110880 ave 110880 max 110880 min
Histogram: 1 0 0 0 0 0 0 0 0 0

Total # of neighbors = 110880
Ave neighs/atom = 38.0769
Neighbor list builds = 0
Dangerous builds = 0
	# write_dump all atom ${dumpfile}
        next i
jump SELF loop1
        displace_atoms upper move 0.0 ${ystep1} 0.0 units lattice
        displace_atoms upper move 0.0 0.00288675134594812 0.0 units lattice
        min_style ${style}
        min_style hftn
        minimize ${etol} ${ftol} ${maxiter} ${maxeval}
        minimize 1e-12 ${ftol} ${maxiter} ${maxeval}
        minimize 1e-12 1e-08 ${maxiter} ${maxeval}
        minimize 1e-12 1e-08 10000 ${maxeval}
        minimize 1e-12 1e-08 10000 20000
WARNING: Resetting reneighboring criteria during minimization (../min.cpp:168)
Memory usage per processor = 5.28733 Mbytes
Step Temp PotEng Lx Ly Lz 
      16            0    -17279.99     6.928552    75.575017    4.0002014 
Loop time of 0.037798 on 1 procs for 0 steps with 2912 atoms

Minimization stats:
  Stopping criterion = force tolerance
  Energy initial, next-to-last, final = 
        -17279.9900092     -17279.9900092     -17279.9900092
  Force two-norm initial, final = 9.86798e-11 9.86798e-11
  Force max component initial, final = 3.19188e-12 3.19188e-12
  Final line search alpha, max atom move = 0 0
  Iterations, force evaluations = 0 0

Pair  time (%) = 0.0372729 (98.6108)
Neigh time (%) = 0 (0)
Comm  time (%) = 0.000492058 (1.30181)
Outpt time (%) = 0 (0)
Other time (%) = 3.30363e-05 (0.0874023)

Nlocal:    2912 ave 2912 max 2912 min
Histogram: 1 0 0 0 0 0 0 0 0 0
Nghost:    7129 ave 7129 max 7129 min
Histogram: 1 0 0 0 0 0 0 0 0 0
Neighs:    110880 ave 110880 max 110880 min
Histogram: 1 0 0 0 0 0 0 0 0 0

Total # of neighbors = 110880
Ave neighs/atom = 38.0769
Neighbor list builds = 0
Dangerous builds = 0
	# write_dump all atom ${dumpfile}
        next i
jump SELF loop1
        displace_atoms upper move 0.0 ${ystep1} 0.0 units lattice
        displace_atoms upper move 0.0 0.00288675134594812 0.0 units lattice
        min_style ${style}
        min_style hftn
        minimize ${etol} ${ftol} ${maxiter} ${maxeval}
        minimize 1e-12 ${ftol} ${maxiter} ${maxeval}
        minimize 1e-12 1e-08 ${maxiter} ${maxeval}
        minimize 1e-12 1e-08 10000 ${maxeval}
        minimize 1e-12 1e-08 10000 20000
WARNING: Resetting reneighboring criteria during minimization (../min.cpp:168)
Memory usage per processor = 5.28733 Mbytes
Step Temp PotEng Lx Ly Lz 
      16            0    -17279.99     6.928552    75.582088    4.0002014 
Loop time of 0.04068 on 1 procs for 0 steps with 2912 atoms

Minimization stats:
  Stopping criterion = force tolerance
  Energy initial, next-to-last, final = 
        -17279.9900092     -17279.9900092     -17279.9900092
  Force two-norm initial, final = 9.868e-11 9.868e-11
  Force max component initial, final = 3.19188e-12 3.19188e-12
  Final line search alpha, max atom move = 0 0
  Iterations, force evaluations = 0 0

Pair  time (%) = 0.040103 (98.5815)
Neigh time (%) = 0 (0)
Comm  time (%) = 0.000515067 (1.26614)
Outpt time (%) = 0 (0)
Other time (%) = 6.19875e-05 (0.152378)

Nlocal:    2912 ave 2912 max 2912 min
Histogram: 1 0 0 0 0 0 0 0 0 0
Nghost:    7129 ave 7129 max 7129 min
Histogram: 1 0 0 0 0 0 0 0 0 0
Neighs:    110880 ave 110880 max 110880 min
Histogram: 1 0 0 0 0 0 0 0 0 0

Total # of neighbors = 110880
Ave neighs/atom = 38.0769
Neighbor list builds = 0
Dangerous builds = 0
	# write_dump all atom ${dumpfile}
        next i
jump SELF loop1
        displace_atoms upper move 0.0 ${ystep1} 0.0 units lattice
        displace_atoms upper move 0.0 0.00288675134594812 0.0 units lattice
        min_style ${style}
        min_style hftn
        minimize ${etol} ${ftol} ${maxiter} ${maxeval}
        minimize 1e-12 ${ftol} ${maxiter} ${maxeval}
        minimize 1e-12 1e-08 ${maxiter} ${maxeval}
        minimize 1e-12 1e-08 10000 ${maxeval}
        minimize 1e-12 1e-08 10000 20000
WARNING: Resetting reneighboring criteria during minimization (../min.cpp:168)
Memory usage per processor = 5.28733 Mbytes
Step Temp PotEng Lx Ly Lz 
      16            0    -17279.99     6.928552    75.589159    4.0002014 
Loop time of 0.0380311 on 1 procs for 0 steps with 2912 atoms

Minimization stats:
  Stopping criterion = force tolerance
  Energy initial, next-to-last, final = 
        -17279.9900092     -17279.9900092     -17279.9900092
  Force two-norm initial, final = 9.86798e-11 9.86798e-11
  Force max component initial, final = 3.19188e-12 3.19188e-12
  Final line search alpha, max atom move = 0 0
  Iterations, force evaluations = 0 0

Pair  time (%) = 0.037503 (98.6115)
Neigh time (%) = 0 (0)
Comm  time (%) = 0.000492895 (1.29603)
Outpt time (%) = 0 (0)
Other time (%) = 3.51529e-05 (0.0924321)

Nlocal:    2912 ave 2912 max 2912 min
Histogram: 1 0 0 0 0 0 0 0 0 0
Nghost:    7129 ave 7129 max 7129 min
Histogram: 1 0 0 0 0 0 0 0 0 0
Neighs:    110880 ave 110880 max 110880 min
Histogram: 1 0 0 0 0 0 0 0 0 0

Total # of neighbors = 110880
Ave neighs/atom = 38.0769
Neighbor list builds = 0
Dangerous builds = 0
	# write_dump all atom ${dumpfile}
        next i
jump SELF loop1
        displace_atoms upper move 0.0 ${ystep1} 0.0 units lattice
        displace_atoms upper move 0.0 0.00288675134594812 0.0 units lattice
        min_style ${style}
        min_style hftn
        minimize ${etol} ${ftol} ${maxiter} ${maxeval}
        minimize 1e-12 ${ftol} ${maxiter} ${maxeval}
        minimize 1e-12 1e-08 ${maxiter} ${maxeval}
        minimize 1e-12 1e-08 10000 ${maxeval}
        minimize 1e-12 1e-08 10000 20000
WARNING: Resetting reneighboring criteria during minimization (../min.cpp:168)
Memory usage per processor = 5.28733 Mbytes
Step Temp PotEng Lx Ly Lz 
      16            0    -17279.99     6.928552    75.596231    4.0002014 
Loop time of 0.0370121 on 1 procs for 0 steps with 2912 atoms

Minimization stats:
  Stopping criterion = force tolerance
  Energy initial, next-to-last, final = 
        -17279.9900092     -17279.9900092     -17279.9900092
  Force two-norm initial, final = 9.86801e-11 9.86801e-11
  Force max component initial, final = 3.19188e-12 3.19188e-12
  Final line search alpha, max atom move = 0 0
  Iterations, force evaluations = 0 0

Pair  time (%) = 0.0363919 (98.3245)
Neigh time (%) = 0 (0)
Comm  time (%) = 0.000561051 (1.51586)
Outpt time (%) = 0 (0)
Other time (%) = 5.90889e-05 (0.159648)

Nlocal:    2912 ave 2912 max 2912 min
Histogram: 1 0 0 0 0 0 0 0 0 0
Nghost:    7129 ave 7129 max 7129 min
Histogram: 1 0 0 0 0 0 0 0 0 0
Neighs:    110880 ave 110880 max 110880 min
Histogram: 1 0 0 0 0 0 0 0 0 0

Total # of neighbors = 110880
Ave neighs/atom = 38.0769
Neighbor list builds = 0
Dangerous builds = 0
	# write_dump all atom ${dumpfile}
        next i
jump SELF loop1
        displace_atoms upper move 0.0 ${ystep1} 0.0 units lattice
        displace_atoms upper move 0.0 0.00288675134594812 0.0 units lattice
        min_style ${style}
        min_style hftn
        minimize ${etol} ${ftol} ${maxiter} ${maxeval}
        minimize 1e-12 ${ftol} ${maxiter} ${maxeval}
        minimize 1e-12 1e-08 ${maxiter} ${maxeval}
        minimize 1e-12 1e-08 10000 ${maxeval}
        minimize 1e-12 1e-08 10000 20000
WARNING: Resetting reneighboring criteria during minimization (../min.cpp:168)
Memory usage per processor = 5.28733 Mbytes
Step Temp PotEng Lx Ly Lz 
      16            0    -17279.99     6.928552    75.603302    4.0002014 
Loop time of 0.0380491 on 1 procs for 0 steps with 2912 atoms

Minimization stats:
  Stopping criterion = force tolerance
  Energy initial, next-to-last, final = 
        -17279.9900092     -17279.9900092     -17279.9900092
  Force two-norm initial, final = 9.86797e-11 9.86797e-11
  Force max component initial, final = 3.19188e-12 3.19188e-12
  Final line search alpha, max atom move = 0 0
  Iterations, force evaluations = 0 0

Pair  time (%) = 0.0364829 (95.8838)
Neigh time (%) = 0 (0)
Comm  time (%) = 0.00149901 (3.93967)
Outpt time (%) = 0 (0)
Other time (%) = 6.71786e-05 (0.176558)

Nlocal:    2912 ave 2912 max 2912 min
Histogram: 1 0 0 0 0 0 0 0 0 0
Nghost:    7129 ave 7129 max 7129 min
Histogram: 1 0 0 0 0 0 0 0 0 0
Neighs:    110880 ave 110880 max 110880 min
Histogram: 1 0 0 0 0 0 0 0 0 0

Total # of neighbors = 110880
Ave neighs/atom = 38.0769
Neighbor list builds = 0
Dangerous builds = 0
	# write_dump all atom ${dumpfile}
        next i
jump SELF loop1
        displace_atoms upper move 0.0 ${ystep1} 0.0 units lattice
        displace_atoms upper move 0.0 0.00288675134594812 0.0 units lattice
        min_style ${style}
        min_style hftn
        minimize ${etol} ${ftol} ${maxiter} ${maxeval}
        minimize 1e-12 ${ftol} ${maxiter} ${maxeval}
        minimize 1e-12 1e-08 ${maxiter} ${maxeval}
        minimize 1e-12 1e-08 10000 ${maxeval}
        minimize 1e-12 1e-08 10000 20000
WARNING: Resetting reneighboring criteria during minimization (../min.cpp:168)
Memory usage per processor = 5.28733 Mbytes
Step Temp PotEng Lx Ly Lz 
      16            0    -17279.99     6.928552    75.610374    4.0002014 
Loop time of 0.0364519 on 1 procs for 0 steps with 2912 atoms

Minimization stats:
  Stopping criterion = force tolerance
  Energy initial, next-to-last, final = 
        -17279.9900092     -17279.9900092     -17279.9900092
  Force two-norm initial, final = 9.86801e-11 9.86801e-11
  Force max component initial, final = 3.19188e-12 3.19188e-12
  Final line search alpha, max atom move = 0 0
  Iterations, force evaluations = 0 0

Pair  time (%) = 0.035853 (98.3571)
Neigh time (%) = 0 (0)
Comm  time (%) = 0.000527832 (1.44802)
Outpt time (%) = 0 (0)
Other time (%) = 7.10236e-05 (0.194842)

Nlocal:    2912 ave 2912 max 2912 min
Histogram: 1 0 0 0 0 0 0 0 0 0
Nghost:    7129 ave 7129 max 7129 min
Histogram: 1 0 0 0 0 0 0 0 0 0
Neighs:    110880 ave 110880 max 110880 min
Histogram: 1 0 0 0 0 0 0 0 0 0

Total # of neighbors = 110880
Ave neighs/atom = 38.0769
Neighbor list builds = 0
Dangerous builds = 0
	# write_dump all atom ${dumpfile}
        next i
jump SELF loop1
        displace_atoms upper move 0.0 ${ystep1} 0.0 units lattice
        displace_atoms upper move 0.0 0.00288675134594812 0.0 units lattice
        min_style ${style}
        min_style hftn
        minimize ${etol} ${ftol} ${maxiter} ${maxeval}
        minimize 1e-12 ${ftol} ${maxiter} ${maxeval}
        minimize 1e-12 1e-08 ${maxiter} ${maxeval}
        minimize 1e-12 1e-08 10000 ${maxeval}
        minimize 1e-12 1e-08 10000 20000
WARNING: Resetting reneighboring criteria during minimization (../min.cpp:168)
Memory usage per processor = 5.28733 Mbytes
Step Temp PotEng Lx Ly Lz 
      16            0    -17279.99     6.928552    75.617445    4.0002014 
Loop time of 0.0364921 on 1 procs for 0 steps with 2912 atoms

Minimization stats:
  Stopping criterion = force tolerance
  Energy initial, next-to-last, final = 
        -17279.9900092     -17279.9900092     -17279.9900092
  Force two-norm initial, final = 9.86797e-11 9.86797e-11
  Force max component initial, final = 3.19188e-12 3.19188e-12
  Final line search alpha, max atom move = 0 0
  Iterations, force evaluations = 0 0

Pair  time (%) = 0.0359949 (98.6377)
Neigh time (%) = 0 (0)
Comm  time (%) = 0.000465006 (1.27426)
Outpt time (%) = 0 (0)
Other time (%) = 3.21345e-05 (0.0880587)

Nlocal:    2912 ave 2912 max 2912 min
Histogram: 1 0 0 0 0 0 0 0 0 0
Nghost:    7129 ave 7129 max 7129 min
Histogram: 1 0 0 0 0 0 0 0 0 0
Neighs:    110880 ave 110880 max 110880 min
Histogram: 1 0 0 0 0 0 0 0 0 0

Total # of neighbors = 110880
Ave neighs/atom = 38.0769
Neighbor list builds = 0
Dangerous builds = 0
	# write_dump all atom ${dumpfile}
        next i
jump SELF loop1
        displace_atoms upper move 0.0 ${ystep1} 0.0 units lattice
        displace_atoms upper move 0.0 0.00288675134594812 0.0 units lattice
        min_style ${style}
        min_style hftn
        minimize ${etol} ${ftol} ${maxiter} ${maxeval}
        minimize 1e-12 ${ftol} ${maxiter} ${maxeval}
        minimize 1e-12 1e-08 ${maxiter} ${maxeval}
        minimize 1e-12 1e-08 10000 ${maxeval}
        minimize 1e-12 1e-08 10000 20000
WARNING: Resetting reneighboring criteria during minimization (../min.cpp:168)
Memory usage per processor = 5.28733 Mbytes
Step Temp PotEng Lx Ly Lz 
      16            0    -17279.99     6.928552    75.624516    4.0002014 
Loop time of 0.0360919 on 1 procs for 0 steps with 2912 atoms

Minimization stats:
  Stopping criterion = force tolerance
  Energy initial, next-to-last, final = 
        -17279.9900092     -17279.9900092     -17279.9900092
  Force two-norm initial, final = 9.868e-11 9.868e-11
  Force max component initial, final = 3.19188e-12 3.19188e-12
  Final line search alpha, max atom move = 0 0
  Iterations, force evaluations = 0 0

Pair  time (%) = 0.0355941 (98.6206)
Neigh time (%) = 0 (0)
Comm  time (%) = 0.000466024 (1.29121)
Outpt time (%) = 0 (0)
Other time (%) = 3.18319e-05 (0.0881968)

Nlocal:    2912 ave 2912 max 2912 min
Histogram: 1 0 0 0 0 0 0 0 0 0
Nghost:    7129 ave 7129 max 7129 min
Histogram: 1 0 0 0 0 0 0 0 0 0
Neighs:    110880 ave 110880 max 110880 min
Histogram: 1 0 0 0 0 0 0 0 0 0

Total # of neighbors = 110880
Ave neighs/atom = 38.0769
Neighbor list builds = 0
Dangerous builds = 0
	# write_dump all atom ${dumpfile}
        next i
jump SELF loop1

# allow atoms to relax in y-direction, now that two halves have separated
unfix 2
min_style ${style}
min_style hftn
minimize ${etol} ${ftol} ${maxiter} ${maxeval}
minimize 1e-12 ${ftol} ${maxiter} ${maxeval}
minimize 1e-12 1e-08 ${maxiter} ${maxeval}
minimize 1e-12 1e-08 10000 ${maxeval}
minimize 1e-12 1e-08 10000 20000
WARNING: Resetting reneighboring criteria during minimization (../min.cpp:168)
Memory usage per processor = 5.28733 Mbytes
Step Temp PotEng Lx Ly Lz 
      16            0    -17279.99     6.928552    75.624516    4.0002014 
      17            0    -17279.99     6.928552    75.624516    4.0002014 
      18            0    -17279.99     6.928552    75.624516    4.0002014 
      19            0    -17279.99     6.928552    75.624516    4.0002014 
      20            0    -17279.99     6.928552    75.624516    4.0002014 
      21            0    -17279.99     6.928552    75.624516    4.0002014 
      22            0    -17279.99     6.928552    75.624516    4.0002014 
      23            0    -17279.99     6.928552    75.624516    4.0002014 
      24            0    -17279.99     6.928552    75.624516    4.0002014 
      25            0    -17279.99     6.928552    75.624516    4.0002014 
      26            0    -17279.99     6.928552    75.624516    4.0002014 
      27            0    -17279.99     6.928552    75.624516    4.0002014 
      28            0    -17279.99     6.928552    75.624516    4.0002014 
      29            0    -17279.99     6.928552    75.624516    4.0002014 
      30            0    -17279.99     6.928552    75.624516    4.0002014 
      31            0    -17279.99     6.928552    75.624516    4.0002014 
      32            0    -17279.99     6.928552    75.624516    4.0002014 
      33            0    -17279.99     6.928552    75.624516    4.0002014 
      34            0    -17279.99     6.928552    75.624516    4.0002014 
Loop time of 6.30629 on 1 procs for 17 steps with 2912 atoms

Minimization stats:
  Stopping criterion = energy tolerance
  Energy initial, next-to-last, final = 
        -17279.9900092     -17279.9902772     -17279.9903331
  Force two-norm initial, final = 0.148134 0.0651415
  Force max component initial, final = 0.0130933 0.00329485
  Final line search alpha, max atom move = 0 0
  Iterations, force evaluations = 17 180

Pair  time (%) = 6.19513 (98.2373)
Neigh time (%) = 0 (0)
Comm  time (%) = 0.0882548 (1.39947)
Outpt time (%) = 0.00193398 (0.0306676)
Other time (%) = 0.0209727 (0.332568)

Nlocal:    2912 ave 2912 max 2912 min
Histogram: 1 0 0 0 0 0 0 0 0 0
Nghost:    7129 ave 7129 max 7129 min
Histogram: 1 0 0 0 0 0 0 0 0 0
Neighs:    110880 ave 110880 max 110880 min
Histogram: 1 0 0 0 0 0 0 0 0 0

Total # of neighbors = 110880
Ave neighs/atom = 38.0769
Neighbor list builds = 0
Dangerous builds = 0

write_dump all atom ${dumpfile}
write_dump all atom surf_V_ductile_3d.*.dump


