LAMMPS (28 Jun 2014)
# attempt at getting surface energy

#file prefix
variable prefix string surf_V_brittle_3d
variable dumpfile string ${prefix}.*.dump
variable dumpfile string surf_V_brittle_3d.*.dump
variable restartfile string ${prefix}.*.equil
variable restartfile string surf_V_brittle_3d.*.equil

#Mass (g/mol)
variable m equal 1.0

# lattice constant (in Angstroms) and orientation of axes (given by lattice vectors)
variable rho equal 1.0
variable x1 equal 1
variable x2 equal 1
variable x3 equal -2
variable y1 equal 1
variable y2 equal 1
variable y3 equal 1
variable z1 equal 1
variable z2 equal -1
variable z3 equal 0
# length of lattice in different directions (using orientation of lattice vectors)
variable ax equal sqrt(${x1}*${x1}+${x2}*${x2}+${x3}*${x3})
variable ax equal sqrt(1*${x1}+${x2}*${x2}+${x3}*${x3})
variable ax equal sqrt(1*1+${x2}*${x2}+${x3}*${x3})
variable ax equal sqrt(1*1+1*${x2}+${x3}*${x3})
variable ax equal sqrt(1*1+1*1+${x3}*${x3})
variable ax equal sqrt(1*1+1*1+-2*${x3})
variable ax equal sqrt(1*1+1*1+-2*-2)
variable ay equal sqrt(${y1}*${y1}+${y2}*${y2}+${y3}*${y3})
variable ay equal sqrt(1*${y1}+${y2}*${y2}+${y3}*${y3})
variable ay equal sqrt(1*1+${y2}*${y2}+${y3}*${y3})
variable ay equal sqrt(1*1+1*${y2}+${y3}*${y3})
variable ay equal sqrt(1*1+1*1+${y3}*${y3})
variable ay equal sqrt(1*1+1*1+1*${y3})
variable ay equal sqrt(1*1+1*1+1*1)
variable az equal sqrt(${z1}*${z1}+${z2}*${z2}+${z3}*${z3})
variable az equal sqrt(1*${z1}+${z2}*${z2}+${z3}*${z3})
variable az equal sqrt(1*1+${z2}*${z2}+${z3}*${z3})
variable az equal sqrt(1*1+-1*${z2}+${z3}*${z3})
variable az equal sqrt(1*1+-1*-1+${z3}*${z3})
variable az equal sqrt(1*1+-1*-1+0*${z3})
variable az equal sqrt(1*1+-1*-1+0*0)

# size of box in lattice units
variable lxpos equal 2
variable lxneg equal 0
variable lypos equal 15
variable lyneg equal -1*${lypos}
variable lyneg equal -1*15
variable lzpos equal 2
variable lzneg equal 0

# boundary conditions
dimension	3
boundary	p s p
atom_style	atomic

# Define minimization parameters and damping
variable etol equal 1.0e-12
variable ftol equal 1.0e-8
variable maxiter equal 10000
variable maxeval equal 20000
variable style string hftn

# create geometry
units		lj
lattice         hcp 1.0 orient x 0 0 1 orient y 0 1 0 orient z -1 0 0
Lattice spacing in x,y,z = 1.83297 1.94416 1.12246
region		myregion block ${lxneg} ${lxpos} ${lyneg} ${lypos} ${lzneg} ${lzpos} units lattice
region		myregion block 0 ${lxpos} ${lyneg} ${lypos} ${lzneg} ${lzpos} units lattice
region		myregion block 0 2 ${lyneg} ${lypos} ${lzneg} ${lzpos} units lattice
region		myregion block 0 2 -15 ${lypos} ${lzneg} ${lzpos} units lattice
region		myregion block 0 2 -15 15 ${lzneg} ${lzpos} units lattice
region		myregion block 0 2 -15 15 0 ${lzpos} units lattice
region		myregion block 0 2 -15 15 0 2 units lattice
create_box	1 myregion
Created orthogonal box = (0 -29.1624 0) to (3.66595 29.1624 2.24492)
  1 by 1 by 1 MPI processor grid
create_atoms	1 box
Created 484 atoms
write_dump all atom init.dump

# define masses
mass * $m
mass * 1

# my fake/morse potential
pair_style      table linear 3001
pair_coeff      * * vpotential_brittle3d dummy
neighbor	0.3 bin
neigh_modify	delay 5

# define groups. Nudge to separate planes cleanly
region	    upper block INF INF 0.01 ${lypos} INF INF units lattice
region	    upper block INF INF 0.01 15 INF INF units lattice
group		upper region upper
240 atoms in group upper

# Setup output
thermo 1
thermo_style custom step temp pe lx ly lz
thermo_modify norm no

# Compute initial state by relaxing box
fix 3 all box/relax x 0.0
min_style ${style}
min_style hftn
minimize ${etol} ${ftol} ${maxiter} ${maxeval}
minimize 1e-12 ${ftol} ${maxiter} ${maxeval}
minimize 1e-12 1e-08 ${maxiter} ${maxeval}
minimize 1e-12 1e-08 10000 ${maxeval}
minimize 1e-12 1e-08 10000 20000
WARNING: Resetting reneighboring criteria during minimization (../min.cpp:168)
Memory usage per processor = 5.00998 Mbytes
Step Temp PotEng Lx Ly Lz 
       0            0   -2875.9976    3.6659457    58.336504    2.2449241 
       1            0   -2875.9976    3.6659457    58.336504    2.2449241 
       2            0   -2875.9976    3.6659457    58.336504    2.2449241 
       3            0   -2875.9976    3.6659457    58.336504    2.2449241 
       4            0   -2875.9976    3.6659457    58.336504    2.2449241 
       5            0   -2875.9976    3.6659457    58.336504    2.2449241 
       6            0   -2875.9976    3.6659457    58.336504    2.2449241 
       7            0   -2875.9976    3.6659457    58.336504    2.2449241 
       8            0   -2875.9976    3.6659457    58.336504    2.2449241 
       9            0   -2875.9976    3.6659457    58.336504    2.2449241 
      10            0   -2875.9976    3.6659457    58.336504    2.2449241 
      11            0   -2875.9976    3.6659457    58.336504    2.2449241 
      12            0   -2875.9976    3.6659457    58.336504    2.2449241 
      13            0   -2875.9976    3.6659457    58.336504    2.2449241 
      14            0   -2875.9976    3.6659457    58.336504    2.2449241 
Loop time of 0.038801 on 1 procs for 13 steps with 484 atoms

Minimization stats:
  Stopping criterion = trust region too small
  Energy initial, next-to-last, final = 
        -2875.99760854     -2875.99760854     -2875.99760854
  Force two-norm initial, final = 0.138928 0.138928
  Force max component initial, final = 0.138922 0.138922
  Final line search alpha, max atom move = 0 0
  Iterations, force evaluations = 13 82

Pair  time (%) = 0.0316185 (81.4887)
Neigh time (%) = 0 (0)
Comm  time (%) = 0.00255122 (6.57513)
Outpt time (%) = 0.000660951 (1.70344)
Other time (%) = 0.0039704 (10.2327)

Nlocal:    484 ave 484 max 484 min
Histogram: 1 0 0 0 0 0 0 0 0 0
Nghost:    3061 ave 3061 max 3061 min
Histogram: 1 0 0 0 0 0 0 0 0 0
Neighs:    13352 ave 13352 max 13352 min
Histogram: 1 0 0 0 0 0 0 0 0 0

Total # of neighbors = 13352
Ave neighs/atom = 27.5868
Neighbor list builds = 0
Dangerous builds = 0
unfix 3

# don't allow atoms to relax in y-direction
fix 2 all setforce NULL 0.0 NULL

# GSF energy curve will have 100*2 steps
variable nsteps equal 300
variable sstep1 equal 1.5
variable ystep1 equal ${sstep1}/(${ay}*${nsteps})
variable ystep1 equal 1.5/(${ay}*${nsteps})
variable ystep1 equal 1.5/(1.73205080756888*${nsteps})
variable ystep1 equal 1.5/(1.73205080756888*300)

variable i loop ${nsteps}
variable i loop 300
label loop1
        displace_atoms upper move 0.0 ${ystep1} 0.0 units lattice
        displace_atoms upper move 0.0 0.00288675134594812 0.0 units lattice
        min_style ${style}
        min_style hftn
        minimize ${etol} ${ftol} ${maxiter} ${maxeval}
        minimize 1e-12 ${ftol} ${maxiter} ${maxeval}
        minimize 1e-12 1e-08 ${maxiter} ${maxeval}
        minimize 1e-12 1e-08 10000 ${maxeval}
        minimize 1e-12 1e-08 10000 20000
WARNING: Resetting reneighboring criteria during minimization (../min.cpp:168)
Memory usage per processor = 5.00998 Mbytes
Step Temp PotEng Lx Ly Lz 
      14            0   -2875.9786    3.6659457    58.342116    2.2449241 
Loop time of 0.000384936 on 1 procs for 0 steps with 484 atoms

Minimization stats:
  Stopping criterion = force tolerance
  Energy initial, next-to-last, final = 
         -2875.9785838      -2875.9785838      -2875.9785838
  Force two-norm initial, final = 1.05994e-12 1.05994e-12
  Force max component initial, final = 8.23678e-14 8.23678e-14
  Final line search alpha, max atom move = 0 0
  Iterations, force evaluations = 0 0

Pair  time (%) = 0.000362015 (94.0455)
Neigh time (%) = 0 (0)
Comm  time (%) = 1.51237e-05 (3.9289)
Outpt time (%) = 0 (0)
Other time (%) = 7.79727e-06 (2.0256)

Nlocal:    484 ave 484 max 484 min
Histogram: 1 0 0 0 0 0 0 0 0 0
Nghost:    3061 ave 3061 max 3061 min
Histogram: 1 0 0 0 0 0 0 0 0 0
Neighs:    13352 ave 13352 max 13352 min
Histogram: 1 0 0 0 0 0 0 0 0 0

Total # of neighbors = 13352
Ave neighs/atom = 27.5868
Neighbor list builds = 0
Dangerous builds = 0
	# write_dump all atom ${dumpfile}
        next i
jump SELF loop1
        displace_atoms upper move 0.0 ${ystep1} 0.0 units lattice
        displace_atoms upper move 0.0 0.00288675134594812 0.0 units lattice
        min_style ${style}
        min_style hftn
        minimize ${etol} ${ftol} ${maxiter} ${maxeval}
        minimize 1e-12 ${ftol} ${maxiter} ${maxeval}
        minimize 1e-12 1e-08 ${maxiter} ${maxeval}
        minimize 1e-12 1e-08 10000 ${maxeval}
        minimize 1e-12 1e-08 10000 20000
WARNING: Resetting reneighboring criteria during minimization (../min.cpp:168)
Memory usage per processor = 5.00998 Mbytes
Step Temp PotEng Lx Ly Lz 
      14            0   -2875.9237    3.6659457    58.347729    2.2449241 
Loop time of 0.000372881 on 1 procs for 0 steps with 484 atoms

Minimization stats:
  Stopping criterion = force tolerance
  Energy initial, next-to-last, final = 
        -2875.92365919     -2875.92365919     -2875.92365919
  Force two-norm initial, final = 1.06114e-12 1.06114e-12
  Force max component initial, final = 8.23678e-14 8.23678e-14
  Final line search alpha, max atom move = 0 0
  Iterations, force evaluations = 0 0

Pair  time (%) = 0.00034996 (93.853)
Neigh time (%) = 0 (0)
Comm  time (%) = 1.49355e-05 (4.00543)
Outpt time (%) = 0 (0)
Other time (%) = 7.98551e-06 (2.14157)

Nlocal:    484 ave 484 max 484 min
Histogram: 1 0 0 0 0 0 0 0 0 0
Nghost:    3061 ave 3061 max 3061 min
Histogram: 1 0 0 0 0 0 0 0 0 0
Neighs:    13352 ave 13352 max 13352 min
Histogram: 1 0 0 0 0 0 0 0 0 0

Total # of neighbors = 13352
Ave neighs/atom = 27.5868
Neighbor list builds = 0
Dangerous builds = 0
	# write_dump all atom ${dumpfile}
        next i
jump SELF loop1
        displace_atoms upper move 0.0 ${ystep1} 0.0 units lattice
        displace_atoms upper move 0.0 0.00288675134594812 0.0 units lattice
        min_style ${style}
        min_style hftn
        minimize ${etol} ${ftol} ${maxiter} ${maxeval}
        minimize 1e-12 ${ftol} ${maxiter} ${maxeval}
        minimize 1e-12 1e-08 ${maxiter} ${maxeval}
        minimize 1e-12 1e-08 10000 ${maxeval}
        minimize 1e-12 1e-08 10000 20000
WARNING: Resetting reneighboring criteria during minimization (../min.cpp:168)
Memory usage per processor = 5.00998 Mbytes
Step Temp PotEng Lx Ly Lz 
      14            0   -2875.8357    3.6659457    58.353341    2.2449241 
Loop time of 0.000371024 on 1 procs for 0 steps with 484 atoms

Minimization stats:
  Stopping criterion = force tolerance
  Energy initial, next-to-last, final = 
        -2875.83571416     -2875.83571416     -2875.83571416
  Force two-norm initial, final = 1.05831e-12 1.05831e-12
  Force max component initial, final = 8.23678e-14 8.23678e-14
  Final line search alpha, max atom move = 0 0
  Iterations, force evaluations = 0 0

Pair  time (%) = 0.000350057 (94.3488)
Neigh time (%) = 0 (0)
Comm  time (%) = 1.41745e-05 (3.82037)
Outpt time (%) = 0 (0)
Other time (%) = 6.79272e-06 (1.8308)

Nlocal:    484 ave 484 max 484 min
Histogram: 1 0 0 0 0 0 0 0 0 0
Nghost:    3061 ave 3061 max 3061 min
Histogram: 1 0 0 0 0 0 0 0 0 0
Neighs:    13352 ave 13352 max 13352 min
Histogram: 1 0 0 0 0 0 0 0 0 0

Total # of neighbors = 13352
Ave neighs/atom = 27.5868
Neighbor list builds = 0
Dangerous builds = 0
	# write_dump all atom ${dumpfile}
        next i
jump SELF loop1
        displace_atoms upper move 0.0 ${ystep1} 0.0 units lattice
        displace_atoms upper move 0.0 0.00288675134594812 0.0 units lattice
        min_style ${style}
        min_style hftn
        minimize ${etol} ${ftol} ${maxiter} ${maxeval}
        minimize 1e-12 ${ftol} ${maxiter} ${maxeval}
        minimize 1e-12 1e-08 ${maxiter} ${maxeval}
        minimize 1e-12 1e-08 10000 ${maxeval}
        minimize 1e-12 1e-08 10000 20000
WARNING: Resetting reneighboring criteria during minimization (../min.cpp:168)
Memory usage per processor = 5.00998 Mbytes
Step Temp PotEng Lx Ly Lz 
      14            0   -2875.7176    3.6659457    58.358953    2.2449241 
Loop time of 0.000372097 on 1 procs for 0 steps with 484 atoms

Minimization stats:
  Stopping criterion = force tolerance
  Energy initial, next-to-last, final = 
         -2875.7175569      -2875.7175569      -2875.7175569
  Force two-norm initial, final = 1.05899e-12 1.05899e-12
  Force max component initial, final = 8.23678e-14 8.23678e-14
  Final line search alpha, max atom move = 0 0
  Iterations, force evaluations = 0 0

Pair  time (%) = 0.000349937 (94.0447)
Neigh time (%) = 0 (0)
Comm  time (%) = 1.38896e-05 (3.7328)
Outpt time (%) = 0 (0)
Other time (%) = 8.26968e-06 (2.22246)

Nlocal:    484 ave 484 max 484 min
Histogram: 1 0 0 0 0 0 0 0 0 0
Nghost:    3061 ave 3061 max 3061 min
Histogram: 1 0 0 0 0 0 0 0 0 0
Neighs:    13352 ave 13352 max 13352 min
Histogram: 1 0 0 0 0 0 0 0 0 0

Total # of neighbors = 13352
Ave neighs/atom = 27.5868
Neighbor list builds = 0
Dangerous builds = 0
	# write_dump all atom ${dumpfile}
        next i
jump SELF loop1
        displace_atoms upper move 0.0 ${ystep1} 0.0 units lattice
        displace_atoms upper move 0.0 0.00288675134594812 0.0 units lattice
        min_style ${style}
        min_style hftn
        minimize ${etol} ${ftol} ${maxiter} ${maxeval}
        minimize 1e-12 ${ftol} ${maxiter} ${maxeval}
        minimize 1e-12 1e-08 ${maxiter} ${maxeval}
        minimize 1e-12 1e-08 10000 ${maxeval}
        minimize 1e-12 1e-08 10000 20000
WARNING: Resetting reneighboring criteria during minimization (../min.cpp:168)
Memory usage per processor = 5.00998 Mbytes
Step Temp PotEng Lx Ly Lz 
      14            0   -2875.5716    3.6659457    58.364565    2.2449241 
Loop time of 0.000371905 on 1 procs for 0 steps with 484 atoms

Minimization stats:
  Stopping criterion = force tolerance
  Energy initial, next-to-last, final = 
        -2875.57164639     -2875.57164639     -2875.57164639
  Force two-norm initial, final = 1.05875e-12 1.05875e-12
  Force max component initial, final = 8.23678e-14 8.23678e-14
  Final line search alpha, max atom move = 0 0
  Iterations, force evaluations = 0 0

Pair  time (%) = 0.000349984 (94.1058)
Neigh time (%) = 0 (0)
Comm  time (%) = 1.49836e-05 (4.02887)
Outpt time (%) = 0 (0)
Other time (%) = 6.93731e-06 (1.86534)

Nlocal:    484 ave 484 max 484 min
Histogram: 1 0 0 0 0 0 0 0 0 0
Nghost:    3061 ave 3061 max 3061 min
Histogram: 1 0 0 0 0 0 0 0 0 0
Neighs:    13352 ave 13352 max 13352 min
Histogram: 1 0 0 0 0 0 0 0 0 0

Total # of neighbors = 13352
Ave neighs/atom = 27.5868
Neighbor list builds = 0
Dangerous builds = 0
	# write_dump all atom ${dumpfile}
        next i
jump SELF loop1
        displace_atoms upper move 0.0 ${ystep1} 0.0 units lattice
        displace_atoms upper move 0.0 0.00288675134594812 0.0 units lattice
        min_style ${style}
        min_style hftn
        minimize ${etol} ${ftol} ${maxiter} ${maxeval}
        minimize 1e-12 ${ftol} ${maxiter} ${maxeval}
        minimize 1e-12 1e-08 ${maxiter} ${maxeval}
        minimize 1e-12 1e-08 10000 ${maxeval}
        minimize 1e-12 1e-08 10000 20000
WARNING: Resetting reneighboring criteria during minimization (../min.cpp:168)
Memory usage per processor = 5.00998 Mbytes
Step Temp PotEng Lx Ly Lz 
      14            0   -2875.4005    3.6659457    58.370178    2.2449241 
Loop time of 0.000404881 on 1 procs for 0 steps with 484 atoms

Minimization stats:
  Stopping criterion = force tolerance
  Energy initial, next-to-last, final = 
        -2875.40051258     -2875.40051258     -2875.40051258
  Force two-norm initial, final = 1.05773e-12 1.05773e-12
  Force max component initial, final = 8.23678e-14 8.23678e-14
  Final line search alpha, max atom move = 0 0
  Iterations, force evaluations = 0 0

Pair  time (%) = 0.00038196 (94.3388)
Neigh time (%) = 0 (0)
Comm  time (%) = 1.49872e-05 (3.70163)
Outpt time (%) = 0 (0)
Other time (%) = 7.93382e-06 (1.95954)

Nlocal:    484 ave 484 max 484 min
Histogram: 1 0 0 0 0 0 0 0 0 0
Nghost:    3061 ave 3061 max 3061 min
Histogram: 1 0 0 0 0 0 0 0 0 0
Neighs:    13352 ave 13352 max 13352 min
Histogram: 1 0 0 0 0 0 0 0 0 0

Total # of neighbors = 13352
Ave neighs/atom = 27.5868
Neighbor list builds = 0
Dangerous builds = 0
	# write_dump all atom ${dumpfile}
        next i
jump SELF loop1
        displace_atoms upper move 0.0 ${ystep1} 0.0 units lattice
        displace_atoms upper move 0.0 0.00288675134594812 0.0 units lattice
        min_style ${style}
        min_style hftn
        minimize ${etol} ${ftol} ${maxiter} ${maxeval}
        minimize 1e-12 ${ftol} ${maxiter} ${maxeval}
        minimize 1e-12 1e-08 ${maxiter} ${maxeval}
        minimize 1e-12 1e-08 10000 ${maxeval}
        minimize 1e-12 1e-08 10000 20000
WARNING: Resetting reneighboring criteria during minimization (../min.cpp:168)
Memory usage per processor = 5.00998 Mbytes
Step Temp PotEng Lx Ly Lz 
      14            0   -2875.2064    3.6659457     58.37579    2.2449241 
Loop time of 0.000369922 on 1 procs for 0 steps with 484 atoms

Minimization stats:
  Stopping criterion = force tolerance
  Energy initial, next-to-last, final = 
        -2875.20635396     -2875.20635396     -2875.20635396
  Force two-norm initial, final = 1.05974e-12 1.05974e-12
  Force max component initial, final = 8.23678e-14 8.23678e-14
  Final line search alpha, max atom move = 0 0
  Iterations, force evaluations = 0 0

Pair  time (%) = 0.000348955 (94.332)
Neigh time (%) = 0 (0)
Comm  time (%) = 1.39244e-05 (3.76416)
Outpt time (%) = 0 (0)
Other time (%) = 7.04278e-06 (1.90386)

Nlocal:    484 ave 484 max 484 min
Histogram: 1 0 0 0 0 0 0 0 0 0
Nghost:    3061 ave 3061 max 3061 min
Histogram: 1 0 0 0 0 0 0 0 0 0
Neighs:    13352 ave 13352 max 13352 min
Histogram: 1 0 0 0 0 0 0 0 0 0

Total # of neighbors = 13352
Ave neighs/atom = 27.5868
Neighbor list builds = 0
Dangerous builds = 0
	# write_dump all atom ${dumpfile}
        next i
jump SELF loop1
        displace_atoms upper move 0.0 ${ystep1} 0.0 units lattice
        displace_atoms upper move 0.0 0.00288675134594812 0.0 units lattice
        min_style ${style}
        min_style hftn
        minimize ${etol} ${ftol} ${maxiter} ${maxeval}
        minimize 1e-12 ${ftol} ${maxiter} ${maxeval}
        minimize 1e-12 1e-08 ${maxiter} ${maxeval}
        minimize 1e-12 1e-08 10000 ${maxeval}
        minimize 1e-12 1e-08 10000 20000
WARNING: Resetting reneighboring criteria during minimization (../min.cpp:168)
Memory usage per processor = 5.00998 Mbytes
Step Temp PotEng Lx Ly Lz 
      14            0   -2874.9914    3.6659457    58.381402    2.2449241 
Loop time of 0.000365096 on 1 procs for 0 steps with 484 atoms

Minimization stats:
  Stopping criterion = force tolerance
  Energy initial, next-to-last, final = 
        -2874.99135171     -2874.99135171     -2874.99135171
  Force two-norm initial, final = 1.05742e-12 1.05742e-12
  Force max component initial, final = 8.23678e-14 8.23678e-14
  Final line search alpha, max atom move = 0 0
  Iterations, force evaluations = 0 0

Pair  time (%) = 0.00034289 (93.9179)
Neigh time (%) = 0 (0)
Comm  time (%) = 1.49944e-05 (4.10698)
Outpt time (%) = 0 (0)
Other time (%) = 7.21123e-06 (1.97516)

Nlocal:    484 ave 484 max 484 min
Histogram: 1 0 0 0 0 0 0 0 0 0
Nghost:    3061 ave 3061 max 3061 min
Histogram: 1 0 0 0 0 0 0 0 0 0
Neighs:    13352 ave 13352 max 13352 min
Histogram: 1 0 0 0 0 0 0 0 0 0

Total # of neighbors = 13352
Ave neighs/atom = 27.5868
Neighbor list builds = 0
Dangerous builds = 0
	# write_dump all atom ${dumpfile}
        next i
jump SELF loop1
        displace_atoms upper move 0.0 ${ystep1} 0.0 units lattice
        displace_atoms upper move 0.0 0.00288675134594812 0.0 units lattice
        min_style ${style}
        min_style hftn
        minimize ${etol} ${ftol} ${maxiter} ${maxeval}
        minimize 1e-12 ${ftol} ${maxiter} ${maxeval}
        minimize 1e-12 1e-08 ${maxiter} ${maxeval}
        minimize 1e-12 1e-08 10000 ${maxeval}
        minimize 1e-12 1e-08 10000 20000
WARNING: Resetting reneighboring criteria during minimization (../min.cpp:168)
Memory usage per processor = 5.00998 Mbytes
Step Temp PotEng Lx Ly Lz 
      14            0   -2874.7574    3.6659457    58.387015    2.2449241 
Loop time of 0.000373077 on 1 procs for 0 steps with 484 atoms

Minimization stats:
  Stopping criterion = force tolerance
  Energy initial, next-to-last, final = 
        -2874.75742249     -2874.75742249     -2874.75742249
  Force two-norm initial, final = 1.05728e-12 1.05728e-12
  Force max component initial, final = 8.23678e-14 8.23678e-14
  Final line search alpha, max atom move = 0 0
  Iterations, force evaluations = 0 0

Pair  time (%) = 0.000349918 (93.7923)
Neigh time (%) = 0 (0)
Comm  time (%) = 1.48504e-05 (3.98052)
Outpt time (%) = 0 (0)
Other time (%) = 8.30891e-06 (2.22713)

Nlocal:    484 ave 484 max 484 min
Histogram: 1 0 0 0 0 0 0 0 0 0
Nghost:    3061 ave 3061 max 3061 min
Histogram: 1 0 0 0 0 0 0 0 0 0
Neighs:    13352 ave 13352 max 13352 min
Histogram: 1 0 0 0 0 0 0 0 0 0

Total # of neighbors = 13352
Ave neighs/atom = 27.5868
Neighbor list builds = 0
Dangerous builds = 0
	# write_dump all atom ${dumpfile}
        next i
jump SELF loop1
        displace_atoms upper move 0.0 ${ystep1} 0.0 units lattice
        displace_atoms upper move 0.0 0.00288675134594812 0.0 units lattice
        min_style ${style}
        min_style hftn
        minimize ${etol} ${ftol} ${maxiter} ${maxeval}
        minimize 1e-12 ${ftol} ${maxiter} ${maxeval}
        minimize 1e-12 1e-08 ${maxiter} ${maxeval}
        minimize 1e-12 1e-08 10000 ${maxeval}
        minimize 1e-12 1e-08 10000 20000
WARNING: Resetting reneighboring criteria during minimization (../min.cpp:168)
Memory usage per processor = 5.00998 Mbytes
Step Temp PotEng Lx Ly Lz 
      14            0   -2874.5065    3.6659457    58.392627    2.2449241 
Loop time of 0.000371966 on 1 procs for 0 steps with 484 atoms

Minimization stats:
  Stopping criterion = force tolerance
  Energy initial, next-to-last, final = 
        -2874.50647943     -2874.50647943     -2874.50647943
  Force two-norm initial, final = 1.05716e-12 1.05716e-12
  Force max component initial, final = 8.23678e-14 8.23678e-14
  Final line search alpha, max atom move = 0 0
  Iterations, force evaluations = 0 0

Pair  time (%) = 0.000349999 (94.0943)
Neigh time (%) = 0 (0)
Comm  time (%) = 1.50589e-05 (4.04846)
Outpt time (%) = 0 (0)
Other time (%) = 6.90843e-06 (1.85728)

Nlocal:    484 ave 484 max 484 min
Histogram: 1 0 0 0 0 0 0 0 0 0
Nghost:    3061 ave 3061 max 3061 min
Histogram: 1 0 0 0 0 0 0 0 0 0
Neighs:    13352 ave 13352 max 13352 min
Histogram: 1 0 0 0 0 0 0 0 0 0

Total # of neighbors = 13352
Ave neighs/atom = 27.5868
Neighbor list builds = 0
Dangerous builds = 0
	# write_dump all atom ${dumpfile}
        next i
jump SELF loop1
        displace_atoms upper move 0.0 ${ystep1} 0.0 units lattice
        displace_atoms upper move 0.0 0.00288675134594812 0.0 units lattice
        min_style ${style}
        min_style hftn
        minimize ${etol} ${ftol} ${maxiter} ${maxeval}
        minimize 1e-12 ${ftol} ${maxiter} ${maxeval}
        minimize 1e-12 1e-08 ${maxiter} ${maxeval}
        minimize 1e-12 1e-08 10000 ${maxeval}
        minimize 1e-12 1e-08 10000 20000
WARNING: Resetting reneighboring criteria during minimization (../min.cpp:168)
Memory usage per processor = 5.00998 Mbytes
Step Temp PotEng Lx Ly Lz 
      14            0   -2874.2402    3.6659457    58.398239    2.2449241 
Loop time of 0.000372119 on 1 procs for 0 steps with 484 atoms

Minimization stats:
  Stopping criterion = force tolerance
  Energy initial, next-to-last, final = 
        -2874.24023527     -2874.24023527     -2874.24023527
  Force two-norm initial, final = 1.05855e-12 1.05855e-12
  Force max component initial, final = 8.23678e-14 8.23678e-14
  Final line search alpha, max atom move = 0 0
  Iterations, force evaluations = 0 0

Pair  time (%) = 0.000349959 (94.0451)
Neigh time (%) = 0 (0)
Comm  time (%) = 1.39336e-05 (3.74441)
Outpt time (%) = 0 (0)
Other time (%) = 8.22567e-06 (2.2105)

Nlocal:    484 ave 484 max 484 min
Histogram: 1 0 0 0 0 0 0 0 0 0
Nghost:    3061 ave 3061 max 3061 min
Histogram: 1 0 0 0 0 0 0 0 0 0
Neighs:    13352 ave 13352 max 13352 min
Histogram: 1 0 0 0 0 0 0 0 0 0

Total # of neighbors = 13352
Ave neighs/atom = 27.5868
Neighbor list builds = 0
Dangerous builds = 0
	# write_dump all atom ${dumpfile}
        next i
jump SELF loop1
        displace_atoms upper move 0.0 ${ystep1} 0.0 units lattice
        displace_atoms upper move 0.0 0.00288675134594812 0.0 units lattice
        min_style ${style}
        min_style hftn
        minimize ${etol} ${ftol} ${maxiter} ${maxeval}
        minimize 1e-12 ${ftol} ${maxiter} ${maxeval}
        minimize 1e-12 1e-08 ${maxiter} ${maxeval}
        minimize 1e-12 1e-08 10000 ${maxeval}
        minimize 1e-12 1e-08 10000 20000
WARNING: Resetting reneighboring criteria during minimization (../min.cpp:168)
Memory usage per processor = 5.00998 Mbytes
Step Temp PotEng Lx Ly Lz 
      14            0   -2873.9543    3.6659457    58.403852    2.2449241 
Loop time of 0.000377025 on 1 procs for 0 steps with 484 atoms

Minimization stats:
  Stopping criterion = force tolerance
  Energy initial, next-to-last, final = 
        -2873.95425038     -2873.95425038     -2873.95425038
  Force two-norm initial, final = 1.0569e-12 1.0569e-12
  Force max component initial, final = 8.23678e-14 8.23678e-14
  Final line search alpha, max atom move = 0 0
  Iterations, force evaluations = 0 0

Pair  time (%) = 0.000330985 (87.7884)
Neigh time (%) = 0 (0)
Comm  time (%) = 2.4025e-05 (6.37225)
Outpt time (%) = 0 (0)
Other time (%) = 2.20158e-05 (5.83933)

Nlocal:    484 ave 484 max 484 min
Histogram: 1 0 0 0 0 0 0 0 0 0
Nghost:    3061 ave 3061 max 3061 min
Histogram: 1 0 0 0 0 0 0 0 0 0
Neighs:    13320 ave 13320 max 13320 min
Histogram: 1 0 0 0 0 0 0 0 0 0

Total # of neighbors = 13320
Ave neighs/atom = 27.5207
Neighbor list builds = 0
Dangerous builds = 0
	# write_dump all atom ${dumpfile}
        next i
jump SELF loop1
        displace_atoms upper move 0.0 ${ystep1} 0.0 units lattice
        displace_atoms upper move 0.0 0.00288675134594812 0.0 units lattice
        min_style ${style}
        min_style hftn
        minimize ${etol} ${ftol} ${maxiter} ${maxeval}
        minimize 1e-12 ${ftol} ${maxiter} ${maxeval}
        minimize 1e-12 1e-08 ${maxiter} ${maxeval}
        minimize 1e-12 1e-08 10000 ${maxeval}
        minimize 1e-12 1e-08 10000 20000
WARNING: Resetting reneighboring criteria during minimization (../min.cpp:168)
Memory usage per processor = 5.00998 Mbytes
Step Temp PotEng Lx Ly Lz 
      14            0   -2873.6205    3.6659457    58.409464    2.2449241 
Loop time of 0.000378906 on 1 procs for 0 steps with 484 atoms

Minimization stats:
  Stopping criterion = force tolerance
  Energy initial, next-to-last, final = 
        -2873.62049697     -2873.62049697     -2873.62049697
  Force two-norm initial, final = 1.05717e-12 1.05717e-12
  Force max component initial, final = 8.23678e-14 8.23678e-14
  Final line search alpha, max atom move = 0 0
  Iterations, force evaluations = 0 0

Pair  time (%) = 0.000357939 (94.4664)
Neigh time (%) = 0 (0)
Comm  time (%) = 1.30713e-05 (3.44976)
Outpt time (%) = 0 (0)
Other time (%) = 7.89587e-06 (2.08386)

Nlocal:    484 ave 484 max 484 min
Histogram: 1 0 0 0 0 0 0 0 0 0
Nghost:    3061 ave 3061 max 3061 min
Histogram: 1 0 0 0 0 0 0 0 0 0
Neighs:    13320 ave 13320 max 13320 min
Histogram: 1 0 0 0 0 0 0 0 0 0

Total # of neighbors = 13320
Ave neighs/atom = 27.5207
Neighbor list builds = 0
Dangerous builds = 0
	# write_dump all atom ${dumpfile}
        next i
jump SELF loop1
        displace_atoms upper move 0.0 ${ystep1} 0.0 units lattice
        displace_atoms upper move 0.0 0.00288675134594812 0.0 units lattice
        min_style ${style}
        min_style hftn
        minimize ${etol} ${ftol} ${maxiter} ${maxeval}
        minimize 1e-12 ${ftol} ${maxiter} ${maxeval}
        minimize 1e-12 1e-08 ${maxiter} ${maxeval}
        minimize 1e-12 1e-08 10000 ${maxeval}
        minimize 1e-12 1e-08 10000 20000
WARNING: Resetting reneighboring criteria during minimization (../min.cpp:168)
Memory usage per processor = 5.00998 Mbytes
Step Temp PotEng Lx Ly Lz 
      14            0    -2873.238    3.6659457    58.415076    2.2449241 
Loop time of 0.000368917 on 1 procs for 0 steps with 484 atoms

Minimization stats:
  Stopping criterion = force tolerance
  Energy initial, next-to-last, final = 
        -2873.23801177     -2873.23801177     -2873.23801177
  Force two-norm initial, final = 1.05823e-12 1.05823e-12
  Force max component initial, final = 8.23678e-14 8.23678e-14
  Final line search alpha, max atom move = 0 0
  Iterations, force evaluations = 0 0

Pair  time (%) = 0.000347949 (94.3165)
Neigh time (%) = 0 (0)
Comm  time (%) = 1.41062e-05 (3.82367)
Outpt time (%) = 0 (0)
Other time (%) = 6.86117e-06 (1.85982)

Nlocal:    484 ave 484 max 484 min
Histogram: 1 0 0 0 0 0 0 0 0 0
Nghost:    3061 ave 3061 max 3061 min
Histogram: 1 0 0 0 0 0 0 0 0 0
Neighs:    13320 ave 13320 max 13320 min
Histogram: 1 0 0 0 0 0 0 0 0 0

Total # of neighbors = 13320
Ave neighs/atom = 27.5207
Neighbor list builds = 0
Dangerous builds = 0
	# write_dump all atom ${dumpfile}
        next i
jump SELF loop1
        displace_atoms upper move 0.0 ${ystep1} 0.0 units lattice
        displace_atoms upper move 0.0 0.00288675134594812 0.0 units lattice
        min_style ${style}
        min_style hftn
        minimize ${etol} ${ftol} ${maxiter} ${maxeval}
        minimize 1e-12 ${ftol} ${maxiter} ${maxeval}
        minimize 1e-12 1e-08 ${maxiter} ${maxeval}
        minimize 1e-12 1e-08 10000 ${maxeval}
        minimize 1e-12 1e-08 10000 20000
WARNING: Resetting reneighboring criteria during minimization (../min.cpp:168)
Memory usage per processor = 5.00998 Mbytes
Step Temp PotEng Lx Ly Lz 
      14            0   -2872.8102    3.6659457    58.420689    2.2449241 
Loop time of 0.000368892 on 1 procs for 0 steps with 484 atoms

Minimization stats:
  Stopping criterion = force tolerance
  Energy initial, next-to-last, final = 
         -2872.8102111      -2872.8102111      -2872.8102111
  Force two-norm initial, final = 1.05531e-12 1.05531e-12
  Force max component initial, final = 8.23678e-14 8.23678e-14
  Final line search alpha, max atom move = 0 0
  Iterations, force evaluations = 0 0

Pair  time (%) = 0.000330096 (89.4832)
Neigh time (%) = 0 (0)
Comm  time (%) = 2.08641e-05 (5.65588)
Outpt time (%) = 0 (0)
Other time (%) = 1.79315e-05 (4.8609)

Nlocal:    484 ave 484 max 484 min
Histogram: 1 0 0 0 0 0 0 0 0 0
Nghost:    3061 ave 3061 max 3061 min
Histogram: 1 0 0 0 0 0 0 0 0 0
Neighs:    13320 ave 13320 max 13320 min
Histogram: 1 0 0 0 0 0 0 0 0 0

Total # of neighbors = 13320
Ave neighs/atom = 27.5207
Neighbor list builds = 0
Dangerous builds = 0
	# write_dump all atom ${dumpfile}
        next i
jump SELF loop1
        displace_atoms upper move 0.0 ${ystep1} 0.0 units lattice
        displace_atoms upper move 0.0 0.00288675134594812 0.0 units lattice
        min_style ${style}
        min_style hftn
        minimize ${etol} ${ftol} ${maxiter} ${maxeval}
        minimize 1e-12 ${ftol} ${maxiter} ${maxeval}
        minimize 1e-12 1e-08 ${maxiter} ${maxeval}
        minimize 1e-12 1e-08 10000 ${maxeval}
        minimize 1e-12 1e-08 10000 20000
WARNING: Resetting reneighboring criteria during minimization (../min.cpp:168)
Memory usage per processor = 5.00998 Mbytes
Step Temp PotEng Lx Ly Lz 
      14            0   -2872.3405    3.6659457    58.426301    2.2449241 
Loop time of 0.00035609 on 1 procs for 0 steps with 484 atoms

Minimization stats:
  Stopping criterion = force tolerance
  Energy initial, next-to-last, final = 
        -2872.34051172     -2872.34051172     -2872.34051172
  Force two-norm initial, final = 1.05827e-12 1.05827e-12
  Force max component initial, final = 8.23678e-14 8.23678e-14
  Final line search alpha, max atom move = 0 0
  Iterations, force evaluations = 0 0

Pair  time (%) = 0.000344885 (96.8531)
Neigh time (%) = 0 (0)
Comm  time (%) = 6.79109e-06 (1.90713)
Outpt time (%) = 0 (0)
Other time (%) = 4.41459e-06 (1.23974)

Nlocal:    484 ave 484 max 484 min
Histogram: 1 0 0 0 0 0 0 0 0 0
Nghost:    3061 ave 3061 max 3061 min
Histogram: 1 0 0 0 0 0 0 0 0 0
Neighs:    13320 ave 13320 max 13320 min
Histogram: 1 0 0 0 0 0 0 0 0 0

Total # of neighbors = 13320
Ave neighs/atom = 27.5207
Neighbor list builds = 0
Dangerous builds = 0
	# write_dump all atom ${dumpfile}
        next i
jump SELF loop1
        displace_atoms upper move 0.0 ${ystep1} 0.0 units lattice
        displace_atoms upper move 0.0 0.00288675134594812 0.0 units lattice
        min_style ${style}
        min_style hftn
        minimize ${etol} ${ftol} ${maxiter} ${maxeval}
        minimize 1e-12 ${ftol} ${maxiter} ${maxeval}
        minimize 1e-12 1e-08 ${maxiter} ${maxeval}
        minimize 1e-12 1e-08 10000 ${maxeval}
        minimize 1e-12 1e-08 10000 20000
WARNING: Resetting reneighboring criteria during minimization (../min.cpp:168)
Memory usage per processor = 5.00998 Mbytes
Step Temp PotEng Lx Ly Lz 
      14            0   -2871.8314    3.6659457    58.431913    2.2449241 
Loop time of 0.000382115 on 1 procs for 0 steps with 484 atoms

Minimization stats:
  Stopping criterion = force tolerance
  Energy initial, next-to-last, final = 
        -2871.83142168     -2871.83142168     -2871.83142168
  Force two-norm initial, final = 1.06238e-12 1.06238e-12
  Force max component initial, final = 8.23678e-14 8.23678e-14
  Final line search alpha, max atom move = 0 0
  Iterations, force evaluations = 0 0

Pair  time (%) = 0.000359002 (93.9513)
Neigh time (%) = 0 (0)
Comm  time (%) = 1.49596e-05 (3.91494)
Outpt time (%) = 0 (0)
Other time (%) = 8.15338e-06 (2.13375)

Nlocal:    484 ave 484 max 484 min
Histogram: 1 0 0 0 0 0 0 0 0 0
Nghost:    3061 ave 3061 max 3061 min
Histogram: 1 0 0 0 0 0 0 0 0 0
Neighs:    13320 ave 13320 max 13320 min
Histogram: 1 0 0 0 0 0 0 0 0 0

Total # of neighbors = 13320
Ave neighs/atom = 27.5207
Neighbor list builds = 0
Dangerous builds = 0
	# write_dump all atom ${dumpfile}
        next i
jump SELF loop1
        displace_atoms upper move 0.0 ${ystep1} 0.0 units lattice
        displace_atoms upper move 0.0 0.00288675134594812 0.0 units lattice
        min_style ${style}
        min_style hftn
        minimize ${etol} ${ftol} ${maxiter} ${maxeval}
        minimize 1e-12 ${ftol} ${maxiter} ${maxeval}
        minimize 1e-12 1e-08 ${maxiter} ${maxeval}
        minimize 1e-12 1e-08 10000 ${maxeval}
        minimize 1e-12 1e-08 10000 20000
WARNING: Resetting reneighboring criteria during minimization (../min.cpp:168)
Memory usage per processor = 5.00998 Mbytes
Step Temp PotEng Lx Ly Lz 
      14            0   -2871.2788    3.6659457    58.437525    2.2449241 
Loop time of 0.000285059 on 1 procs for 0 steps with 484 atoms

Minimization stats:
  Stopping criterion = force tolerance
  Energy initial, next-to-last, final = 
        -2871.27879111     -2871.27879111     -2871.27879111
  Force two-norm initial, final = 1.06196e-12 1.06196e-12
  Force max component initial, final = 8.23678e-14 8.23678e-14
  Final line search alpha, max atom move = 0 0
  Iterations, force evaluations = 0 0

Pair  time (%) = 0.000272899 (95.7344)
Neigh time (%) = 0 (0)
Comm  time (%) = 6.82264e-06 (2.39342)
Outpt time (%) = 0 (0)
Other time (%) = 5.33671e-06 (1.87215)

Nlocal:    484 ave 484 max 484 min
Histogram: 1 0 0 0 0 0 0 0 0 0
Nghost:    3061 ave 3061 max 3061 min
Histogram: 1 0 0 0 0 0 0 0 0 0
Neighs:    13320 ave 13320 max 13320 min
Histogram: 1 0 0 0 0 0 0 0 0 0

Total # of neighbors = 13320
Ave neighs/atom = 27.5207
Neighbor list builds = 0
Dangerous builds = 0
	# write_dump all atom ${dumpfile}
        next i
jump SELF loop1
        displace_atoms upper move 0.0 ${ystep1} 0.0 units lattice
        displace_atoms upper move 0.0 0.00288675134594812 0.0 units lattice
        min_style ${style}
        min_style hftn
        minimize ${etol} ${ftol} ${maxiter} ${maxeval}
        minimize 1e-12 ${ftol} ${maxiter} ${maxeval}
        minimize 1e-12 1e-08 ${maxiter} ${maxeval}
        minimize 1e-12 1e-08 10000 ${maxeval}
        minimize 1e-12 1e-08 10000 20000
WARNING: Resetting reneighboring criteria during minimization (../min.cpp:168)
Memory usage per processor = 5.00998 Mbytes
Step Temp PotEng Lx Ly Lz 
      14            0   -2870.6846    3.6659457    58.443138    2.2449241 
Loop time of 0.000320071 on 1 procs for 0 steps with 484 atoms

Minimization stats:
  Stopping criterion = force tolerance
  Energy initial, next-to-last, final = 
        -2870.68463832     -2870.68463832     -2870.68463832
  Force two-norm initial, final = 1.06304e-12 1.06304e-12
  Force max component initial, final = 8.23678e-14 8.23678e-14
  Final line search alpha, max atom move = 0 0
  Iterations, force evaluations = 0 0

Pair  time (%) = 0.000298104 (93.1368)
Neigh time (%) = 0 (0)
Comm  time (%) = 1.50059e-05 (4.68831)
Outpt time (%) = 0 (0)
Other time (%) = 6.96129e-06 (2.17492)

Nlocal:    484 ave 484 max 484 min
Histogram: 1 0 0 0 0 0 0 0 0 0
Nghost:    3061 ave 3061 max 3061 min
Histogram: 1 0 0 0 0 0 0 0 0 0
Neighs:    13320 ave 13320 max 13320 min
Histogram: 1 0 0 0 0 0 0 0 0 0

Total # of neighbors = 13320
Ave neighs/atom = 27.5207
Neighbor list builds = 0
Dangerous builds = 0
	# write_dump all atom ${dumpfile}
        next i
jump SELF loop1
        displace_atoms upper move 0.0 ${ystep1} 0.0 units lattice
        displace_atoms upper move 0.0 0.00288675134594812 0.0 units lattice
        min_style ${style}
        min_style hftn
        minimize ${etol} ${ftol} ${maxiter} ${maxeval}
        minimize 1e-12 ${ftol} ${maxiter} ${maxeval}
        minimize 1e-12 1e-08 ${maxiter} ${maxeval}
        minimize 1e-12 1e-08 10000 ${maxeval}
        minimize 1e-12 1e-08 10000 20000
WARNING: Resetting reneighboring criteria during minimization (../min.cpp:168)
Memory usage per processor = 5.00998 Mbytes
Step Temp PotEng Lx Ly Lz 
      14            0   -2870.0527    3.6659457     58.44875    2.2449241 
Loop time of 0.000364921 on 1 procs for 0 steps with 484 atoms

Minimization stats:
  Stopping criterion = force tolerance
  Energy initial, next-to-last, final = 
        -2870.05273013     -2870.05273013     -2870.05273013
  Force two-norm initial, final = 1.05962e-12 1.05962e-12
  Force max component initial, final = 8.23678e-14 8.23678e-14
  Final line search alpha, max atom move = 0 0
  Iterations, force evaluations = 0 0

Pair  time (%) = 0.000341954 (93.7062)
Neigh time (%) = 0 (0)
Comm  time (%) = 1.6075e-05 (4.40506)
Outpt time (%) = 0 (0)
Other time (%) = 6.89225e-06 (1.8887)

Nlocal:    484 ave 484 max 484 min
Histogram: 1 0 0 0 0 0 0 0 0 0
Nghost:    3061 ave 3061 max 3061 min
Histogram: 1 0 0 0 0 0 0 0 0 0
Neighs:    13320 ave 13320 max 13320 min
Histogram: 1 0 0 0 0 0 0 0 0 0

Total # of neighbors = 13320
Ave neighs/atom = 27.5207
Neighbor list builds = 0
Dangerous builds = 0
	# write_dump all atom ${dumpfile}
        next i
jump SELF loop1
        displace_atoms upper move 0.0 ${ystep1} 0.0 units lattice
        displace_atoms upper move 0.0 0.00288675134594812 0.0 units lattice
        min_style ${style}
        min_style hftn
        minimize ${etol} ${ftol} ${maxiter} ${maxeval}
        minimize 1e-12 ${ftol} ${maxiter} ${maxeval}
        minimize 1e-12 1e-08 ${maxiter} ${maxeval}
        minimize 1e-12 1e-08 10000 ${maxeval}
        minimize 1e-12 1e-08 10000 20000
WARNING: Resetting reneighboring criteria during minimization (../min.cpp:168)
Memory usage per processor = 5.00998 Mbytes
Step Temp PotEng Lx Ly Lz 
      14            0    -2869.387    3.6659457    58.454362    2.2449241 
Loop time of 0.000371898 on 1 procs for 0 steps with 484 atoms

Minimization stats:
  Stopping criterion = force tolerance
  Energy initial, next-to-last, final = 
        -2869.38697864     -2869.38697864     -2869.38697864
  Force two-norm initial, final = 1.06223e-12 1.06223e-12
  Force max component initial, final = 8.23678e-14 8.23678e-14
  Final line search alpha, max atom move = 0 0
  Iterations, force evaluations = 0 0

Pair  time (%) = 0.000340977 (91.6857)
Neigh time (%) = 0 (0)
Comm  time (%) = 2.40292e-05 (6.46123)
Outpt time (%) = 0 (0)
Other time (%) = 6.89167e-06 (1.85311)

Nlocal:    484 ave 484 max 484 min
Histogram: 1 0 0 0 0 0 0 0 0 0
Nghost:    3061 ave 3061 max 3061 min
Histogram: 1 0 0 0 0 0 0 0 0 0
Neighs:    13320 ave 13320 max 13320 min
Histogram: 1 0 0 0 0 0 0 0 0 0

Total # of neighbors = 13320
Ave neighs/atom = 27.5207
Neighbor list builds = 0
Dangerous builds = 0
	# write_dump all atom ${dumpfile}
        next i
jump SELF loop1
        displace_atoms upper move 0.0 ${ystep1} 0.0 units lattice
        displace_atoms upper move 0.0 0.00288675134594812 0.0 units lattice
        min_style ${style}
        min_style hftn
        minimize ${etol} ${ftol} ${maxiter} ${maxeval}
        minimize 1e-12 ${ftol} ${maxiter} ${maxeval}
        minimize 1e-12 1e-08 ${maxiter} ${maxeval}
        minimize 1e-12 1e-08 10000 ${maxeval}
        minimize 1e-12 1e-08 10000 20000
WARNING: Resetting reneighboring criteria during minimization (../min.cpp:168)
Memory usage per processor = 5.00998 Mbytes
Step Temp PotEng Lx Ly Lz 
      14            0   -2868.6912    3.6659457    58.459975    2.2449241 
Loop time of 0.0004399 on 1 procs for 0 steps with 484 atoms

Minimization stats:
  Stopping criterion = force tolerance
  Energy initial, next-to-last, final = 
        -2868.69120158     -2868.69120158     -2868.69120158
  Force two-norm initial, final = 1.06059e-12 1.06059e-12
  Force max component initial, final = 8.23678e-14 8.23678e-14
  Final line search alpha, max atom move = 0 0
  Iterations, force evaluations = 0 0

Pair  time (%) = 0.000391906 (89.0897)
Neigh time (%) = 0 (0)
Comm  time (%) = 2.50248e-05 (5.68873)
Outpt time (%) = 0 (0)
Other time (%) = 2.29697e-05 (5.22156)

Nlocal:    484 ave 484 max 484 min
Histogram: 1 0 0 0 0 0 0 0 0 0
Nghost:    3061 ave 3061 max 3061 min
Histogram: 1 0 0 0 0 0 0 0 0 0
Neighs:    13320 ave 13320 max 13320 min
Histogram: 1 0 0 0 0 0 0 0 0 0

Total # of neighbors = 13320
Ave neighs/atom = 27.5207
Neighbor list builds = 0
Dangerous builds = 0
	# write_dump all atom ${dumpfile}
        next i
jump SELF loop1
        displace_atoms upper move 0.0 ${ystep1} 0.0 units lattice
        displace_atoms upper move 0.0 0.00288675134594812 0.0 units lattice
        min_style ${style}
        min_style hftn
        minimize ${etol} ${ftol} ${maxiter} ${maxeval}
        minimize 1e-12 ${ftol} ${maxiter} ${maxeval}
        minimize 1e-12 1e-08 ${maxiter} ${maxeval}
        minimize 1e-12 1e-08 10000 ${maxeval}
        minimize 1e-12 1e-08 10000 20000
WARNING: Resetting reneighboring criteria during minimization (../min.cpp:168)
Memory usage per processor = 5.00998 Mbytes
Step Temp PotEng Lx Ly Lz 
      14            0   -2867.9694    3.6659457    58.465587    2.2449241 
Loop time of 0.000378883 on 1 procs for 0 steps with 484 atoms

Minimization stats:
  Stopping criterion = force tolerance
  Energy initial, next-to-last, final = 
        -2867.96940633     -2867.96940633     -2867.96940633
  Force two-norm initial, final = 1.05728e-12 1.05728e-12
  Force max component initial, final = 8.23678e-14 8.23678e-14
  Final line search alpha, max atom move = 0 0
  Iterations, force evaluations = 0 0

Pair  time (%) = 0.000357916 (94.466)
Neigh time (%) = 0 (0)
Comm  time (%) = 1.49796e-05 (3.95362)
Outpt time (%) = 0 (0)
Other time (%) = 5.98771e-06 (1.58036)

Nlocal:    484 ave 484 max 484 min
Histogram: 1 0 0 0 0 0 0 0 0 0
Nghost:    3061 ave 3061 max 3061 min
Histogram: 1 0 0 0 0 0 0 0 0 0
Neighs:    13320 ave 13320 max 13320 min
Histogram: 1 0 0 0 0 0 0 0 0 0

Total # of neighbors = 13320
Ave neighs/atom = 27.5207
Neighbor list builds = 0
Dangerous builds = 0
	# write_dump all atom ${dumpfile}
        next i
jump SELF loop1
        displace_atoms upper move 0.0 ${ystep1} 0.0 units lattice
        displace_atoms upper move 0.0 0.00288675134594812 0.0 units lattice
        min_style ${style}
        min_style hftn
        minimize ${etol} ${ftol} ${maxiter} ${maxeval}
        minimize 1e-12 ${ftol} ${maxiter} ${maxeval}
        minimize 1e-12 1e-08 ${maxiter} ${maxeval}
        minimize 1e-12 1e-08 10000 ${maxeval}
        minimize 1e-12 1e-08 10000 20000
WARNING: Resetting reneighboring criteria during minimization (../min.cpp:168)
Memory usage per processor = 5.00998 Mbytes
Step Temp PotEng Lx Ly Lz 
      14            0   -2867.2255    3.6659457    58.471199    2.2449241 
Loop time of 0.000385033 on 1 procs for 0 steps with 484 atoms

Minimization stats:
  Stopping criterion = force tolerance
  Energy initial, next-to-last, final = 
        -2867.22548184     -2867.22548184     -2867.22548184
  Force two-norm initial, final = 1.06111e-12 1.06111e-12
  Force max component initial, final = 8.23678e-14 8.23678e-14
  Final line search alpha, max atom move = 0 0
  Iterations, force evaluations = 0 0

Pair  time (%) = 0.000364065 (94.5544)
Neigh time (%) = 0 (0)
Comm  time (%) = 1.28871e-05 (3.347)
Outpt time (%) = 0 (0)
Other time (%) = 8.08015e-06 (2.09856)

Nlocal:    484 ave 484 max 484 min
Histogram: 1 0 0 0 0 0 0 0 0 0
Nghost:    3061 ave 3061 max 3061 min
Histogram: 1 0 0 0 0 0 0 0 0 0
Neighs:    13320 ave 13320 max 13320 min
Histogram: 1 0 0 0 0 0 0 0 0 0

Total # of neighbors = 13320
Ave neighs/atom = 27.5207
Neighbor list builds = 0
Dangerous builds = 0
	# write_dump all atom ${dumpfile}
        next i
jump SELF loop1
        displace_atoms upper move 0.0 ${ystep1} 0.0 units lattice
        displace_atoms upper move 0.0 0.00288675134594812 0.0 units lattice
        min_style ${style}
        min_style hftn
        minimize ${etol} ${ftol} ${maxiter} ${maxeval}
        minimize 1e-12 ${ftol} ${maxiter} ${maxeval}
        minimize 1e-12 1e-08 ${maxiter} ${maxeval}
        minimize 1e-12 1e-08 10000 ${maxeval}
        minimize 1e-12 1e-08 10000 20000
WARNING: Resetting reneighboring criteria during minimization (../min.cpp:168)
Memory usage per processor = 5.00998 Mbytes
Step Temp PotEng Lx Ly Lz 
      14            0   -2866.4635    3.6659457    58.476812    2.2449241 
Loop time of 0.000381956 on 1 procs for 0 steps with 484 atoms

Minimization stats:
  Stopping criterion = force tolerance
  Energy initial, next-to-last, final = 
        -2866.46348695     -2866.46348695     -2866.46348695
  Force two-norm initial, final = 1.05911e-12 1.05911e-12
  Force max component initial, final = 8.23678e-14 8.23678e-14
  Final line search alpha, max atom move = 0 0
  Iterations, force evaluations = 0 0

Pair  time (%) = 0.000360035 (94.2609)
Neigh time (%) = 0 (0)
Comm  time (%) = 1.31172e-05 (3.43422)
Outpt time (%) = 0 (0)
Other time (%) = 8.80379e-06 (2.30493)

Nlocal:    484 ave 484 max 484 min
Histogram: 1 0 0 0 0 0 0 0 0 0
Nghost:    3061 ave 3061 max 3061 min
Histogram: 1 0 0 0 0 0 0 0 0 0
Neighs:    13320 ave 13320 max 13320 min
Histogram: 1 0 0 0 0 0 0 0 0 0

Total # of neighbors = 13320
Ave neighs/atom = 27.5207
Neighbor list builds = 0
Dangerous builds = 0
	# write_dump all atom ${dumpfile}
        next i
jump SELF loop1
        displace_atoms upper move 0.0 ${ystep1} 0.0 units lattice
        displace_atoms upper move 0.0 0.00288675134594812 0.0 units lattice
        min_style ${style}
        min_style hftn
        minimize ${etol} ${ftol} ${maxiter} ${maxeval}
        minimize 1e-12 ${ftol} ${maxiter} ${maxeval}
        minimize 1e-12 1e-08 ${maxiter} ${maxeval}
        minimize 1e-12 1e-08 10000 ${maxeval}
        minimize 1e-12 1e-08 10000 20000
WARNING: Resetting reneighboring criteria during minimization (../min.cpp:168)
Memory usage per processor = 5.00998 Mbytes
Step Temp PotEng Lx Ly Lz 
      14            0   -2865.6874    3.6659457    58.482424    2.2449241 
Loop time of 0.00032396 on 1 procs for 0 steps with 484 atoms

Minimization stats:
  Stopping criterion = force tolerance
  Energy initial, next-to-last, final = 
        -2865.68742736     -2865.68742736     -2865.68742736
  Force two-norm initial, final = 1.05776e-12 1.05776e-12
  Force max component initial, final = 8.23678e-14 8.23678e-14
  Final line search alpha, max atom move = 0 0
  Iterations, force evaluations = 0 0

Pair  time (%) = 0.00031296 (96.6045)
Neigh time (%) = 0 (0)
Comm  time (%) = 8.87678e-06 (2.74009)
Outpt time (%) = 0 (0)
Other time (%) = 2.12318e-06 (0.655384)

Nlocal:    484 ave 484 max 484 min
Histogram: 1 0 0 0 0 0 0 0 0 0
Nghost:    3061 ave 3061 max 3061 min
Histogram: 1 0 0 0 0 0 0 0 0 0
Neighs:    13320 ave 13320 max 13320 min
Histogram: 1 0 0 0 0 0 0 0 0 0

Total # of neighbors = 13320
Ave neighs/atom = 27.5207
Neighbor list builds = 0
Dangerous builds = 0
	# write_dump all atom ${dumpfile}
        next i
jump SELF loop1
        displace_atoms upper move 0.0 ${ystep1} 0.0 units lattice
        displace_atoms upper move 0.0 0.00288675134594812 0.0 units lattice
        min_style ${style}
        min_style hftn
        minimize ${etol} ${ftol} ${maxiter} ${maxeval}
        minimize 1e-12 ${ftol} ${maxiter} ${maxeval}
        minimize 1e-12 1e-08 ${maxiter} ${maxeval}
        minimize 1e-12 1e-08 10000 ${maxeval}
        minimize 1e-12 1e-08 10000 20000
WARNING: Resetting reneighboring criteria during minimization (../min.cpp:168)
Memory usage per processor = 5.00998 Mbytes
Step Temp PotEng Lx Ly Lz 
      14            0   -2864.9014    3.6659457    58.488036    2.2449241 
Loop time of 0.000369914 on 1 procs for 0 steps with 484 atoms

Minimization stats:
  Stopping criterion = force tolerance
  Energy initial, next-to-last, final = 
        -2864.90140834     -2864.90140834     -2864.90140834
  Force two-norm initial, final = 1.05935e-12 1.05935e-12
  Force max component initial, final = 8.23678e-14 8.23678e-14
  Final line search alpha, max atom move = 0 0
  Iterations, force evaluations = 0 0

Pair  time (%) = 0.000348947 (94.3318)
Neigh time (%) = 0 (0)
Comm  time (%) = 1.39092e-05 (3.76011)
Outpt time (%) = 0 (0)
Other time (%) = 7.05814e-06 (1.90805)

Nlocal:    484 ave 484 max 484 min
Histogram: 1 0 0 0 0 0 0 0 0 0
Nghost:    3061 ave 3061 max 3061 min
Histogram: 1 0 0 0 0 0 0 0 0 0
Neighs:    13320 ave 13320 max 13320 min
Histogram: 1 0 0 0 0 0 0 0 0 0

Total # of neighbors = 13320
Ave neighs/atom = 27.5207
Neighbor list builds = 0
Dangerous builds = 0
	# write_dump all atom ${dumpfile}
        next i
jump SELF loop1
        displace_atoms upper move 0.0 ${ystep1} 0.0 units lattice
        displace_atoms upper move 0.0 0.00288675134594812 0.0 units lattice
        min_style ${style}
        min_style hftn
        minimize ${etol} ${ftol} ${maxiter} ${maxeval}
        minimize 1e-12 ${ftol} ${maxiter} ${maxeval}
        minimize 1e-12 1e-08 ${maxiter} ${maxeval}
        minimize 1e-12 1e-08 10000 ${maxeval}
        minimize 1e-12 1e-08 10000 20000
WARNING: Resetting reneighboring criteria during minimization (../min.cpp:168)
Memory usage per processor = 5.00998 Mbytes
Step Temp PotEng Lx Ly Lz 
      14            0   -2864.1096    3.6659457    58.493649    2.2449241 
Loop time of 0.00124203 on 1 procs for 0 steps with 484 atoms

Minimization stats:
  Stopping criterion = force tolerance
  Energy initial, next-to-last, final = 
        -2864.10956626     -2864.10956626     -2864.10956626
  Force two-norm initial, final = 1.05815e-12 1.05815e-12
  Force max component initial, final = 8.23678e-14 8.23678e-14
  Final line search alpha, max atom move = 0 0
  Iterations, force evaluations = 0 0

Pair  time (%) = 0.00120106 (96.7016)
Neigh time (%) = 0 (0)
Comm  time (%) = 3.17891e-05 (2.55945)
Outpt time (%) = 0 (0)
Other time (%) = 9.17818e-06 (0.738968)

Nlocal:    484 ave 484 max 484 min
Histogram: 1 0 0 0 0 0 0 0 0 0
Nghost:    3061 ave 3061 max 3061 min
Histogram: 1 0 0 0 0 0 0 0 0 0
Neighs:    13320 ave 13320 max 13320 min
Histogram: 1 0 0 0 0 0 0 0 0 0

Total # of neighbors = 13320
Ave neighs/atom = 27.5207
Neighbor list builds = 0
Dangerous builds = 0
	# write_dump all atom ${dumpfile}
        next i
jump SELF loop1
        displace_atoms upper move 0.0 ${ystep1} 0.0 units lattice
        displace_atoms upper move 0.0 0.00288675134594812 0.0 units lattice
        min_style ${style}
        min_style hftn
        minimize ${etol} ${ftol} ${maxiter} ${maxeval}
        minimize 1e-12 ${ftol} ${maxiter} ${maxeval}
        minimize 1e-12 1e-08 ${maxiter} ${maxeval}
        minimize 1e-12 1e-08 10000 ${maxeval}
        minimize 1e-12 1e-08 10000 20000
WARNING: Resetting reneighboring criteria during minimization (../min.cpp:168)
Memory usage per processor = 5.00998 Mbytes
Step Temp PotEng Lx Ly Lz 
      14            0    -2863.316    3.6659457    58.499261    2.2449241 
Loop time of 0.000396032 on 1 procs for 0 steps with 484 atoms

Minimization stats:
  Stopping criterion = force tolerance
  Energy initial, next-to-last, final = 
        -2863.31603746     -2863.31603746     -2863.31603746
  Force two-norm initial, final = 1.05621e-12 1.05621e-12
  Force max component initial, final = 8.23678e-14 8.23678e-14
  Final line search alpha, max atom move = 0 0
  Iterations, force evaluations = 0 0

Pair  time (%) = 0.000351898 (88.8561)
Neigh time (%) = 0 (0)
Comm  time (%) = 2.2918e-05 (5.78691)
Outpt time (%) = 0 (0)
Other time (%) = 2.12154e-05 (5.357)

Nlocal:    484 ave 484 max 484 min
Histogram: 1 0 0 0 0 0 0 0 0 0
Nghost:    3061 ave 3061 max 3061 min
Histogram: 1 0 0 0 0 0 0 0 0 0
Neighs:    13320 ave 13320 max 13320 min
Histogram: 1 0 0 0 0 0 0 0 0 0

Total # of neighbors = 13320
Ave neighs/atom = 27.5207
Neighbor list builds = 0
Dangerous builds = 0
	# write_dump all atom ${dumpfile}
        next i
jump SELF loop1
        displace_atoms upper move 0.0 ${ystep1} 0.0 units lattice
        displace_atoms upper move 0.0 0.00288675134594812 0.0 units lattice
        min_style ${style}
        min_style hftn
        minimize ${etol} ${ftol} ${maxiter} ${maxeval}
        minimize 1e-12 ${ftol} ${maxiter} ${maxeval}
        minimize 1e-12 1e-08 ${maxiter} ${maxeval}
        minimize 1e-12 1e-08 10000 ${maxeval}
        minimize 1e-12 1e-08 10000 20000
WARNING: Resetting reneighboring criteria during minimization (../min.cpp:168)
Memory usage per processor = 5.00998 Mbytes
Step Temp PotEng Lx Ly Lz 
      14            0    -2862.525    3.6659457    58.504873    2.2449241 
Loop time of 0.000369036 on 1 procs for 0 steps with 484 atoms

Minimization stats:
  Stopping criterion = force tolerance
  Energy initial, next-to-last, final = 
        -2862.52503009     -2862.52503009     -2862.52503009
  Force two-norm initial, final = 1.05916e-12 1.05916e-12
  Force max component initial, final = 8.23678e-14 8.23678e-14
  Final line search alpha, max atom move = 0 0
  Iterations, force evaluations = 0 0

Pair  time (%) = 0.000348069 (94.3184)
Neigh time (%) = 0 (0)
Comm  time (%) = 1.28677e-05 (3.48685)
Outpt time (%) = 0 (0)
Other time (%) = 8.0996e-06 (2.1948)

Nlocal:    484 ave 484 max 484 min
Histogram: 1 0 0 0 0 0 0 0 0 0
Nghost:    3061 ave 3061 max 3061 min
Histogram: 1 0 0 0 0 0 0 0 0 0
Neighs:    13320 ave 13320 max 13320 min
Histogram: 1 0 0 0 0 0 0 0 0 0

Total # of neighbors = 13320
Ave neighs/atom = 27.5207
Neighbor list builds = 0
Dangerous builds = 0
	# write_dump all atom ${dumpfile}
        next i
jump SELF loop1
        displace_atoms upper move 0.0 ${ystep1} 0.0 units lattice
        displace_atoms upper move 0.0 0.00288675134594812 0.0 units lattice
        min_style ${style}
        min_style hftn
        minimize ${etol} ${ftol} ${maxiter} ${maxeval}
        minimize 1e-12 ${ftol} ${maxiter} ${maxeval}
        minimize 1e-12 1e-08 ${maxiter} ${maxeval}
        minimize 1e-12 1e-08 10000 ${maxeval}
        minimize 1e-12 1e-08 10000 20000
WARNING: Resetting reneighboring criteria during minimization (../min.cpp:168)
Memory usage per processor = 5.00998 Mbytes
Step Temp PotEng Lx Ly Lz 
      14            0   -2861.7408    3.6659457    58.510486    2.2449241 
Loop time of 0.000368993 on 1 procs for 0 steps with 484 atoms

Minimization stats:
  Stopping criterion = force tolerance
  Energy initial, next-to-last, final = 
        -2861.74077708     -2861.74077708     -2861.74077708
  Force two-norm initial, final = 1.05727e-12 1.05727e-12
  Force max component initial, final = 8.23678e-14 8.23678e-14
  Final line search alpha, max atom move = 0 0
  Iterations, force evaluations = 0 0

Pair  time (%) = 0.000348026 (94.3177)
Neigh time (%) = 0 (0)
Comm  time (%) = 1.49747e-05 (4.05827)
Outpt time (%) = 0 (0)
Other time (%) = 5.99248e-06 (1.62401)

Nlocal:    484 ave 484 max 484 min
Histogram: 1 0 0 0 0 0 0 0 0 0
Nghost:    3061 ave 3061 max 3061 min
Histogram: 1 0 0 0 0 0 0 0 0 0
Neighs:    13320 ave 13320 max 13320 min
Histogram: 1 0 0 0 0 0 0 0 0 0

Total # of neighbors = 13320
Ave neighs/atom = 27.5207
Neighbor list builds = 0
Dangerous builds = 0
	# write_dump all atom ${dumpfile}
        next i
jump SELF loop1
        displace_atoms upper move 0.0 ${ystep1} 0.0 units lattice
        displace_atoms upper move 0.0 0.00288675134594812 0.0 units lattice
        min_style ${style}
        min_style hftn
        minimize ${etol} ${ftol} ${maxiter} ${maxeval}
        minimize 1e-12 ${ftol} ${maxiter} ${maxeval}
        minimize 1e-12 1e-08 ${maxiter} ${maxeval}
        minimize 1e-12 1e-08 10000 ${maxeval}
        minimize 1e-12 1e-08 10000 20000
WARNING: Resetting reneighboring criteria during minimization (../min.cpp:168)
Memory usage per processor = 5.00998 Mbytes
Step Temp PotEng Lx Ly Lz 
      14            0   -2860.9675    3.6659457    58.516098    2.2449241 
Loop time of 0.000368927 on 1 procs for 0 steps with 484 atoms

Minimization stats:
  Stopping criterion = force tolerance
  Energy initial, next-to-last, final = 
        -2860.96752925     -2860.96752925     -2860.96752925
  Force two-norm initial, final = 1.05858e-12 1.05858e-12
  Force max component initial, final = 8.23678e-14 8.23678e-14
  Final line search alpha, max atom move = 0 0
  Iterations, force evaluations = 0 0

Pair  time (%) = 0.000347959 (94.3167)
Neigh time (%) = 0 (0)
Comm  time (%) = 1.41257e-05 (3.82887)
Outpt time (%) = 0 (0)
Other time (%) = 6.8415e-06 (1.85443)

Nlocal:    484 ave 484 max 484 min
Histogram: 1 0 0 0 0 0 0 0 0 0
Nghost:    3061 ave 3061 max 3061 min
Histogram: 1 0 0 0 0 0 0 0 0 0
Neighs:    13320 ave 13320 max 13320 min
Histogram: 1 0 0 0 0 0 0 0 0 0

Total # of neighbors = 13320
Ave neighs/atom = 27.5207
Neighbor list builds = 0
Dangerous builds = 0
	# write_dump all atom ${dumpfile}
        next i
jump SELF loop1
        displace_atoms upper move 0.0 ${ystep1} 0.0 units lattice
        displace_atoms upper move 0.0 0.00288675134594812 0.0 units lattice
        min_style ${style}
        min_style hftn
        minimize ${etol} ${ftol} ${maxiter} ${maxeval}
        minimize 1e-12 ${ftol} ${maxiter} ${maxeval}
        minimize 1e-12 1e-08 ${maxiter} ${maxeval}
        minimize 1e-12 1e-08 10000 ${maxeval}
        minimize 1e-12 1e-08 10000 20000
WARNING: Resetting reneighboring criteria during minimization (../min.cpp:168)
Memory usage per processor = 5.00998 Mbytes
Step Temp PotEng Lx Ly Lz 
      14            0   -2860.2097    3.6659457     58.52171    2.2449241 
Loop time of 0.000323997 on 1 procs for 0 steps with 484 atoms

Minimization stats:
  Stopping criterion = force tolerance
  Energy initial, next-to-last, final = 
        -2860.20966854     -2860.20966854     -2860.20966854
  Force two-norm initial, final = 1.05555e-12 1.05555e-12
  Force max component initial, final = 8.23678e-14 8.23678e-14
  Final line search alpha, max atom move = 0 0
  Iterations, force evaluations = 0 0

Pair  time (%) = 0.00030103 (92.9113)
Neigh time (%) = 0 (0)
Comm  time (%) = 1.59967e-05 (4.93731)
Outpt time (%) = 0 (0)
Other time (%) = 6.97048e-06 (2.1514)

Nlocal:    484 ave 484 max 484 min
Histogram: 1 0 0 0 0 0 0 0 0 0
Nghost:    3061 ave 3061 max 3061 min
Histogram: 1 0 0 0 0 0 0 0 0 0
Neighs:    13320 ave 13320 max 13320 min
Histogram: 1 0 0 0 0 0 0 0 0 0

Total # of neighbors = 13320
Ave neighs/atom = 27.5207
Neighbor list builds = 0
Dangerous builds = 0
	# write_dump all atom ${dumpfile}
        next i
jump SELF loop1
        displace_atoms upper move 0.0 ${ystep1} 0.0 units lattice
        displace_atoms upper move 0.0 0.00288675134594812 0.0 units lattice
        min_style ${style}
        min_style hftn
        minimize ${etol} ${ftol} ${maxiter} ${maxeval}
        minimize 1e-12 ${ftol} ${maxiter} ${maxeval}
        minimize 1e-12 1e-08 ${maxiter} ${maxeval}
        minimize 1e-12 1e-08 10000 ${maxeval}
        minimize 1e-12 1e-08 10000 20000
WARNING: Resetting reneighboring criteria during minimization (../min.cpp:168)
Memory usage per processor = 5.00998 Mbytes
Step Temp PotEng Lx Ly Lz 
      14            0   -2859.4715    3.6659457    58.527322    2.2449241 
Loop time of 0.000371036 on 1 procs for 0 steps with 484 atoms

Minimization stats:
  Stopping criterion = force tolerance
  Energy initial, next-to-last, final = 
        -2859.47147454     -2859.47147454     -2859.47147454
  Force two-norm initial, final = 1.05796e-12 1.05796e-12
  Force max component initial, final = 8.23678e-14 8.23678e-14
  Final line search alpha, max atom move = 0 0
  Iterations, force evaluations = 0 0

Pair  time (%) = 0.000349115 (94.092)
Neigh time (%) = 0 (0)
Comm  time (%) = 1.40077e-05 (3.77528)
Outpt time (%) = 0 (0)
Other time (%) = 7.91322e-06 (2.13273)

Nlocal:    484 ave 484 max 484 min
Histogram: 1 0 0 0 0 0 0 0 0 0
Nghost:    3061 ave 3061 max 3061 min
Histogram: 1 0 0 0 0 0 0 0 0 0
Neighs:    13320 ave 13320 max 13320 min
Histogram: 1 0 0 0 0 0 0 0 0 0

Total # of neighbors = 13320
Ave neighs/atom = 27.5207
Neighbor list builds = 0
Dangerous builds = 0
	# write_dump all atom ${dumpfile}
        next i
jump SELF loop1
        displace_atoms upper move 0.0 ${ystep1} 0.0 units lattice
        displace_atoms upper move 0.0 0.00288675134594812 0.0 units lattice
        min_style ${style}
        min_style hftn
        minimize ${etol} ${ftol} ${maxiter} ${maxeval}
        minimize 1e-12 ${ftol} ${maxiter} ${maxeval}
        minimize 1e-12 1e-08 ${maxiter} ${maxeval}
        minimize 1e-12 1e-08 10000 ${maxeval}
        minimize 1e-12 1e-08 10000 20000
WARNING: Resetting reneighboring criteria during minimization (../min.cpp:168)
Memory usage per processor = 5.00998 Mbytes
Step Temp PotEng Lx Ly Lz 
      14            0   -2858.7573    3.6659457    58.532935    2.2449241 
Loop time of 0.000885083 on 1 procs for 0 steps with 484 atoms

Minimization stats:
  Stopping criterion = force tolerance
  Energy initial, next-to-last, final = 
        -2858.75732967     -2858.75732967     -2858.75732967
  Force two-norm initial, final = 1.05778e-12 1.05778e-12
  Force max component initial, final = 8.23678e-14 8.23678e-14
  Final line search alpha, max atom move = 0 0
  Iterations, force evaluations = 0 0

Pair  time (%) = 0.000816115 (92.2078)
Neigh time (%) = 0 (0)
Comm  time (%) = 3.89453e-05 (4.40019)
Outpt time (%) = 0 (0)
Other time (%) = 3.00219e-05 (3.39199)

Nlocal:    484 ave 484 max 484 min
Histogram: 1 0 0 0 0 0 0 0 0 0
Nghost:    3061 ave 3061 max 3061 min
Histogram: 1 0 0 0 0 0 0 0 0 0
Neighs:    13320 ave 13320 max 13320 min
Histogram: 1 0 0 0 0 0 0 0 0 0

Total # of neighbors = 13320
Ave neighs/atom = 27.5207
Neighbor list builds = 0
Dangerous builds = 0
	# write_dump all atom ${dumpfile}
        next i
jump SELF loop1
        displace_atoms upper move 0.0 ${ystep1} 0.0 units lattice
        displace_atoms upper move 0.0 0.00288675134594812 0.0 units lattice
        min_style ${style}
        min_style hftn
        minimize ${etol} ${ftol} ${maxiter} ${maxeval}
        minimize 1e-12 ${ftol} ${maxiter} ${maxeval}
        minimize 1e-12 1e-08 ${maxiter} ${maxeval}
        minimize 1e-12 1e-08 10000 ${maxeval}
        minimize 1e-12 1e-08 10000 20000
WARNING: Resetting reneighboring criteria during minimization (../min.cpp:168)
Memory usage per processor = 5.00998 Mbytes
Step Temp PotEng Lx Ly Lz 
      14            0   -2858.0717    3.6659457    58.538547    2.2449241 
Loop time of 0.000379037 on 1 procs for 0 steps with 484 atoms

Minimization stats:
  Stopping criterion = force tolerance
  Energy initial, next-to-last, final = 
        -2858.07165336     -2858.07165336     -2858.07165336
  Force two-norm initial, final = 1.05335e-12 1.05335e-12
  Force max component initial, final = 8.23678e-14 8.23678e-14
  Final line search alpha, max atom move = 0 0
  Iterations, force evaluations = 0 0

Pair  time (%) = 0.000358069 (94.4683)
Neigh time (%) = 0 (0)
Comm  time (%) = 1.48558e-05 (3.91935)
Outpt time (%) = 0 (0)
Other time (%) = 6.11157e-06 (1.6124)

Nlocal:    484 ave 484 max 484 min
Histogram: 1 0 0 0 0 0 0 0 0 0
Nghost:    3061 ave 3061 max 3061 min
Histogram: 1 0 0 0 0 0 0 0 0 0
Neighs:    13320 ave 13320 max 13320 min
Histogram: 1 0 0 0 0 0 0 0 0 0

Total # of neighbors = 13320
Ave neighs/atom = 27.5207
Neighbor list builds = 0
Dangerous builds = 0
	# write_dump all atom ${dumpfile}
        next i
jump SELF loop1
        displace_atoms upper move 0.0 ${ystep1} 0.0 units lattice
        displace_atoms upper move 0.0 0.00288675134594812 0.0 units lattice
        min_style ${style}
        min_style hftn
        minimize ${etol} ${ftol} ${maxiter} ${maxeval}
        minimize 1e-12 ${ftol} ${maxiter} ${maxeval}
        minimize 1e-12 1e-08 ${maxiter} ${maxeval}
        minimize 1e-12 1e-08 10000 ${maxeval}
        minimize 1e-12 1e-08 10000 20000
WARNING: Resetting reneighboring criteria during minimization (../min.cpp:168)
Memory usage per processor = 5.00998 Mbytes
Step Temp PotEng Lx Ly Lz 
      14            0   -2857.4189    3.6659457    58.544159    2.2449241 
Loop time of 0.000381067 on 1 procs for 0 steps with 484 atoms

Minimization stats:
  Stopping criterion = force tolerance
  Energy initial, next-to-last, final = 
        -2857.41890313     -2857.41890313     -2857.41890313
  Force two-norm initial, final = 1.05729e-12 1.05729e-12
  Force max component initial, final = 8.23678e-14 8.23678e-14
  Final line search alpha, max atom move = 0 0
  Iterations, force evaluations = 0 0

Pair  time (%) = 0.000357908 (93.9225)
Neigh time (%) = 0 (0)
Comm  time (%) = 1.49631e-05 (3.92663)
Outpt time (%) = 0 (0)
Other time (%) = 8.19622e-06 (2.15086)

Nlocal:    484 ave 484 max 484 min
Histogram: 1 0 0 0 0 0 0 0 0 0
Nghost:    3061 ave 3061 max 3061 min
Histogram: 1 0 0 0 0 0 0 0 0 0
Neighs:    13320 ave 13320 max 13320 min
Histogram: 1 0 0 0 0 0 0 0 0 0

Total # of neighbors = 13320
Ave neighs/atom = 27.5207
Neighbor list builds = 0
Dangerous builds = 0
	# write_dump all atom ${dumpfile}
        next i
jump SELF loop1
        displace_atoms upper move 0.0 ${ystep1} 0.0 units lattice
        displace_atoms upper move 0.0 0.00288675134594812 0.0 units lattice
        min_style ${style}
        min_style hftn
        minimize ${etol} ${ftol} ${maxiter} ${maxeval}
        minimize 1e-12 ${ftol} ${maxiter} ${maxeval}
        minimize 1e-12 1e-08 ${maxiter} ${maxeval}
        minimize 1e-12 1e-08 10000 ${maxeval}
        minimize 1e-12 1e-08 10000 20000
WARNING: Resetting reneighboring criteria during minimization (../min.cpp:168)
Memory usage per processor = 5.00998 Mbytes
Step Temp PotEng Lx Ly Lz 
      14            0   -2856.8036    3.6659457    58.549772    2.2449241 
Loop time of 0.000353057 on 1 procs for 0 steps with 484 atoms

Minimization stats:
  Stopping criterion = force tolerance
  Energy initial, next-to-last, final = 
        -2856.80356861     -2856.80356861     -2856.80356861
  Force two-norm initial, final = 1.05701e-12 1.05701e-12
  Force max component initial, final = 8.23678e-14 8.23678e-14
  Final line search alpha, max atom move = 0 0
  Iterations, force evaluations = 0 0

Pair  time (%) = 0.000323937 (91.7521)
Neigh time (%) = 0 (0)
Comm  time (%) = 1.693e-05 (4.79527)
Outpt time (%) = 0 (0)
Other time (%) = 1.21897e-05 (3.45262)

Nlocal:    484 ave 484 max 484 min
Histogram: 1 0 0 0 0 0 0 0 0 0
Nghost:    3061 ave 3061 max 3061 min
Histogram: 1 0 0 0 0 0 0 0 0 0
Neighs:    13320 ave 13320 max 13320 min
Histogram: 1 0 0 0 0 0 0 0 0 0

Total # of neighbors = 13320
Ave neighs/atom = 27.5207
Neighbor list builds = 0
Dangerous builds = 0
	# write_dump all atom ${dumpfile}
        next i
jump SELF loop1
        displace_atoms upper move 0.0 ${ystep1} 0.0 units lattice
        displace_atoms upper move 0.0 0.00288675134594812 0.0 units lattice
        min_style ${style}
        min_style hftn
        minimize ${etol} ${ftol} ${maxiter} ${maxeval}
        minimize 1e-12 ${ftol} ${maxiter} ${maxeval}
        minimize 1e-12 1e-08 ${maxiter} ${maxeval}
        minimize 1e-12 1e-08 10000 ${maxeval}
        minimize 1e-12 1e-08 10000 20000
WARNING: Resetting reneighboring criteria during minimization (../min.cpp:168)
Memory usage per processor = 5.00998 Mbytes
Step Temp PotEng Lx Ly Lz 
      14            0   -2856.2302    3.6659457    58.555384    2.2449241 
Loop time of 0.000347994 on 1 procs for 0 steps with 484 atoms

Minimization stats:
  Stopping criterion = force tolerance
  Energy initial, next-to-last, final = 
        -2856.23017053     -2856.23017053     -2856.23017053
  Force two-norm initial, final = 1.05287e-12 1.05287e-12
  Force max component initial, final = 8.23678e-14 8.23678e-14
  Final line search alpha, max atom move = 0 0
  Iterations, force evaluations = 0 0

Pair  time (%) = 0.000325027 (93.4001)
Neigh time (%) = 0 (0)
Comm  time (%) = 1.51491e-05 (4.35327)
Outpt time (%) = 0 (0)
Other time (%) = 7.8181e-06 (2.24662)

Nlocal:    484 ave 484 max 484 min
Histogram: 1 0 0 0 0 0 0 0 0 0
Nghost:    3061 ave 3061 max 3061 min
Histogram: 1 0 0 0 0 0 0 0 0 0
Neighs:    13320 ave 13320 max 13320 min
Histogram: 1 0 0 0 0 0 0 0 0 0

Total # of neighbors = 13320
Ave neighs/atom = 27.5207
Neighbor list builds = 0
Dangerous builds = 0
	# write_dump all atom ${dumpfile}
        next i
jump SELF loop1
        displace_atoms upper move 0.0 ${ystep1} 0.0 units lattice
        displace_atoms upper move 0.0 0.00288675134594812 0.0 units lattice
        min_style ${style}
        min_style hftn
        minimize ${etol} ${ftol} ${maxiter} ${maxeval}
        minimize 1e-12 ${ftol} ${maxiter} ${maxeval}
        minimize 1e-12 1e-08 ${maxiter} ${maxeval}
        minimize 1e-12 1e-08 10000 ${maxeval}
        minimize 1e-12 1e-08 10000 20000
WARNING: Resetting reneighboring criteria during minimization (../min.cpp:168)
Memory usage per processor = 5.00998 Mbytes
Step Temp PotEng Lx Ly Lz 
      14            0   -2855.7033    3.6659457    58.560996    2.2449241 
Loop time of 0.00136292 on 1 procs for 0 steps with 484 atoms

Minimization stats:
  Stopping criterion = force tolerance
  Energy initial, next-to-last, final = 
        -2855.70325495     -2855.70325495     -2855.70325495
  Force two-norm initial, final = 1.054e-12 1.054e-12
  Force max component initial, final = 8.23678e-14 8.23678e-14
  Final line search alpha, max atom move = 0 0
  Iterations, force evaluations = 0 0

Pair  time (%) = 0.00129795 (95.2332)
Neigh time (%) = 0 (0)
Comm  time (%) = 3.70148e-05 (2.71585)
Outpt time (%) = 0 (0)
Other time (%) = 2.79524e-05 (2.05092)

Nlocal:    484 ave 484 max 484 min
Histogram: 1 0 0 0 0 0 0 0 0 0
Nghost:    3061 ave 3061 max 3061 min
Histogram: 1 0 0 0 0 0 0 0 0 0
Neighs:    13320 ave 13320 max 13320 min
Histogram: 1 0 0 0 0 0 0 0 0 0

Total # of neighbors = 13320
Ave neighs/atom = 27.5207
Neighbor list builds = 0
Dangerous builds = 0
	# write_dump all atom ${dumpfile}
        next i
jump SELF loop1
        displace_atoms upper move 0.0 ${ystep1} 0.0 units lattice
        displace_atoms upper move 0.0 0.00288675134594812 0.0 units lattice
        min_style ${style}
        min_style hftn
        minimize ${etol} ${ftol} ${maxiter} ${maxeval}
        minimize 1e-12 ${ftol} ${maxiter} ${maxeval}
        minimize 1e-12 1e-08 ${maxiter} ${maxeval}
        minimize 1e-12 1e-08 10000 ${maxeval}
        minimize 1e-12 1e-08 10000 20000
WARNING: Resetting reneighboring criteria during minimization (../min.cpp:168)
Memory usage per processor = 5.00998 Mbytes
Step Temp PotEng Lx Ly Lz 
      14            0   -2855.2274    3.6659457    58.566609    2.2449241 
Loop time of 0.000430079 on 1 procs for 0 steps with 484 atoms

Minimization stats:
  Stopping criterion = force tolerance
  Energy initial, next-to-last, final = 
        -2855.22742258     -2855.22742258     -2855.22742258
  Force two-norm initial, final = 1.05646e-12 1.05646e-12
  Force max component initial, final = 8.23678e-14 8.23678e-14
  Final line search alpha, max atom move = 0 0
  Iterations, force evaluations = 0 0

Pair  time (%) = 0.000409112 (95.1248)
Neigh time (%) = 0 (0)
Comm  time (%) = 1.39193e-05 (3.23645)
Outpt time (%) = 0 (0)
Other time (%) = 7.0479e-06 (1.63874)

Nlocal:    484 ave 484 max 484 min
Histogram: 1 0 0 0 0 0 0 0 0 0
Nghost:    3061 ave 3061 max 3061 min
Histogram: 1 0 0 0 0 0 0 0 0 0
Neighs:    13320 ave 13320 max 13320 min
Histogram: 1 0 0 0 0 0 0 0 0 0

Total # of neighbors = 13320
Ave neighs/atom = 27.5207
Neighbor list builds = 0
Dangerous builds = 0
	# write_dump all atom ${dumpfile}
        next i
jump SELF loop1
        displace_atoms upper move 0.0 ${ystep1} 0.0 units lattice
        displace_atoms upper move 0.0 0.00288675134594812 0.0 units lattice
        min_style ${style}
        min_style hftn
        minimize ${etol} ${ftol} ${maxiter} ${maxeval}
        minimize 1e-12 ${ftol} ${maxiter} ${maxeval}
        minimize 1e-12 1e-08 ${maxiter} ${maxeval}
        minimize 1e-12 1e-08 10000 ${maxeval}
        minimize 1e-12 1e-08 10000 20000
WARNING: Resetting reneighboring criteria during minimization (../min.cpp:168)
Memory usage per processor = 5.00998 Mbytes
Step Temp PotEng Lx Ly Lz 
      14            0   -2854.8073    3.6659457    58.572221    2.2449241 
Loop time of 0.000385054 on 1 procs for 0 steps with 484 atoms

Minimization stats:
  Stopping criterion = force tolerance
  Energy initial, next-to-last, final = 
        -2854.80726397     -2854.80726397     -2854.80726397
  Force two-norm initial, final = 1.05476e-12 1.05476e-12
  Force max component initial, final = 8.23678e-14 8.23678e-14
  Final line search alpha, max atom move = 0 0
  Iterations, force evaluations = 0 0

Pair  time (%) = 0.000364087 (94.5547)
Neigh time (%) = 0 (0)
Comm  time (%) = 1.49306e-05 (3.87753)
Outpt time (%) = 0 (0)
Other time (%) = 6.0366e-06 (1.56773)

Nlocal:    484 ave 484 max 484 min
Histogram: 1 0 0 0 0 0 0 0 0 0
Nghost:    3061 ave 3061 max 3061 min
Histogram: 1 0 0 0 0 0 0 0 0 0
Neighs:    13320 ave 13320 max 13320 min
Histogram: 1 0 0 0 0 0 0 0 0 0

Total # of neighbors = 13320
Ave neighs/atom = 27.5207
Neighbor list builds = 0
Dangerous builds = 0
	# write_dump all atom ${dumpfile}
        next i
jump SELF loop1
        displace_atoms upper move 0.0 ${ystep1} 0.0 units lattice
        displace_atoms upper move 0.0 0.00288675134594812 0.0 units lattice
        min_style ${style}
        min_style hftn
        minimize ${etol} ${ftol} ${maxiter} ${maxeval}
        minimize 1e-12 ${ftol} ${maxiter} ${maxeval}
        minimize 1e-12 1e-08 ${maxiter} ${maxeval}
        minimize 1e-12 1e-08 10000 ${maxeval}
        minimize 1e-12 1e-08 10000 20000
WARNING: Resetting reneighboring criteria during minimization (../min.cpp:168)
Memory usage per processor = 5.00998 Mbytes
Step Temp PotEng Lx Ly Lz 
      14            0   -2854.4474    3.6659457    58.577833    2.2449241 
Loop time of 0.00038006 on 1 procs for 0 steps with 484 atoms

Minimization stats:
  Stopping criterion = force tolerance
  Energy initial, next-to-last, final = 
        -2854.44740088     -2854.44740088     -2854.44740088
  Force two-norm initial, final = 1.0534e-12 1.0534e-12
  Force max component initial, final = 8.23678e-14 8.23678e-14
  Final line search alpha, max atom move = 0 0
  Iterations, force evaluations = 0 0

Pair  time (%) = 0.0003559 (93.6433)
Neigh time (%) = 0 (0)
Comm  time (%) = 1.58551e-05 (4.17173)
Outpt time (%) = 0 (0)
Other time (%) = 8.30425e-06 (2.18499)

Nlocal:    484 ave 484 max 484 min
Histogram: 1 0 0 0 0 0 0 0 0 0
Nghost:    3061 ave 3061 max 3061 min
Histogram: 1 0 0 0 0 0 0 0 0 0
Neighs:    13320 ave 13320 max 13320 min
Histogram: 1 0 0 0 0 0 0 0 0 0

Total # of neighbors = 13320
Ave neighs/atom = 27.5207
Neighbor list builds = 0
Dangerous builds = 0
	# write_dump all atom ${dumpfile}
        next i
jump SELF loop1
        displace_atoms upper move 0.0 ${ystep1} 0.0 units lattice
        displace_atoms upper move 0.0 0.00288675134594812 0.0 units lattice
        min_style ${style}
        min_style hftn
        minimize ${etol} ${ftol} ${maxiter} ${maxeval}
        minimize 1e-12 ${ftol} ${maxiter} ${maxeval}
        minimize 1e-12 1e-08 ${maxiter} ${maxeval}
        minimize 1e-12 1e-08 10000 ${maxeval}
        minimize 1e-12 1e-08 10000 20000
WARNING: Resetting reneighboring criteria during minimization (../min.cpp:168)
Memory usage per processor = 5.00998 Mbytes
Step Temp PotEng Lx Ly Lz 
      14            0   -2854.1475    3.6659457    58.583446    2.2449241 
Loop time of 0.000346096 on 1 procs for 0 steps with 484 atoms

Minimization stats:
  Stopping criterion = force tolerance
  Energy initial, next-to-last, final = 
        -2854.14750893     -2854.14750893     -2854.14750893
  Force two-norm initial, final = 1.05476e-12 1.05476e-12
  Force max component initial, final = 8.23678e-14 8.23678e-14
  Final line search alpha, max atom move = 0 0
  Iterations, force evaluations = 0 0

Pair  time (%) = 0.00032289 (93.295)
Neigh time (%) = 0 (0)
Comm  time (%) = 1.50218e-05 (4.34035)
Outpt time (%) = 0 (0)
Other time (%) = 8.18388e-06 (2.36463)

Nlocal:    484 ave 484 max 484 min
Histogram: 1 0 0 0 0 0 0 0 0 0
Nghost:    3061 ave 3061 max 3061 min
Histogram: 1 0 0 0 0 0 0 0 0 0
Neighs:    13320 ave 13320 max 13320 min
Histogram: 1 0 0 0 0 0 0 0 0 0

Total # of neighbors = 13320
Ave neighs/atom = 27.5207
Neighbor list builds = 0
Dangerous builds = 0
	# write_dump all atom ${dumpfile}
        next i
jump SELF loop1
        displace_atoms upper move 0.0 ${ystep1} 0.0 units lattice
        displace_atoms upper move 0.0 0.00288675134594812 0.0 units lattice
        min_style ${style}
        min_style hftn
        minimize ${etol} ${ftol} ${maxiter} ${maxeval}
        minimize 1e-12 ${ftol} ${maxiter} ${maxeval}
        minimize 1e-12 1e-08 ${maxiter} ${maxeval}
        minimize 1e-12 1e-08 10000 ${maxeval}
        minimize 1e-12 1e-08 10000 20000
WARNING: Resetting reneighboring criteria during minimization (../min.cpp:168)
Memory usage per processor = 5.00998 Mbytes
Step Temp PotEng Lx Ly Lz 
      14            0   -2853.8956    3.6659457    58.589058    2.2449241 
Loop time of 0.000378923 on 1 procs for 0 steps with 484 atoms

Minimization stats:
  Stopping criterion = force tolerance
  Energy initial, next-to-last, final = 
        -2853.89560831     -2853.89560831     -2853.89560831
  Force two-norm initial, final = 1.05575e-12 1.05575e-12
  Force max component initial, final = 8.23678e-14 8.23678e-14
  Final line search alpha, max atom move = 0 0
  Iterations, force evaluations = 0 0

Pair  time (%) = 0.000356956 (94.2027)
Neigh time (%) = 0 (0)
Comm  time (%) = 1.40592e-05 (3.71031)
Outpt time (%) = 0 (0)
Other time (%) = 7.90809e-06 (2.08699)

Nlocal:    484 ave 484 max 484 min
Histogram: 1 0 0 0 0 0 0 0 0 0
Nghost:    3061 ave 3061 max 3061 min
Histogram: 1 0 0 0 0 0 0 0 0 0
Neighs:    13320 ave 13320 max 13320 min
Histogram: 1 0 0 0 0 0 0 0 0 0

Total # of neighbors = 13320
Ave neighs/atom = 27.5207
Neighbor list builds = 0
Dangerous builds = 0
	# write_dump all atom ${dumpfile}
        next i
jump SELF loop1
[...]
Histogram: 1 0 0 0 0 0 0 0 0 0
Nghost:    3061 ave 3061 max 3061 min
Histogram: 1 0 0 0 0 0 0 0 0 0
Neighs:    13160 ave 13160 max 13160 min
Histogram: 1 0 0 0 0 0 0 0 0 0

Total # of neighbors = 13160
Ave neighs/atom = 27.1901
Neighbor list builds = 0
Dangerous builds = 0
	# write_dump all atom ${dumpfile}
        next i
jump SELF loop1
        displace_atoms upper move 0.0 ${ystep1} 0.0 units lattice
        displace_atoms upper move 0.0 0.00288675134594812 0.0 units lattice
        min_style ${style}
        min_style hftn
        minimize ${etol} ${ftol} ${maxiter} ${maxeval}
        minimize 1e-12 ${ftol} ${maxiter} ${maxeval}
        minimize 1e-12 1e-08 ${maxiter} ${maxeval}
        minimize 1e-12 1e-08 10000 ${maxeval}
        minimize 1e-12 1e-08 10000 20000
WARNING: Resetting reneighboring criteria during minimization (../min.cpp:168)
Memory usage per processor = 5.01094 Mbytes
Step Temp PotEng Lx Ly Lz 
      14            0   -2851.9976    3.6659457    59.964074    2.2449241 
Loop time of 0.000368086 on 1 procs for 0 steps with 484 atoms

Minimization stats:
  Stopping criterion = force tolerance
  Energy initial, next-to-last, final = 
         -2851.9976285      -2851.9976285      -2851.9976285
  Force two-norm initial, final = 1.05518e-12 1.05518e-12
  Force max component initial, final = 8.23678e-14 8.23678e-14
  Final line search alpha, max atom move = 0 0
  Iterations, force evaluations = 0 0

Pair  time (%) = 0.000347119 (94.3037)
Neigh time (%) = 0 (0)
Comm  time (%) = 1.29213e-05 (3.5104)
Outpt time (%) = 0 (0)
Other time (%) = 8.04604e-06 (2.18591)

Nlocal:    484 ave 484 max 484 min
Histogram: 1 0 0 0 0 0 0 0 0 0
Nghost:    3061 ave 3061 max 3061 min
Histogram: 1 0 0 0 0 0 0 0 0 0
Neighs:    13160 ave 13160 max 13160 min
Histogram: 1 0 0 0 0 0 0 0 0 0

Total # of neighbors = 13160
Ave neighs/atom = 27.1901
Neighbor list builds = 0
Dangerous builds = 0
	# write_dump all atom ${dumpfile}
        next i
jump SELF loop1
        displace_atoms upper move 0.0 ${ystep1} 0.0 units lattice
        displace_atoms upper move 0.0 0.00288675134594812 0.0 units lattice
        min_style ${style}
        min_style hftn
        minimize ${etol} ${ftol} ${maxiter} ${maxeval}
        minimize 1e-12 ${ftol} ${maxiter} ${maxeval}
        minimize 1e-12 1e-08 ${maxiter} ${maxeval}
        minimize 1e-12 1e-08 10000 ${maxeval}
        minimize 1e-12 1e-08 10000 20000
WARNING: Resetting reneighboring criteria during minimization (../min.cpp:168)
Memory usage per processor = 5.01094 Mbytes
Step Temp PotEng Lx Ly Lz 
      14            0   -2851.9976    3.6659457    59.969686    2.2449241 
Loop time of 0.000367104 on 1 procs for 0 steps with 484 atoms

Minimization stats:
  Stopping criterion = force tolerance
  Energy initial, next-to-last, final = 
         -2851.9976285      -2851.9976285      -2851.9976285
  Force two-norm initial, final = 1.05384e-12 1.05384e-12
  Force max component initial, final = 8.23678e-14 8.23678e-14
  Final line search alpha, max atom move = 0 0
  Iterations, force evaluations = 0 0

Pair  time (%) = 0.000345898 (94.2235)
Neigh time (%) = 0 (0)
Comm  time (%) = 1.49114e-05 (4.0619)
Outpt time (%) = 0 (0)
Other time (%) = 6.29423e-06 (1.71456)

Nlocal:    484 ave 484 max 484 min
Histogram: 1 0 0 0 0 0 0 0 0 0
Nghost:    3061 ave 3061 max 3061 min
Histogram: 1 0 0 0 0 0 0 0 0 0
Neighs:    13160 ave 13160 max 13160 min
Histogram: 1 0 0 0 0 0 0 0 0 0

Total # of neighbors = 13160
Ave neighs/atom = 27.1901
Neighbor list builds = 0
Dangerous builds = 0
	# write_dump all atom ${dumpfile}
        next i
jump SELF loop1
        displace_atoms upper move 0.0 ${ystep1} 0.0 units lattice
        displace_atoms upper move 0.0 0.00288675134594812 0.0 units lattice
        min_style ${style}
        min_style hftn
        minimize ${etol} ${ftol} ${maxiter} ${maxeval}
        minimize 1e-12 ${ftol} ${maxiter} ${maxeval}
        minimize 1e-12 1e-08 ${maxiter} ${maxeval}
        minimize 1e-12 1e-08 10000 ${maxeval}
        minimize 1e-12 1e-08 10000 20000
WARNING: Resetting reneighboring criteria during minimization (../min.cpp:168)
Memory usage per processor = 5.01094 Mbytes
Step Temp PotEng Lx Ly Lz 
      14            0   -2851.9976    3.6659457    59.975298    2.2449241 
Loop time of 0.000391103 on 1 procs for 0 steps with 484 atoms

Minimization stats:
  Stopping criterion = force tolerance
  Energy initial, next-to-last, final = 
         -2851.9976285      -2851.9976285      -2851.9976285
  Force two-norm initial, final = 1.0525e-12 1.0525e-12
  Force max component initial, final = 8.23678e-14 8.23678e-14
  Final line search alpha, max atom move = 0 0
  Iterations, force evaluations = 0 0

Pair  time (%) = 0.000355944 (91.0102)
Neigh time (%) = 0 (0)
Comm  time (%) = 2.69423e-05 (6.88881)
Outpt time (%) = 0 (0)
Other time (%) = 8.21694e-06 (2.10097)

Nlocal:    484 ave 484 max 484 min
Histogram: 1 0 0 0 0 0 0 0 0 0
Nghost:    3061 ave 3061 max 3061 min
Histogram: 1 0 0 0 0 0 0 0 0 0
Neighs:    13160 ave 13160 max 13160 min
Histogram: 1 0 0 0 0 0 0 0 0 0

Total # of neighbors = 13160
Ave neighs/atom = 27.1901
Neighbor list builds = 0
Dangerous builds = 0
	# write_dump all atom ${dumpfile}
        next i
jump SELF loop1
        displace_atoms upper move 0.0 ${ystep1} 0.0 units lattice
        displace_atoms upper move 0.0 0.00288675134594812 0.0 units lattice
        min_style ${style}
        min_style hftn
        minimize ${etol} ${ftol} ${maxiter} ${maxeval}
        minimize 1e-12 ${ftol} ${maxiter} ${maxeval}
        minimize 1e-12 1e-08 ${maxiter} ${maxeval}
        minimize 1e-12 1e-08 10000 ${maxeval}
        minimize 1e-12 1e-08 10000 20000
WARNING: Resetting reneighboring criteria during minimization (../min.cpp:168)
Memory usage per processor = 5.01094 Mbytes
Step Temp PotEng Lx Ly Lz 
      14            0   -2851.9976    3.6659457    59.980911    2.2449241 
Loop time of 0.000292033 on 1 procs for 0 steps with 484 atoms

Minimization stats:
  Stopping criterion = force tolerance
  Energy initial, next-to-last, final = 
         -2851.9976285      -2851.9976285      -2851.9976285
  Force two-norm initial, final = 1.05652e-12 1.05652e-12
  Force max component initial, final = 8.23678e-14 8.23678e-14
  Final line search alpha, max atom move = 0 0
  Iterations, force evaluations = 0 0

Pair  time (%) = 0.000281066 (96.2445)
Neigh time (%) = 0 (0)
Comm  time (%) = 6.8571e-06 (2.34806)
Outpt time (%) = 0 (0)
Other time (%) = 4.11016e-06 (1.40743)

Nlocal:    484 ave 484 max 484 min
Histogram: 1 0 0 0 0 0 0 0 0 0
Nghost:    3061 ave 3061 max 3061 min
Histogram: 1 0 0 0 0 0 0 0 0 0
Neighs:    13160 ave 13160 max 13160 min
Histogram: 1 0 0 0 0 0 0 0 0 0

Total # of neighbors = 13160
Ave neighs/atom = 27.1901
Neighbor list builds = 0
Dangerous builds = 0
	# write_dump all atom ${dumpfile}
        next i
jump SELF loop1
        displace_atoms upper move 0.0 ${ystep1} 0.0 units lattice
        displace_atoms upper move 0.0 0.00288675134594812 0.0 units lattice
        min_style ${style}
        min_style hftn
        minimize ${etol} ${ftol} ${maxiter} ${maxeval}
        minimize 1e-12 ${ftol} ${maxiter} ${maxeval}
        minimize 1e-12 1e-08 ${maxiter} ${maxeval}
        minimize 1e-12 1e-08 10000 ${maxeval}
        minimize 1e-12 1e-08 10000 20000
WARNING: Resetting reneighboring criteria during minimization (../min.cpp:168)
Memory usage per processor = 5.01094 Mbytes
Step Temp PotEng Lx Ly Lz 
      14            0   -2851.9976    3.6659457    59.986523    2.2449241 
Loop time of 0.000367937 on 1 procs for 0 steps with 484 atoms

Minimization stats:
  Stopping criterion = force tolerance
  Energy initial, next-to-last, final = 
         -2851.9976285      -2851.9976285      -2851.9976285
  Force two-norm initial, final = 1.05652e-12 1.05652e-12
  Force max component initial, final = 8.23678e-14 8.23678e-14
  Final line search alpha, max atom move = 0 0
  Iterations, force evaluations = 0 0

Pair  time (%) = 0.00034697 (94.3014)
Neigh time (%) = 0 (0)
Comm  time (%) = 1.41006e-05 (3.83233)
Outpt time (%) = 0 (0)
Other time (%) = 6.86664e-06 (1.86625)

Nlocal:    484 ave 484 max 484 min
Histogram: 1 0 0 0 0 0 0 0 0 0
Nghost:    3061 ave 3061 max 3061 min
Histogram: 1 0 0 0 0 0 0 0 0 0
Neighs:    13160 ave 13160 max 13160 min
Histogram: 1 0 0 0 0 0 0 0 0 0

Total # of neighbors = 13160
Ave neighs/atom = 27.1901
Neighbor list builds = 0
Dangerous builds = 0
	# write_dump all atom ${dumpfile}
        next i
jump SELF loop1
        displace_atoms upper move 0.0 ${ystep1} 0.0 units lattice
        displace_atoms upper move 0.0 0.00288675134594812 0.0 units lattice
        min_style ${style}
        min_style hftn
        minimize ${etol} ${ftol} ${maxiter} ${maxeval}
        minimize 1e-12 ${ftol} ${maxiter} ${maxeval}
        minimize 1e-12 1e-08 ${maxiter} ${maxeval}
        minimize 1e-12 1e-08 10000 ${maxeval}
        minimize 1e-12 1e-08 10000 20000
WARNING: Resetting reneighboring criteria during minimization (../min.cpp:168)
Memory usage per processor = 5.01094 Mbytes
Step Temp PotEng Lx Ly Lz 
      14            0   -2851.9976    3.6659457    59.992135    2.2449241 
Loop time of 0.000377067 on 1 procs for 0 steps with 484 atoms

Minimization stats:
  Stopping criterion = force tolerance
  Energy initial, next-to-last, final = 
         -2851.9976285      -2851.9976285      -2851.9976285
  Force two-norm initial, final = 1.05518e-12 1.05518e-12
  Force max component initial, final = 8.23678e-14 8.23678e-14
  Final line search alpha, max atom move = 0 0
  Iterations, force evaluations = 0 0

Pair  time (%) = 0.000355099 (94.1741)
Neigh time (%) = 0 (0)
Comm  time (%) = 1.5015e-05 (3.98206)
Outpt time (%) = 0 (0)
Other time (%) = 6.95232e-06 (1.84379)

Nlocal:    484 ave 484 max 484 min
Histogram: 1 0 0 0 0 0 0 0 0 0
Nghost:    3061 ave 3061 max 3061 min
Histogram: 1 0 0 0 0 0 0 0 0 0
Neighs:    13160 ave 13160 max 13160 min
Histogram: 1 0 0 0 0 0 0 0 0 0

Total # of neighbors = 13160
Ave neighs/atom = 27.1901
Neighbor list builds = 0
Dangerous builds = 0
	# write_dump all atom ${dumpfile}
        next i
jump SELF loop1
        displace_atoms upper move 0.0 ${ystep1} 0.0 units lattice
        displace_atoms upper move 0.0 0.00288675134594812 0.0 units lattice
        min_style ${style}
        min_style hftn
        minimize ${etol} ${ftol} ${maxiter} ${maxeval}
        minimize 1e-12 ${ftol} ${maxiter} ${maxeval}
        minimize 1e-12 1e-08 ${maxiter} ${maxeval}
        minimize 1e-12 1e-08 10000 ${maxeval}
        minimize 1e-12 1e-08 10000 20000
WARNING: Resetting reneighboring criteria during minimization (../min.cpp:168)
Memory usage per processor = 5.01094 Mbytes
Step Temp PotEng Lx Ly Lz 
      14            0   -2851.9976    3.6659457    59.997748    2.2449241 
Loop time of 0.000367889 on 1 procs for 0 steps with 484 atoms

Minimization stats:
  Stopping criterion = force tolerance
  Energy initial, next-to-last, final = 
         -2851.9976285      -2851.9976285      -2851.9976285
  Force two-norm initial, final = 1.05384e-12 1.05384e-12
  Force max component initial, final = 8.23678e-14 8.23678e-14
  Final line search alpha, max atom move = 0 0
  Iterations, force evaluations = 0 0

Pair  time (%) = 0.000346922 (94.3007)
Neigh time (%) = 0 (0)
Comm  time (%) = 1.30053e-05 (3.53512)
Outpt time (%) = 0 (0)
Other time (%) = 7.96188e-06 (2.1642)

Nlocal:    484 ave 484 max 484 min
Histogram: 1 0 0 0 0 0 0 0 0 0
Nghost:    3061 ave 3061 max 3061 min
Histogram: 1 0 0 0 0 0 0 0 0 0
Neighs:    13160 ave 13160 max 13160 min
Histogram: 1 0 0 0 0 0 0 0 0 0

Total # of neighbors = 13160
Ave neighs/atom = 27.1901
Neighbor list builds = 0
Dangerous builds = 0
	# write_dump all atom ${dumpfile}
        next i
jump SELF loop1
        displace_atoms upper move 0.0 ${ystep1} 0.0 units lattice
        displace_atoms upper move 0.0 0.00288675134594812 0.0 units lattice
        min_style ${style}
        min_style hftn
        minimize ${etol} ${ftol} ${maxiter} ${maxeval}
        minimize 1e-12 ${ftol} ${maxiter} ${maxeval}
        minimize 1e-12 1e-08 ${maxiter} ${maxeval}
        minimize 1e-12 1e-08 10000 ${maxeval}
        minimize 1e-12 1e-08 10000 20000
WARNING: Resetting reneighboring criteria during minimization (../min.cpp:168)
Memory usage per processor = 5.01094 Mbytes
Step Temp PotEng Lx Ly Lz 
      14            0   -2851.9976    3.6659457     60.00336    2.2449241 
Loop time of 0.000369025 on 1 procs for 0 steps with 484 atoms

Minimization stats:
  Stopping criterion = force tolerance
  Energy initial, next-to-last, final = 
         -2851.9976285      -2851.9976285      -2851.9976285
  Force two-norm initial, final = 1.0525e-12 1.0525e-12
  Force max component initial, final = 8.23678e-14 8.23678e-14
  Final line search alpha, max atom move = 0 0
  Iterations, force evaluations = 0 0

Pair  time (%) = 0.000348057 (94.3182)
Neigh time (%) = 0 (0)
Comm  time (%) = 1.30836e-05 (3.54545)
Outpt time (%) = 0 (0)
Other time (%) = 7.88376e-06 (2.13638)

Nlocal:    484 ave 484 max 484 min
Histogram: 1 0 0 0 0 0 0 0 0 0
Nghost:    3061 ave 3061 max 3061 min
Histogram: 1 0 0 0 0 0 0 0 0 0
Neighs:    13160 ave 13160 max 13160 min
Histogram: 1 0 0 0 0 0 0 0 0 0

Total # of neighbors = 13160
Ave neighs/atom = 27.1901
Neighbor list builds = 0
Dangerous builds = 0
	# write_dump all atom ${dumpfile}
        next i
jump SELF loop1
        displace_atoms upper move 0.0 ${ystep1} 0.0 units lattice
        displace_atoms upper move 0.0 0.00288675134594812 0.0 units lattice
        min_style ${style}
        min_style hftn
        minimize ${etol} ${ftol} ${maxiter} ${maxeval}
        minimize 1e-12 ${ftol} ${maxiter} ${maxeval}
        minimize 1e-12 1e-08 ${maxiter} ${maxeval}
        minimize 1e-12 1e-08 10000 ${maxeval}
        minimize 1e-12 1e-08 10000 20000
WARNING: Resetting reneighboring criteria during minimization (../min.cpp:168)
Memory usage per processor = 5.01094 Mbytes
Step Temp PotEng Lx Ly Lz 
      14            0   -2851.9976    3.6659457    60.008972    2.2449241 
Loop time of 0.000290899 on 1 procs for 0 steps with 484 atoms

Minimization stats:
  Stopping criterion = force tolerance
  Energy initial, next-to-last, final = 
         -2851.9976285      -2851.9976285      -2851.9976285
  Force two-norm initial, final = 1.05652e-12 1.05652e-12
  Force max component initial, final = 8.23678e-14 8.23678e-14
  Final line search alpha, max atom move = 0 0
  Iterations, force evaluations = 0 0

Pair  time (%) = 0.000279899 (96.2186)
Neigh time (%) = 0 (0)
Comm  time (%) = 7.89471e-06 (2.7139)
Outpt time (%) = 0 (0)
Other time (%) = 3.10526e-06 (1.06747)

Nlocal:    484 ave 484 max 484 min
Histogram: 1 0 0 0 0 0 0 0 0 0
Nghost:    3061 ave 3061 max 3061 min
Histogram: 1 0 0 0 0 0 0 0 0 0
Neighs:    13160 ave 13160 max 13160 min
Histogram: 1 0 0 0 0 0 0 0 0 0

Total # of neighbors = 13160
Ave neighs/atom = 27.1901
Neighbor list builds = 0
Dangerous builds = 0
	# write_dump all atom ${dumpfile}
        next i
jump SELF loop1
        displace_atoms upper move 0.0 ${ystep1} 0.0 units lattice
        displace_atoms upper move 0.0 0.00288675134594812 0.0 units lattice
        min_style ${style}
        min_style hftn
        minimize ${etol} ${ftol} ${maxiter} ${maxeval}
        minimize 1e-12 ${ftol} ${maxiter} ${maxeval}
        minimize 1e-12 1e-08 ${maxiter} ${maxeval}
        minimize 1e-12 1e-08 10000 ${maxeval}
        minimize 1e-12 1e-08 10000 20000
WARNING: Resetting reneighboring criteria during minimization (../min.cpp:168)
Memory usage per processor = 5.01094 Mbytes
Step Temp PotEng Lx Ly Lz 
      14            0   -2851.9976    3.6659457    60.014585    2.2449241 
Loop time of 0.000369014 on 1 procs for 0 steps with 484 atoms

Minimization stats:
  Stopping criterion = force tolerance
  Energy initial, next-to-last, final = 
         -2851.9976285      -2851.9976285      -2851.9976285
  Force two-norm initial, final = 1.05652e-12 1.05652e-12
  Force max component initial, final = 8.23678e-14 8.23678e-14
  Final line search alpha, max atom move = 0 0
  Iterations, force evaluations = 0 0

Pair  time (%) = 0.000346093 (93.7886)
Neigh time (%) = 0 (0)
Comm  time (%) = 1.50156e-05 (4.06912)
Outpt time (%) = 0 (0)
Other time (%) = 7.9053e-06 (2.14228)

Nlocal:    484 ave 484 max 484 min
Histogram: 1 0 0 0 0 0 0 0 0 0
Nghost:    3061 ave 3061 max 3061 min
Histogram: 1 0 0 0 0 0 0 0 0 0
Neighs:    13160 ave 13160 max 13160 min
Histogram: 1 0 0 0 0 0 0 0 0 0

Total # of neighbors = 13160
Ave neighs/atom = 27.1901
Neighbor list builds = 0
Dangerous builds = 0
	# write_dump all atom ${dumpfile}
        next i
jump SELF loop1
        displace_atoms upper move 0.0 ${ystep1} 0.0 units lattice
        displace_atoms upper move 0.0 0.00288675134594812 0.0 units lattice
        min_style ${style}
        min_style hftn
        minimize ${etol} ${ftol} ${maxiter} ${maxeval}
        minimize 1e-12 ${ftol} ${maxiter} ${maxeval}
        minimize 1e-12 1e-08 ${maxiter} ${maxeval}
        minimize 1e-12 1e-08 10000 ${maxeval}
        minimize 1e-12 1e-08 10000 20000
WARNING: Resetting reneighboring criteria during minimization (../min.cpp:168)
Memory usage per processor = 5.01094 Mbytes
Step Temp PotEng Lx Ly Lz 
      14            0   -2851.9976    3.6659457    60.020197    2.2449241 
Loop time of 0.0029951 on 1 procs for 0 steps with 484 atoms

Minimization stats:
  Stopping criterion = force tolerance
  Energy initial, next-to-last, final = 
         -2851.9976285      -2851.9976285      -2851.9976285
  Force two-norm initial, final = 1.05518e-12 1.05518e-12
  Force max component initial, final = 8.23678e-14 8.23678e-14
  Final line search alpha, max atom move = 0 0
  Iterations, force evaluations = 0 0

Pair  time (%) = 0.000165916 (5.53958)
Neigh time (%) = 0 (0)
Comm  time (%) = 0.00280802 (93.7537)
Outpt time (%) = 0 (0)
Other time (%) = 2.1167e-05 (0.70672)

Nlocal:    484 ave 484 max 484 min
Histogram: 1 0 0 0 0 0 0 0 0 0
Nghost:    3061 ave 3061 max 3061 min
Histogram: 1 0 0 0 0 0 0 0 0 0
Neighs:    13160 ave 13160 max 13160 min
Histogram: 1 0 0 0 0 0 0 0 0 0

Total # of neighbors = 13160
Ave neighs/atom = 27.1901
Neighbor list builds = 0
Dangerous builds = 0
	# write_dump all atom ${dumpfile}
        next i
jump SELF loop1

# allow atoms to relax in y-direction, now that two halves have separated
unfix 2
min_style ${style}
min_style hftn
minimize ${etol} ${ftol} ${maxiter} ${maxeval}
minimize 1e-12 ${ftol} ${maxiter} ${maxeval}
minimize 1e-12 1e-08 ${maxiter} ${maxeval}
minimize 1e-12 1e-08 10000 ${maxeval}
minimize 1e-12 1e-08 10000 20000
WARNING: Resetting reneighboring criteria during minimization (../min.cpp:168)
Memory usage per processor = 5.01094 Mbytes
Step Temp PotEng Lx Ly Lz 
      14            0   -2851.9976    3.6659457    60.020197    2.2449241 
      15            0   -2851.9977    3.6659457    60.020197    2.2449241 
      16            0   -2851.9977    3.6659457    60.020197    2.2449241 
Loop time of 0.089462 on 1 procs for 1 steps with 484 atoms

Minimization stats:
  Stopping criterion = force tolerance
  Energy initial, next-to-last, final = 
         -2851.9976285      -2851.9976285     -2851.99768125
  Force two-norm initial, final = 0.00173607 1.02448e-10
  Force max component initial, final = 0.000372168 2.51606e-11
  Final line search alpha, max atom move = 0 0
  Iterations, force evaluations = 1 219

Pair  time (%) = 0.076988 (86.0567)
Neigh time (%) = 0 (0)
Comm  time (%) = 0.0059545 (6.6559)
Outpt time (%) = 1.6883e-05 (0.0188717)
Other time (%) = 0.0065026 (7.26857)

Nlocal:    484 ave 484 max 484 min
Histogram: 1 0 0 0 0 0 0 0 0 0
Nghost:    3061 ave 3061 max 3061 min
Histogram: 1 0 0 0 0 0 0 0 0 0
Neighs:    13160 ave 13160 max 13160 min
Histogram: 1 0 0 0 0 0 0 0 0 0

Total # of neighbors = 13160
Ave neighs/atom = 27.1901
Neighbor list builds = 0
Dangerous builds = 0

write_dump all atom ${dumpfile}
write_dump all atom surf_V_brittle_3d.*.dump


