LAMMPS (28 Jun 2014)
# attempt at getting surface energy

#file prefix
variable prefix string surf_V_ductilenewnorm
variable dumpfile string ${prefix}.*.dump
variable dumpfile string surf_V_ductilenewnorm.*.dump
variable restartfile string ${prefix}.*.equil
variable restartfile string surf_V_ductilenewnorm.*.equil

#Mass (g/mol)
variable m equal 1

# lattice constant (in Angstroms) and orientation of axes (given by lattice vectors)
variable rho equal 1.1547
variable x1 equal 1
variable x2 equal 0
variable x3 equal 0
variable y1 equal 0
variable y2 equal 1
variable y3 equal 0
# length of lattice in different directions (using orientation of lattice vectors)
variable ax equal sqrt(${x1}*${x1}+${x2}*${x2}+${x3}*${x3})
variable ax equal sqrt(1*${x1}+${x2}*${x2}+${x3}*${x3})
variable ax equal sqrt(1*1+${x2}*${x2}+${x3}*${x3})
variable ax equal sqrt(1*1+0*${x2}+${x3}*${x3})
variable ax equal sqrt(1*1+0*0+${x3}*${x3})
variable ax equal sqrt(1*1+0*0+0*${x3})
variable ax equal sqrt(1*1+0*0+0*0)
variable ay equal sqrt(${y1}*${y1}+${y2}*${y2}+${y3}*${y3})
variable ay equal sqrt(0*${y1}+${y2}*${y2}+${y3}*${y3})
variable ay equal sqrt(0*0+${y2}*${y2}+${y3}*${y3})
variable ay equal sqrt(0*0+1*${y2}+${y3}*${y3})
variable ay equal sqrt(0*0+1*1+${y3}*${y3})
variable ay equal sqrt(0*0+1*1+0*${y3})
variable ay equal sqrt(0*0+1*1+0*0)
variable az equal 1

# size of box in lattice units
variable lxpos equal 1
variable lxneg equal 0
variable lypos equal 10
variable lyneg equal -1*${lypos}
variable lyneg equal -1*10
variable lzpos equal 1
variable lzneg equal 0

# Define minimization parameters and damping
variable etol equal 1.0e-12
variable ftol equal 1.0e-8
variable maxiter equal 10000
variable maxeval equal 20000
variable style string cg

# boundary conditions
dimension	2
boundary	p s p
atom_style	atomic

# create geometry
units		lj
lattice         hex ${rho}
lattice         hex 1.1547
Lattice spacing in x,y,z = 1 1.73205 1
region		myregion block ${lxneg} ${lxpos} ${lyneg} ${lypos} ${lzneg} ${lzpos} units lattice
region		myregion block 0 ${lxpos} ${lyneg} ${lypos} ${lzneg} ${lzpos} units lattice
region		myregion block 0 1 ${lyneg} ${lypos} ${lzneg} ${lzpos} units lattice
region		myregion block 0 1 -10 ${lypos} ${lzneg} ${lzpos} units lattice
region		myregion block 0 1 -10 10 ${lzneg} ${lzpos} units lattice
region		myregion block 0 1 -10 10 0 ${lzpos} units lattice
region		myregion block 0 1 -10 10 0 1 units lattice
create_box	1 myregion
Created orthogonal box = (0 -17.3205 0) to (1 17.3205 1)
  1 by 1 by 1 MPI processor grid
create_atoms	1 box
Created 41 atoms

# define masses
mass * $m
mass * 1

# my fake/morse potential
pair_style      table linear 3001
pair_coeff      * * vpotential_ductilenewnorm dummy
neighbor	0.3 bin
neigh_modify	delay 5

# define groups
region	    upper block INF INF 0.01 ${lypos} INF INF units lattice
region	    upper block INF INF 0.01 10 INF INF units lattice
group		upper region upper
20 atoms in group upper

# Setup output
thermo 1
thermo_style custom step temp pe lx ly lz
thermo_modify norm no

# Compute initial state by relaxing box
min_style ${style}
min_style cg
minimize ${etol} ${ftol} ${maxiter} ${maxeval}
minimize 1e-12 ${ftol} ${maxiter} ${maxeval}
minimize 1e-12 1e-08 ${maxiter} ${maxeval}
minimize 1e-12 1e-08 10000 ${maxeval}
minimize 1e-12 1e-08 10000 20000
WARNING: Resetting reneighboring criteria during minimization (../min.cpp:168)
Memory usage per processor = 3.35952 Mbytes
Step Temp PotEng Lx Ly Lz 
       0            0   -120.99996    1.0000002    34.647952    1.0000002 
       1            0   -120.99996    1.0000002    34.647952    1.0000002 
Loop time of 8.19908e-05 on 1 procs for 1 steps with 41 atoms

Minimization stats:
  Stopping criterion = linesearch alpha is zero
  Energy initial, next-to-last, final = 
        -120.999955904     -120.999955904     -120.999955904
  Force two-norm initial, final = 4.32358e-06 4.32358e-06
  Force max component initial, final = 3.05723e-06 3.05723e-06
  Final line search alpha, max atom move = 0.5 1.52862e-06
  Iterations, force evaluations = 1 2

Pair  time (%) = 2.79443e-05 (34.0823)
Neigh time (%) = 0 (0)
Comm  time (%) = 4.04671e-06 (4.93557)
Outpt time (%) = 0 (0)
Other time (%) = 4.99998e-05 (60.9822)

Nlocal:    41 ave 41 max 41 min
Histogram: 1 0 0 0 0 0 0 0 0 0
Nghost:    185 ave 185 max 185 min
Histogram: 1 0 0 0 0 0 0 0 0 0
Neighs:    359 ave 359 max 359 min
Histogram: 1 0 0 0 0 0 0 0 0 0

Total # of neighbors = 359
Ave neighs/atom = 8.7561
Neighbor list builds = 0
Dangerous builds = 0

# don't allow atoms to relax in y-direction
fix 2 all setforce NULL 0.0 NULL

# Energy curve will have nstep steps
variable nsteps equal 500
variable sstep1 equal 1.0
variable ystep1 equal ${sstep1}/(${ay}*${nsteps})
variable ystep1 equal 1/(${ay}*${nsteps})
variable ystep1 equal 1/(1*${nsteps})
variable ystep1 equal 1/(1*500)

variable i loop ${nsteps}
variable i loop 500
label loop1
        displace_atoms upper move 0.0 ${ystep1} 0.0 units lattice
        displace_atoms upper move 0.0 0.002 0.0 units lattice
        min_style ${style}
        min_style cg
        minimize ${etol} ${ftol} ${maxiter} ${maxeval}
        minimize 1e-12 ${ftol} ${maxiter} ${maxeval}
        minimize 1e-12 1e-08 ${maxiter} ${maxeval}
        minimize 1e-12 1e-08 10000 ${maxeval}
        minimize 1e-12 1e-08 10000 20000
WARNING: Resetting reneighboring criteria during minimization (../min.cpp:168)
Memory usage per processor = 3.35952 Mbytes
Step Temp PotEng Lx Ly Lz 
       1            0   -120.99968    1.0000002    34.651417    1.0000002 
       2            0   -120.99968    1.0000002    34.651417    1.0000002 
Loop time of 7.2094e-05 on 1 procs for 1 steps with 41 atoms

Minimization stats:
  Stopping criterion = linesearch alpha is zero
  Energy initial, next-to-last, final = 
        -120.999678504     -120.999678504     -120.999678504
  Force two-norm initial, final = 2.15316e-18 2.15316e-18
  Force max component initial, final = 1.89905e-18 1.89905e-18
  Final line search alpha, max atom move = 0.5 9.49524e-19
  Iterations, force evaluations = 1 2

Pair  time (%) = 2.58368e-05 (35.8376)
Neigh time (%) = 0 (0)
Comm  time (%) = 5.26209e-06 (7.29892)
Outpt time (%) = 0 (0)
Other time (%) = 4.09952e-05 (56.8635)

Nlocal:    41 ave 41 max 41 min
Histogram: 1 0 0 0 0 0 0 0 0 0
Nghost:    185 ave 185 max 185 min
Histogram: 1 0 0 0 0 0 0 0 0 0
Neighs:    359 ave 359 max 359 min
Histogram: 1 0 0 0 0 0 0 0 0 0

Total # of neighbors = 359
Ave neighs/atom = 8.7561
Neighbor list builds = 0
Dangerous builds = 0
	# write_dump all atom ${dumpfile}
        next i
jump SELF loop1
        displace_atoms upper move 0.0 ${ystep1} 0.0 units lattice
        displace_atoms upper move 0.0 0.002 0.0 units lattice
        min_style ${style}
        min_style cg
        minimize ${etol} ${ftol} ${maxiter} ${maxeval}
        minimize 1e-12 ${ftol} ${maxiter} ${maxeval}
        minimize 1e-12 1e-08 ${maxiter} ${maxeval}
        minimize 1e-12 1e-08 10000 ${maxeval}
        minimize 1e-12 1e-08 10000 20000
WARNING: Resetting reneighboring criteria during minimization (../min.cpp:168)
Memory usage per processor = 3.35952 Mbytes
Step Temp PotEng Lx Ly Lz 
       2            0   -120.99887    1.0000002    34.654881    1.0000002 
       3            0   -120.99887    1.0000002    34.654881    1.0000002 
Loop time of 7.49829e-05 on 1 procs for 1 steps with 41 atoms

Minimization stats:
  Stopping criterion = linesearch alpha is zero
  Energy initial, next-to-last, final = 
        -120.998868755     -120.998868755     -120.998868755
  Force two-norm initial, final = 6.03425e-18 6.03425e-18
  Force max component initial, final = 5.72764e-18 5.72764e-18
  Final line search alpha, max atom move = 0.5 2.86382e-18
  Iterations, force evaluations = 1 2

Pair  time (%) = 2.81191e-05 (37.5007)
Neigh time (%) = 0 (0)
Comm  time (%) = 4.9196e-06 (6.56096)
Outpt time (%) = 0 (0)
Other time (%) = 4.19442e-05 (55.9384)

Nlocal:    41 ave 41 max 41 min
Histogram: 1 0 0 0 0 0 0 0 0 0
Nghost:    185 ave 185 max 185 min
Histogram: 1 0 0 0 0 0 0 0 0 0
Neighs:    359 ave 359 max 359 min
Histogram: 1 0 0 0 0 0 0 0 0 0

Total # of neighbors = 359
Ave neighs/atom = 8.7561
Neighbor list builds = 0
Dangerous builds = 0
	# write_dump all atom ${dumpfile}
        next i
jump SELF loop1
        displace_atoms upper move 0.0 ${ystep1} 0.0 units lattice
        displace_atoms upper move 0.0 0.002 0.0 units lattice
        min_style ${style}
        min_style cg
        minimize ${etol} ${ftol} ${maxiter} ${maxeval}
        minimize 1e-12 ${ftol} ${maxiter} ${maxeval}
        minimize 1e-12 1e-08 ${maxiter} ${maxeval}
        minimize 1e-12 1e-08 10000 ${maxeval}
        minimize 1e-12 1e-08 10000 20000
WARNING: Resetting reneighboring criteria during minimization (../min.cpp:168)
Memory usage per processor = 3.35952 Mbytes
Step Temp PotEng Lx Ly Lz 
       3            0   -120.99753    1.0000002    34.658345    1.0000002 
       4            0   -120.99753    1.0000002    34.658345    1.0000002 
Loop time of 7.19634e-05 on 1 procs for 1 steps with 41 atoms

Minimization stats:
  Stopping criterion = linesearch alpha is zero
  Energy initial, next-to-last, final = 
        -120.997532764     -120.997532764     -120.997532764
  Force two-norm initial, final = 4.90096e-18 4.90096e-18
  Force max component initial, final = 4.51807e-18 4.51807e-18
  Final line search alpha, max atom move = 0.5 2.25904e-18
  Iterations, force evaluations = 1 2

Pair  time (%) = 2.5922e-05 (36.021)
Neigh time (%) = 0 (0)
Comm  time (%) = 4.95557e-06 (6.88623)
Outpt time (%) = 0 (0)
Other time (%) = 4.10859e-05 (57.0927)

Nlocal:    41 ave 41 max 41 min
Histogram: 1 0 0 0 0 0 0 0 0 0
Nghost:    185 ave 185 max 185 min
Histogram: 1 0 0 0 0 0 0 0 0 0
Neighs:    359 ave 359 max 359 min
Histogram: 1 0 0 0 0 0 0 0 0 0

Total # of neighbors = 359
Ave neighs/atom = 8.7561
Neighbor list builds = 0
Dangerous builds = 0
	# write_dump all atom ${dumpfile}
        next i
jump SELF loop1
        displace_atoms upper move 0.0 ${ystep1} 0.0 units lattice
        displace_atoms upper move 0.0 0.002 0.0 units lattice
        min_style ${style}
        min_style cg
        minimize ${etol} ${ftol} ${maxiter} ${maxeval}
        minimize 1e-12 ${ftol} ${maxiter} ${maxeval}
        minimize 1e-12 1e-08 ${maxiter} ${maxeval}
        minimize 1e-12 1e-08 10000 ${maxeval}
        minimize 1e-12 1e-08 10000 20000
WARNING: Resetting reneighboring criteria during minimization (../min.cpp:168)
Memory usage per processor = 3.35952 Mbytes
Step Temp PotEng Lx Ly Lz 
       4            0    -120.9957    1.0000002    34.661809    1.0000002 
       5            0    -120.9957    1.0000002    34.661809    1.0000002 
Loop time of 7.20907e-05 on 1 procs for 1 steps with 41 atoms

Minimization stats:
  Stopping criterion = linesearch alpha is zero
  Energy initial, next-to-last, final = 
        -120.995698063     -120.995698063     -120.995698063
  Force two-norm initial, final = 2.2616e-18 2.2616e-18
  Force max component initial, final = 1.89905e-18 1.89905e-18
  Final line search alpha, max atom move = 0.5 9.49524e-19
  Iterations, force evaluations = 1 2

Pair  time (%) = 2.70653e-05 (37.5434)
Neigh time (%) = 0 (0)
Comm  time (%) = 5.0501e-06 (7.0052)
Outpt time (%) = 0 (0)
Other time (%) = 3.99753e-05 (55.4514)

Nlocal:    41 ave 41 max 41 min
Histogram: 1 0 0 0 0 0 0 0 0 0
Nghost:    185 ave 185 max 185 min
Histogram: 1 0 0 0 0 0 0 0 0 0
Neighs:    359 ave 359 max 359 min
Histogram: 1 0 0 0 0 0 0 0 0 0

Total # of neighbors = 359
Ave neighs/atom = 8.7561
Neighbor list builds = 0
Dangerous builds = 0
	# write_dump all atom ${dumpfile}
        next i
jump SELF loop1
        displace_atoms upper move 0.0 ${ystep1} 0.0 units lattice
        displace_atoms upper move 0.0 0.002 0.0 units lattice
        min_style ${style}
        min_style cg
        minimize ${etol} ${ftol} ${maxiter} ${maxeval}
        minimize 1e-12 ${ftol} ${maxiter} ${maxeval}
        minimize 1e-12 1e-08 ${maxiter} ${maxeval}
        minimize 1e-12 1e-08 10000 ${maxeval}
        minimize 1e-12 1e-08 10000 20000
WARNING: Resetting reneighboring criteria during minimization (../min.cpp:168)
Memory usage per processor = 3.35952 Mbytes
Step Temp PotEng Lx Ly Lz 
       5            0   -120.99337    1.0000002    34.665273    1.0000002 
       6            0   -120.99337    1.0000002    34.665273    1.0000002 
Loop time of 7.20945e-05 on 1 procs for 1 steps with 41 atoms

Minimization stats:
  Stopping criterion = linesearch alpha is zero
  Energy initial, next-to-last, final = 
        -120.993372898     -120.993372898     -120.993372898
  Force two-norm initial, final = 4.52888e-18 4.52888e-18
  Force max component initial, final = 4.1115e-18 4.1115e-18
  Final line search alpha, max atom move = 0.5 2.05575e-18
  Iterations, force evaluations = 1 2

Pair  time (%) = 2.58383e-05 (35.8394)
Neigh time (%) = 0 (0)
Comm  time (%) = 4.26511e-06 (5.916)
Outpt time (%) = 0 (0)
Other time (%) = 4.19911e-05 (58.2446)

Nlocal:    41 ave 41 max 41 min
Histogram: 1 0 0 0 0 0 0 0 0 0
Nghost:    185 ave 185 max 185 min
Histogram: 1 0 0 0 0 0 0 0 0 0
Neighs:    359 ave 359 max 359 min
Histogram: 1 0 0 0 0 0 0 0 0 0

Total # of neighbors = 359
Ave neighs/atom = 8.7561
Neighbor list builds = 0
Dangerous builds = 0
	# write_dump all atom ${dumpfile}
        next i
jump SELF loop1
        displace_atoms upper move 0.0 ${ystep1} 0.0 units lattice
        displace_atoms upper move 0.0 0.002 0.0 units lattice
        min_style ${style}
        min_style cg
        minimize ${etol} ${ftol} ${maxiter} ${maxeval}
        minimize 1e-12 ${ftol} ${maxiter} ${maxeval}
        minimize 1e-12 1e-08 ${maxiter} ${maxeval}
        minimize 1e-12 1e-08 10000 ${maxeval}
        minimize 1e-12 1e-08 10000 20000
WARNING: Resetting reneighboring criteria during minimization (../min.cpp:168)
Memory usage per processor = 3.35952 Mbytes
Step Temp PotEng Lx Ly Lz 
       6            0   -120.99058    1.0000002    34.668737    1.0000002 
       7            0   -120.99058    1.0000002    34.668737    1.0000002 
Loop time of 4.30584e-05 on 1 procs for 1 steps with 41 atoms

Minimization stats:
  Stopping criterion = linesearch alpha is zero
  Energy initial, next-to-last, final = 
        -120.990578934     -120.990578934     -120.990578934
  Force two-norm initial, final = 3.92401e-18 3.92401e-18
  Force max component initial, final = 3.43387e-18 3.43387e-18
  Final line search alpha, max atom move = 0.5 1.71694e-18
  Iterations, force evaluations = 1 2

Pair  time (%) = 2.51143e-05 (58.3261)
Neigh time (%) = 0 (0)
Comm  time (%) = 3.81726e-06 (8.8653)
Outpt time (%) = 0 (0)
Other time (%) = 1.41269e-05 (32.8086)

Nlocal:    41 ave 41 max 41 min
Histogram: 1 0 0 0 0 0 0 0 0 0
Nghost:    185 ave 185 max 185 min
Histogram: 1 0 0 0 0 0 0 0 0 0
Neighs:    359 ave 359 max 359 min
Histogram: 1 0 0 0 0 0 0 0 0 0

Total # of neighbors = 359
Ave neighs/atom = 8.7561
Neighbor list builds = 0
Dangerous builds = 0
	# write_dump all atom ${dumpfile}
        next i
jump SELF loop1
        displace_atoms upper move 0.0 ${ystep1} 0.0 units lattice
        displace_atoms upper move 0.0 0.002 0.0 units lattice
        min_style ${style}
        min_style cg
        minimize ${etol} ${ftol} ${maxiter} ${maxeval}
        minimize 1e-12 ${ftol} ${maxiter} ${maxeval}
        minimize 1e-12 1e-08 ${maxiter} ${maxeval}
        minimize 1e-12 1e-08 10000 ${maxeval}
        minimize 1e-12 1e-08 10000 20000
WARNING: Resetting reneighboring criteria during minimization (../min.cpp:168)
Memory usage per processor = 3.35952 Mbytes
Step Temp PotEng Lx Ly Lz 
       7            0   -120.98733    1.0000002    34.672201    1.0000002 
       8            0   -120.98733    1.0000002    34.672201    1.0000002 
Loop time of 4.20236e-05 on 1 procs for 1 steps with 41 atoms

Minimization stats:
  Stopping criterion = linesearch alpha is zero
  Energy initial, next-to-last, final = 
        -120.987330804     -120.987330804     -120.987330804
  Force two-norm initial, final = 3.09892e-17 3.09892e-17
  Force max component initial, final = 2.58565e-17 2.58565e-17
  Final line search alpha, max atom move = 0.5 1.29283e-17
  Iterations, force evaluations = 1 2

Pair  time (%) = 2.50099e-05 (59.5138)
Neigh time (%) = 0 (0)
Comm  time (%) = 4.8466e-06 (11.533)
Outpt time (%) = 0 (0)
Other time (%) = 1.21671e-05 (28.9531)

Nlocal:    41 ave 41 max 41 min
Histogram: 1 0 0 0 0 0 0 0 0 0
Nghost:    185 ave 185 max 185 min
Histogram: 1 0 0 0 0 0 0 0 0 0
Neighs:    359 ave 359 max 359 min
Histogram: 1 0 0 0 0 0 0 0 0 0

Total # of neighbors = 359
Ave neighs/atom = 8.7561
Neighbor list builds = 0
Dangerous builds = 0
	# write_dump all atom ${dumpfile}
        next i
jump SELF loop1
        displace_atoms upper move 0.0 ${ystep1} 0.0 units lattice
        displace_atoms upper move 0.0 0.002 0.0 units lattice
        min_style ${style}
        min_style cg
        minimize ${etol} ${ftol} ${maxiter} ${maxeval}
        minimize 1e-12 ${ftol} ${maxiter} ${maxeval}
        minimize 1e-12 1e-08 ${maxiter} ${maxeval}
        minimize 1e-12 1e-08 10000 ${maxeval}
        minimize 1e-12 1e-08 10000 20000
WARNING: Resetting reneighboring criteria during minimization (../min.cpp:168)
Memory usage per processor = 3.35952 Mbytes
Step Temp PotEng Lx Ly Lz 
       8            0   -120.98364    1.0000002    34.675665    1.0000002 
       9            0   -120.98364    1.0000002    34.675665    1.0000002 
Loop time of 4.19349e-05 on 1 procs for 1 steps with 41 atoms

Minimization stats:
  Stopping criterion = linesearch alpha is zero
  Energy initial, next-to-last, final = 
        -120.983640945     -120.983640945     -120.983640945
  Force two-norm initial, final = 2.74209e-17 2.74209e-17
  Force max component initial, final = 2.58565e-17 2.58565e-17
  Final line search alpha, max atom move = 0.5 1.29283e-17
  Iterations, force evaluations = 1 2

Pair  time (%) = 2.56973e-05 (61.279)
Neigh time (%) = 0 (0)
Comm  time (%) = 5.17536e-06 (12.3414)
Outpt time (%) = 0 (0)
Other time (%) = 1.10622e-05 (26.3796)

Nlocal:    41 ave 41 max 41 min
Histogram: 1 0 0 0 0 0 0 0 0 0
Nghost:    185 ave 185 max 185 min
Histogram: 1 0 0 0 0 0 0 0 0 0
Neighs:    359 ave 359 max 359 min
Histogram: 1 0 0 0 0 0 0 0 0 0

Total # of neighbors = 359
Ave neighs/atom = 8.7561
Neighbor list builds = 0
Dangerous builds = 0
	# write_dump all atom ${dumpfile}
        next i
jump SELF loop1
        displace_atoms upper move 0.0 ${ystep1} 0.0 units lattice
        displace_atoms upper move 0.0 0.002 0.0 units lattice
        min_style ${style}
        min_style cg
        minimize ${etol} ${ftol} ${maxiter} ${maxeval}
        minimize 1e-12 ${ftol} ${maxiter} ${maxeval}
        minimize 1e-12 1e-08 ${maxiter} ${maxeval}
        minimize 1e-12 1e-08 10000 ${maxeval}
        minimize 1e-12 1e-08 10000 20000
WARNING: Resetting reneighboring criteria during minimization (../min.cpp:168)
Memory usage per processor = 3.35952 Mbytes
Step Temp PotEng Lx Ly Lz 
       9            0   -120.97953    1.0000002    34.679129    1.0000002 
      10            0   -120.97953    1.0000002    34.679129    1.0000002 
Loop time of 4.20008e-05 on 1 procs for 1 steps with 41 atoms

Minimization stats:
  Stopping criterion = linesearch alpha is zero
  Energy initial, next-to-last, final = 
        -120.979529325     -120.979529325     -120.979529325
  Force two-norm initial, final = 3.47618e-17 3.47618e-17
  Force max component initial, final = 2.58565e-17 2.58565e-17
  Final line search alpha, max atom move = 0.5 1.29283e-17
  Iterations, force evaluations = 1 2

Pair  time (%) = 2.59412e-05 (61.7635)
Neigh time (%) = 0 (0)
Comm  time (%) = 1.99396e-06 (4.74744)
Outpt time (%) = 0 (0)
Other time (%) = 1.40656e-05 (33.489)

Nlocal:    41 ave 41 max 41 min
Histogram: 1 0 0 0 0 0 0 0 0 0
Nghost:    185 ave 185 max 185 min
Histogram: 1 0 0 0 0 0 0 0 0 0
Neighs:    359 ave 359 max 359 min
Histogram: 1 0 0 0 0 0 0 0 0 0

Total # of neighbors = 359
Ave neighs/atom = 8.7561
Neighbor list builds = 0
Dangerous builds = 0
	# write_dump all atom ${dumpfile}
        next i
jump SELF loop1
        displace_atoms upper move 0.0 ${ystep1} 0.0 units lattice
        displace_atoms upper move 0.0 0.002 0.0 units lattice
        min_style ${style}
        min_style cg
        minimize ${etol} ${ftol} ${maxiter} ${maxeval}
        minimize 1e-12 ${ftol} ${maxiter} ${maxeval}
        minimize 1e-12 1e-08 ${maxiter} ${maxeval}
        minimize 1e-12 1e-08 10000 ${maxeval}
        minimize 1e-12 1e-08 10000 20000
WARNING: Resetting reneighboring criteria during minimization (../min.cpp:168)
Memory usage per processor = 3.35952 Mbytes
Step Temp PotEng Lx Ly Lz 
      10            0   -120.97501    1.0000002    34.682593    1.0000002 
      11            0   -120.97501    1.0000002    34.682593    1.0000002 
Loop time of 4.19152e-05 on 1 procs for 1 steps with 41 atoms

Minimization stats:
  Stopping criterion = linesearch alpha is zero
  Energy initial, next-to-last, final = 
        -120.975007363     -120.975007363     -120.975007363
  Force two-norm initial, final = 3.46646e-17 3.46646e-17
  Force max component initial, final = 2.58565e-17 2.58565e-17
  Final line search alpha, max atom move = 0.5 1.29283e-17
  Iterations, force evaluations = 1 2

Pair  time (%) = 2.79229e-05 (66.6176)
Neigh time (%) = 0 (0)
Comm  time (%) = 3.05031e-06 (7.27734)
Outpt time (%) = 0 (0)
Other time (%) = 1.0942e-05 (26.1051)

Nlocal:    41 ave 41 max 41 min
Histogram: 1 0 0 0 0 0 0 0 0 0
Nghost:    185 ave 185 max 185 min
Histogram: 1 0 0 0 0 0 0 0 0 0
Neighs:    359 ave 359 max 359 min
Histogram: 1 0 0 0 0 0 0 0 0 0

Total # of neighbors = 359
Ave neighs/atom = 8.7561
Neighbor list builds = 0
Dangerous builds = 0
	# write_dump all atom ${dumpfile}
        next i
jump SELF loop1
        displace_atoms upper move 0.0 ${ystep1} 0.0 units lattice
        displace_atoms upper move 0.0 0.002 0.0 units lattice
        min_style ${style}
        min_style cg
        minimize ${etol} ${ftol} ${maxiter} ${maxeval}
        minimize 1e-12 ${ftol} ${maxiter} ${maxeval}
        minimize 1e-12 1e-08 ${maxiter} ${maxeval}
        minimize 1e-12 1e-08 10000 ${maxeval}
        minimize 1e-12 1e-08 10000 20000
WARNING: Resetting reneighboring criteria during minimization (../min.cpp:168)
Memory usage per processor = 3.35952 Mbytes
Step Temp PotEng Lx Ly Lz 
      11            0   -120.97009    1.0000002    34.686058    1.0000002 
      12            0   -120.97009    1.0000002    34.686058    1.0000002 
Loop time of 4.19933e-05 on 1 procs for 1 steps with 41 atoms

Minimization stats:
  Stopping criterion = linesearch alpha is zero
  Energy initial, next-to-last, final = 
        -120.970089341     -120.970089341     -120.970089341
  Force two-norm initial, final = 3.69495e-17 3.69495e-17
  Force max component initial, final = 2.63952e-17 2.63952e-17
  Final line search alpha, max atom move = 0.5 1.31976e-17
  Iterations, force evaluations = 1 2

Pair  time (%) = 2.58727e-05 (61.6115)
Neigh time (%) = 0 (0)
Comm  time (%) = 5.04928e-06 (12.024)
Outpt time (%) = 0 (0)
Other time (%) = 1.10713e-05 (26.3645)

Nlocal:    41 ave 41 max 41 min
Histogram: 1 0 0 0 0 0 0 0 0 0
Nghost:    185 ave 185 max 185 min
Histogram: 1 0 0 0 0 0 0 0 0 0
Neighs:    359 ave 359 max 359 min
Histogram: 1 0 0 0 0 0 0 0 0 0

Total # of neighbors = 359
Ave neighs/atom = 8.7561
Neighbor list builds = 0
Dangerous builds = 0
	# write_dump all atom ${dumpfile}
        next i
jump SELF loop1
        displace_atoms upper move 0.0 ${ystep1} 0.0 units lattice
        displace_atoms upper move 0.0 0.002 0.0 units lattice
        min_style ${style}
        min_style cg
        minimize ${etol} ${ftol} ${maxiter} ${maxeval}
        minimize 1e-12 ${ftol} ${maxiter} ${maxeval}
        minimize 1e-12 1e-08 ${maxiter} ${maxeval}
        minimize 1e-12 1e-08 10000 ${maxeval}
        minimize 1e-12 1e-08 10000 20000
WARNING: Resetting reneighboring criteria during minimization (../min.cpp:168)
Memory usage per processor = 3.35952 Mbytes
Step Temp PotEng Lx Ly Lz 
      12            0   -120.96479    1.0000002    34.689522    1.0000002 
      13            0   -120.96479    1.0000002    34.689522    1.0000002 
Loop time of 4.79078e-05 on 1 procs for 1 steps with 41 atoms

Minimization stats:
  Stopping criterion = linesearch alpha is zero
  Energy initial, next-to-last, final = 
        -120.964791927     -120.964791927     -120.964791927
  Force two-norm initial, final = 2.91954e-17 2.91954e-17
  Force max component initial, final = 2.58565e-17 2.58565e-17
  Final line search alpha, max atom move = 0.5 1.29283e-17
  Iterations, force evaluations = 1 2

Pair  time (%) = 3.02388e-05 (63.1186)
Neigh time (%) = 0 (0)
Comm  time (%) = 5.05918e-06 (10.5602)
Outpt time (%) = 0 (0)
Other time (%) = 1.26099e-05 (26.3211)

Nlocal:    41 ave 41 max 41 min
Histogram: 1 0 0 0 0 0 0 0 0 0
Nghost:    185 ave 185 max 185 min
Histogram: 1 0 0 0 0 0 0 0 0 0
Neighs:    359 ave 359 max 359 min
Histogram: 1 0 0 0 0 0 0 0 0 0

Total # of neighbors = 359
Ave neighs/atom = 8.7561
Neighbor list builds = 0
Dangerous builds = 0
	# write_dump all atom ${dumpfile}
        next i
jump SELF loop1
        displace_atoms upper move 0.0 ${ystep1} 0.0 units lattice
        displace_atoms upper move 0.0 0.002 0.0 units lattice
        min_style ${style}
        min_style cg
        minimize ${etol} ${ftol} ${maxiter} ${maxeval}
        minimize 1e-12 ${ftol} ${maxiter} ${maxeval}
        minimize 1e-12 1e-08 ${maxiter} ${maxeval}
        minimize 1e-12 1e-08 10000 ${maxeval}
        minimize 1e-12 1e-08 10000 20000
WARNING: Resetting reneighboring criteria during minimization (../min.cpp:168)
Memory usage per processor = 3.35952 Mbytes
Step Temp PotEng Lx Ly Lz 
      13            0   -120.95913    1.0000002    34.692986    1.0000002 
      14            0   -120.95913    1.0000002    34.692986    1.0000002 
Loop time of 2.80867e-05 on 1 procs for 1 steps with 41 atoms

Minimization stats:
  Stopping criterion = linesearch alpha is zero
  Energy initial, next-to-last, final = 
        -120.959127939     -120.959127939     -120.959127939
  Force two-norm initial, final = 2.63707e-17 2.63707e-17
  Force max component initial, final = 2.58565e-17 2.58565e-17
  Final line search alpha, max atom move = 0.5 1.29283e-17
  Iterations, force evaluations = 1 2

Pair  time (%) = 2.0199e-05 (71.9165)
Neigh time (%) = 0 (0)
Comm  time (%) = 2.99339e-06 (10.6577)
Outpt time (%) = 0 (0)
Other time (%) = 4.89433e-06 (17.4258)

Nlocal:    41 ave 41 max 41 min
Histogram: 1 0 0 0 0 0 0 0 0 0
Nghost:    185 ave 185 max 185 min
Histogram: 1 0 0 0 0 0 0 0 0 0
Neighs:    359 ave 359 max 359 min
Histogram: 1 0 0 0 0 0 0 0 0 0

Total # of neighbors = 359
Ave neighs/atom = 8.7561
Neighbor list builds = 0
Dangerous builds = 0
	# write_dump all atom ${dumpfile}
        next i
jump SELF loop1
        displace_atoms upper move 0.0 ${ystep1} 0.0 units lattice
        displace_atoms upper move 0.0 0.002 0.0 units lattice
        min_style ${style}
        min_style cg
        minimize ${etol} ${ftol} ${maxiter} ${maxeval}
        minimize 1e-12 ${ftol} ${maxiter} ${maxeval}
        minimize 1e-12 1e-08 ${maxiter} ${maxeval}
        minimize 1e-12 1e-08 10000 ${maxeval}
        minimize 1e-12 1e-08 10000 20000
WARNING: Resetting reneighboring criteria during minimization (../min.cpp:168)
Memory usage per processor = 3.35952 Mbytes
Step Temp PotEng Lx Ly Lz 
      14            0   -120.95311    1.0000002     34.69645    1.0000002 
      15            0   -120.95311    1.0000002     34.69645    1.0000002 
Loop time of 6.10236e-05 on 1 procs for 1 steps with 41 atoms

Minimization stats:
  Stopping criterion = linesearch alpha is zero
  Energy initial, next-to-last, final = 
        -120.953107839     -120.953107839     -120.953107839
  Force two-norm initial, final = 2.94982e-17 2.94982e-17
  Force max component initial, final = 2.58565e-17 2.58565e-17
  Final line search alpha, max atom move = 0.5 1.29283e-17
  Iterations, force evaluations = 1 2

Pair  time (%) = 3.00222e-05 (49.1977)
Neigh time (%) = 0 (0)
Comm  time (%) = 4.96418e-06 (8.13485)
Outpt time (%) = 0 (0)
Other time (%) = 2.60372e-05 (42.6674)

Nlocal:    41 ave 41 max 41 min
Histogram: 1 0 0 0 0 0 0 0 0 0
Nghost:    185 ave 185 max 185 min
Histogram: 1 0 0 0 0 0 0 0 0 0
Neighs:    359 ave 359 max 359 min
Histogram: 1 0 0 0 0 0 0 0 0 0

Total # of neighbors = 359
Ave neighs/atom = 8.7561
Neighbor list builds = 0
Dangerous builds = 0
	# write_dump all atom ${dumpfile}
        next i
jump SELF loop1
        displace_atoms upper move 0.0 ${ystep1} 0.0 units lattice
        displace_atoms upper move 0.0 0.002 0.0 units lattice
        min_style ${style}
        min_style cg
        minimize ${etol} ${ftol} ${maxiter} ${maxeval}
        minimize 1e-12 ${ftol} ${maxiter} ${maxeval}
        minimize 1e-12 1e-08 ${maxiter} ${maxeval}
        minimize 1e-12 1e-08 10000 ${maxeval}
        minimize 1e-12 1e-08 10000 20000
WARNING: Resetting reneighboring criteria during minimization (../min.cpp:168)
Memory usage per processor = 3.35952 Mbytes
Step Temp PotEng Lx Ly Lz 
      15            0   -120.94675    1.0000002    34.699914    1.0000002 
      16            0   -120.94675    1.0000002    34.699914    1.0000002 
Loop time of 4.70734e-05 on 1 procs for 1 steps with 41 atoms

Minimization stats:
  Stopping criterion = linesearch alpha is zero
  Energy initial, next-to-last, final = 
        -120.946748121     -120.946748121     -120.946748121
  Force two-norm initial, final = 6.07903e-17 6.07903e-17
  Force max component initial, final = 5.30666e-17 5.30666e-17
  Final line search alpha, max atom move = 0.5 2.65333e-17
  Iterations, force evaluations = 1 2

Pair  time (%) = 2.71385e-05 (57.6515)
Neigh time (%) = 0 (0)
Comm  time (%) = 8.05792e-06 (17.1178)
Outpt time (%) = 0 (0)
Other time (%) = 1.18769e-05 (25.2307)

Nlocal:    41 ave 41 max 41 min
Histogram: 1 0 0 0 0 0 0 0 0 0
Nghost:    185 ave 185 max 185 min
Histogram: 1 0 0 0 0 0 0 0 0 0
Neighs:    359 ave 359 max 359 min
Histogram: 1 0 0 0 0 0 0 0 0 0

Total # of neighbors = 359
Ave neighs/atom = 8.7561
Neighbor list builds = 0
Dangerous builds = 0
	# write_dump all atom ${dumpfile}
        next i
jump SELF loop1
        displace_atoms upper move 0.0 ${ystep1} 0.0 units lattice
        displace_atoms upper move 0.0 0.002 0.0 units lattice
        min_style ${style}
        min_style cg
        minimize ${etol} ${ftol} ${maxiter} ${maxeval}
        minimize 1e-12 ${ftol} ${maxiter} ${maxeval}
        minimize 1e-12 1e-08 ${maxiter} ${maxeval}
        minimize 1e-12 1e-08 10000 ${maxeval}
        minimize 1e-12 1e-08 10000 20000
WARNING: Resetting reneighboring criteria during minimization (../min.cpp:168)
Memory usage per processor = 3.35952 Mbytes
Step Temp PotEng Lx Ly Lz 
      16            0   -120.94006    1.0000002    34.703378    1.0000002 
      17            0   -120.94006    1.0000002    34.703378    1.0000002 
Loop time of 3.7951e-05 on 1 procs for 1 steps with 41 atoms

Minimization stats:
  Stopping criterion = linesearch alpha is zero
  Energy initial, next-to-last, final = 
        -120.940061249     -120.940061249     -120.940061249
  Force two-norm initial, final = 3.12035e-17 3.12035e-17
  Force max component initial, final = 2.96546e-17 2.96546e-17
  Final line search alpha, max atom move = 0.5 1.48273e-17
  Iterations, force evaluations = 1 2

Pair  time (%) = 2.52292e-05 (66.4782)
Neigh time (%) = 0 (0)
Comm  time (%) = 5.04695e-06 (13.2986)
Outpt time (%) = 0 (0)
Other time (%) = 7.67491e-06 (20.2232)

Nlocal:    41 ave 41 max 41 min
Histogram: 1 0 0 0 0 0 0 0 0 0
Nghost:    185 ave 185 max 185 min
Histogram: 1 0 0 0 0 0 0 0 0 0
Neighs:    359 ave 359 max 359 min
Histogram: 1 0 0 0 0 0 0 0 0 0

Total # of neighbors = 359
Ave neighs/atom = 8.7561
Neighbor list builds = 0
Dangerous builds = 0
	# write_dump all atom ${dumpfile}
        next i
jump SELF loop1
        displace_atoms upper move 0.0 ${ystep1} 0.0 units lattice
        displace_atoms upper move 0.0 0.002 0.0 units lattice
        min_style ${style}
        min_style cg
        minimize ${etol} ${ftol} ${maxiter} ${maxeval}
        minimize 1e-12 ${ftol} ${maxiter} ${maxeval}
        minimize 1e-12 1e-08 ${maxiter} ${maxeval}
        minimize 1e-12 1e-08 10000 ${maxeval}
        minimize 1e-12 1e-08 10000 20000
WARNING: Resetting reneighboring criteria during minimization (../min.cpp:168)
Memory usage per processor = 3.35952 Mbytes
Step Temp PotEng Lx Ly Lz 
      17            0   -120.93308    1.0000002    34.706842    1.0000002 
      18            0   -120.93308    1.0000002    34.706842    1.0000002 
Loop time of 3.79526e-05 on 1 procs for 1 steps with 41 atoms

Minimization stats:
  Stopping criterion = linesearch alpha is zero
  Energy initial, next-to-last, final = 
        -120.933084878     -120.933084878     -120.933084878
  Force two-norm initial, final = 3.90296e-17 3.90296e-17
  Force max component initial, final = 2.96546e-17 2.96546e-17
  Final line search alpha, max atom move = 0.5 1.48273e-17
  Iterations, force evaluations = 1 2

Pair  time (%) = 2.52337e-05 (66.4875)
Neigh time (%) = 0 (0)
Comm  time (%) = 3.05614e-06 (8.05251)
Outpt time (%) = 0 (0)
Other time (%) = 9.6627e-06 (25.46)

Nlocal:    41 ave 41 max 41 min
Histogram: 1 0 0 0 0 0 0 0 0 0
Nghost:    185 ave 185 max 185 min
Histogram: 1 0 0 0 0 0 0 0 0 0
Neighs:    359 ave 359 max 359 min
Histogram: 1 0 0 0 0 0 0 0 0 0

Total # of neighbors = 359
Ave neighs/atom = 8.7561
Neighbor list builds = 0
Dangerous builds = 0
	# write_dump all atom ${dumpfile}
        next i
jump SELF loop1
        displace_atoms upper move 0.0 ${ystep1} 0.0 units lattice
        displace_atoms upper move 0.0 0.002 0.0 units lattice
        min_style ${style}
        min_style cg
        minimize ${etol} ${ftol} ${maxiter} ${maxeval}
        minimize 1e-12 ${ftol} ${maxiter} ${maxeval}
        minimize 1e-12 1e-08 ${maxiter} ${maxeval}
        minimize 1e-12 1e-08 10000 ${maxeval}
        minimize 1e-12 1e-08 10000 20000
WARNING: Resetting reneighboring criteria during minimization (../min.cpp:168)
Memory usage per processor = 3.35952 Mbytes
Step Temp PotEng Lx Ly Lz 
      18            0     -120.926    1.0000002    34.710306    1.0000002 
      19            0     -120.926    1.0000002    34.710306    1.0000002 
Loop time of 3.90251e-05 on 1 procs for 1 steps with 41 atoms

Minimization stats:
  Stopping criterion = linesearch alpha is zero
  Energy initial, next-to-last, final = 
        -120.926000454     -120.926000454     -120.926000454
  Force two-norm initial, final = 2.97993e-17 2.97993e-17
  Force max component initial, final = 2.96546e-17 2.96546e-17
  Final line search alpha, max atom move = 0.5 1.48273e-17
  Iterations, force evaluations = 1 2

Pair  time (%) = 2.48753e-05 (63.7417)
Neigh time (%) = 0 (0)
Comm  time (%) = 3.00817e-06 (7.7083)
Outpt time (%) = 0 (0)
Other time (%) = 1.11416e-05 (28.55)

Nlocal:    41 ave 41 max 41 min
Histogram: 1 0 0 0 0 0 0 0 0 0
Nghost:    185 ave 185 max 185 min
Histogram: 1 0 0 0 0 0 0 0 0 0
Neighs:    359 ave 359 max 359 min
Histogram: 1 0 0 0 0 0 0 0 0 0

Total # of neighbors = 359
Ave neighs/atom = 8.7561
Neighbor list builds = 0
Dangerous builds = 0
	# write_dump all atom ${dumpfile}
        next i
jump SELF loop1
        displace_atoms upper move 0.0 ${ystep1} 0.0 units lattice
        displace_atoms upper move 0.0 0.002 0.0 units lattice
        min_style ${style}
        min_style cg
        minimize ${etol} ${ftol} ${maxiter} ${maxeval}
        minimize 1e-12 ${ftol} ${maxiter} ${maxeval}
        minimize 1e-12 1e-08 ${maxiter} ${maxeval}
        minimize 1e-12 1e-08 10000 ${maxeval}
        minimize 1e-12 1e-08 10000 20000
WARNING: Resetting reneighboring criteria during minimization (../min.cpp:168)
Memory usage per processor = 3.35952 Mbytes
Step Temp PotEng Lx Ly Lz 
      19            0   -120.91884    1.0000002     34.71377    1.0000002 
      20            0   -120.91884    1.0000002     34.71377    1.0000002 
Loop time of 3.70798e-05 on 1 procs for 1 steps with 41 atoms

Minimization stats:
  Stopping criterion = linesearch alpha is zero
  Energy initial, next-to-last, final = 
        -120.918843858     -120.918843858     -120.918843858
  Force two-norm initial, final = 3.22133e-17 3.22133e-17
  Force max component initial, final = 2.96546e-17 2.96546e-17
  Final line search alpha, max atom move = 0.5 1.48273e-17
  Iterations, force evaluations = 1 2

Pair  time (%) = 2.29002e-05 (61.7592)
Neigh time (%) = 0 (0)
Comm  time (%) = 4.01167e-06 (10.819)
Outpt time (%) = 0 (0)
Other time (%) = 1.01679e-05 (27.4218)

Nlocal:    41 ave 41 max 41 min
Histogram: 1 0 0 0 0 0 0 0 0 0
Nghost:    185 ave 185 max 185 min
Histogram: 1 0 0 0 0 0 0 0 0 0
Neighs:    359 ave 359 max 359 min
Histogram: 1 0 0 0 0 0 0 0 0 0

Total # of neighbors = 359
Ave neighs/atom = 8.7561
Neighbor list builds = 0
Dangerous builds = 0
	# write_dump all atom ${dumpfile}
        next i
jump SELF loop1
        displace_atoms upper move 0.0 ${ystep1} 0.0 units lattice
        displace_atoms upper move 0.0 0.002 0.0 units lattice
        min_style ${style}
        min_style cg
        minimize ${etol} ${ftol} ${maxiter} ${maxeval}
        minimize 1e-12 ${ftol} ${maxiter} ${maxeval}
        minimize 1e-12 1e-08 ${maxiter} ${maxeval}
        minimize 1e-12 1e-08 10000 ${maxeval}
        minimize 1e-12 1e-08 10000 20000
WARNING: Resetting reneighboring criteria during minimization (../min.cpp:168)
Memory usage per processor = 3.35952 Mbytes
Step Temp PotEng Lx Ly Lz 
      20            0   -120.91162    1.0000002    34.717234    1.0000002 
      21            0   -120.91162    1.0000002    34.717234    1.0000002 
Loop time of 3.7001e-05 on 1 procs for 1 steps with 41 atoms

Minimization stats:
  Stopping criterion = linesearch alpha is zero
  Energy initial, next-to-last, final = 
        -120.911615477     -120.911615477     -120.911615477
  Force two-norm initial, final = 3.60486e-17 3.60486e-17
  Force max component initial, final = 2.96546e-17 2.96546e-17
  Final line search alpha, max atom move = 0.5 1.48273e-17
  Iterations, force evaluations = 1 2

Pair  time (%) = 2.39024e-05 (64.5994)
Neigh time (%) = 0 (0)
Comm  time (%) = 3.30072e-06 (8.92064)
Outpt time (%) = 0 (0)
Other time (%) = 9.79786e-06 (26.48)

Nlocal:    41 ave 41 max 41 min
Histogram: 1 0 0 0 0 0 0 0 0 0
Nghost:    185 ave 185 max 185 min
Histogram: 1 0 0 0 0 0 0 0 0 0
Neighs:    359 ave 359 max 359 min
Histogram: 1 0 0 0 0 0 0 0 0 0

Total # of neighbors = 359
Ave neighs/atom = 8.7561
Neighbor list builds = 0
Dangerous builds = 0
	# write_dump all atom ${dumpfile}
        next i
jump SELF loop1
        displace_atoms upper move 0.0 ${ystep1} 0.0 units lattice
        displace_atoms upper move 0.0 0.002 0.0 units lattice
        min_style ${style}
        min_style cg
        minimize ${etol} ${ftol} ${maxiter} ${maxeval}
        minimize 1e-12 ${ftol} ${maxiter} ${maxeval}
        minimize 1e-12 1e-08 ${maxiter} ${maxeval}
        minimize 1e-12 1e-08 10000 ${maxeval}
        minimize 1e-12 1e-08 10000 20000
WARNING: Resetting reneighboring criteria during minimization (../min.cpp:168)
Memory usage per processor = 3.35952 Mbytes
Step Temp PotEng Lx Ly Lz 
      21            0   -120.90432    1.0000002    34.720699    1.0000002 
      22            0   -120.90432    1.0000002    34.720699    1.0000002 
Loop time of 3.89953e-05 on 1 procs for 1 steps with 41 atoms

Minimization stats:
  Stopping criterion = linesearch alpha is zero
  Energy initial, next-to-last, final = 
        -120.904315679     -120.904315679     -120.904315679
  Force two-norm initial, final = 2.97019e-17 2.97019e-17
  Force max component initial, final = 2.96546e-17 2.96546e-17
  Final line search alpha, max atom move = 0.5 1.48273e-17
  Iterations, force evaluations = 1 2

Pair  time (%) = 2.29779e-05 (58.9249)
Neigh time (%) = 0 (0)
Comm  time (%) = 2.97488e-06 (7.62881)
Outpt time (%) = 0 (0)
Other time (%) = 1.30425e-05 (33.4463)

Nlocal:    41 ave 41 max 41 min
Histogram: 1 0 0 0 0 0 0 0 0 0
Nghost:    185 ave 185 max 185 min
Histogram: 1 0 0 0 0 0 0 0 0 0
Neighs:    359 ave 359 max 359 min
Histogram: 1 0 0 0 0 0 0 0 0 0

Total # of neighbors = 359
Ave neighs/atom = 8.7561
Neighbor list builds = 0
Dangerous builds = 0
	# write_dump all atom ${dumpfile}
        next i
jump SELF loop1
        displace_atoms upper move 0.0 ${ystep1} 0.0 units lattice
        displace_atoms upper move 0.0 0.002 0.0 units lattice
        min_style ${style}
        min_style cg
        minimize ${etol} ${ftol} ${maxiter} ${maxeval}
        minimize 1e-12 ${ftol} ${maxiter} ${maxeval}
        minimize 1e-12 1e-08 ${maxiter} ${maxeval}
        minimize 1e-12 1e-08 10000 ${maxeval}
        minimize 1e-12 1e-08 10000 20000
WARNING: Resetting reneighboring criteria during minimization (../min.cpp:168)
Memory usage per processor = 3.35952 Mbytes
Step Temp PotEng Lx Ly Lz 
      22            0   -120.89694    1.0000002    34.724163    1.0000002 
      23            0   -120.89694    1.0000002    34.724163    1.0000002 
Loop time of 3.70963e-05 on 1 procs for 1 steps with 41 atoms

Minimization stats:
  Stopping criterion = linesearch alpha is zero
  Energy initial, next-to-last, final = 
        -120.896944802     -120.896944802     -120.896944802
  Force two-norm initial, final = 2.99948e-17 2.99948e-17
  Force max component initial, final = 2.96546e-17 2.96546e-17
  Final line search alpha, max atom move = 0.5 1.48273e-17
  Iterations, force evaluations = 1 2

Pair  time (%) = 2.29498e-05 (61.8653)
Neigh time (%) = 0 (0)
Comm  time (%) = 1.87231e-06 (5.04715)
Outpt time (%) = 0 (0)
Other time (%) = 1.22742e-05 (33.0875)

Nlocal:    41 ave 41 max 41 min
Histogram: 1 0 0 0 0 0 0 0 0 0
Nghost:    185 ave 185 max 185 min
Histogram: 1 0 0 0 0 0 0 0 0 0
Neighs:    359 ave 359 max 359 min
Histogram: 1 0 0 0 0 0 0 0 0 0

Total # of neighbors = 359
Ave neighs/atom = 8.7561
Neighbor list builds = 0
Dangerous builds = 0
	# write_dump all atom ${dumpfile}
        next i
jump SELF loop1
        displace_atoms upper move 0.0 ${ystep1} 0.0 units lattice
        displace_atoms upper move 0.0 0.002 0.0 units lattice
        min_style ${style}
        min_style cg
        minimize ${etol} ${ftol} ${maxiter} ${maxeval}
        minimize 1e-12 ${ftol} ${maxiter} ${maxeval}
        minimize 1e-12 1e-08 ${maxiter} ${maxeval}
        minimize 1e-12 1e-08 10000 ${maxeval}
        minimize 1e-12 1e-08 10000 20000
WARNING: Resetting reneighboring criteria during minimization (../min.cpp:168)
Memory usage per processor = 3.35952 Mbytes
Step Temp PotEng Lx Ly Lz 
      23            0    -120.8895    1.0000002    34.727627    1.0000002 
      24            0    -120.8895    1.0000002    34.727627    1.0000002 
Loop time of 3.80299e-05 on 1 procs for 1 steps with 41 atoms

Minimization stats:
  Stopping criterion = linesearch alpha is zero
  Energy initial, next-to-last, final = 
        -120.889503232     -120.889503232     -120.889503232
  Force two-norm initial, final = 6.1273e-17 6.1273e-17
  Force max component initial, final = 5.36189e-17 5.36189e-17
  Final line search alpha, max atom move = 0.5 2.68094e-17
  Iterations, force evaluations = 1 2

Pair  time (%) = 2.18896e-05 (57.5589)
Neigh time (%) = 0 (0)
Comm  time (%) = 3.94415e-06 (10.3712)
Outpt time (%) = 0 (0)
Other time (%) = 1.21961e-05 (32.0699)

Nlocal:    41 ave 41 max 41 min
Histogram: 1 0 0 0 0 0 0 0 0 0
Nghost:    185 ave 185 max 185 min
Histogram: 1 0 0 0 0 0 0 0 0 0
Neighs:    359 ave 359 max 359 min
Histogram: 1 0 0 0 0 0 0 0 0 0

Total # of neighbors = 359
Ave neighs/atom = 8.7561
Neighbor list builds = 0
Dangerous builds = 0
	# write_dump all atom ${dumpfile}
        next i
jump SELF loop1
        displace_atoms upper move 0.0 ${ystep1} 0.0 units lattice
        displace_atoms upper move 0.0 0.002 0.0 units lattice
        min_style ${style}
        min_style cg
        minimize ${etol} ${ftol} ${maxiter} ${maxeval}
        minimize 1e-12 ${ftol} ${maxiter} ${maxeval}
        minimize 1e-12 1e-08 ${maxiter} ${maxeval}
        minimize 1e-12 1e-08 10000 ${maxeval}
        minimize 1e-12 1e-08 10000 20000
WARNING: Resetting reneighboring criteria during minimization (../min.cpp:168)
Memory usage per processor = 3.35952 Mbytes
Step Temp PotEng Lx Ly Lz 
      24            0   -120.88199    1.0000002    34.731091    1.0000002 
      25            0   -120.88199    1.0000002    34.731091    1.0000002 
Loop time of 6.60216e-05 on 1 procs for 1 steps with 41 atoms

Minimization stats:
  Stopping criterion = linesearch alpha is zero
  Energy initial, next-to-last, final = 
        -120.881991328     -120.881991328     -120.881991328
  Force two-norm initial, final = 5.97609e-17 5.97609e-17
  Force max component initial, final = 5.18842e-17 5.18842e-17
  Final line search alpha, max atom move = 0.5 2.59421e-17
  Iterations, force evaluations = 1 2

Pair  time (%) = 2.59575e-05 (39.3167)
Neigh time (%) = 0 (0)
Comm  time (%) = 3.54985e-06 (5.37681)
Outpt time (%) = 0 (0)
Other time (%) = 3.65142e-05 (55.3065)

Nlocal:    41 ave 41 max 41 min
Histogram: 1 0 0 0 0 0 0 0 0 0
Nghost:    185 ave 185 max 185 min
Histogram: 1 0 0 0 0 0 0 0 0 0
Neighs:    359 ave 359 max 359 min
Histogram: 1 0 0 0 0 0 0 0 0 0

Total # of neighbors = 359
Ave neighs/atom = 8.7561
Neighbor list builds = 0
Dangerous builds = 0
	# write_dump all atom ${dumpfile}
        next i
jump SELF loop1
        displace_atoms upper move 0.0 ${ystep1} 0.0 units lattice
        displace_atoms upper move 0.0 0.002 0.0 units lattice
        min_style ${style}
        min_style cg
        minimize ${etol} ${ftol} ${maxiter} ${maxeval}
        minimize 1e-12 ${ftol} ${maxiter} ${maxeval}
        minimize 1e-12 1e-08 ${maxiter} ${maxeval}
        minimize 1e-12 1e-08 10000 ${maxeval}
        minimize 1e-12 1e-08 10000 20000
WARNING: Resetting reneighboring criteria during minimization (../min.cpp:168)
Memory usage per processor = 3.35952 Mbytes
Step Temp PotEng Lx Ly Lz 
      25            0   -120.87441    1.0000002    34.734555    1.0000002 
      26            0   -120.87441    1.0000002    34.734555    1.0000002 
Loop time of 3.79879e-05 on 1 procs for 1 steps with 41 atoms

Minimization stats:
  Stopping criterion = linesearch alpha is zero
  Energy initial, next-to-last, final = 
        -120.874409449     -120.874409449     -120.874409449
  Force two-norm initial, final = 3.9743e-17 3.9743e-17
  Force max component initial, final = 2.96546e-17 2.96546e-17
  Final line search alpha, max atom move = 0.5 1.48273e-17
  Iterations, force evaluations = 1 2

Pair  time (%) = 2.39096e-05 (62.94)
Neigh time (%) = 0 (0)
Comm  time (%) = 5.31529e-06 (13.992)
Outpt time (%) = 0 (0)
Other time (%) = 8.76305e-06 (23.068)

Nlocal:    41 ave 41 max 41 min
Histogram: 1 0 0 0 0 0 0 0 0 0
Nghost:    185 ave 185 max 185 min
Histogram: 1 0 0 0 0 0 0 0 0 0
Neighs:    359 ave 359 max 359 min
Histogram: 1 0 0 0 0 0 0 0 0 0

Total # of neighbors = 359
Ave neighs/atom = 8.7561
Neighbor list builds = 0
Dangerous builds = 0
	# write_dump all atom ${dumpfile}
        next i
jump SELF loop1
        displace_atoms upper move 0.0 ${ystep1} 0.0 units lattice
        displace_atoms upper move 0.0 0.002 0.0 units lattice
        min_style ${style}
        min_style cg
        minimize ${etol} ${ftol} ${maxiter} ${maxeval}
        minimize 1e-12 ${ftol} ${maxiter} ${maxeval}
        minimize 1e-12 1e-08 ${maxiter} ${maxeval}
        minimize 1e-12 1e-08 10000 ${maxeval}
        minimize 1e-12 1e-08 10000 20000
WARNING: Resetting reneighboring criteria during minimization (../min.cpp:168)
Memory usage per processor = 3.35952 Mbytes
Step Temp PotEng Lx Ly Lz 
      26            0   -120.86676    1.0000002    34.738019    1.0000002 
      27            0   -120.86676    1.0000002    34.738019    1.0000002 
Loop time of 3.80358e-05 on 1 procs for 1 steps with 41 atoms

Minimization stats:
  Stopping criterion = linesearch alpha is zero
  Energy initial, next-to-last, final = 
        -120.866758026     -120.866758026     -120.866758026
  Force two-norm initial, final = 3.05326e-17 3.05326e-17
  Force max component initial, final = 2.96546e-17 2.96546e-17
  Final line search alpha, max atom move = 0.5 1.48273e-17
  Iterations, force evaluations = 1 2

Pair  time (%) = 2.28612e-05 (60.1044)
Neigh time (%) = 0 (0)
Comm  time (%) = 2.97977e-06 (7.83411)
Outpt time (%) = 0 (0)
Other time (%) = 1.21949e-05 (32.0615)

Nlocal:    41 ave 41 max 41 min
Histogram: 1 0 0 0 0 0 0 0 0 0
Nghost:    185 ave 185 max 185 min
Histogram: 1 0 0 0 0 0 0 0 0 0
Neighs:    359 ave 359 max 359 min
Histogram: 1 0 0 0 0 0 0 0 0 0

Total # of neighbors = 359
Ave neighs/atom = 8.7561
Neighbor list builds = 0
Dangerous builds = 0
	# write_dump all atom ${dumpfile}
        next i
jump SELF loop1
        displace_atoms upper move 0.0 ${ystep1} 0.0 units lattice
        displace_atoms upper move 0.0 0.002 0.0 units lattice
        min_style ${style}
        min_style cg
        minimize ${etol} ${ftol} ${maxiter} ${maxeval}
        minimize 1e-12 ${ftol} ${maxiter} ${maxeval}
        minimize 1e-12 1e-08 ${maxiter} ${maxeval}
        minimize 1e-12 1e-08 10000 ${maxeval}
        minimize 1e-12 1e-08 10000 20000
WARNING: Resetting reneighboring criteria during minimization (../min.cpp:168)
Memory usage per processor = 3.35952 Mbytes
Step Temp PotEng Lx Ly Lz 
      27            0   -120.85904    1.0000002    34.741483    1.0000002 
      28            0   -120.85904    1.0000002    34.741483    1.0000002 
Loop time of 3.78836e-05 on 1 procs for 1 steps with 41 atoms

Minimization stats:
  Stopping criterion = linesearch alpha is zero
  Energy initial, next-to-last, final = 
        -120.859037387     -120.859037387     -120.859037387
  Force two-norm initial, final = 3.63851e-17 3.63851e-17
  Force max component initial, final = 2.96546e-17 2.96546e-17
  Final line search alpha, max atom move = 0.5 1.48273e-17
  Iterations, force evaluations = 1 2

Pair  time (%) = 2.31196e-05 (61.028)
Neigh time (%) = 0 (0)
Comm  time (%) = 3.7353e-06 (9.85993)
Outpt time (%) = 0 (0)
Other time (%) = 1.10287e-05 (29.1121)

Nlocal:    41 ave 41 max 41 min
Histogram: 1 0 0 0 0 0 0 0 0 0
Nghost:    185 ave 185 max 185 min
Histogram: 1 0 0 0 0 0 0 0 0 0
Neighs:    359 ave 359 max 359 min
Histogram: 1 0 0 0 0 0 0 0 0 0

Total # of neighbors = 359
Ave neighs/atom = 8.7561
Neighbor list builds = 0
Dangerous builds = 0
	# write_dump all atom ${dumpfile}
        next i
jump SELF loop1
        displace_atoms upper move 0.0 ${ystep1} 0.0 units lattice
        displace_atoms upper move 0.0 0.002 0.0 units lattice
        min_style ${style}
        min_style cg
        minimize ${etol} ${ftol} ${maxiter} ${maxeval}
        minimize 1e-12 ${ftol} ${maxiter} ${maxeval}
        minimize 1e-12 1e-08 ${maxiter} ${maxeval}
        minimize 1e-12 1e-08 10000 ${maxeval}
        minimize 1e-12 1e-08 10000 20000
WARNING: Resetting reneighboring criteria during minimization (../min.cpp:168)
Memory usage per processor = 3.35952 Mbytes
Step Temp PotEng Lx Ly Lz 
      28            0   -120.85125    1.0000002    34.744947    1.0000002 
      29            0   -120.85125    1.0000002    34.744947    1.0000002 
Loop time of 3.79846e-05 on 1 procs for 1 steps with 41 atoms

Minimization stats:
  Stopping criterion = linesearch alpha is zero
  Energy initial, next-to-last, final = 
        -120.851247932     -120.851247932     -120.851247932
  Force two-norm initial, final = 6.16053e-17 6.16053e-17
  Force max component initial, final = 5.39984e-17 5.39984e-17
  Final line search alpha, max atom move = 0.5 2.69992e-17
  Iterations, force evaluations = 1 2

Pair  time (%) = 2.29457e-05 (60.4079)
Neigh time (%) = 0 (0)
Comm  time (%) = 3.1027e-06 (8.16832)
Outpt time (%) = 0 (0)
Other time (%) = 1.19362e-05 (31.4238)

Nlocal:    41 ave 41 max 41 min
Histogram: 1 0 0 0 0 0 0 0 0 0
Nghost:    185 ave 185 max 185 min
Histogram: 1 0 0 0 0 0 0 0 0 0
Neighs:    359 ave 359 max 359 min
Histogram: 1 0 0 0 0 0 0 0 0 0

Total # of neighbors = 359
Ave neighs/atom = 8.7561
Neighbor list builds = 0
Dangerous builds = 0
	# write_dump all atom ${dumpfile}
        next i
jump SELF loop1
        displace_atoms upper move 0.0 ${ystep1} 0.0 units lattice
        displace_atoms upper move 0.0 0.002 0.0 units lattice
        min_style ${style}
        min_style cg
        minimize ${etol} ${ftol} ${maxiter} ${maxeval}
        minimize 1e-12 ${ftol} ${maxiter} ${maxeval}
        minimize 1e-12 1e-08 ${maxiter} ${maxeval}
        minimize 1e-12 1e-08 10000 ${maxeval}
        minimize 1e-12 1e-08 10000 20000
WARNING: Resetting reneighboring criteria during minimization (../min.cpp:168)
Memory usage per processor = 3.35952 Mbytes
Step Temp PotEng Lx Ly Lz 
      29            0   -120.84339    1.0000002    34.748411    1.0000002 
      30            0   -120.84339    1.0000002    34.748411    1.0000002 
Loop time of 3.81171e-05 on 1 procs for 1 steps with 41 atoms

Minimization stats:
  Stopping criterion = linesearch alpha is zero
  Energy initial, next-to-last, final = 
         -120.84339008      -120.84339008      -120.84339008
  Force two-norm initial, final = 3.38974e-17 3.38974e-17
  Force max component initial, final = 2.96546e-17 2.96546e-17
  Final line search alpha, max atom move = 0.5 1.48273e-17
  Iterations, force evaluations = 1 2

Pair  time (%) = 2.31048e-05 (60.6155)
Neigh time (%) = 0 (0)
Comm  time (%) = 4.65941e-06 (12.2239)
Outpt time (%) = 0 (0)
Other time (%) = 1.03528e-05 (27.1606)

Nlocal:    41 ave 41 max 41 min
Histogram: 1 0 0 0 0 0 0 0 0 0
Nghost:    185 ave 185 max 185 min
Histogram: 1 0 0 0 0 0 0 0 0 0
Neighs:    359 ave 359 max 359 min
Histogram: 1 0 0 0 0 0 0 0 0 0

Total # of neighbors = 359
Ave neighs/atom = 8.7561
Neighbor list builds = 0
Dangerous builds = 0
	# write_dump all atom ${dumpfile}
        next i
jump SELF loop1
        displace_atoms upper move 0.0 ${ystep1} 0.0 units lattice
        displace_atoms upper move 0.0 0.002 0.0 units lattice
        min_style ${style}
        min_style cg
        minimize ${etol} ${ftol} ${maxiter} ${maxeval}
        minimize 1e-12 ${ftol} ${maxiter} ${maxeval}
        minimize 1e-12 1e-08 ${maxiter} ${maxeval}
        minimize 1e-12 1e-08 10000 ${maxeval}
        minimize 1e-12 1e-08 10000 20000
WARNING: Resetting reneighboring criteria during minimization (../min.cpp:168)
Memory usage per processor = 3.35952 Mbytes
Step Temp PotEng Lx Ly Lz 
      30            0   -120.83546    1.0000002    34.751876    1.0000002 
      31            0   -120.83546    1.0000002    34.751876    1.0000002 
Loop time of 3.69797e-05 on 1 procs for 1 steps with 41 atoms

Minimization stats:
  Stopping criterion = linesearch alpha is zero
  Energy initial, next-to-last, final = 
        -120.835464233     -120.835464233     -120.835464233
  Force two-norm initial, final = 3.05824e-17 3.05824e-17
  Force max component initial, final = 2.96546e-17 2.96546e-17
  Final line search alpha, max atom move = 0.5 1.48273e-17
  Iterations, force evaluations = 1 2

Pair  time (%) = 2.33151e-05 (63.0484)
Neigh time (%) = 0 (0)
Comm  time (%) = 4.12622e-06 (11.1581)
Outpt time (%) = 0 (0)
Other time (%) = 9.53837e-06 (25.7936)

Nlocal:    41 ave 41 max 41 min
Histogram: 1 0 0 0 0 0 0 0 0 0
Nghost:    185 ave 185 max 185 min
Histogram: 1 0 0 0 0 0 0 0 0 0
Neighs:    359 ave 359 max 359 min
Histogram: 1 0 0 0 0 0 0 0 0 0

Total # of neighbors = 359
Ave neighs/atom = 8.7561
Neighbor list builds = 0
Dangerous builds = 0
	# write_dump all atom ${dumpfile}
        next i
jump SELF loop1
        displace_atoms upper move 0.0 ${ystep1} 0.0 units lattice
        displace_atoms upper move 0.0 0.002 0.0 units lattice
        min_style ${style}
        min_style cg
        minimize ${etol} ${ftol} ${maxiter} ${maxeval}
        minimize 1e-12 ${ftol} ${maxiter} ${maxeval}
        minimize 1e-12 1e-08 ${maxiter} ${maxeval}
        minimize 1e-12 1e-08 10000 ${maxeval}
        minimize 1e-12 1e-08 10000 20000
WARNING: Resetting reneighboring criteria during minimization (../min.cpp:168)
Memory usage per processor = 3.35952 Mbytes
Step Temp PotEng Lx Ly Lz 
      31            0   -120.82747    1.0000002     34.75534    1.0000002 
      32            0   -120.82747    1.0000002     34.75534    1.0000002 
Loop time of 3.69947e-05 on 1 procs for 1 steps with 41 atoms

Minimization stats:
  Stopping criterion = linesearch alpha is zero
  Energy initial, next-to-last, final = 
         -120.82747076      -120.82747076      -120.82747076
  Force two-norm initial, final = 3.65805e-17 3.65805e-17
  Force max component initial, final = 2.96546e-17 2.96546e-17
  Final line search alpha, max atom move = 0.5 1.48273e-17
  Iterations, force evaluations = 1 2

Pair  time (%) = 2.38372e-05 (64.4341)
Neigh time (%) = 0 (0)
Comm  time (%) = 3.17045e-06 (8.57003)
Outpt time (%) = 0 (0)
Other time (%) = 9.98704e-06 (26.9959)

Nlocal:    41 ave 41 max 41 min
Histogram: 1 0 0 0 0 0 0 0 0 0
Nghost:    185 ave 185 max 185 min
Histogram: 1 0 0 0 0 0 0 0 0 0
Neighs:    359 ave 359 max 359 min
Histogram: 1 0 0 0 0 0 0 0 0 0

Total # of neighbors = 359
Ave neighs/atom = 8.7561
Neighbor list builds = 0
Dangerous builds = 0
	# write_dump all atom ${dumpfile}
        next i
jump SELF loop1
        displace_atoms upper move 0.0 ${ystep1} 0.0 units lattice
        displace_atoms upper move 0.0 0.002 0.0 units lattice
        min_style ${style}
        min_style cg
        minimize ${etol} ${ftol} ${maxiter} ${maxeval}
        minimize 1e-12 ${ftol} ${maxiter} ${maxeval}
        minimize 1e-12 1e-08 ${maxiter} ${maxeval}
        minimize 1e-12 1e-08 10000 ${maxeval}
        minimize 1e-12 1e-08 10000 20000
WARNING: Resetting reneighboring criteria during minimization (../min.cpp:168)
Memory usage per processor = 3.35952 Mbytes
Step Temp PotEng Lx Ly Lz 
      32            0   -120.81941    1.0000002    34.758804    1.0000002 
      33            0   -120.81941    1.0000002    34.758804    1.0000002 
Loop time of 3.79024e-05 on 1 procs for 1 steps with 41 atoms

Minimization stats:
  Stopping criterion = linesearch alpha is zero
  Energy initial, next-to-last, final = 
        -120.819410116     -120.819410116     -120.819410116
  Force two-norm initial, final = 3.43807e-17 3.43807e-17
  Force max component initial, final = 2.96546e-17 2.96546e-17
  Final line search alpha, max atom move = 0.5 1.48273e-17
  Iterations, force evaluations = 1 2

Pair  time (%) = 2.50834e-05 (66.179)
Neigh time (%) = 0 (0)
Comm  time (%) = 4.75545e-06 (12.5466)
Outpt time (%) = 0 (0)
Other time (%) = 8.06351e-06 (21.2744)

Nlocal:    41 ave 41 max 41 min
Histogram: 1 0 0 0 0 0 0 0 0 0
Nghost:    185 ave 185 max 185 min
Histogram: 1 0 0 0 0 0 0 0 0 0
Neighs:    359 ave 359 max 359 min
Histogram: 1 0 0 0 0 0 0 0 0 0

Total # of neighbors = 359
Ave neighs/atom = 8.7561
Neighbor list builds = 0
Dangerous builds = 0
	# write_dump all atom ${dumpfile}
        next i
jump SELF loop1
        displace_atoms upper move 0.0 ${ystep1} 0.0 units lattice
        displace_atoms upper move 0.0 0.002 0.0 units lattice
        min_style ${style}
        min_style cg
        minimize ${etol} ${ftol} ${maxiter} ${maxeval}
        minimize 1e-12 ${ftol} ${maxiter} ${maxeval}
        minimize 1e-12 1e-08 ${maxiter} ${maxeval}
        minimize 1e-12 1e-08 10000 ${maxeval}
        minimize 1e-12 1e-08 10000 20000
WARNING: Resetting reneighboring criteria during minimization (../min.cpp:168)
Memory usage per processor = 3.35952 Mbytes
Step Temp PotEng Lx Ly Lz 
      33            0   -120.81128    1.0000002    34.762268    1.0000002 
      34            0   -120.81128    1.0000002    34.762268    1.0000002 
Loop time of 3.99471e-05 on 1 procs for 1 steps with 41 atoms

Minimization stats:
  Stopping criterion = linesearch alpha is zero
  Energy initial, next-to-last, final = 
        -120.811282657     -120.811282657     -120.811282657
  Force two-norm initial, final = 3.66441e-17 3.66441e-17
  Force max component initial, final = 2.96546e-17 2.96546e-17
  Final line search alpha, max atom move = 0.5 1.48273e-17
  Iterations, force evaluations = 1 2

Pair  time (%) = 2.39258e-05 (59.8937)
Neigh time (%) = 0 (0)
Comm  time (%) = 5.34765e-06 (13.3868)
Outpt time (%) = 0 (0)
Other time (%) = 1.06737e-05 (26.7195)

Nlocal:    41 ave 41 max 41 min
Histogram: 1 0 0 0 0 0 0 0 0 0
Nghost:    185 ave 185 max 185 min
Histogram: 1 0 0 0 0 0 0 0 0 0
Neighs:    359 ave 359 max 359 min
Histogram: 1 0 0 0 0 0 0 0 0 0

Total # of neighbors = 359
Ave neighs/atom = 8.7561
Neighbor list builds = 0
Dangerous builds = 0
	# write_dump all atom ${dumpfile}
        next i
jump SELF loop1
        displace_atoms upper move 0.0 ${ystep1} 0.0 units lattice
        displace_atoms upper move 0.0 0.002 0.0 units lattice
        min_style ${style}
        min_style cg
        minimize ${etol} ${ftol} ${maxiter} ${maxeval}
        minimize 1e-12 ${ftol} ${maxiter} ${maxeval}
        minimize 1e-12 1e-08 ${maxiter} ${maxeval}
        minimize 1e-12 1e-08 10000 ${maxeval}
        minimize 1e-12 1e-08 10000 20000
WARNING: Resetting reneighboring criteria during minimization (../min.cpp:168)
Memory usage per processor = 3.35952 Mbytes
Step Temp PotEng Lx Ly Lz 
      34            0   -120.80309    1.0000002    34.765732    1.0000002 
      35            0   -120.80309    1.0000002    34.765732    1.0000002 
Loop time of 4.10693e-05 on 1 procs for 1 steps with 41 atoms

Minimization stats:
  Stopping criterion = linesearch alpha is zero
  Energy initial, next-to-last, final = 
        -120.803088866     -120.803088866     -120.803088866
  Force two-norm initial, final = 2.98971e-17 2.98971e-17
  Force max component initial, final = 2.96546e-17 2.96546e-17
  Final line search alpha, max atom move = 0.5 1.48273e-17
  Iterations, force evaluations = 1 2

Pair  time (%) = 2.51005e-05 (61.1175)
Neigh time (%) = 0 (0)
Comm  time (%) = 1.78977e-06 (4.35792)
Outpt time (%) = 0 (0)
Other time (%) = 1.4179e-05 (34.5246)

Nlocal:    41 ave 41 max 41 min
Histogram: 1 0 0 0 0 0 0 0 0 0
Nghost:    185 ave 185 max 185 min
Histogram: 1 0 0 0 0 0 0 0 0 0
Neighs:    359 ave 359 max 359 min
Histogram: 1 0 0 0 0 0 0 0 0 0

Total # of neighbors = 359
Ave neighs/atom = 8.7561
Neighbor list builds = 0
Dangerous builds = 0
	# write_dump all atom ${dumpfile}
        next i
jump SELF loop1
        displace_atoms upper move 0.0 ${ystep1} 0.0 units lattice
        displace_atoms upper move 0.0 0.002 0.0 units lattice
        min_style ${style}
        min_style cg
        minimize ${etol} ${ftol} ${maxiter} ${maxeval}
        minimize 1e-12 ${ftol} ${maxiter} ${maxeval}
        minimize 1e-12 1e-08 ${maxiter} ${maxeval}
        minimize 1e-12 1e-08 10000 ${maxeval}
        minimize 1e-12 1e-08 10000 20000
WARNING: Resetting reneighboring criteria during minimization (../min.cpp:168)
Memory usage per processor = 3.35952 Mbytes
Step Temp PotEng Lx Ly Lz 
      35            0   -120.79483    1.0000002    34.769196    1.0000002 
      36            0   -120.79483    1.0000002    34.769196    1.0000002 
Loop time of 3.7898e-05 on 1 procs for 1 steps with 41 atoms

Minimization stats:
  Stopping criterion = linesearch alpha is zero
  Energy initial, next-to-last, final = 
        -120.794829102     -120.794829102     -120.794829102
  Force two-norm initial, final = 3.24951e-17 3.24951e-17
  Force max component initial, final = 2.96546e-17 2.96546e-17
  Final line search alpha, max atom move = 0.5 1.48273e-17
  Iterations, force evaluations = 1 2

Pair  time (%) = 2.31627e-05 (61.1186)
Neigh time (%) = 0 (0)
Comm  time (%) = 3.82145e-06 (10.0835)
Outpt time (%) = 0 (0)
Other time (%) = 1.09138e-05 (28.7979)

Nlocal:    41 ave 41 max 41 min
Histogram: 1 0 0 0 0 0 0 0 0 0
Nghost:    185 ave 185 max 185 min
Histogram: 1 0 0 0 0 0 0 0 0 0
Neighs:    359 ave 359 max 359 min
Histogram: 1 0 0 0 0 0 0 0 0 0

Total # of neighbors = 359
Ave neighs/atom = 8.7561
Neighbor list builds = 0
Dangerous builds = 0
	# write_dump all atom ${dumpfile}
        next i
jump SELF loop1
        displace_atoms upper move 0.0 ${ystep1} 0.0 units lattice
        displace_atoms upper move 0.0 0.002 0.0 units lattice
        min_style ${style}
        min_style cg
        minimize ${etol} ${ftol} ${maxiter} ${maxeval}
        minimize 1e-12 ${ftol} ${maxiter} ${maxeval}
        minimize 1e-12 1e-08 ${maxiter} ${maxeval}
        minimize 1e-12 1e-08 10000 ${maxeval}
        minimize 1e-12 1e-08 10000 20000
WARNING: Resetting reneighboring criteria during minimization (../min.cpp:168)
Memory usage per processor = 3.35952 Mbytes
Step Temp PotEng Lx Ly Lz 
      36            0    -120.7865    1.0000002     34.77266    1.0000002 
      37            0    -120.7865    1.0000002     34.77266    1.0000002 
Loop time of 3.80576e-05 on 1 procs for 1 steps with 41 atoms

Minimization stats:
  Stopping criterion = linesearch alpha is zero
  Energy initial, next-to-last, final = 
        -120.786503844     -120.786503844     -120.786503844
  Force two-norm initial, final = 4.78655e-17 4.78655e-17
  Force max component initial, final = 3.75727e-17 3.75727e-17
  Final line search alpha, max atom move = 0.5 1.87863e-17
  Iterations, force evaluations = 1 2

Pair  time (%) = 2.38802e-05 (62.7475)
Neigh time (%) = 0 (0)
Comm  time (%) = 5.01773e-06 (13.1846)
Outpt time (%) = 0 (0)
Other time (%) = 9.15967e-06 (24.0679)

Nlocal:    41 ave 41 max 41 min
Histogram: 1 0 0 0 0 0 0 0 0 0
Nghost:    185 ave 185 max 185 min
Histogram: 1 0 0 0 0 0 0 0 0 0
Neighs:    359 ave 359 max 359 min
Histogram: 1 0 0 0 0 0 0 0 0 0

Total # of neighbors = 359
Ave neighs/atom = 8.7561
Neighbor list builds = 0
Dangerous builds = 0
	# write_dump all atom ${dumpfile}
        next i
jump SELF loop1
        displace_atoms upper move 0.0 ${ystep1} 0.0 units lattice
        displace_atoms upper move 0.0 0.002 0.0 units lattice
        min_style ${style}
        min_style cg
        minimize ${etol} ${ftol} ${maxiter} ${maxeval}
        minimize 1e-12 ${ftol} ${maxiter} ${maxeval}
        minimize 1e-12 1e-08 ${maxiter} ${maxeval}
        minimize 1e-12 1e-08 10000 ${maxeval}
        minimize 1e-12 1e-08 10000 20000
WARNING: Resetting reneighboring criteria during minimization (../min.cpp:168)
Memory usage per processor = 3.35952 Mbytes
Step Temp PotEng Lx Ly Lz 
      37            0   -120.77811    1.0000002    34.776124    1.0000002 
      38            0   -120.77811    1.0000002    34.776124    1.0000002 
Loop time of 3.80987e-05 on 1 procs for 1 steps with 41 atoms

Minimization stats:
  Stopping criterion = linesearch alpha is zero
  Energy initial, next-to-last, final = 
        -120.778113481     -120.778113481     -120.778113481
  Force two-norm initial, final = 3.65428e-17 3.65428e-17
  Force max component initial, final = 2.96546e-17 2.96546e-17
  Final line search alpha, max atom move = 0.5 1.48273e-17
  Iterations, force evaluations = 1 2

Pair  time (%) = 2.4957e-05 (65.5062)
Neigh time (%) = 0 (0)
Comm  time (%) = 3.78734e-06 (9.94087)
Outpt time (%) = 0 (0)
Other time (%) = 9.35432e-06 (24.5529)

Nlocal:    41 ave 41 max 41 min
Histogram: 1 0 0 0 0 0 0 0 0 0
Nghost:    185 ave 185 max 185 min
Histogram: 1 0 0 0 0 0 0 0 0 0
Neighs:    359 ave 359 max 359 min
Histogram: 1 0 0 0 0 0 0 0 0 0

Total # of neighbors = 359
Ave neighs/atom = 8.7561
Neighbor list builds = 0
Dangerous builds = 0
	# write_dump all atom ${dumpfile}
        next i
jump SELF loop1
        displace_atoms upper move 0.0 ${ystep1} 0.0 units lattice
        displace_atoms upper move 0.0 0.002 0.0 units lattice
        min_style ${style}
        min_style cg
        minimize ${etol} ${ftol} ${maxiter} ${maxeval}
        minimize 1e-12 ${ftol} ${maxiter} ${maxeval}
        minimize 1e-12 1e-08 ${maxiter} ${maxeval}
        minimize 1e-12 1e-08 10000 ${maxeval}
        minimize 1e-12 1e-08 10000 20000
WARNING: Resetting reneighboring criteria during minimization (../min.cpp:168)
Memory usage per processor = 3.35952 Mbytes
Step Temp PotEng Lx Ly Lz 
      38            0   -120.76966    1.0000002    34.779588    1.0000002 
      39            0   -120.76966    1.0000002    34.779588    1.0000002 
Loop time of 0.00011102 on 1 procs for 1 steps with 41 atoms

Minimization stats:
  Stopping criterion = linesearch alpha is zero
  Energy initial, next-to-last, final = 
        -120.769658459     -120.769658459     -120.769658459
  Force two-norm initial, final = 6.27966e-17 6.27966e-17
  Force max component initial, final = 5.53536e-17 5.53536e-17
  Final line search alpha, max atom move = 0.5 2.76768e-17
  Iterations, force evaluations = 1 2

Pair  time (%) = 9.18134e-05 (82.6999)
Neigh time (%) = 0 (0)
Comm  time (%) = 3.93507e-06 (3.54447)
Outpt time (%) = 0 (0)
Other time (%) = 1.52715e-05 (13.7556)

Nlocal:    41 ave 41 max 41 min
Histogram: 1 0 0 0 0 0 0 0 0 0
Nghost:    185 ave 185 max 185 min
Histogram: 1 0 0 0 0 0 0 0 0 0
Neighs:    359 ave 359 max 359 min
Histogram: 1 0 0 0 0 0 0 0 0 0

Total # of neighbors = 359
Ave neighs/atom = 8.7561
Neighbor list builds = 0
Dangerous builds = 0
	# write_dump all atom ${dumpfile}
        next i
jump SELF loop1
        displace_atoms upper move 0.0 ${ystep1} 0.0 units lattice
        displace_atoms upper move 0.0 0.002 0.0 units lattice
        min_style ${style}
        min_style cg
        minimize ${etol} ${ftol} ${maxiter} ${maxeval}
        minimize 1e-12 ${ftol} ${maxiter} ${maxeval}
        minimize 1e-12 1e-08 ${maxiter} ${maxeval}
        minimize 1e-12 1e-08 10000 ${maxeval}
        minimize 1e-12 1e-08 10000 20000
WARNING: Resetting reneighboring criteria during minimization (../min.cpp:168)
Memory usage per processor = 3.35952 Mbytes
Step Temp PotEng Lx Ly Lz 
      39            0   -120.76114    1.0000002    34.783052    1.0000002 
      40            0   -120.76114    1.0000002    34.783052    1.0000002 
Loop time of 3.79727e-05 on 1 procs for 1 steps with 41 atoms

Minimization stats:
  Stopping criterion = linesearch alpha is zero
  Energy initial, next-to-last, final = 
        -120.761139043     -120.761139043     -120.761139043
  Force two-norm initial, final = 3.06913e-17 3.06913e-17
  Force max component initial, final = 2.96546e-17 2.96546e-17
  Final line search alpha, max atom move = 0.5 1.48273e-17
  Iterations, force evaluations = 1 2

Pair  time (%) = 2.52944e-05 (66.612)
Neigh time (%) = 0 (0)
Comm  time (%) = 5.17734e-06 (13.6344)
Outpt time (%) = 0 (0)
Other time (%) = 7.50099e-06 (19.7536)

Nlocal:    41 ave 41 max 41 min
Histogram: 1 0 0 0 0 0 0 0 0 0
Nghost:    185 ave 185 max 185 min
Histogram: 1 0 0 0 0 0 0 0 0 0
Neighs:    359 ave 359 max 359 min
Histogram: 1 0 0 0 0 0 0 0 0 0

Total # of neighbors = 359
Ave neighs/atom = 8.7561
Neighbor list builds = 0
Dangerous builds = 0
	# write_dump all atom ${dumpfile}
        next i
jump SELF loop1
        displace_atoms upper move 0.0 ${ystep1} 0.0 units lattice
        displace_atoms upper move 0.0 0.002 0.0 units lattice
        min_style ${style}
        min_style cg
        minimize ${etol} ${ftol} ${maxiter} ${maxeval}
        minimize 1e-12 ${ftol} ${maxiter} ${maxeval}
        minimize 1e-12 1e-08 ${maxiter} ${maxeval}
        minimize 1e-12 1e-08 10000 ${maxeval}
        minimize 1e-12 1e-08 10000 20000
WARNING: Resetting reneighboring criteria during minimization (../min.cpp:168)
Memory usage per processor = 3.35952 Mbytes
Step Temp PotEng Lx Ly Lz 
      40            0   -120.75256    1.0000002    34.786517    1.0000002 
      41            0   -120.75256    1.0000002    34.786517    1.0000002 
Loop time of 3.79811e-05 on 1 procs for 1 steps with 41 atoms

Minimization stats:
  Stopping criterion = linesearch alpha is zero
  Energy initial, next-to-last, final = 
        -120.752555756     -120.752555756     -120.752555756
  Force two-norm initial, final = 5.81591e-17 5.81591e-17
  Force max component initial, final = 5.00308e-17 5.00308e-17
  Final line search alpha, max atom move = 0.5 2.50154e-17
  Iterations, force evaluations = 1 2

Pair  time (%) = 2.50809e-05 (66.0352)
Neigh time (%) = 0 (0)
Comm  time (%) = 1.22725e-06 (3.23121)
Outpt time (%) = 0 (0)
Other time (%) = 1.1673e-05 (30.7336)

Nlocal:    41 ave 41 max 41 min
Histogram: 1 0 0 0 0 0 0 0 0 0
Nghost:    185 ave 185 max 185 min
Histogram: 1 0 0 0 0 0 0 0 0 0
Neighs:    359 ave 359 max 359 min
Histogram: 1 0 0 0 0 0 0 0 0 0

Total # of neighbors = 359
Ave neighs/atom = 8.7561
Neighbor list builds = 0
Dangerous builds = 0
	# write_dump all atom ${dumpfile}
        next i
jump SELF loop1
        displace_atoms upper move 0.0 ${ystep1} 0.0 units lattice
        displace_atoms upper move 0.0 0.002 0.0 units lattice
        min_style ${style}
        min_style cg
        minimize ${etol} ${ftol} ${maxiter} ${maxeval}
        minimize 1e-12 ${ftol} ${maxiter} ${maxeval}
        minimize 1e-12 1e-08 ${maxiter} ${maxeval}
        minimize 1e-12 1e-08 10000 ${maxeval}
        minimize 1e-12 1e-08 10000 20000
WARNING: Resetting reneighboring criteria during minimization (../min.cpp:168)
Memory usage per processor = 3.35952 Mbytes
Step Temp PotEng Lx Ly Lz 
      41            0   -120.74391    1.0000002    34.789981    1.0000002 
      42            0   -120.74391    1.0000002    34.789981    1.0000002 
Loop time of 4.70456e-05 on 1 procs for 1 steps with 41 atoms

Minimization stats:
  Stopping criterion = linesearch alpha is zero
  Energy initial, next-to-last, final = 
        -120.743909125     -120.743909125     -120.743909125
  Force two-norm initial, final = 5.33867e-17 5.33867e-17
  Force max component initial, final = 4.4393e-17 4.4393e-17
  Final line search alpha, max atom move = 0.5 2.21965e-17
  Iterations, force evaluations = 1 2

Pair  time (%) = 3.41549e-05 (72.5994)
Neigh time (%) = 0 (0)
Comm  time (%) = 5.07699e-06 (10.7916)
Outpt time (%) = 0 (0)
Other time (%) = 7.8138e-06 (16.609)

Nlocal:    41 ave 41 max 41 min
Histogram: 1 0 0 0 0 0 0 0 0 0
Nghost:    185 ave 185 max 185 min
Histogram: 1 0 0 0 0 0 0 0 0 0
Neighs:    359 ave 359 max 359 min
Histogram: 1 0 0 0 0 0 0 0 0 0

Total # of neighbors = 359
Ave neighs/atom = 8.7561
Neighbor list builds = 0
Dangerous builds = 0
	# write_dump all atom ${dumpfile}
        next i
jump SELF loop1
        displace_atoms upper move 0.0 ${ystep1} 0.0 units lattice
        displace_atoms upper move 0.0 0.002 0.0 units lattice
        min_style ${style}
        min_style cg
        minimize ${etol} ${ftol} ${maxiter} ${maxeval}
        minimize 1e-12 ${ftol} ${maxiter} ${maxeval}
        minimize 1e-12 1e-08 ${maxiter} ${maxeval}
        minimize 1e-12 1e-08 10000 ${maxeval}
        minimize 1e-12 1e-08 10000 20000
WARNING: Resetting reneighboring criteria during minimization (../min.cpp:168)
Memory usage per processor = 3.35952 Mbytes
Step Temp PotEng Lx Ly Lz 
      42            0    -120.7352    1.0000002    34.793445    1.0000002 
      43            0    -120.7352    1.0000002    34.793445    1.0000002 
Loop time of 3.89409e-05 on 1 procs for 1 steps with 41 atoms

Minimization stats:
  Stopping criterion = linesearch alpha is zero
  Energy initial, next-to-last, final = 
        -120.735199569     -120.735199569     -120.735199569
  Force two-norm initial, final = 3.51149e-17 3.51149e-17
  Force max component initial, final = 2.96546e-17 2.96546e-17
  Final line search alpha, max atom move = 0.5 1.48273e-17
  Iterations, force evaluations = 1 2

Pair  time (%) = 2.40996e-05 (61.8876)
Neigh time (%) = 0 (0)
Comm  time (%) = 2.21818e-06 (5.69626)
Outpt time (%) = 0 (0)
Other time (%) = 1.26231e-05 (32.4161)

Nlocal:    41 ave 41 max 41 min
Histogram: 1 0 0 0 0 0 0 0 0 0
Nghost:    185 ave 185 max 185 min
Histogram: 1 0 0 0 0 0 0 0 0 0
Neighs:    359 ave 359 max 359 min
Histogram: 1 0 0 0 0 0 0 0 0 0

Total # of neighbors = 359
Ave neighs/atom = 8.7561
Neighbor list builds = 0
Dangerous builds = 0
	# write_dump all atom ${dumpfile}
        next i
jump SELF loop1
        displace_atoms upper move 0.0 ${ystep1} 0.0 units lattice
        displace_atoms upper move 0.0 0.002 0.0 units lattice
        min_style ${style}
        min_style cg
        minimize ${etol} ${ftol} ${maxiter} ${maxeval}
        minimize 1e-12 ${ftol} ${maxiter} ${maxeval}
        minimize 1e-12 1e-08 ${maxiter} ${maxeval}
        minimize 1e-12 1e-08 10000 ${maxeval}
        minimize 1e-12 1e-08 10000 20000
WARNING: Resetting reneighboring criteria during minimization (../min.cpp:168)
Memory usage per processor = 3.35952 Mbytes
Step Temp PotEng Lx Ly Lz 
      43            0   -120.72643    1.0000002    34.796909    1.0000002 
      44            0   -120.72643    1.0000002    34.796909    1.0000002 
Loop time of 0.000133965 on 1 procs for 1 steps with 41 atoms

Minimization stats:
  Stopping criterion = linesearch alpha is zero
  Energy initial, next-to-last, final = 
        -120.726427439     -120.726427439     -120.726427439
  Force two-norm initial, final = 5.05906e-17 5.05906e-17
  Force max component initial, final = 4.09879e-17 4.09879e-17
  Final line search alpha, max atom move = 0.5 2.0494e-17
  Iterations, force evaluations = 1 2

Pair  time (%) = 2.5926e-05 (19.3529)
Neigh time (%) = 0 (0)
Comm  time (%) = 3.4871e-06 (2.603)
Outpt time (%) = 0 (0)
Other time (%) = 0.000104552 (78.0441)

Nlocal:    41 ave 41 max 41 min
Histogram: 1 0 0 0 0 0 0 0 0 0
Nghost:    185 ave 185 max 185 min
Histogram: 1 0 0 0 0 0 0 0 0 0
Neighs:    359 ave 359 max 359 min
Histogram: 1 0 0 0 0 0 0 0 0 0

Total # of neighbors = 359
Ave neighs/atom = 8.7561
Neighbor list builds = 0
Dangerous builds = 0
	# write_dump all atom ${dumpfile}
        next i
jump SELF loop1
        displace_atoms upper move 0.0 ${ystep1} 0.0 units lattice
        displace_atoms upper move 0.0 0.002 0.0 units lattice
        min_style ${style}
        min_style cg
        minimize ${etol} ${ftol} ${maxiter} ${maxeval}
        minimize 1e-12 ${ftol} ${maxiter} ${maxeval}
        minimize 1e-12 1e-08 ${maxiter} ${maxeval}
        minimize 1e-12 1e-08 10000 ${maxeval}
        minimize 1e-12 1e-08 10000 20000
WARNING: Resetting reneighboring criteria during minimization (../min.cpp:168)
Memory usage per processor = 3.35952 Mbytes
Step Temp PotEng Lx Ly Lz 
      44            0   -120.71759    1.0000002    34.800373    1.0000002 
      45            0   -120.71759    1.0000002    34.800373    1.0000002 
Loop time of 3.80678e-05 on 1 procs for 1 steps with 41 atoms

Minimization stats:
  Stopping criterion = linesearch alpha is zero
  Energy initial, next-to-last, final = 
        -120.717593084     -120.717593084     -120.717593084
  Force two-norm initial, final = 3.17823e-17 3.17823e-17
  Force max component initial, final = 2.96546e-17 2.96546e-17
  Final line search alpha, max atom move = 0.5 1.48273e-17
  Iterations, force evaluations = 1 2

Pair  time (%) = 2.48643e-05 (65.3159)
Neigh time (%) = 0 (0)
Comm  time (%) = 2.79408e-06 (7.33976)
Outpt time (%) = 0 (0)
Other time (%) = 1.04094e-05 (27.3443)

Nlocal:    41 ave 41 max 41 min
Histogram: 1 0 0 0 0 0 0 0 0 0
Nghost:    185 ave 185 max 185 min
Histogram: 1 0 0 0 0 0 0 0 0 0
Neighs:    359 ave 359 max 359 min
Histogram: 1 0 0 0 0 0 0 0 0 0

Total # of neighbors = 359
Ave neighs/atom = 8.7561
Neighbor list builds = 0
Dangerous builds = 0
	# write_dump all atom ${dumpfile}
        next i
jump SELF loop1
        displace_atoms upper move 0.0 ${ystep1} 0.0 units lattice
        displace_atoms upper move 0.0 0.002 0.0 units lattice
        min_style ${style}
        min_style cg
        minimize ${etol} ${ftol} ${maxiter} ${maxeval}
        minimize 1e-12 ${ftol} ${maxiter} ${maxeval}
        minimize 1e-12 1e-08 ${maxiter} ${maxeval}
        minimize 1e-12 1e-08 10000 ${maxeval}
[...]
Histogram: 1 0 0 0 0 0 0 0 0 0
Nghost:    185 ave 185 max 185 min
Histogram: 1 0 0 0 0 0 0 0 0 0
Neighs:    349 ave 349 max 349 min
Histogram: 1 0 0 0 0 0 0 0 0 0

Total # of neighbors = 349
Ave neighs/atom = 8.5122
Neighbor list builds = 0
Dangerous builds = 0
	# write_dump all atom ${dumpfile}
        next i
jump SELF loop1
        displace_atoms upper move 0.0 ${ystep1} 0.0 units lattice
        displace_atoms upper move 0.0 0.002 0.0 units lattice
        min_style ${style}
        min_style cg
        minimize ${etol} ${ftol} ${maxiter} ${maxeval}
        minimize 1e-12 ${ftol} ${maxiter} ${maxeval}
        minimize 1e-12 1e-08 ${maxiter} ${maxeval}
        minimize 1e-12 1e-08 10000 ${maxeval}
        minimize 1e-12 1e-08 10000 20000
WARNING: Resetting reneighboring criteria during minimization (../min.cpp:168)
Memory usage per processor = 3.35955 Mbytes
Step Temp PotEng Lx Ly Lz 
     490            0   -118.99996    1.0000002    36.345363    1.0000002 
     491            0   -118.99996    1.0000002    36.345363    1.0000002 
Loop time of 1.70508e-05 on 1 procs for 1 steps with 41 atoms

Minimization stats:
  Stopping criterion = search direction is not downhill
  Energy initial, next-to-last, final = 
        -118.999956633     -118.999956633     -118.999956633
  Force two-norm initial, final = 0 0
  Force max component initial, final = 0 0
  Final line search alpha, max atom move = 0.5 0
  Iterations, force evaluations = 1 0

Pair  time (%) = 7.9514e-06 (46.6337)
Neigh time (%) = 0 (0)
Comm  time (%) = 9.88599e-07 (5.79797)
Outpt time (%) = 0 (0)
Other time (%) = 8.11077e-06 (47.5684)

Nlocal:    41 ave 41 max 41 min
Histogram: 1 0 0 0 0 0 0 0 0 0
Nghost:    185 ave 185 max 185 min
Histogram: 1 0 0 0 0 0 0 0 0 0
Neighs:    349 ave 349 max 349 min
Histogram: 1 0 0 0 0 0 0 0 0 0

Total # of neighbors = 349
Ave neighs/atom = 8.5122
Neighbor list builds = 0
Dangerous builds = 0
	# write_dump all atom ${dumpfile}
        next i
jump SELF loop1
        displace_atoms upper move 0.0 ${ystep1} 0.0 units lattice
        displace_atoms upper move 0.0 0.002 0.0 units lattice
        min_style ${style}
        min_style cg
        minimize ${etol} ${ftol} ${maxiter} ${maxeval}
        minimize 1e-12 ${ftol} ${maxiter} ${maxeval}
        minimize 1e-12 1e-08 ${maxiter} ${maxeval}
        minimize 1e-12 1e-08 10000 ${maxeval}
        minimize 1e-12 1e-08 10000 20000
WARNING: Resetting reneighboring criteria during minimization (../min.cpp:168)
Memory usage per processor = 3.35955 Mbytes
Step Temp PotEng Lx Ly Lz 
     491            0   -118.99996    1.0000002    36.348827    1.0000002 
     492            0   -118.99996    1.0000002    36.348827    1.0000002 
Loop time of 1.99255e-05 on 1 procs for 1 steps with 41 atoms

Minimization stats:
  Stopping criterion = search direction is not downhill
  Energy initial, next-to-last, final = 
        -118.999956633     -118.999956633     -118.999956633
  Force two-norm initial, final = 0 0
  Force max component initial, final = 0 0
  Final line search alpha, max atom move = 0.5 0
  Iterations, force evaluations = 1 0

Pair  time (%) = 9.11078e-06 (45.7242)
Neigh time (%) = 0 (0)
Comm  time (%) = 2.11538e-06 (10.6164)
Outpt time (%) = 0 (0)
Other time (%) = 8.69937e-06 (43.6594)

Nlocal:    41 ave 41 max 41 min
Histogram: 1 0 0 0 0 0 0 0 0 0
Nghost:    185 ave 185 max 185 min
Histogram: 1 0 0 0 0 0 0 0 0 0
Neighs:    349 ave 349 max 349 min
Histogram: 1 0 0 0 0 0 0 0 0 0

Total # of neighbors = 349
Ave neighs/atom = 8.5122
Neighbor list builds = 0
Dangerous builds = 0
	# write_dump all atom ${dumpfile}
        next i
jump SELF loop1
        displace_atoms upper move 0.0 ${ystep1} 0.0 units lattice
        displace_atoms upper move 0.0 0.002 0.0 units lattice
        min_style ${style}
        min_style cg
        minimize ${etol} ${ftol} ${maxiter} ${maxeval}
        minimize 1e-12 ${ftol} ${maxiter} ${maxeval}
        minimize 1e-12 1e-08 ${maxiter} ${maxeval}
        minimize 1e-12 1e-08 10000 ${maxeval}
        minimize 1e-12 1e-08 10000 20000
WARNING: Resetting reneighboring criteria during minimization (../min.cpp:168)
Memory usage per processor = 3.35955 Mbytes
Step Temp PotEng Lx Ly Lz 
     492            0   -118.99996    1.0000002    36.352291    1.0000002 
     493            0   -118.99996    1.0000002    36.352291    1.0000002 
Loop time of 1.80907e-05 on 1 procs for 1 steps with 41 atoms

Minimization stats:
  Stopping criterion = search direction is not downhill
  Energy initial, next-to-last, final = 
        -118.999956633     -118.999956633     -118.999956633
  Force two-norm initial, final = 0 0
  Force max component initial, final = 0 0
  Final line search alpha, max atom move = 0.5 0
  Iterations, force evaluations = 1 0

Pair  time (%) = 8.99134e-06 (49.7014)
Neigh time (%) = 0 (0)
Comm  time (%) = 8.76375e-07 (4.84434)
Outpt time (%) = 0 (0)
Other time (%) = 8.223e-06 (45.4543)

Nlocal:    41 ave 41 max 41 min
Histogram: 1 0 0 0 0 0 0 0 0 0
Nghost:    185 ave 185 max 185 min
Histogram: 1 0 0 0 0 0 0 0 0 0
Neighs:    349 ave 349 max 349 min
Histogram: 1 0 0 0 0 0 0 0 0 0

Total # of neighbors = 349
Ave neighs/atom = 8.5122
Neighbor list builds = 0
Dangerous builds = 0
	# write_dump all atom ${dumpfile}
        next i
jump SELF loop1
        displace_atoms upper move 0.0 ${ystep1} 0.0 units lattice
        displace_atoms upper move 0.0 0.002 0.0 units lattice
        min_style ${style}
        min_style cg
        minimize ${etol} ${ftol} ${maxiter} ${maxeval}
        minimize 1e-12 ${ftol} ${maxiter} ${maxeval}
        minimize 1e-12 1e-08 ${maxiter} ${maxeval}
        minimize 1e-12 1e-08 10000 ${maxeval}
        minimize 1e-12 1e-08 10000 20000
WARNING: Resetting reneighboring criteria during minimization (../min.cpp:168)
Memory usage per processor = 3.35955 Mbytes
Step Temp PotEng Lx Ly Lz 
     493            0   -118.99996    1.0000002    36.355755    1.0000002 
     494            0   -118.99996    1.0000002    36.355755    1.0000002 
Loop time of 1.79861e-05 on 1 procs for 1 steps with 41 atoms

Minimization stats:
  Stopping criterion = search direction is not downhill
  Energy initial, next-to-last, final = 
        -118.999956633     -118.999956633     -118.999956633
  Force two-norm initial, final = 0 0
  Force max component initial, final = 0 0
  Final line search alpha, max atom move = 0.5 0
  Iterations, force evaluations = 1 0

Pair  time (%) = 8.88656e-06 (49.4081)
Neigh time (%) = 0 (0)
Comm  time (%) = 1.14378e-06 (6.35926)
Outpt time (%) = 0 (0)
Other time (%) = 7.95571e-06 (44.2326)

Nlocal:    41 ave 41 max 41 min
Histogram: 1 0 0 0 0 0 0 0 0 0
Nghost:    185 ave 185 max 185 min
Histogram: 1 0 0 0 0 0 0 0 0 0
Neighs:    349 ave 349 max 349 min
Histogram: 1 0 0 0 0 0 0 0 0 0

Total # of neighbors = 349
Ave neighs/atom = 8.5122
Neighbor list builds = 0
Dangerous builds = 0
	# write_dump all atom ${dumpfile}
        next i
jump SELF loop1
        displace_atoms upper move 0.0 ${ystep1} 0.0 units lattice
        displace_atoms upper move 0.0 0.002 0.0 units lattice
        min_style ${style}
        min_style cg
        minimize ${etol} ${ftol} ${maxiter} ${maxeval}
        minimize 1e-12 ${ftol} ${maxiter} ${maxeval}
        minimize 1e-12 1e-08 ${maxiter} ${maxeval}
        minimize 1e-12 1e-08 10000 ${maxeval}
        minimize 1e-12 1e-08 10000 20000
WARNING: Resetting reneighboring criteria during minimization (../min.cpp:168)
Memory usage per processor = 3.35955 Mbytes
Step Temp PotEng Lx Ly Lz 
     494            0   -118.99996    1.0000002    36.359219    1.0000002 
     495            0   -118.99996    1.0000002    36.359219    1.0000002 
Loop time of 1.69924e-05 on 1 procs for 1 steps with 41 atoms

Minimization stats:
  Stopping criterion = search direction is not downhill
  Energy initial, next-to-last, final = 
        -118.999956633     -118.999956633     -118.999956633
  Force two-norm initial, final = 0 0
  Force max component initial, final = 0 0
  Final line search alpha, max atom move = 0.5 0
  Iterations, force evaluations = 1 0

Pair  time (%) = 7.89296e-06 (46.4498)
Neigh time (%) = 0 (0)
Comm  time (%) = 2.06393e-06 (12.1461)
Outpt time (%) = 0 (0)
Other time (%) = 7.03556e-06 (41.404)

Nlocal:    41 ave 41 max 41 min
Histogram: 1 0 0 0 0 0 0 0 0 0
Nghost:    185 ave 185 max 185 min
Histogram: 1 0 0 0 0 0 0 0 0 0
Neighs:    349 ave 349 max 349 min
Histogram: 1 0 0 0 0 0 0 0 0 0

Total # of neighbors = 349
Ave neighs/atom = 8.5122
Neighbor list builds = 0
Dangerous builds = 0
	# write_dump all atom ${dumpfile}
        next i
jump SELF loop1
        displace_atoms upper move 0.0 ${ystep1} 0.0 units lattice
        displace_atoms upper move 0.0 0.002 0.0 units lattice
        min_style ${style}
        min_style cg
        minimize ${etol} ${ftol} ${maxiter} ${maxeval}
        minimize 1e-12 ${ftol} ${maxiter} ${maxeval}
        minimize 1e-12 1e-08 ${maxiter} ${maxeval}
        minimize 1e-12 1e-08 10000 ${maxeval}
        minimize 1e-12 1e-08 10000 20000
WARNING: Resetting reneighboring criteria during minimization (../min.cpp:168)
Memory usage per processor = 3.35955 Mbytes
Step Temp PotEng Lx Ly Lz 
     495            0   -118.99996    1.0000002    36.362683    1.0000002 
     496            0   -118.99996    1.0000002    36.362683    1.0000002 
Loop time of 1.7081e-05 on 1 procs for 1 steps with 41 atoms

Minimization stats:
  Stopping criterion = search direction is not downhill
  Energy initial, next-to-last, final = 
        -118.999956633     -118.999956633     -118.999956633
  Force two-norm initial, final = 0 0
  Force max component initial, final = 0 0
  Final line search alpha, max atom move = 0.5 0
  Iterations, force evaluations = 1 0

Pair  time (%) = 8.93523e-06 (52.3108)
Neigh time (%) = 0 (0)
Comm  time (%) = 2.00269e-06 (11.7247)
Outpt time (%) = 0 (0)
Other time (%) = 6.14312e-06 (35.9646)

Nlocal:    41 ave 41 max 41 min
Histogram: 1 0 0 0 0 0 0 0 0 0
Nghost:    185 ave 185 max 185 min
Histogram: 1 0 0 0 0 0 0 0 0 0
Neighs:    349 ave 349 max 349 min
Histogram: 1 0 0 0 0 0 0 0 0 0

Total # of neighbors = 349
Ave neighs/atom = 8.5122
Neighbor list builds = 0
Dangerous builds = 0
	# write_dump all atom ${dumpfile}
        next i
jump SELF loop1
        displace_atoms upper move 0.0 ${ystep1} 0.0 units lattice
        displace_atoms upper move 0.0 0.002 0.0 units lattice
        min_style ${style}
        min_style cg
        minimize ${etol} ${ftol} ${maxiter} ${maxeval}
        minimize 1e-12 ${ftol} ${maxiter} ${maxeval}
        minimize 1e-12 1e-08 ${maxiter} ${maxeval}
        minimize 1e-12 1e-08 10000 ${maxeval}
        minimize 1e-12 1e-08 10000 20000
WARNING: Resetting reneighboring criteria during minimization (../min.cpp:168)
Memory usage per processor = 3.35955 Mbytes
Step Temp PotEng Lx Ly Lz 
     496            0   -118.99996    1.0000002    36.366147    1.0000002 
     497            0   -118.99996    1.0000002    36.366147    1.0000002 
Loop time of 1.69831e-05 on 1 procs for 1 steps with 41 atoms

Minimization stats:
  Stopping criterion = search direction is not downhill
  Energy initial, next-to-last, final = 
        -118.999956633     -118.999956633     -118.999956633
  Force two-norm initial, final = 0 0
  Force max component initial, final = 0 0
  Final line search alpha, max atom move = 0.5 0
  Iterations, force evaluations = 1 0

Pair  time (%) = 7.88365e-06 (46.4204)
Neigh time (%) = 0 (0)
Comm  time (%) = 1.09163e-06 (6.42771)
Outpt time (%) = 0 (0)
Other time (%) = 8.00786e-06 (47.1518)

Nlocal:    41 ave 41 max 41 min
Histogram: 1 0 0 0 0 0 0 0 0 0
Nghost:    185 ave 185 max 185 min
Histogram: 1 0 0 0 0 0 0 0 0 0
Neighs:    349 ave 349 max 349 min
Histogram: 1 0 0 0 0 0 0 0 0 0

Total # of neighbors = 349
Ave neighs/atom = 8.5122
Neighbor list builds = 0
Dangerous builds = 0
	# write_dump all atom ${dumpfile}
        next i
jump SELF loop1
        displace_atoms upper move 0.0 ${ystep1} 0.0 units lattice
        displace_atoms upper move 0.0 0.002 0.0 units lattice
        min_style ${style}
        min_style cg
        minimize ${etol} ${ftol} ${maxiter} ${maxeval}
        minimize 1e-12 ${ftol} ${maxiter} ${maxeval}
        minimize 1e-12 1e-08 ${maxiter} ${maxeval}
        minimize 1e-12 1e-08 10000 ${maxeval}
        minimize 1e-12 1e-08 10000 20000
WARNING: Resetting reneighboring criteria during minimization (../min.cpp:168)
Memory usage per processor = 3.35955 Mbytes
Step Temp PotEng Lx Ly Lz 
     497            0   -118.99996    1.0000002    36.369611    1.0000002 
     498            0   -118.99996    1.0000002    36.369611    1.0000002 
Loop time of 1.69327e-05 on 1 procs for 1 steps with 41 atoms

Minimization stats:
  Stopping criterion = search direction is not downhill
  Energy initial, next-to-last, final = 
        -118.999956633     -118.999956633     -118.999956633
  Force two-norm initial, final = 0 0
  Force max component initial, final = 0 0
  Final line search alpha, max atom move = 0.5 0
  Iterations, force evaluations = 1 0

Pair  time (%) = 9.02533e-06 (53.3011)
Neigh time (%) = 0 (0)
Comm  time (%) = 1.94449e-06 (11.4836)
Outpt time (%) = 0 (0)
Other time (%) = 5.96291e-06 (35.2153)

Nlocal:    41 ave 41 max 41 min
Histogram: 1 0 0 0 0 0 0 0 0 0
Nghost:    185 ave 185 max 185 min
Histogram: 1 0 0 0 0 0 0 0 0 0
Neighs:    349 ave 349 max 349 min
Histogram: 1 0 0 0 0 0 0 0 0 0

Total # of neighbors = 349
Ave neighs/atom = 8.5122
Neighbor list builds = 0
Dangerous builds = 0
	# write_dump all atom ${dumpfile}
        next i
jump SELF loop1
        displace_atoms upper move 0.0 ${ystep1} 0.0 units lattice
        displace_atoms upper move 0.0 0.002 0.0 units lattice
        min_style ${style}
        min_style cg
        minimize ${etol} ${ftol} ${maxiter} ${maxeval}
        minimize 1e-12 ${ftol} ${maxiter} ${maxeval}
        minimize 1e-12 1e-08 ${maxiter} ${maxeval}
        minimize 1e-12 1e-08 10000 ${maxeval}
        minimize 1e-12 1e-08 10000 20000
WARNING: Resetting reneighboring criteria during minimization (../min.cpp:168)
Memory usage per processor = 3.35955 Mbytes
Step Temp PotEng Lx Ly Lz 
     498            0   -118.99996    1.0000002    36.373075    1.0000002 
     499            0   -118.99996    1.0000002    36.373075    1.0000002 
Loop time of 1.69287e-05 on 1 procs for 1 steps with 41 atoms

Minimization stats:
  Stopping criterion = search direction is not downhill
  Energy initial, next-to-last, final = 
        -118.999956633     -118.999956633     -118.999956633
  Force two-norm initial, final = 0 0
  Force max component initial, final = 0 0
  Final line search alpha, max atom move = 0.5 0
  Iterations, force evaluations = 1 0

Pair  time (%) = 8.06758e-06 (47.6564)
Neigh time (%) = 0 (0)
Comm  time (%) = 9.82662e-07 (5.80473)
Outpt time (%) = 0 (0)
Other time (%) = 7.87841e-06 (46.5389)

Nlocal:    41 ave 41 max 41 min
Histogram: 1 0 0 0 0 0 0 0 0 0
Nghost:    185 ave 185 max 185 min
Histogram: 1 0 0 0 0 0 0 0 0 0
Neighs:    349 ave 349 max 349 min
Histogram: 1 0 0 0 0 0 0 0 0 0

Total # of neighbors = 349
Ave neighs/atom = 8.5122
Neighbor list builds = 0
Dangerous builds = 0
	# write_dump all atom ${dumpfile}
        next i
jump SELF loop1
        displace_atoms upper move 0.0 ${ystep1} 0.0 units lattice
        displace_atoms upper move 0.0 0.002 0.0 units lattice
        min_style ${style}
        min_style cg
        minimize ${etol} ${ftol} ${maxiter} ${maxeval}
        minimize 1e-12 ${ftol} ${maxiter} ${maxeval}
        minimize 1e-12 1e-08 ${maxiter} ${maxeval}
        minimize 1e-12 1e-08 10000 ${maxeval}
        minimize 1e-12 1e-08 10000 20000
WARNING: Resetting reneighboring criteria during minimization (../min.cpp:168)
Memory usage per processor = 3.35955 Mbytes
Step Temp PotEng Lx Ly Lz 
     499            0   -118.99996    1.0000002     36.37654    1.0000002 
     500            0   -118.99996    1.0000002     36.37654    1.0000002 
Loop time of 1.69629e-05 on 1 procs for 1 steps with 41 atoms

Minimization stats:
  Stopping criterion = search direction is not downhill
  Energy initial, next-to-last, final = 
        -118.999956633     -118.999956633     -118.999956633
  Force two-norm initial, final = 0 0
  Force max component initial, final = 0 0
  Final line search alpha, max atom move = 0.5 0
  Iterations, force evaluations = 1 0

Pair  time (%) = 8.10192e-06 (47.7627)
Neigh time (%) = 0 (0)
Comm  time (%) = 1.05123e-06 (6.19724)
Outpt time (%) = 0 (0)
Other time (%) = 7.80972e-06 (46.0401)

Nlocal:    41 ave 41 max 41 min
Histogram: 1 0 0 0 0 0 0 0 0 0
Nghost:    185 ave 185 max 185 min
Histogram: 1 0 0 0 0 0 0 0 0 0
Neighs:    349 ave 349 max 349 min
Histogram: 1 0 0 0 0 0 0 0 0 0

Total # of neighbors = 349
Ave neighs/atom = 8.5122
Neighbor list builds = 0
Dangerous builds = 0
	# write_dump all atom ${dumpfile}
        next i
jump SELF loop1
        displace_atoms upper move 0.0 ${ystep1} 0.0 units lattice
        displace_atoms upper move 0.0 0.002 0.0 units lattice
        min_style ${style}
        min_style cg
        minimize ${etol} ${ftol} ${maxiter} ${maxeval}
        minimize 1e-12 ${ftol} ${maxiter} ${maxeval}
        minimize 1e-12 1e-08 ${maxiter} ${maxeval}
        minimize 1e-12 1e-08 10000 ${maxeval}
        minimize 1e-12 1e-08 10000 20000
WARNING: Resetting reneighboring criteria during minimization (../min.cpp:168)
Memory usage per processor = 3.35955 Mbytes
Step Temp PotEng Lx Ly Lz 
     500            0   -118.99996    1.0000002    36.380004    1.0000002 
     501            0   -118.99996    1.0000002    36.380004    1.0000002 
Loop time of 5.79346e-05 on 1 procs for 1 steps with 41 atoms

Minimization stats:
  Stopping criterion = search direction is not downhill
  Energy initial, next-to-last, final = 
        -118.999956633     -118.999956633     -118.999956633
  Force two-norm initial, final = 0 0
  Force max component initial, final = 0 0
  Final line search alpha, max atom move = 0.5 0
  Iterations, force evaluations = 1 0

Pair  time (%) = 1.20205e-05 (20.7484)
Neigh time (%) = 0 (0)
Comm  time (%) = 2.98105e-06 (5.14554)
Outpt time (%) = 0 (0)
Other time (%) = 4.2933e-05 (74.1061)

Nlocal:    41 ave 41 max 41 min
Histogram: 1 0 0 0 0 0 0 0 0 0
Nghost:    185 ave 185 max 185 min
Histogram: 1 0 0 0 0 0 0 0 0 0
Neighs:    349 ave 349 max 349 min
Histogram: 1 0 0 0 0 0 0 0 0 0

Total # of neighbors = 349
Ave neighs/atom = 8.5122
Neighbor list builds = 0
Dangerous builds = 0
	# write_dump all atom ${dumpfile}
        next i
jump SELF loop1

unfix 2
min_style ${style}
min_style cg
minimize ${etol} ${ftol} ${maxiter} ${maxeval}
minimize 1e-12 ${ftol} ${maxiter} ${maxeval}
minimize 1e-12 1e-08 ${maxiter} ${maxeval}
minimize 1e-12 1e-08 10000 ${maxeval}
minimize 1e-12 1e-08 10000 20000
WARNING: Resetting reneighboring criteria during minimization (../min.cpp:168)
Memory usage per processor = 3.35955 Mbytes
Step Temp PotEng Lx Ly Lz 
     501            0   -118.99996    1.0000002    36.380004    1.0000002 
     502            0   -118.99996    1.0000002    36.380004    1.0000002 
Loop time of 3.90123e-05 on 1 procs for 1 steps with 41 atoms

Minimization stats:
  Stopping criterion = linesearch alpha is zero
  Energy initial, next-to-last, final = 
        -118.999956633     -118.999956633     -118.999956633
  Force two-norm initial, final = 6.11446e-06 6.11446e-06
  Force max component initial, final = 3.05723e-06 3.05723e-06
  Final line search alpha, max atom move = 0.5 1.52862e-06
  Iterations, force evaluations = 1 2

Pair  time (%) = 2.38369e-05 (61.1009)
Neigh time (%) = 0 (0)
Comm  time (%) = 3.93135e-06 (10.0772)
Outpt time (%) = 0 (0)
Other time (%) = 1.12441e-05 (28.8219)

Nlocal:    41 ave 41 max 41 min
Histogram: 1 0 0 0 0 0 0 0 0 0
Nghost:    185 ave 185 max 185 min
Histogram: 1 0 0 0 0 0 0 0 0 0
Neighs:    349 ave 349 max 349 min
Histogram: 1 0 0 0 0 0 0 0 0 0

Total # of neighbors = 349
Ave neighs/atom = 8.5122
Neighbor list builds = 0
Dangerous builds = 0

