LAMMPS (28 Jun 2014)
# attempt at getting surface energy

#file prefix
variable prefix string surf_V_inter1new2
variable dumpfile string ${prefix}.*.dump
variable dumpfile string surf_V_inter1new2.*.dump
variable restartfile string ${prefix}.*.equil
variable restartfile string surf_V_inter1new2.*.equil

#Mass (g/mol)
variable m equal 1

# lattice constant (in Angstroms) and orientation of axes (given by lattice vectors)
variable rho equal 0.9165
variable x1 equal 1
variable x2 equal 0
variable x3 equal 0
variable y1 equal 0
variable y2 equal 1
variable y3 equal 0
# length of lattice in different directions (using orientation of lattice vectors)
variable ax equal sqrt(${x1}*${x1}+${x2}*${x2}+${x3}*${x3})
variable ax equal sqrt(1*${x1}+${x2}*${x2}+${x3}*${x3})
variable ax equal sqrt(1*1+${x2}*${x2}+${x3}*${x3})
variable ax equal sqrt(1*1+0*${x2}+${x3}*${x3})
variable ax equal sqrt(1*1+0*0+${x3}*${x3})
variable ax equal sqrt(1*1+0*0+0*${x3})
variable ax equal sqrt(1*1+0*0+0*0)
variable ay equal sqrt(${y1}*${y1}+${y2}*${y2}+${y3}*${y3})
variable ay equal sqrt(0*${y1}+${y2}*${y2}+${y3}*${y3})
variable ay equal sqrt(0*0+${y2}*${y2}+${y3}*${y3})
variable ay equal sqrt(0*0+1*${y2}+${y3}*${y3})
variable ay equal sqrt(0*0+1*1+${y3}*${y3})
variable ay equal sqrt(0*0+1*1+0*${y3})
variable ay equal sqrt(0*0+1*1+0*0)
variable az equal 1

# size of box in lattice units
variable lxpos equal 1
variable lxneg equal 0
variable lypos equal 10
variable lyneg equal -1*${lypos}
variable lyneg equal -1*10
variable lzpos equal 1
variable lzneg equal 0

# Define minimization parameters and damping
variable etol equal 1.0e-12
variable ftol equal 1.0e-8
variable maxiter equal 10000
variable maxeval equal 20000
variable style string cg

# boundary conditions
dimension	2
boundary	p s p
atom_style	atomic

# create geometry
units		lj
lattice         hex ${rho}
lattice         hex 0.9165
Lattice spacing in x,y,z = 1.12245 1.94415 1.12245
region		myregion block ${lxneg} ${lxpos} ${lyneg} ${lypos} ${lzneg} ${lzpos} units lattice
region		myregion block 0 ${lxpos} ${lyneg} ${lypos} ${lzneg} ${lzpos} units lattice
region		myregion block 0 1 ${lyneg} ${lypos} ${lzneg} ${lzpos} units lattice
region		myregion block 0 1 -10 ${lypos} ${lzneg} ${lzpos} units lattice
region		myregion block 0 1 -10 10 ${lzneg} ${lzpos} units lattice
region		myregion block 0 1 -10 10 0 ${lzpos} units lattice
region		myregion block 0 1 -10 10 0 1 units lattice
create_box	1 myregion
Created orthogonal box = (0 -19.4415 0) to (1.12245 19.4415 1.12245)
  1 by 1 by 1 MPI processor grid
create_atoms	1 box
Created 41 atoms

# define masses
mass * $m
mass * 1

# my fake/morse potential
pair_style      table linear 1000
pair_coeff      * * da_potential_brittle dummy
neighbor	0.3 bin
neigh_modify	delay 5

# define groups
region	    upper block INF INF 0.01 ${lypos} INF INF units lattice
region	    upper block INF INF 0.01 10 INF INF units lattice
group		upper region upper
20 atoms in group upper

# Setup output
thermo 1
thermo_style custom step temp pe lx ly lz
thermo_modify norm no

# Compute initial state by relaxing box
min_style ${style}
min_style cg
minimize ${etol} ${ftol} ${maxiter} ${maxeval}
minimize 1e-12 ${ftol} ${maxiter} ${maxeval}
minimize 1e-12 1e-08 ${maxiter} ${maxeval}
minimize 1e-12 1e-08 10000 ${maxeval}
minimize 1e-12 1e-08 10000 20000
WARNING: Resetting reneighboring criteria during minimization (../min.cpp:168)
Memory usage per processor = 3.35941 Mbytes
Step Temp PotEng Lx Ly Lz 
       0            0   -120.99771    1.1224537    38.890715    1.1224537 
       1            0   -120.99771    1.1224537    38.890715    1.1224537 
Loop time of 0.000340991 on 1 procs for 1 steps with 41 atoms

Minimization stats:
  Stopping criterion = linesearch alpha is zero
  Energy initial, next-to-last, final = 
        -120.997714581     -120.997714581     -120.997714581
  Force two-norm initial, final = 0.0496089 0.0496089
  Force max component initial, final = 0.0350788 0.0350788
  Final line search alpha, max atom move = 3.8147e-06 1.33815e-07
  Iterations, force evaluations = 1 19

Pair  time (%) = 0.000241825 (70.9181)
Neigh time (%) = 0 (0)
Comm  time (%) = 2.68732e-05 (7.88091)
Outpt time (%) = 0 (0)
Other time (%) = 7.22934e-05 (21.201)

Nlocal:    41 ave 41 max 41 min
Histogram: 1 0 0 0 0 0 0 0 0 0
Nghost:    185 ave 185 max 185 min
Histogram: 1 0 0 0 0 0 0 0 0 0
Neighs:    359 ave 359 max 359 min
Histogram: 1 0 0 0 0 0 0 0 0 0

Total # of neighbors = 359
Ave neighs/atom = 8.7561
Neighbor list builds = 0
Dangerous builds = 0

# don't allow atoms to relax in y-direction
fix 2 all setforce NULL 0.0 NULL

# Energy curve will have nstep steps
variable nsteps equal 500
variable sstep1 equal 1.0
variable ystep1 equal ${sstep1}/(${ay}*${nsteps})
variable ystep1 equal 1/(${ay}*${nsteps})
variable ystep1 equal 1/(1*${nsteps})
variable ystep1 equal 1/(1*500)

variable i loop ${nsteps}
variable i loop 500
label loop1
        displace_atoms upper move 0.0 ${ystep1} 0.0 units lattice
        displace_atoms upper move 0.0 0.002 0.0 units lattice
        min_style ${style}
        min_style cg
        minimize ${etol} ${ftol} ${maxiter} ${maxeval}
        minimize 1e-12 ${ftol} ${maxiter} ${maxeval}
        minimize 1e-12 1e-08 ${maxiter} ${maxeval}
        minimize 1e-12 1e-08 10000 ${maxeval}
        minimize 1e-12 1e-08 10000 20000
WARNING: Resetting reneighboring criteria during minimization (../min.cpp:168)
Memory usage per processor = 3.35941 Mbytes
Step Temp PotEng Lx Ly Lz 
       1            0   -120.99747    1.1224537    38.894603    1.1224537 
       2            0   -120.99747    1.1224537    38.894603    1.1224537 
Loop time of 8.60248e-05 on 1 procs for 1 steps with 41 atoms

Minimization stats:
  Stopping criterion = linesearch alpha is zero
  Energy initial, next-to-last, final = 
        -120.997466475     -120.997466475     -120.997466475
  Force two-norm initial, final = 1.15069e-17 1.15069e-17
  Force max component initial, final = 6.93889e-18 6.93889e-18
  Final line search alpha, max atom move = 0.5 3.46945e-18
  Iterations, force evaluations = 1 2

Pair  time (%) = 3.90393e-05 (45.3815)
Neigh time (%) = 0 (0)
Comm  time (%) = 3.55428e-06 (4.13169)
Outpt time (%) = 0 (0)
Other time (%) = 4.34312e-05 (50.4868)

Nlocal:    41 ave 41 max 41 min
Histogram: 1 0 0 0 0 0 0 0 0 0
Nghost:    185 ave 185 max 185 min
Histogram: 1 0 0 0 0 0 0 0 0 0
Neighs:    359 ave 359 max 359 min
Histogram: 1 0 0 0 0 0 0 0 0 0

Total # of neighbors = 359
Ave neighs/atom = 8.7561
Neighbor list builds = 0
Dangerous builds = 0
	# write_dump all atom ${dumpfile}
        next i
jump SELF loop1
        displace_atoms upper move 0.0 ${ystep1} 0.0 units lattice
        displace_atoms upper move 0.0 0.002 0.0 units lattice
        min_style ${style}
        min_style cg
        minimize ${etol} ${ftol} ${maxiter} ${maxeval}
        minimize 1e-12 ${ftol} ${maxiter} ${maxeval}
        minimize 1e-12 1e-08 ${maxiter} ${maxeval}
        minimize 1e-12 1e-08 10000 ${maxeval}
        minimize 1e-12 1e-08 10000 20000
WARNING: Resetting reneighboring criteria during minimization (../min.cpp:168)
Memory usage per processor = 3.35941 Mbytes
Step Temp PotEng Lx Ly Lz 
       2            0   -120.99664    1.1224537    38.898491    1.1224537 
       3            0   -120.99664    1.1224537    38.898491    1.1224537 
Loop time of 8.49586e-05 on 1 procs for 1 steps with 41 atoms

Minimization stats:
  Stopping criterion = linesearch alpha is zero
  Energy initial, next-to-last, final = 
        -120.996640483     -120.996640483     -120.996640483
  Force two-norm initial, final = 6.93889e-18 6.93889e-18
  Force max component initial, final = 3.46945e-18 3.46945e-18
  Final line search alpha, max atom move = 0.5 1.73472e-18
  Iterations, force evaluations = 1 2

Pair  time (%) = 3.77479e-05 (44.4309)
Neigh time (%) = 0 (0)
Comm  time (%) = 5.1636e-06 (6.07778)
Outpt time (%) = 0 (0)
Other time (%) = 4.20471e-05 (49.4913)

Nlocal:    41 ave 41 max 41 min
Histogram: 1 0 0 0 0 0 0 0 0 0
Nghost:    185 ave 185 max 185 min
Histogram: 1 0 0 0 0 0 0 0 0 0
Neighs:    359 ave 359 max 359 min
Histogram: 1 0 0 0 0 0 0 0 0 0

Total # of neighbors = 359
Ave neighs/atom = 8.7561
Neighbor list builds = 0
Dangerous builds = 0
	# write_dump all atom ${dumpfile}
        next i
jump SELF loop1
        displace_atoms upper move 0.0 ${ystep1} 0.0 units lattice
        displace_atoms upper move 0.0 0.002 0.0 units lattice
        min_style ${style}
        min_style cg
        minimize ${etol} ${ftol} ${maxiter} ${maxeval}
        minimize 1e-12 ${ftol} ${maxiter} ${maxeval}
        minimize 1e-12 1e-08 ${maxiter} ${maxeval}
        minimize 1e-12 1e-08 10000 ${maxeval}
        minimize 1e-12 1e-08 10000 20000
WARNING: Resetting reneighboring criteria during minimization (../min.cpp:168)
Memory usage per processor = 3.35941 Mbytes
Step Temp PotEng Lx Ly Lz 
       3            0    -120.9953    1.1224537    38.902379    1.1224537 
       4            0    -120.9953    1.1224537    38.902379    1.1224537 
Loop time of 5.39707e-05 on 1 procs for 1 steps with 41 atoms

Minimization stats:
  Stopping criterion = linesearch alpha is zero
  Energy initial, next-to-last, final = 
        -120.995304158     -120.995304158     -120.995304158
  Force two-norm initial, final = 1.25093e-17 1.25093e-17
  Force max component initial, final = 1.04083e-17 1.04083e-17
  Final line search alpha, max atom move = 0.5 5.20417e-18
  Iterations, force evaluations = 1 2

Pair  time (%) = 3.69303e-05 (68.4266)
Neigh time (%) = 0 (0)
Comm  time (%) = 4.15056e-06 (7.69038)
Outpt time (%) = 0 (0)
Other time (%) = 1.28899e-05 (23.883)

Nlocal:    41 ave 41 max 41 min
Histogram: 1 0 0 0 0 0 0 0 0 0
Nghost:    185 ave 185 max 185 min
Histogram: 1 0 0 0 0 0 0 0 0 0
Neighs:    359 ave 359 max 359 min
Histogram: 1 0 0 0 0 0 0 0 0 0

Total # of neighbors = 359
Ave neighs/atom = 8.7561
Neighbor list builds = 0
Dangerous builds = 0
	# write_dump all atom ${dumpfile}
        next i
jump SELF loop1
        displace_atoms upper move 0.0 ${ystep1} 0.0 units lattice
        displace_atoms upper move 0.0 0.002 0.0 units lattice
        min_style ${style}
        min_style cg
        minimize ${etol} ${ftol} ${maxiter} ${maxeval}
        minimize 1e-12 ${ftol} ${maxiter} ${maxeval}
        minimize 1e-12 1e-08 ${maxiter} ${maxeval}
        minimize 1e-12 1e-08 10000 ${maxeval}
        minimize 1e-12 1e-08 10000 20000
WARNING: Resetting reneighboring criteria during minimization (../min.cpp:168)
Memory usage per processor = 3.35941 Mbytes
Step Temp PotEng Lx Ly Lz 
       4            0    -120.9935    1.1224537    38.906268    1.1224537 
       5            0    -120.9935    1.1224537    38.906268    1.1224537 
Loop time of 5.40094e-05 on 1 procs for 1 steps with 41 atoms

Minimization stats:
  Stopping criterion = linesearch alpha is zero
  Energy initial, next-to-last, final = 
        -120.993499078     -120.993499078     -120.993499078
  Force two-norm initial, final = 9.81308e-18 9.81308e-18
  Force max component initial, final = 6.93889e-18 6.93889e-18
  Final line search alpha, max atom move = 0.5 3.46945e-18
  Iterations, force evaluations = 1 2

Pair  time (%) = 3.68078e-05 (68.1508)
Neigh time (%) = 0 (0)
Comm  time (%) = 4.99818e-06 (9.25427)
Outpt time (%) = 0 (0)
Other time (%) = 1.22034e-05 (22.5949)

Nlocal:    41 ave 41 max 41 min
Histogram: 1 0 0 0 0 0 0 0 0 0
Nghost:    185 ave 185 max 185 min
Histogram: 1 0 0 0 0 0 0 0 0 0
Neighs:    359 ave 359 max 359 min
Histogram: 1 0 0 0 0 0 0 0 0 0

Total # of neighbors = 359
Ave neighs/atom = 8.7561
Neighbor list builds = 0
Dangerous builds = 0
	# write_dump all atom ${dumpfile}
        next i
jump SELF loop1
        displace_atoms upper move 0.0 ${ystep1} 0.0 units lattice
        displace_atoms upper move 0.0 0.002 0.0 units lattice
        min_style ${style}
        min_style cg
        minimize ${etol} ${ftol} ${maxiter} ${maxeval}
        minimize 1e-12 ${ftol} ${maxiter} ${maxeval}
        minimize 1e-12 1e-08 ${maxiter} ${maxeval}
        minimize 1e-12 1e-08 10000 ${maxeval}
        minimize 1e-12 1e-08 10000 20000
WARNING: Resetting reneighboring criteria during minimization (../min.cpp:168)
Memory usage per processor = 3.35941 Mbytes
Step Temp PotEng Lx Ly Lz 
       5            0   -120.99115    1.1224537    38.910156    1.1224537 
       6            0   -120.99115    1.1224537    38.910156    1.1224537 
Loop time of 5.59498e-05 on 1 procs for 1 steps with 41 atoms

Minimization stats:
  Stopping criterion = linesearch alpha is zero
  Energy initial, next-to-last, final = 
        -120.991149494     -120.991149494     -120.991149494
  Force two-norm initial, final = 9.81308e-18 9.81308e-18
  Force max component initial, final = 6.93889e-18 6.93889e-18
  Final line search alpha, max atom move = 0.5 3.46945e-18
  Iterations, force evaluations = 1 2

Pair  time (%) = 3.78144e-05 (67.5863)
Neigh time (%) = 0 (0)
Comm  time (%) = 4.44206e-06 (7.93937)
Outpt time (%) = 0 (0)
Other time (%) = 1.36934e-05 (24.4744)

Nlocal:    41 ave 41 max 41 min
Histogram: 1 0 0 0 0 0 0 0 0 0
Nghost:    185 ave 185 max 185 min
Histogram: 1 0 0 0 0 0 0 0 0 0
Neighs:    359 ave 359 max 359 min
Histogram: 1 0 0 0 0 0 0 0 0 0

Total # of neighbors = 359
Ave neighs/atom = 8.7561
Neighbor list builds = 0
Dangerous builds = 0
	# write_dump all atom ${dumpfile}
        next i
jump SELF loop1
        displace_atoms upper move 0.0 ${ystep1} 0.0 units lattice
        displace_atoms upper move 0.0 0.002 0.0 units lattice
        min_style ${style}
        min_style cg
        minimize ${etol} ${ftol} ${maxiter} ${maxeval}
        minimize 1e-12 ${ftol} ${maxiter} ${maxeval}
        minimize 1e-12 1e-08 ${maxiter} ${maxeval}
        minimize 1e-12 1e-08 10000 ${maxeval}
        minimize 1e-12 1e-08 10000 20000
WARNING: Resetting reneighboring criteria during minimization (../min.cpp:168)
Memory usage per processor = 3.35941 Mbytes
Step Temp PotEng Lx Ly Lz 
       6            0   -120.98836    1.1224537    38.914044    1.1224537 
       7            0   -120.98836    1.1224537    38.914044    1.1224537 
Loop time of 5.39286e-05 on 1 procs for 1 steps with 41 atoms

Minimization stats:
  Stopping criterion = linesearch alpha is zero
  Energy initial, next-to-last, final = 
        -120.988362158     -120.988362158     -120.988362158
  Force two-norm initial, final = 1.55158e-17 1.55158e-17
  Force max component initial, final = 1.38778e-17 1.38778e-17
  Final line search alpha, max atom move = 0.5 6.93889e-18
  Iterations, force evaluations = 1 2

Pair  time (%) = 3.82804e-05 (70.9835)
Neigh time (%) = 0 (0)
Comm  time (%) = 4.03647e-06 (7.48484)
Outpt time (%) = 0 (0)
Other time (%) = 1.16117e-05 (21.5317)

Nlocal:    41 ave 41 max 41 min
Histogram: 1 0 0 0 0 0 0 0 0 0
Nghost:    185 ave 185 max 185 min
Histogram: 1 0 0 0 0 0 0 0 0 0
Neighs:    359 ave 359 max 359 min
Histogram: 1 0 0 0 0 0 0 0 0 0

Total # of neighbors = 359
Ave neighs/atom = 8.7561
Neighbor list builds = 0
Dangerous builds = 0
	# write_dump all atom ${dumpfile}
        next i
jump SELF loop1
        displace_atoms upper move 0.0 ${ystep1} 0.0 units lattice
        displace_atoms upper move 0.0 0.002 0.0 units lattice
        min_style ${style}
        min_style cg
        minimize ${etol} ${ftol} ${maxiter} ${maxeval}
        minimize 1e-12 ${ftol} ${maxiter} ${maxeval}
        minimize 1e-12 1e-08 ${maxiter} ${maxeval}
        minimize 1e-12 1e-08 10000 ${maxeval}
        minimize 1e-12 1e-08 10000 20000
WARNING: Resetting reneighboring criteria during minimization (../min.cpp:168)
Memory usage per processor = 3.35941 Mbytes
Step Temp PotEng Lx Ly Lz 
       7            0   -120.98512    1.1224537    38.917933    1.1224537 
       8            0   -120.98512    1.1224537    38.917933    1.1224537 
Loop time of 5.38949e-05 on 1 procs for 1 steps with 41 atoms

Minimization stats:
  Stopping criterion = linesearch alpha is zero
  Energy initial, next-to-last, final = 
        -120.985124406     -120.985124406     -120.985124406
  Force two-norm initial, final = 3.32778e-17 3.32778e-17
  Force max component initial, final = 3.1225e-17 3.1225e-17
  Final line search alpha, max atom move = 0.5 1.56125e-17
  Iterations, force evaluations = 1 2

Pair  time (%) = 3.81331e-05 (70.7545)
Neigh time (%) = 0 (0)
Comm  time (%) = 1.74192e-06 (3.23207)
Outpt time (%) = 0 (0)
Other time (%) = 1.40199e-05 (26.0134)

Nlocal:    41 ave 41 max 41 min
Histogram: 1 0 0 0 0 0 0 0 0 0
Nghost:    185 ave 185 max 185 min
Histogram: 1 0 0 0 0 0 0 0 0 0
Neighs:    359 ave 359 max 359 min
Histogram: 1 0 0 0 0 0 0 0 0 0

Total # of neighbors = 359
Ave neighs/atom = 8.7561
Neighbor list builds = 0
Dangerous builds = 0
	# write_dump all atom ${dumpfile}
        next i
jump SELF loop1
        displace_atoms upper move 0.0 ${ystep1} 0.0 units lattice
        displace_atoms upper move 0.0 0.002 0.0 units lattice
        min_style ${style}
        min_style cg
        minimize ${etol} ${ftol} ${maxiter} ${maxeval}
        minimize 1e-12 ${ftol} ${maxiter} ${maxeval}
        minimize 1e-12 1e-08 ${maxiter} ${maxeval}
        minimize 1e-12 1e-08 10000 ${maxeval}
        minimize 1e-12 1e-08 10000 20000
WARNING: Resetting reneighboring criteria during minimization (../min.cpp:168)
Memory usage per processor = 3.35941 Mbytes
Step Temp PotEng Lx Ly Lz 
       8            0   -120.98142    1.1224537    38.921821    1.1224537 
       9            0   -120.98142    1.1224537    38.921821    1.1224537 
Loop time of 5.70861e-05 on 1 procs for 1 steps with 41 atoms

Minimization stats:
  Stopping criterion = linesearch alpha is zero
  Energy initial, next-to-last, final = 
        -120.981422734     -120.981422734     -120.981422734
  Force two-norm initial, final = 2.5258e-17 2.5258e-17
  Force max component initial, final = 2.42861e-17 2.42861e-17
  Final line search alpha, max atom move = 0.5 1.21431e-17
  Iterations, force evaluations = 1 2

Pair  time (%) = 3.90843e-05 (68.4656)
Neigh time (%) = 0 (0)
Comm  time (%) = 3.69071e-06 (6.46517)
Outpt time (%) = 0 (0)
Other time (%) = 1.43111e-05 (25.0692)

Nlocal:    41 ave 41 max 41 min
Histogram: 1 0 0 0 0 0 0 0 0 0
Nghost:    185 ave 185 max 185 min
Histogram: 1 0 0 0 0 0 0 0 0 0
Neighs:    359 ave 359 max 359 min
Histogram: 1 0 0 0 0 0 0 0 0 0

Total # of neighbors = 359
Ave neighs/atom = 8.7561
Neighbor list builds = 0
Dangerous builds = 0
	# write_dump all atom ${dumpfile}
        next i
jump SELF loop1
        displace_atoms upper move 0.0 ${ystep1} 0.0 units lattice
        displace_atoms upper move 0.0 0.002 0.0 units lattice
        min_style ${style}
        min_style cg
        minimize ${etol} ${ftol} ${maxiter} ${maxeval}
        minimize 1e-12 ${ftol} ${maxiter} ${maxeval}
        minimize 1e-12 1e-08 ${maxiter} ${maxeval}
        minimize 1e-12 1e-08 10000 ${maxeval}
        minimize 1e-12 1e-08 10000 20000
WARNING: Resetting reneighboring criteria during minimization (../min.cpp:168)
Memory usage per processor = 3.35941 Mbytes
Step Temp PotEng Lx Ly Lz 
       9            0   -120.97733    1.1224537    38.925709    1.1224537 
      10            0   -120.97733    1.1224537    38.925709    1.1224537 
Loop time of 5.39067e-05 on 1 procs for 1 steps with 41 atoms

Minimization stats:
  Stopping criterion = linesearch alpha is zero
  Energy initial, next-to-last, final = 
        -120.977329095     -120.977329095     -120.977329095
  Force two-norm initial, final = 1.25093e-17 1.25093e-17
  Force max component initial, final = 1.04083e-17 1.04083e-17
  Final line search alpha, max atom move = 0.5 5.20417e-18
  Iterations, force evaluations = 1 2

Pair  time (%) = 3.81687e-05 (70.8052)
Neigh time (%) = 0 (0)
Comm  time (%) = 2.81318e-06 (5.2186)
Outpt time (%) = 0 (0)
Other time (%) = 1.29248e-05 (23.9762)

Nlocal:    41 ave 41 max 41 min
Histogram: 1 0 0 0 0 0 0 0 0 0
Nghost:    185 ave 185 max 185 min
Histogram: 1 0 0 0 0 0 0 0 0 0
Neighs:    359 ave 359 max 359 min
Histogram: 1 0 0 0 0 0 0 0 0 0

Total # of neighbors = 359
Ave neighs/atom = 8.7561
Neighbor list builds = 0
Dangerous builds = 0
	# write_dump all atom ${dumpfile}
        next i
jump SELF loop1
        displace_atoms upper move 0.0 ${ystep1} 0.0 units lattice
        displace_atoms upper move 0.0 0.002 0.0 units lattice
        min_style ${style}
        min_style cg
        minimize ${etol} ${ftol} ${maxiter} ${maxeval}
        minimize 1e-12 ${ftol} ${maxiter} ${maxeval}
        minimize 1e-12 1e-08 ${maxiter} ${maxeval}
        minimize 1e-12 1e-08 10000 ${maxeval}
        minimize 1e-12 1e-08 10000 20000
WARNING: Resetting reneighboring criteria during minimization (../min.cpp:168)
Memory usage per processor = 3.35941 Mbytes
Step Temp PotEng Lx Ly Lz 
      10            0    -120.9728    1.1224537    38.929597    1.1224537 
      11            0    -120.9728    1.1224537    38.929597    1.1224537 
Loop time of 5.29726e-05 on 1 procs for 1 steps with 41 atoms

Minimization stats:
  Stopping criterion = linesearch alpha is zero
  Energy initial, next-to-last, final = 
        -120.972796148     -120.972796148     -120.972796148
  Force two-norm initial, final = 7.75792e-18 7.75792e-18
  Force max component initial, final = 3.46945e-18 3.46945e-18
  Final line search alpha, max atom move = 0.5 1.73472e-18
  Iterations, force evaluations = 1 2

Pair  time (%) = 3.68892e-05 (69.6383)
Neigh time (%) = 0 (0)
Comm  time (%) = 3.16149e-06 (5.96816)
Outpt time (%) = 0 (0)
Other time (%) = 1.29219e-05 (24.3935)

Nlocal:    41 ave 41 max 41 min
Histogram: 1 0 0 0 0 0 0 0 0 0
Nghost:    185 ave 185 max 185 min
Histogram: 1 0 0 0 0 0 0 0 0 0
Neighs:    359 ave 359 max 359 min
Histogram: 1 0 0 0 0 0 0 0 0 0

Total # of neighbors = 359
Ave neighs/atom = 8.7561
Neighbor list builds = 0
Dangerous builds = 0
	# write_dump all atom ${dumpfile}
        next i
jump SELF loop1
        displace_atoms upper move 0.0 ${ystep1} 0.0 units lattice
        displace_atoms upper move 0.0 0.002 0.0 units lattice
        min_style ${style}
        min_style cg
        minimize ${etol} ${ftol} ${maxiter} ${maxeval}
        minimize 1e-12 ${ftol} ${maxiter} ${maxeval}
        minimize 1e-12 1e-08 ${maxiter} ${maxeval}
        minimize 1e-12 1e-08 10000 ${maxeval}
        minimize 1e-12 1e-08 10000 20000
WARNING: Resetting reneighboring criteria during minimization (../min.cpp:168)
Memory usage per processor = 3.35941 Mbytes
Step Temp PotEng Lx Ly Lz 
      11            0   -120.96788    1.1224537    38.933486    1.1224537 
      12            0   -120.96788    1.1224537    38.933486    1.1224537 
Loop time of 5.39896e-05 on 1 procs for 1 steps with 41 atoms

Minimization stats:
  Stopping criterion = linesearch alpha is zero
  Energy initial, next-to-last, final = 
        -120.967881636     -120.967881636     -120.967881636
  Force two-norm initial, final = 1.86835e-17 1.86835e-17
  Force max component initial, final = 1.73472e-17 1.73472e-17
  Final line search alpha, max atom move = 0.5 8.67362e-18
  Iterations, force evaluations = 1 2

Pair  time (%) = 3.67485e-05 (68.0659)
Neigh time (%) = 0 (0)
Comm  time (%) = 5.1182e-06 (9.47998)
Outpt time (%) = 0 (0)
Other time (%) = 1.21229e-05 (22.4542)

Nlocal:    41 ave 41 max 41 min
Histogram: 1 0 0 0 0 0 0 0 0 0
Nghost:    185 ave 185 max 185 min
Histogram: 1 0 0 0 0 0 0 0 0 0
Neighs:    359 ave 359 max 359 min
Histogram: 1 0 0 0 0 0 0 0 0 0

Total # of neighbors = 359
Ave neighs/atom = 8.7561
Neighbor list builds = 0
Dangerous builds = 0
	# write_dump all atom ${dumpfile}
        next i
jump SELF loop1
        displace_atoms upper move 0.0 ${ystep1} 0.0 units lattice
        displace_atoms upper move 0.0 0.002 0.0 units lattice
        min_style ${style}
        min_style cg
        minimize ${etol} ${ftol} ${maxiter} ${maxeval}
        minimize 1e-12 ${ftol} ${maxiter} ${maxeval}
        minimize 1e-12 1e-08 ${maxiter} ${maxeval}
        minimize 1e-12 1e-08 10000 ${maxeval}
        minimize 1e-12 1e-08 10000 20000
WARNING: Resetting reneighboring criteria during minimization (../min.cpp:168)
Memory usage per processor = 3.35941 Mbytes
Step Temp PotEng Lx Ly Lz 
      12            0   -120.96259    1.1224537    38.937374    1.1224537 
      13            0   -120.96259    1.1224537    38.937374    1.1224537 
Loop time of 5.40171e-05 on 1 procs for 1 steps with 41 atoms

Minimization stats:
  Stopping criterion = linesearch alpha is zero
  Energy initial, next-to-last, final = 
        -120.962594114     -120.962594114     -120.962594114
  Force two-norm initial, final = 1.04083e-17 1.04083e-17
  Force max component initial, final = 6.93889e-18 6.93889e-18
  Final line search alpha, max atom move = 0.5 3.46945e-18
  Iterations, force evaluations = 1 2

Pair  time (%) = 3.80226e-05 (70.3901)
Neigh time (%) = 0 (0)
Comm  time (%) = 4.1899e-06 (7.75663)
Outpt time (%) = 0 (0)
Other time (%) = 1.18045e-05 (21.8533)

Nlocal:    41 ave 41 max 41 min
Histogram: 1 0 0 0 0 0 0 0 0 0
Nghost:    185 ave 185 max 185 min
Histogram: 1 0 0 0 0 0 0 0 0 0
Neighs:    359 ave 359 max 359 min
Histogram: 1 0 0 0 0 0 0 0 0 0

Total # of neighbors = 359
Ave neighs/atom = 8.7561
Neighbor list builds = 0
Dangerous builds = 0
	# write_dump all atom ${dumpfile}
        next i
jump SELF loop1
        displace_atoms upper move 0.0 ${ystep1} 0.0 units lattice
        displace_atoms upper move 0.0 0.002 0.0 units lattice
        min_style ${style}
        min_style cg
        minimize ${etol} ${ftol} ${maxiter} ${maxeval}
        minimize 1e-12 ${ftol} ${maxiter} ${maxeval}
        minimize 1e-12 1e-08 ${maxiter} ${maxeval}
        minimize 1e-12 1e-08 10000 ${maxeval}
        minimize 1e-12 1e-08 10000 20000
WARNING: Resetting reneighboring criteria during minimization (../min.cpp:168)
Memory usage per processor = 3.35941 Mbytes
Step Temp PotEng Lx Ly Lz 
      13            0   -120.95692    1.1224537    38.941262    1.1224537 
      14            0   -120.95692    1.1224537    38.941262    1.1224537 
Loop time of 5.40557e-05 on 1 procs for 1 steps with 41 atoms

Minimization stats:
  Stopping criterion = linesearch alpha is zero
  Energy initial, next-to-last, final = 
        -120.956918686     -120.956918686     -120.956918686
  Force two-norm initial, final = 7.75792e-18 7.75792e-18
  Force max component initial, final = 3.46945e-18 3.46945e-18
  Final line search alpha, max atom move = 0.5 1.73472e-18
  Iterations, force evaluations = 1 2

Pair  time (%) = 3.78538e-05 (70.0275)
Neigh time (%) = 0 (0)
Comm  time (%) = 4.09072e-06 (7.5676)
Outpt time (%) = 0 (0)
Other time (%) = 1.21112e-05 (22.4049)

Nlocal:    41 ave 41 max 41 min
Histogram: 1 0 0 0 0 0 0 0 0 0
Nghost:    185 ave 185 max 185 min
Histogram: 1 0 0 0 0 0 0 0 0 0
Neighs:    359 ave 359 max 359 min
Histogram: 1 0 0 0 0 0 0 0 0 0

Total # of neighbors = 359
Ave neighs/atom = 8.7561
Neighbor list builds = 0
Dangerous builds = 0
	# write_dump all atom ${dumpfile}
        next i
jump SELF loop1
        displace_atoms upper move 0.0 ${ystep1} 0.0 units lattice
        displace_atoms upper move 0.0 0.002 0.0 units lattice
        min_style ${style}
        min_style cg
        minimize ${etol} ${ftol} ${maxiter} ${maxeval}
        minimize 1e-12 ${ftol} ${maxiter} ${maxeval}
        minimize 1e-12 1e-08 ${maxiter} ${maxeval}
        minimize 1e-12 1e-08 10000 ${maxeval}
        minimize 1e-12 1e-08 10000 20000
WARNING: Resetting reneighboring criteria during minimization (../min.cpp:168)
Memory usage per processor = 3.35941 Mbytes
Step Temp PotEng Lx Ly Lz 
      14            0   -120.95092    1.1224537    38.945151    1.1224537 
      15            0   -120.95092    1.1224537    38.945151    1.1224537 
Loop time of 5.40165e-05 on 1 procs for 1 steps with 41 atoms

Minimization stats:
  Stopping criterion = linesearch alpha is zero
  Energy initial, next-to-last, final = 
         -120.95091816      -120.95091816      -120.95091816
  Force two-norm initial, final = 6.93889e-18 6.93889e-18
  Force max component initial, final = 3.46945e-18 3.46945e-18
  Final line search alpha, max atom move = 0.5 1.73472e-18
  Iterations, force evaluations = 1 2

Pair  time (%) = 3.80211e-05 (70.388)
Neigh time (%) = 0 (0)
Comm  time (%) = 3.18652e-06 (5.89916)
Outpt time (%) = 0 (0)
Other time (%) = 1.28088e-05 (23.7128)

Nlocal:    41 ave 41 max 41 min
Histogram: 1 0 0 0 0 0 0 0 0 0
Nghost:    185 ave 185 max 185 min
Histogram: 1 0 0 0 0 0 0 0 0 0
Neighs:    359 ave 359 max 359 min
Histogram: 1 0 0 0 0 0 0 0 0 0

Total # of neighbors = 359
Ave neighs/atom = 8.7561
Neighbor list builds = 0
Dangerous builds = 0
	# write_dump all atom ${dumpfile}
        next i
jump SELF loop1
        displace_atoms upper move 0.0 ${ystep1} 0.0 units lattice
        displace_atoms upper move 0.0 0.002 0.0 units lattice
        min_style ${style}
        min_style cg
        minimize ${etol} ${ftol} ${maxiter} ${maxeval}
        minimize 1e-12 ${ftol} ${maxiter} ${maxeval}
        minimize 1e-12 1e-08 ${maxiter} ${maxeval}
        minimize 1e-12 1e-08 10000 ${maxeval}
        minimize 1e-12 1e-08 10000 20000
WARNING: Resetting reneighboring criteria during minimization (../min.cpp:168)
Memory usage per processor = 3.35941 Mbytes
Step Temp PotEng Lx Ly Lz 
      15            0   -120.94455    1.1224537    38.949039    1.1224537 
      16            0   -120.94455    1.1224537    38.949039    1.1224537 
Loop time of 5.39297e-05 on 1 procs for 1 steps with 41 atoms

Minimization stats:
  Stopping criterion = linesearch alpha is zero
  Energy initial, next-to-last, final = 
        -120.944545087     -120.944545087     -120.944545087
  Force two-norm initial, final = 2.5258e-17 2.5258e-17
  Force max component initial, final = 2.42861e-17 2.42861e-17
  Final line search alpha, max atom move = 0.5 1.21431e-17
  Iterations, force evaluations = 1 2

Pair  time (%) = 3.72839e-05 (69.1341)
Neigh time (%) = 0 (0)
Comm  time (%) = 4.99713e-06 (9.266)
Outpt time (%) = 0 (0)
Other time (%) = 1.16487e-05 (21.5999)

Nlocal:    41 ave 41 max 41 min
Histogram: 1 0 0 0 0 0 0 0 0 0
Nghost:    185 ave 185 max 185 min
Histogram: 1 0 0 0 0 0 0 0 0 0
Neighs:    359 ave 359 max 359 min
Histogram: 1 0 0 0 0 0 0 0 0 0

Total # of neighbors = 359
Ave neighs/atom = 8.7561
Neighbor list builds = 0
Dangerous builds = 0
	# write_dump all atom ${dumpfile}
        next i
jump SELF loop1
        displace_atoms upper move 0.0 ${ystep1} 0.0 units lattice
        displace_atoms upper move 0.0 0.002 0.0 units lattice
        min_style ${style}
        min_style cg
        minimize ${etol} ${ftol} ${maxiter} ${maxeval}
        minimize 1e-12 ${ftol} ${maxiter} ${maxeval}
        minimize 1e-12 1e-08 ${maxiter} ${maxeval}
        minimize 1e-12 1e-08 10000 ${maxeval}
        minimize 1e-12 1e-08 10000 20000
WARNING: Resetting reneighboring criteria during minimization (../min.cpp:168)
Memory usage per processor = 3.35941 Mbytes
Step Temp PotEng Lx Ly Lz 
      16            0   -120.93787    1.1224537    38.952927    1.1224537 
      17            0   -120.93787    1.1224537    38.952927    1.1224537 
Loop time of 3.39887e-05 on 1 procs for 1 steps with 41 atoms

Minimization stats:
  Stopping criterion = linesearch alpha is zero
  Energy initial, next-to-last, final = 
        -120.937865594     -120.937865594     -120.937865594
  Force two-norm initial, final = 2.5258e-17 2.5258e-17
  Force max component initial, final = 2.42861e-17 2.42861e-17
  Final line search alpha, max atom move = 0.5 1.21431e-17
  Iterations, force evaluations = 1 2

Pair  time (%) = 1.98521e-05 (58.4078)
Neigh time (%) = 0 (0)
Comm  time (%) = 2.06113e-06 (6.06417)
Outpt time (%) = 0 (0)
Other time (%) = 1.20755e-05 (35.528)

Nlocal:    41 ave 41 max 41 min
Histogram: 1 0 0 0 0 0 0 0 0 0
Nghost:    185 ave 185 max 185 min
Histogram: 1 0 0 0 0 0 0 0 0 0
Neighs:    359 ave 359 max 359 min
Histogram: 1 0 0 0 0 0 0 0 0 0

Total # of neighbors = 359
Ave neighs/atom = 8.7561
Neighbor list builds = 0
Dangerous builds = 0
	# write_dump all atom ${dumpfile}
        next i
jump SELF loop1
        displace_atoms upper move 0.0 ${ystep1} 0.0 units lattice
        displace_atoms upper move 0.0 0.002 0.0 units lattice
        min_style ${style}
        min_style cg
        minimize ${etol} ${ftol} ${maxiter} ${maxeval}
        minimize 1e-12 ${ftol} ${maxiter} ${maxeval}
        minimize 1e-12 1e-08 ${maxiter} ${maxeval}
        minimize 1e-12 1e-08 10000 ${maxeval}
        minimize 1e-12 1e-08 10000 20000
WARNING: Resetting reneighboring criteria during minimization (../min.cpp:168)
Memory usage per processor = 3.35941 Mbytes
Step Temp PotEng Lx Ly Lz 
      17            0   -120.93086    1.1224537    38.956816    1.1224537 
      18            0   -120.93086    1.1224537    38.956816    1.1224537 
Loop time of 5.39823e-05 on 1 procs for 1 steps with 41 atoms

Minimization stats:
  Stopping criterion = linesearch alpha is zero
  Energy initial, next-to-last, final = 
        -120.930861741     -120.930861741     -120.930861741
  Force two-norm initial, final = 2.19427e-17 2.19427e-17
  Force max component initial, final = 2.08167e-17 2.08167e-17
  Final line search alpha, max atom move = 0.5 1.04083e-17
  Iterations, force evaluations = 1 2

Pair  time (%) = 3.67265e-05 (68.0343)
Neigh time (%) = 0 (0)
Comm  time (%) = 5.02809e-06 (9.31435)
Outpt time (%) = 0 (0)
Other time (%) = 1.22277e-05 (22.6513)

Nlocal:    41 ave 41 max 41 min
Histogram: 1 0 0 0 0 0 0 0 0 0
Nghost:    185 ave 185 max 185 min
Histogram: 1 0 0 0 0 0 0 0 0 0
Neighs:    359 ave 359 max 359 min
Histogram: 1 0 0 0 0 0 0 0 0 0

Total # of neighbors = 359
Ave neighs/atom = 8.7561
Neighbor list builds = 0
Dangerous builds = 0
	# write_dump all atom ${dumpfile}
        next i
jump SELF loop1
        displace_atoms upper move 0.0 ${ystep1} 0.0 units lattice
        displace_atoms upper move 0.0 0.002 0.0 units lattice
        min_style ${style}
        min_style cg
        minimize ${etol} ${ftol} ${maxiter} ${maxeval}
        minimize 1e-12 ${ftol} ${maxiter} ${maxeval}
        minimize 1e-12 1e-08 ${maxiter} ${maxeval}
        minimize 1e-12 1e-08 10000 ${maxeval}
        minimize 1e-12 1e-08 10000 20000
WARNING: Resetting reneighboring criteria during minimization (../min.cpp:168)
Memory usage per processor = 3.35941 Mbytes
Step Temp PotEng Lx Ly Lz 
      18            0   -120.92356    1.1224537    38.960704    1.1224537 
      19            0   -120.92356    1.1224537    38.960704    1.1224537 
Loop time of 5.39949e-05 on 1 procs for 1 steps with 41 atoms

Minimization stats:
  Stopping criterion = linesearch alpha is zero
  Energy initial, next-to-last, final = 
        -120.923555884     -120.923555884     -120.923555884
  Force two-norm initial, final = 1.99305e-17 1.99305e-17
  Force max component initial, final = 1.73472e-17 1.73472e-17
  Final line search alpha, max atom move = 0.5 8.67362e-18
  Iterations, force evaluations = 1 2

Pair  time (%) = 3.67645e-05 (68.0889)
Neigh time (%) = 0 (0)
Comm  time (%) = 5.15056e-06 (9.53897)
Outpt time (%) = 0 (0)
Other time (%) = 1.20798e-05 (22.3722)

Nlocal:    41 ave 41 max 41 min
Histogram: 1 0 0 0 0 0 0 0 0 0
Nghost:    185 ave 185 max 185 min
Histogram: 1 0 0 0 0 0 0 0 0 0
Neighs:    359 ave 359 max 359 min
Histogram: 1 0 0 0 0 0 0 0 0 0

Total # of neighbors = 359
Ave neighs/atom = 8.7561
Neighbor list builds = 0
Dangerous builds = 0
	# write_dump all atom ${dumpfile}
        next i
jump SELF loop1
        displace_atoms upper move 0.0 ${ystep1} 0.0 units lattice
        displace_atoms upper move 0.0 0.002 0.0 units lattice
        min_style ${style}
        min_style cg
        minimize ${etol} ${ftol} ${maxiter} ${maxeval}
        minimize 1e-12 ${ftol} ${maxiter} ${maxeval}
        minimize 1e-12 1e-08 ${maxiter} ${maxeval}
        minimize 1e-12 1e-08 10000 ${maxeval}
        minimize 1e-12 1e-08 10000 20000
WARNING: Resetting reneighboring criteria during minimization (../min.cpp:168)
Memory usage per processor = 3.35941 Mbytes
Step Temp PotEng Lx Ly Lz 
      19            0   -120.91597    1.1224537    38.964592    1.1224537 
      20            0   -120.91597    1.1224537    38.964592    1.1224537 
Loop time of 5.40812e-05 on 1 procs for 1 steps with 41 atoms

Minimization stats:
  Stopping criterion = linesearch alpha is zero
  Energy initial, next-to-last, final = 
        -120.915965523     -120.915965523     -120.915965523
  Force two-norm initial, final = 4.22076e-17 4.22076e-17
  Force max component initial, final = 4.16334e-17 4.16334e-17
  Final line search alpha, max atom move = 0.5 2.08167e-17
  Iterations, force evaluations = 1 2

Pair  time (%) = 3.7023e-05 (68.4581)
Neigh time (%) = 0 (0)
Comm  time (%) = 5.19061e-06 (9.59781)
Outpt time (%) = 0 (0)
Other time (%) = 1.18676e-05 (21.9441)

Nlocal:    41 ave 41 max 41 min
Histogram: 1 0 0 0 0 0 0 0 0 0
Nghost:    185 ave 185 max 185 min
Histogram: 1 0 0 0 0 0 0 0 0 0
Neighs:    359 ave 359 max 359 min
Histogram: 1 0 0 0 0 0 0 0 0 0

Total # of neighbors = 359
Ave neighs/atom = 8.7561
Neighbor list builds = 0
Dangerous builds = 0
	# write_dump all atom ${dumpfile}
        next i
jump SELF loop1
        displace_atoms upper move 0.0 ${ystep1} 0.0 units lattice
        displace_atoms upper move 0.0 0.002 0.0 units lattice
        min_style ${style}
        min_style cg
        minimize ${etol} ${ftol} ${maxiter} ${maxeval}
        minimize 1e-12 ${ftol} ${maxiter} ${maxeval}
        minimize 1e-12 1e-08 ${maxiter} ${maxeval}
        minimize 1e-12 1e-08 10000 ${maxeval}
        minimize 1e-12 1e-08 10000 20000
WARNING: Resetting reneighboring criteria during minimization (../min.cpp:168)
Memory usage per processor = 3.35941 Mbytes
Step Temp PotEng Lx Ly Lz 
      20            0   -120.90808    1.1224537     38.96848    1.1224537 
      21            0   -120.90808    1.1224537     38.96848    1.1224537 
Loop time of -1.15018e-07 on 1 procs for 1 steps with 41 atoms

Minimization stats:
  Stopping criterion = linesearch alpha is zero
  Energy initial, next-to-last, final = 
        -120.908083133     -120.908083133     -120.908083133
  Force two-norm initial, final = 2.19427e-17 2.19427e-17
  Force max component initial, final = 2.08167e-17 2.08167e-17
  Final line search alpha, max atom move = 0.5 1.04083e-17
  Iterations, force evaluations = 1 2

Pair  time (%) = -3.45055e-07 (300)
Neigh time (%) = 0 (-0)
Comm  time (%) = -6.9011e-07 (600)
Outpt time (%) = 0 (-0)
Other time (%) = 9.20147e-07 (-800)

Nlocal:    41 ave 41 max 41 min
Histogram: 1 0 0 0 0 0 0 0 0 0
Nghost:    185 ave 185 max 185 min
Histogram: 1 0 0 0 0 0 0 0 0 0
Neighs:    359 ave 359 max 359 min
Histogram: 1 0 0 0 0 0 0 0 0 0

Total # of neighbors = 359
Ave neighs/atom = 8.7561
Neighbor list builds = 0
Dangerous builds = 0
	# write_dump all atom ${dumpfile}
        next i
jump SELF loop1
        displace_atoms upper move 0.0 ${ystep1} 0.0 units lattice
        displace_atoms upper move 0.0 0.002 0.0 units lattice
        min_style ${style}
        min_style cg
        minimize ${etol} ${ftol} ${maxiter} ${maxeval}
        minimize 1e-12 ${ftol} ${maxiter} ${maxeval}
        minimize 1e-12 1e-08 ${maxiter} ${maxeval}
        minimize 1e-12 1e-08 10000 ${maxeval}
        minimize 1e-12 1e-08 10000 20000
WARNING: Resetting reneighboring criteria during minimization (../min.cpp:168)
Memory usage per processor = 3.35941 Mbytes
Step Temp PotEng Lx Ly Lz 
      21            0   -120.89995    1.1224537    38.972369    1.1224537 
      22            0   -120.89995    1.1224537    38.972369    1.1224537 
Loop time of 8.69039e-05 on 1 procs for 1 steps with 41 atoms

Minimization stats:
  Stopping criterion = linesearch alpha is zero
  Energy initial, next-to-last, final = 
        -120.899949217     -120.899949217     -120.899949217
  Force two-norm initial, final = 4.56334e-17 4.56334e-17
  Force max component initial, final = 4.51028e-17 4.51028e-17
  Final line search alpha, max atom move = 0.5 2.25514e-17
  Iterations, force evaluations = 1 2

Pair  time (%) = 3.88213e-05 (44.6715)
Neigh time (%) = 0 (0)
Comm  time (%) = 1.20322e-05 (13.8454)
Outpt time (%) = 0 (0)
Other time (%) = 3.60504e-05 (41.4831)

Nlocal:    41 ave 41 max 41 min
Histogram: 1 0 0 0 0 0 0 0 0 0
Nghost:    185 ave 185 max 185 min
Histogram: 1 0 0 0 0 0 0 0 0 0
Neighs:    359 ave 359 max 359 min
Histogram: 1 0 0 0 0 0 0 0 0 0

Total # of neighbors = 359
Ave neighs/atom = 8.7561
Neighbor list builds = 0
Dangerous builds = 0
	# write_dump all atom ${dumpfile}
        next i
jump SELF loop1
        displace_atoms upper move 0.0 ${ystep1} 0.0 units lattice
        displace_atoms upper move 0.0 0.002 0.0 units lattice
        min_style ${style}
        min_style cg
        minimize ${etol} ${ftol} ${maxiter} ${maxeval}
        minimize 1e-12 ${ftol} ${maxiter} ${maxeval}
        minimize 1e-12 1e-08 ${maxiter} ${maxeval}
        minimize 1e-12 1e-08 10000 ${maxeval}
        minimize 1e-12 1e-08 10000 20000
WARNING: Resetting reneighboring criteria during minimization (../min.cpp:168)
Memory usage per processor = 3.35941 Mbytes
Step Temp PotEng Lx Ly Lz 
      22            0   -120.89154    1.1224537    38.976257    1.1224537 
      23            0   -120.89154    1.1224537    38.976257    1.1224537 
Loop time of 4.89358e-05 on 1 procs for 1 steps with 41 atoms

Minimization stats:
  Stopping criterion = linesearch alpha is zero
  Energy initial, next-to-last, final = 
        -120.891537457     -120.891537457     -120.891537457
  Force two-norm initial, final = 3.53816e-17 3.53816e-17
  Force max component initial, final = 3.46945e-17 3.46945e-17
  Final line search alpha, max atom move = 0.5 1.73472e-17
  Iterations, force evaluations = 1 2

Pair  time (%) = 3.3978e-05 (69.4339)
Neigh time (%) = 0 (0)
Comm  time (%) = 5.19969e-06 (10.6255)
Outpt time (%) = 0 (0)
Other time (%) = 9.75805e-06 (19.9405)

Nlocal:    41 ave 41 max 41 min
Histogram: 1 0 0 0 0 0 0 0 0 0
Nghost:    185 ave 185 max 185 min
Histogram: 1 0 0 0 0 0 0 0 0 0
Neighs:    359 ave 359 max 359 min
Histogram: 1 0 0 0 0 0 0 0 0 0

Total # of neighbors = 359
Ave neighs/atom = 8.7561
Neighbor list builds = 0
Dangerous builds = 0
	# write_dump all atom ${dumpfile}
        next i
jump SELF loop1
        displace_atoms upper move 0.0 ${ystep1} 0.0 units lattice
        displace_atoms upper move 0.0 0.002 0.0 units lattice
        min_style ${style}
        min_style cg
        minimize ${etol} ${ftol} ${maxiter} ${maxeval}
        minimize 1e-12 ${ftol} ${maxiter} ${maxeval}
        minimize 1e-12 1e-08 ${maxiter} ${maxeval}
        minimize 1e-12 1e-08 10000 ${maxeval}
        minimize 1e-12 1e-08 10000 20000
WARNING: Resetting reneighboring criteria during minimization (../min.cpp:168)
Memory usage per processor = 3.35941 Mbytes
Step Temp PotEng Lx Ly Lz 
      23            0    -120.8829    1.1224537    38.980145    1.1224537 
      24            0    -120.8829    1.1224537    38.980145    1.1224537 
Loop time of 6.60819e-05 on 1 procs for 1 steps with 41 atoms

Minimization stats:
  Stopping criterion = linesearch alpha is zero
  Energy initial, next-to-last, final = 
        -120.882900687     -120.882900687     -120.882900687
  Force two-norm initial, final = 5.29588e-17 5.29588e-17
  Force max component initial, final = 5.20417e-17 5.20417e-17
  Final line search alpha, max atom move = 0.5 2.60209e-17
  Iterations, force evaluations = 1 2

Pair  time (%) = 4.69653e-05 (71.0714)
Neigh time (%) = 0 (0)
Comm  time (%) = 4.20725e-06 (6.36672)
Outpt time (%) = 0 (0)
Other time (%) = 1.49093e-05 (22.5619)

Nlocal:    41 ave 41 max 41 min
Histogram: 1 0 0 0 0 0 0 0 0 0
Nghost:    185 ave 185 max 185 min
Histogram: 1 0 0 0 0 0 0 0 0 0
Neighs:    359 ave 359 max 359 min
Histogram: 1 0 0 0 0 0 0 0 0 0

Total # of neighbors = 359
Ave neighs/atom = 8.7561
Neighbor list builds = 0
Dangerous builds = 0
	# write_dump all atom ${dumpfile}
        next i
jump SELF loop1
        displace_atoms upper move 0.0 ${ystep1} 0.0 units lattice
        displace_atoms upper move 0.0 0.002 0.0 units lattice
        min_style ${style}
        min_style cg
        minimize ${etol} ${ftol} ${maxiter} ${maxeval}
        minimize 1e-12 ${ftol} ${maxiter} ${maxeval}
        minimize 1e-12 1e-08 ${maxiter} ${maxeval}
        minimize 1e-12 1e-08 10000 ${maxeval}
        minimize 1e-12 1e-08 10000 20000
WARNING: Resetting reneighboring criteria during minimization (../min.cpp:168)
Memory usage per processor = 3.35941 Mbytes
Step Temp PotEng Lx Ly Lz 
      24            0     -120.874    1.1224537    38.984034    1.1224537 
      25            0     -120.874    1.1224537    38.984034    1.1224537 
Loop time of 4.90223e-05 on 1 procs for 1 steps with 41 atoms

Minimization stats:
  Stopping criterion = linesearch alpha is zero
  Energy initial, next-to-last, final = 
        -120.874004984     -120.874004984     -120.874004984
  Force two-norm initial, final = 1.55158e-17 1.55158e-17
  Force max component initial, final = 1.38778e-17 1.38778e-17
  Final line search alpha, max atom move = 0.5 6.93889e-18
  Iterations, force evaluations = 1 2

Pair  time (%) = 3.40454e-05 (69.4489)
Neigh time (%) = 0 (0)
Comm  time (%) = 2.90421e-06 (5.92427)
Outpt time (%) = 0 (0)
Other time (%) = 1.20726e-05 (24.6268)

Nlocal:    41 ave 41 max 41 min
Histogram: 1 0 0 0 0 0 0 0 0 0
Nghost:    185 ave 185 max 185 min
Histogram: 1 0 0 0 0 0 0 0 0 0
Neighs:    359 ave 359 max 359 min
Histogram: 1 0 0 0 0 0 0 0 0 0

Total # of neighbors = 359
Ave neighs/atom = 8.7561
Neighbor list builds = 0
Dangerous builds = 0
	# write_dump all atom ${dumpfile}
        next i
jump SELF loop1
        displace_atoms upper move 0.0 ${ystep1} 0.0 units lattice
        displace_atoms upper move 0.0 0.002 0.0 units lattice
        min_style ${style}
        min_style cg
        minimize ${etol} ${ftol} ${maxiter} ${maxeval}
        minimize 1e-12 ${ftol} ${maxiter} ${maxeval}
        minimize 1e-12 1e-08 ${maxiter} ${maxeval}
        minimize 1e-12 1e-08 10000 ${maxeval}
        minimize 1e-12 1e-08 10000 20000
WARNING: Resetting reneighboring criteria during minimization (../min.cpp:168)
Memory usage per processor = 3.35941 Mbytes
Step Temp PotEng Lx Ly Lz 
      25            0    -120.8649    1.1224537    38.987922    1.1224537 
      26            0    -120.8649    1.1224537    38.987922    1.1224537 
Loop time of 4.88972e-05 on 1 procs for 1 steps with 41 atoms

Minimization stats:
  Stopping criterion = linesearch alpha is zero
  Energy initial, next-to-last, final = 
        -120.864902631     -120.864902631     -120.864902631
  Force two-norm initial, final = 5.59432e-17 5.59432e-17
  Force max component initial, final = 5.55112e-17 5.55112e-17
  Final line search alpha, max atom move = 0.5 2.77556e-17
  Iterations, force evaluations = 1 2

Pair  time (%) = 3.39547e-05 (69.441)
Neigh time (%) = 0 (0)
Comm  time (%) = 3.15357e-06 (6.44939)
Outpt time (%) = 0 (0)
Other time (%) = 1.17889e-05 (24.1096)

Nlocal:    41 ave 41 max 41 min
Histogram: 1 0 0 0 0 0 0 0 0 0
Nghost:    185 ave 185 max 185 min
Histogram: 1 0 0 0 0 0 0 0 0 0
Neighs:    359 ave 359 max 359 min
Histogram: 1 0 0 0 0 0 0 0 0 0

Total # of neighbors = 359
Ave neighs/atom = 8.7561
Neighbor list builds = 0
Dangerous builds = 0
	# write_dump all atom ${dumpfile}
        next i
jump SELF loop1
        displace_atoms upper move 0.0 ${ystep1} 0.0 units lattice
        displace_atoms upper move 0.0 0.002 0.0 units lattice
        min_style ${style}
        min_style cg
        minimize ${etol} ${ftol} ${maxiter} ${maxeval}
        minimize 1e-12 ${ftol} ${maxiter} ${maxeval}
        minimize 1e-12 1e-08 ${maxiter} ${maxeval}
        minimize 1e-12 1e-08 10000 ${maxeval}
        minimize 1e-12 1e-08 10000 20000
WARNING: Resetting reneighboring criteria during minimization (../min.cpp:168)
Memory usage per processor = 3.35941 Mbytes
Step Temp PotEng Lx Ly Lz 
      26            0   -120.85557    1.1224537     38.99181    1.1224537 
      27            0   -120.85557    1.1224537     38.99181    1.1224537 
Loop time of 4.7997e-05 on 1 procs for 1 steps with 41 atoms

Minimization stats:
  Stopping criterion = linesearch alpha is zero
  Energy initial, next-to-last, final = 
        -120.855567866     -120.855567866     -120.855567866
  Force two-norm initial, final = 2.30137e-17 2.30137e-17
  Force max component initial, final = 2.08167e-17 2.08167e-17
  Final line search alpha, max atom move = 0.5 1.04083e-17
  Iterations, force evaluations = 1 2

Pair  time (%) = 3.3923e-05 (70.6773)
Neigh time (%) = 0 (0)
Comm  time (%) = 5.09003e-06 (10.6049)
Outpt time (%) = 0 (0)
Other time (%) = 8.984e-06 (18.7178)

Nlocal:    41 ave 41 max 41 min
Histogram: 1 0 0 0 0 0 0 0 0 0
Nghost:    185 ave 185 max 185 min
Histogram: 1 0 0 0 0 0 0 0 0 0
Neighs:    359 ave 359 max 359 min
Histogram: 1 0 0 0 0 0 0 0 0 0

Total # of neighbors = 359
Ave neighs/atom = 8.7561
Neighbor list builds = 0
Dangerous builds = 0
	# write_dump all atom ${dumpfile}
        next i
jump SELF loop1
        displace_atoms upper move 0.0 ${ystep1} 0.0 units lattice
        displace_atoms upper move 0.0 0.002 0.0 units lattice
        min_style ${style}
        min_style cg
        minimize ${etol} ${ftol} ${maxiter} ${maxeval}
        minimize 1e-12 ${ftol} ${maxiter} ${maxeval}
        minimize 1e-12 1e-08 ${maxiter} ${maxeval}
        minimize 1e-12 1e-08 10000 ${maxeval}
        minimize 1e-12 1e-08 10000 20000
WARNING: Resetting reneighboring criteria during minimization (../min.cpp:168)
Memory usage per processor = 3.35941 Mbytes
Step Temp PotEng Lx Ly Lz 
      27            0   -120.84604    1.1224537    38.995698    1.1224537 
      28            0   -120.84604    1.1224537    38.995698    1.1224537 
Loop time of 4.79714e-05 on 1 procs for 1 steps with 41 atoms

Minimization stats:
  Stopping criterion = linesearch alpha is zero
  Energy initial, next-to-last, final = 
        -120.846040907     -120.846040907     -120.846040907
  Force two-norm initial, final = 3.19867e-17 3.19867e-17
  Force max component initial, final = 3.1225e-17 3.1225e-17
  Final line search alpha, max atom move = 0.5 1.56125e-17
  Iterations, force evaluations = 1 2

Pair  time (%) = 3.38925e-05 (70.6514)
Neigh time (%) = 0 (0)
Comm  time (%) = 4.02902e-06 (8.3988)
Outpt time (%) = 0 (0)
Other time (%) = 1.00499e-05 (20.9498)

Nlocal:    41 ave 41 max 41 min
Histogram: 1 0 0 0 0 0 0 0 0 0
Nghost:    185 ave 185 max 185 min
Histogram: 1 0 0 0 0 0 0 0 0 0
Neighs:    359 ave 359 max 359 min
Histogram: 1 0 0 0 0 0 0 0 0 0

Total # of neighbors = 359
Ave neighs/atom = 8.7561
Neighbor list builds = 0
Dangerous builds = 0
	# write_dump all atom ${dumpfile}
        next i
jump SELF loop1
        displace_atoms upper move 0.0 ${ystep1} 0.0 units lattice
        displace_atoms upper move 0.0 0.002 0.0 units lattice
        min_style ${style}
        min_style cg
        minimize ${etol} ${ftol} ${maxiter} ${maxeval}
        minimize 1e-12 ${ftol} ${maxiter} ${maxeval}
        minimize 1e-12 1e-08 ${maxiter} ${maxeval}
        minimize 1e-12 1e-08 10000 ${maxeval}
        minimize 1e-12 1e-08 10000 20000
WARNING: Resetting reneighboring criteria during minimization (../min.cpp:168)
Memory usage per processor = 3.35941 Mbytes
Step Temp PotEng Lx Ly Lz 
      28            0    -120.8363    1.1224537    38.999587    1.1224537 
      29            0    -120.8363    1.1224537    38.999587    1.1224537 
Loop time of 4.7992e-05 on 1 procs for 1 steps with 41 atoms

Minimization stats:
  Stopping criterion = linesearch alpha is zero
  Energy initial, next-to-last, final = 
        -120.836304341     -120.836304341     -120.836304341
  Force two-norm initial, final = 4.22076e-17 4.22076e-17
  Force max component initial, final = 4.16334e-17 4.16334e-17
  Final line search alpha, max atom move = 0.5 2.08167e-17
  Iterations, force evaluations = 1 2

Pair  time (%) = 3.39083e-05 (70.6541)
Neigh time (%) = 0 (0)
Comm  time (%) = 4.06057e-06 (8.46093)
Outpt time (%) = 0 (0)
Other time (%) = 1.00231e-05 (20.885)

Nlocal:    41 ave 41 max 41 min
Histogram: 1 0 0 0 0 0 0 0 0 0
Nghost:    185 ave 185 max 185 min
Histogram: 1 0 0 0 0 0 0 0 0 0
Neighs:    359 ave 359 max 359 min
Histogram: 1 0 0 0 0 0 0 0 0 0

Total # of neighbors = 359
Ave neighs/atom = 8.7561
Neighbor list builds = 0
Dangerous builds = 0
	# write_dump all atom ${dumpfile}
        next i
jump SELF loop1
        displace_atoms upper move 0.0 ${ystep1} 0.0 units lattice
        displace_atoms upper move 0.0 0.002 0.0 units lattice
        min_style ${style}
        min_style cg
        minimize ${etol} ${ftol} ${maxiter} ${maxeval}
        minimize 1e-12 ${ftol} ${maxiter} ${maxeval}
        minimize 1e-12 1e-08 ${maxiter} ${maxeval}
        minimize 1e-12 1e-08 10000 ${maxeval}
        minimize 1e-12 1e-08 10000 20000
WARNING: Resetting reneighboring criteria during minimization (../min.cpp:168)
Memory usage per processor = 3.35941 Mbytes
Step Temp PotEng Lx Ly Lz 
      29            0   -120.82639    1.1224537    39.003475    1.1224537 
      30            0   -120.82639    1.1224537    39.003475    1.1224537 
Loop time of 4.7946e-05 on 1 procs for 1 steps with 41 atoms

Minimization stats:
  Stopping criterion = linesearch alpha is zero
  Energy initial, next-to-last, final = 
        -120.826391435     -120.826391435     -120.826391435
  Force two-norm initial, final = 4.95536e-17 4.95536e-17
  Force max component initial, final = 4.85723e-17 4.85723e-17
  Final line search alpha, max atom move = 0.5 2.42861e-17
  Iterations, force evaluations = 1 2

Pair  time (%) = 3.40086e-05 (70.9311)
Neigh time (%) = 0 (0)
Comm  time (%) = 5.26116e-06 (10.9731)
Outpt time (%) = 0 (0)
Other time (%) = 8.6762e-06 (18.0958)

Nlocal:    41 ave 41 max 41 min
Histogram: 1 0 0 0 0 0 0 0 0 0
Nghost:    185 ave 185 max 185 min
Histogram: 1 0 0 0 0 0 0 0 0 0
Neighs:    359 ave 359 max 359 min
Histogram: 1 0 0 0 0 0 0 0 0 0

Total # of neighbors = 359
Ave neighs/atom = 8.7561
Neighbor list builds = 0
Dangerous builds = 0
	# write_dump all atom ${dumpfile}
        next i
jump SELF loop1
        displace_atoms upper move 0.0 ${ystep1} 0.0 units lattice
        displace_atoms upper move 0.0 0.002 0.0 units lattice
        min_style ${style}
        min_style cg
        minimize ${etol} ${ftol} ${maxiter} ${maxeval}
        minimize 1e-12 ${ftol} ${maxiter} ${maxeval}
        minimize 1e-12 1e-08 ${maxiter} ${maxeval}
        minimize 1e-12 1e-08 10000 ${maxeval}
        minimize 1e-12 1e-08 10000 20000
WARNING: Resetting reneighboring criteria during minimization (../min.cpp:168)
Memory usage per processor = 3.35941 Mbytes
Step Temp PotEng Lx Ly Lz 
      30            0   -120.81629    1.1224537    39.007363    1.1224537 
      31            0   -120.81629    1.1224537    39.007363    1.1224537 
Loop time of 5.00407e-05 on 1 procs for 1 steps with 41 atoms

Minimization stats:
  Stopping criterion = linesearch alpha is zero
  Energy initial, next-to-last, final = 
        -120.816288787     -120.816288787     -120.816288787
  Force two-norm initial, final = 4.56334e-17 4.56334e-17
  Force max component initial, final = 4.51028e-17 4.51028e-17
  Final line search alpha, max atom move = 0.5 2.25514e-17
  Iterations, force evaluations = 1 2

Pair  time (%) = 3.30012e-05 (65.9487)
Neigh time (%) = 0 (0)
Comm  time (%) = 4.9615e-06 (9.91495)
Outpt time (%) = 0 (0)
Other time (%) = 1.2078e-05 (24.1363)

Nlocal:    41 ave 41 max 41 min
Histogram: 1 0 0 0 0 0 0 0 0 0
Nghost:    185 ave 185 max 185 min
Histogram: 1 0 0 0 0 0 0 0 0 0
Neighs:    359 ave 359 max 359 min
Histogram: 1 0 0 0 0 0 0 0 0 0

Total # of neighbors = 359
Ave neighs/atom = 8.7561
Neighbor list builds = 0
Dangerous builds = 0
	# write_dump all atom ${dumpfile}
        next i
jump SELF loop1
        displace_atoms upper move 0.0 ${ystep1} 0.0 units lattice
        displace_atoms upper move 0.0 0.002 0.0 units lattice
        min_style ${style}
        min_style cg
        minimize ${etol} ${ftol} ${maxiter} ${maxeval}
        minimize 1e-12 ${ftol} ${maxiter} ${maxeval}
        minimize 1e-12 1e-08 ${maxiter} ${maxeval}
        minimize 1e-12 1e-08 10000 ${maxeval}
        minimize 1e-12 1e-08 10000 20000
WARNING: Resetting reneighboring criteria during minimization (../min.cpp:168)
Memory usage per processor = 3.35941 Mbytes
Step Temp PotEng Lx Ly Lz 
      31            0   -120.80603    1.1224537    39.011252    1.1224537 
      32            0   -120.80603    1.1224537    39.011252    1.1224537 
Loop time of 5.09379e-05 on 1 procs for 1 steps with 41 atoms

Minimization stats:
  Stopping criterion = linesearch alpha is zero
  Energy initial, next-to-last, final = 
        -120.806026381     -120.806026381     -120.806026381
  Force two-norm initial, final = 1.43049e-17 1.43049e-17
  Force max component initial, final = 1.04083e-17 1.04083e-17
  Final line search alpha, max atom move = 0.5 5.20417e-18
  Iterations, force evaluations = 1 2

Pair  time (%) = 3.40235e-05 (66.7942)
Neigh time (%) = 0 (0)
Comm  time (%) = 4.00643e-06 (7.86533)
Outpt time (%) = 0 (0)
Other time (%) = 1.29079e-05 (25.3405)

Nlocal:    41 ave 41 max 41 min
Histogram: 1 0 0 0 0 0 0 0 0 0
Nghost:    185 ave 185 max 185 min
Histogram: 1 0 0 0 0 0 0 0 0 0
Neighs:    359 ave 359 max 359 min
Histogram: 1 0 0 0 0 0 0 0 0 0

Total # of neighbors = 359
Ave neighs/atom = 8.7561
Neighbor list builds = 0
Dangerous builds = 0
	# write_dump all atom ${dumpfile}
        next i
jump SELF loop1
        displace_atoms upper move 0.0 ${ystep1} 0.0 units lattice
        displace_atoms upper move 0.0 0.002 0.0 units lattice
        min_style ${style}
        min_style cg
        minimize ${etol} ${ftol} ${maxiter} ${maxeval}
        minimize 1e-12 ${ftol} ${maxiter} ${maxeval}
        minimize 1e-12 1e-08 ${maxiter} ${maxeval}
        minimize 1e-12 1e-08 10000 ${maxeval}
        minimize 1e-12 1e-08 10000 20000
WARNING: Resetting reneighboring criteria during minimization (../min.cpp:168)
Memory usage per processor = 3.35941 Mbytes
Step Temp PotEng Lx Ly Lz 
      32            0   -120.79559    1.1224537     39.01514    1.1224537 
      33            0   -120.79559    1.1224537     39.01514    1.1224537 
Loop time of 4.80771e-05 on 1 procs for 1 steps with 41 atoms

Minimization stats:
  Stopping criterion = linesearch alpha is zero
  Energy initial, next-to-last, final = 
        -120.795591523     -120.795591523     -120.795591523
  Force two-norm initial, final = 6.93889e-18 6.93889e-18
  Force max component initial, final = 3.46945e-18 3.46945e-18
  Final line search alpha, max atom move = 0.5 1.73472e-18
  Iterations, force evaluations = 1 2

Pair  time (%) = 3.39252e-05 (70.5641)
Neigh time (%) = 0 (0)
Comm  time (%) = 2.09431e-06 (4.35615)
Outpt time (%) = 0 (0)
Other time (%) = 1.20576e-05 (25.0797)

Nlocal:    41 ave 41 max 41 min
Histogram: 1 0 0 0 0 0 0 0 0 0
Nghost:    185 ave 185 max 185 min
Histogram: 1 0 0 0 0 0 0 0 0 0
Neighs:    359 ave 359 max 359 min
Histogram: 1 0 0 0 0 0 0 0 0 0

Total # of neighbors = 359
Ave neighs/atom = 8.7561
Neighbor list builds = 0
Dangerous builds = 0
	# write_dump all atom ${dumpfile}
        next i
jump SELF loop1
        displace_atoms upper move 0.0 ${ystep1} 0.0 units lattice
        displace_atoms upper move 0.0 0.002 0.0 units lattice
        min_style ${style}
        min_style cg
        minimize ${etol} ${ftol} ${maxiter} ${maxeval}
        minimize 1e-12 ${ftol} ${maxiter} ${maxeval}
        minimize 1e-12 1e-08 ${maxiter} ${maxeval}
        minimize 1e-12 1e-08 10000 ${maxeval}
        minimize 1e-12 1e-08 10000 20000
WARNING: Resetting reneighboring criteria during minimization (../min.cpp:168)
Memory usage per processor = 3.35941 Mbytes
Step Temp PotEng Lx Ly Lz 
      33            0   -120.78501    1.1224537    39.019028    1.1224537 
      34            0   -120.78501    1.1224537    39.019028    1.1224537 
Loop time of 4.89521e-05 on 1 procs for 1 steps with 41 atoms

Minimization stats:
  Stopping criterion = linesearch alpha is zero
  Energy initial, next-to-last, final = 
        -120.785008201     -120.785008201     -120.785008201
  Force two-norm initial, final = 1.25093e-17 1.25093e-17
  Force max component initial, final = 1.04083e-17 1.04083e-17
  Final line search alpha, max atom move = 0.5 5.20417e-18
  Iterations, force evaluations = 1 2

Pair  time (%) = 3.38345e-05 (69.1176)
Neigh time (%) = 0 (0)
Comm  time (%) = 5.10516e-06 (10.4289)
Outpt time (%) = 0 (0)
Other time (%) = 1.00124e-05 (20.4535)

Nlocal:    41 ave 41 max 41 min
Histogram: 1 0 0 0 0 0 0 0 0 0
Nghost:    185 ave 185 max 185 min
Histogram: 1 0 0 0 0 0 0 0 0 0
Neighs:    359 ave 359 max 359 min
Histogram: 1 0 0 0 0 0 0 0 0 0

Total # of neighbors = 359
Ave neighs/atom = 8.7561
Neighbor list builds = 0
Dangerous builds = 0
	# write_dump all atom ${dumpfile}
        next i
jump SELF loop1
        displace_atoms upper move 0.0 ${ystep1} 0.0 units lattice
        displace_atoms upper move 0.0 0.002 0.0 units lattice
        min_style ${style}
        min_style cg
        minimize ${etol} ${ftol} ${maxiter} ${maxeval}
        minimize 1e-12 ${ftol} ${maxiter} ${maxeval}
        minimize 1e-12 1e-08 ${maxiter} ${maxeval}
        minimize 1e-12 1e-08 10000 ${maxeval}
        minimize 1e-12 1e-08 10000 20000
WARNING: Resetting reneighboring criteria during minimization (../min.cpp:168)
Memory usage per processor = 3.35941 Mbytes
Step Temp PotEng Lx Ly Lz 
      34            0   -120.77397    1.1224537    39.022917    1.1224537 
      35            0   -120.77397    1.1224537    39.022917    1.1224537 
Loop time of 4.88925e-05 on 1 procs for 1 steps with 41 atoms

Minimization stats:
  Stopping criterion = linesearch alpha is zero
  Energy initial, next-to-last, final = 
        -120.773966812     -120.773966812     -120.773966812
  Force two-norm initial, final = 4.90654e-17 4.90654e-17
  Force max component initial, final = 4.85723e-17 4.85723e-17
  Final line search alpha, max atom move = 0.5 2.42861e-17
  Iterations, force evaluations = 1 2

Pair  time (%) = 3.41327e-05 (69.8119)
Neigh time (%) = 0 (0)
Comm  time (%) = 4.03239e-06 (8.24748)
Outpt time (%) = 0 (0)
Other time (%) = 1.07273e-05 (21.9406)

Nlocal:    41 ave 41 max 41 min
Histogram: 1 0 0 0 0 0 0 0 0 0
Nghost:    185 ave 185 max 185 min
Histogram: 1 0 0 0 0 0 0 0 0 0
Neighs:    359 ave 359 max 359 min
Histogram: 1 0 0 0 0 0 0 0 0 0

Total # of neighbors = 359
Ave neighs/atom = 8.7561
Neighbor list builds = 0
Dangerous builds = 0
	# write_dump all atom ${dumpfile}
        next i
jump SELF loop1
        displace_atoms upper move 0.0 ${ystep1} 0.0 units lattice
        displace_atoms upper move 0.0 0.002 0.0 units lattice
        min_style ${style}
        min_style cg
        minimize ${etol} ${ftol} ${maxiter} ${maxeval}
        minimize 1e-12 ${ftol} ${maxiter} ${maxeval}
        minimize 1e-12 1e-08 ${maxiter} ${maxeval}
        minimize 1e-12 1e-08 10000 ${maxeval}
        minimize 1e-12 1e-08 10000 20000
WARNING: Resetting reneighboring criteria during minimization (../min.cpp:168)
Memory usage per processor = 3.35941 Mbytes
Step Temp PotEng Lx Ly Lz 
      35            0   -120.76241    1.1224537    39.026805    1.1224537 
      36            0   -120.76241    1.1224537    39.026805    1.1224537 
Loop time of 4.89391e-05 on 1 procs for 1 steps with 41 atoms

Minimization stats:
  Stopping criterion = linesearch alpha is zero
  Energy initial, next-to-last, final = 
        -120.762405298     -120.762405298     -120.762405298
  Force two-norm initial, final = 2.86098e-17 2.86098e-17
  Force max component initial, final = 2.77556e-17 2.77556e-17
  Final line search alpha, max atom move = 0.5 1.38778e-17
  Iterations, force evaluations = 1 2

Pair  time (%) = 3.38884e-05 (69.246)
Neigh time (%) = 0 (0)
Comm  time (%) = 2.02085e-06 (4.12932)
Outpt time (%) = 0 (0)
Other time (%) = 1.30299e-05 (26.6247)

Nlocal:    41 ave 41 max 41 min
Histogram: 1 0 0 0 0 0 0 0 0 0
Nghost:    185 ave 185 max 185 min
Histogram: 1 0 0 0 0 0 0 0 0 0
Neighs:    359 ave 359 max 359 min
Histogram: 1 0 0 0 0 0 0 0 0 0

Total # of neighbors = 359
Ave neighs/atom = 8.7561
Neighbor list builds = 0
Dangerous builds = 0
	# write_dump all atom ${dumpfile}
        next i
jump SELF loop1
        displace_atoms upper move 0.0 ${ystep1} 0.0 units lattice
        displace_atoms upper move 0.0 0.002 0.0 units lattice
        min_style ${style}
        min_style cg
        minimize ${etol} ${ftol} ${maxiter} ${maxeval}
        minimize 1e-12 ${ftol} ${maxiter} ${maxeval}
        minimize 1e-12 1e-08 ${maxiter} ${maxeval}
        minimize 1e-12 1e-08 10000 ${maxeval}
        minimize 1e-12 1e-08 10000 20000
WARNING: Resetting reneighboring criteria during minimization (../min.cpp:168)
Memory usage per processor = 3.35941 Mbytes
Step Temp PotEng Lx Ly Lz 
      36            0   -120.75024    1.1224537    39.030693    1.1224537 
      37            0   -120.75024    1.1224537    39.030693    1.1224537 
Loop time of 0.000101006 on 1 procs for 1 steps with 41 atoms

Minimization stats:
  Stopping criterion = linesearch alpha is zero
  Energy initial, next-to-last, final = 
        -120.750240702     -120.750240702     -120.750240702
  Force two-norm initial, final = 3.53816e-17 3.53816e-17
  Force max component initial, final = 3.46945e-17 3.46945e-17
  Final line search alpha, max atom move = 0.5 1.73472e-17
  Iterations, force evaluations = 1 2

Pair  time (%) = 8.27357e-05 (81.9115)
Neigh time (%) = 0 (0)
Comm  time (%) = 3.07779e-06 (3.04713)
Outpt time (%) = 0 (0)
Other time (%) = 1.51927e-05 (15.0413)

Nlocal:    41 ave 41 max 41 min
Histogram: 1 0 0 0 0 0 0 0 0 0
Nghost:    185 ave 185 max 185 min
Histogram: 1 0 0 0 0 0 0 0 0 0
Neighs:    359 ave 359 max 359 min
Histogram: 1 0 0 0 0 0 0 0 0 0

Total # of neighbors = 359
Ave neighs/atom = 8.7561
Neighbor list builds = 0
Dangerous builds = 0
	# write_dump all atom ${dumpfile}
        next i
jump SELF loop1
        displace_atoms upper move 0.0 ${ystep1} 0.0 units lattice
        displace_atoms upper move 0.0 0.002 0.0 units lattice
        min_style ${style}
        min_style cg
        minimize ${etol} ${ftol} ${maxiter} ${maxeval}
        minimize 1e-12 ${ftol} ${maxiter} ${maxeval}
        minimize 1e-12 1e-08 ${maxiter} ${maxeval}
        minimize 1e-12 1e-08 10000 ${maxeval}
        minimize 1e-12 1e-08 10000 20000
WARNING: Resetting reneighboring criteria during minimization (../min.cpp:168)
Memory usage per processor = 3.35941 Mbytes
Step Temp PotEng Lx Ly Lz 
      37            0   -120.73756    1.1224537    39.034581    1.1224537 
      38            0   -120.73756    1.1224537    39.034581    1.1224537 
Loop time of 4.89522e-05 on 1 procs for 1 steps with 41 atoms

Minimization stats:
  Stopping criterion = linesearch alpha is zero
  Energy initial, next-to-last, final = 
        -120.737564491     -120.737564491     -120.737564491
  Force two-norm initial, final = 2.61938e-17 2.61938e-17
  Force max component initial, final = 2.42861e-17 2.42861e-17
  Final line search alpha, max atom move = 0.5 1.21431e-17
  Iterations, force evaluations = 1 2

Pair  time (%) = 3.38348e-05 (69.1181)
Neigh time (%) = 0 (0)
Comm  time (%) = 4.15219e-06 (8.48213)
Outpt time (%) = 0 (0)
Other time (%) = 1.09652e-05 (22.3997)

Nlocal:    41 ave 41 max 41 min
Histogram: 1 0 0 0 0 0 0 0 0 0
Nghost:    185 ave 185 max 185 min
Histogram: 1 0 0 0 0 0 0 0 0 0
Neighs:    359 ave 359 max 359 min
Histogram: 1 0 0 0 0 0 0 0 0 0

Total # of neighbors = 359
Ave neighs/atom = 8.7561
Neighbor list builds = 0
Dangerous builds = 0
	# write_dump all atom ${dumpfile}
        next i
jump SELF loop1
        displace_atoms upper move 0.0 ${ystep1} 0.0 units lattice
        displace_atoms upper move 0.0 0.002 0.0 units lattice
        min_style ${style}
        min_style cg
        minimize ${etol} ${ftol} ${maxiter} ${maxeval}
        minimize 1e-12 ${ftol} ${maxiter} ${maxeval}
        minimize 1e-12 1e-08 ${maxiter} ${maxeval}
        minimize 1e-12 1e-08 10000 ${maxeval}
        minimize 1e-12 1e-08 10000 20000
WARNING: Resetting reneighboring criteria during minimization (../min.cpp:168)
Memory usage per processor = 3.35941 Mbytes
Step Temp PotEng Lx Ly Lz 
      38            0   -120.72433    1.1224537     39.03847    1.1224537 
      39            0   -120.72433    1.1224537     39.03847    1.1224537 
Loop time of 4.8026e-05 on 1 procs for 1 steps with 41 atoms

Minimization stats:
  Stopping criterion = linesearch alpha is zero
  Energy initial, next-to-last, final = 
         -120.72432949      -120.72432949      -120.72432949
  Force two-norm initial, final = 1.86835e-17 1.86835e-17
  Force max component initial, final = 1.73472e-17 1.73472e-17
  Final line search alpha, max atom move = 0.5 8.67362e-18
  Iterations, force evaluations = 1 2

Pair  time (%) = 3.40099e-05 (70.8157)
Neigh time (%) = 0 (0)
Comm  time (%) = 4.02553e-06 (8.38198)
Outpt time (%) = 0 (0)
Other time (%) = 9.99053e-06 (20.8023)

Nlocal:    41 ave 41 max 41 min
Histogram: 1 0 0 0 0 0 0 0 0 0
Nghost:    185 ave 185 max 185 min
Histogram: 1 0 0 0 0 0 0 0 0 0
Neighs:    359 ave 359 max 359 min
Histogram: 1 0 0 0 0 0 0 0 0 0

Total # of neighbors = 359
Ave neighs/atom = 8.7561
Neighbor list builds = 0
Dangerous builds = 0
	# write_dump all atom ${dumpfile}
        next i
jump SELF loop1
        displace_atoms upper move 0.0 ${ystep1} 0.0 units lattice
        displace_atoms upper move 0.0 0.002 0.0 units lattice
        min_style ${style}
        min_style cg
        minimize ${etol} ${ftol} ${maxiter} ${maxeval}
        minimize 1e-12 ${ftol} ${maxiter} ${maxeval}
        minimize 1e-12 1e-08 ${maxiter} ${maxeval}
        minimize 1e-12 1e-08 10000 ${maxeval}
        minimize 1e-12 1e-08 10000 20000
WARNING: Resetting reneighboring criteria during minimization (../min.cpp:168)
Memory usage per processor = 3.35941 Mbytes
Step Temp PotEng Lx Ly Lz 
      39            0   -120.71059    1.1224537    39.042358    1.1224537 
      40            0   -120.71059    1.1224537    39.042358    1.1224537 
Loop time of 4.79979e-05 on 1 procs for 1 steps with 41 atoms

Minimization stats:
  Stopping criterion = linesearch alpha is zero
  Energy initial, next-to-last, final = 
        -120.710586222     -120.710586222     -120.710586222
  Force two-norm initial, final = 1.25093e-17 1.25093e-17
  Force max component initial, final = 1.04083e-17 1.04083e-17
  Final line search alpha, max atom move = 0.5 5.20417e-18
  Iterations, force evaluations = 1 2

Pair  time (%) = 3.39258e-05 (70.6817)
Neigh time (%) = 0 (0)
Comm  time (%) = 3.0956e-06 (6.44945)
Outpt time (%) = 0 (0)
Other time (%) = 1.09766e-05 (22.8688)

Nlocal:    41 ave 41 max 41 min
Histogram: 1 0 0 0 0 0 0 0 0 0
Nghost:    185 ave 185 max 185 min
Histogram: 1 0 0 0 0 0 0 0 0 0
Neighs:    359 ave 359 max 359 min
Histogram: 1 0 0 0 0 0 0 0 0 0

Total # of neighbors = 359
Ave neighs/atom = 8.7561
Neighbor list builds = 0
Dangerous builds = 0
	# write_dump all atom ${dumpfile}
        next i
jump SELF loop1
        displace_atoms upper move 0.0 ${ystep1} 0.0 units lattice
        displace_atoms upper move 0.0 0.002 0.0 units lattice
        min_style ${style}
        min_style cg
        minimize ${etol} ${ftol} ${maxiter} ${maxeval}
        minimize 1e-12 ${ftol} ${maxiter} ${maxeval}
        minimize 1e-12 1e-08 ${maxiter} ${maxeval}
        minimize 1e-12 1e-08 10000 ${maxeval}
        minimize 1e-12 1e-08 10000 20000
WARNING: Resetting reneighboring criteria during minimization (../min.cpp:168)
Memory usage per processor = 3.35941 Mbytes
Step Temp PotEng Lx Ly Lz 
      40            0   -120.69633    1.1224537    39.046246    1.1224537 
      41            0   -120.69633    1.1224537    39.046246    1.1224537 
Loop time of 5.19877e-05 on 1 procs for 1 steps with 41 atoms

Minimization stats:
  Stopping criterion = linesearch alpha is zero
  Energy initial, next-to-last, final = 
         -120.69633046      -120.69633046      -120.69633046
  Force two-norm initial, final = 2.61938e-17 2.61938e-17
  Force max component initial, final = 2.42861e-17 2.42861e-17
  Final line search alpha, max atom move = 0.5 1.21431e-17
  Iterations, force evaluations = 1 2

Pair  time (%) = 3.50273e-05 (67.3761)
Neigh time (%) = 0 (0)
Comm  time (%) = 8.68109e-07 (1.66984)
Outpt time (%) = 0 (0)
Other time (%) = 1.60923e-05 (30.9541)

Nlocal:    41 ave 41 max 41 min
Histogram: 1 0 0 0 0 0 0 0 0 0
Nghost:    185 ave 185 max 185 min
Histogram: 1 0 0 0 0 0 0 0 0 0
Neighs:    359 ave 359 max 359 min
Histogram: 1 0 0 0 0 0 0 0 0 0

Total # of neighbors = 359
Ave neighs/atom = 8.7561
Neighbor list builds = 0
Dangerous builds = 0
	# write_dump all atom ${dumpfile}
        next i
jump SELF loop1
        displace_atoms upper move 0.0 ${ystep1} 0.0 units lattice
        displace_atoms upper move 0.0 0.002 0.0 units lattice
        min_style ${style}
        min_style cg
        minimize ${etol} ${ftol} ${maxiter} ${maxeval}
        minimize 1e-12 ${ftol} ${maxiter} ${maxeval}
        minimize 1e-12 1e-08 ${maxiter} ${maxeval}
        minimize 1e-12 1e-08 10000 ${maxeval}
        minimize 1e-12 1e-08 10000 20000
WARNING: Resetting reneighboring criteria during minimization (../min.cpp:168)
Memory usage per processor = 3.35941 Mbytes
Step Temp PotEng Lx Ly Lz 
      41            0   -120.68157    1.1224537    39.050135    1.1224537 
      42            0   -120.68157    1.1224537    39.050135    1.1224537 
Loop time of 4.90738e-05 on 1 procs for 1 steps with 41 atoms

Minimization stats:
  Stopping criterion = linesearch alpha is zero
  Energy initial, next-to-last, final = 
        -120.681568699     -120.681568699     -120.681568699
  Force two-norm initial, final = 4.56334e-17 4.56334e-17
  Force max component initial, final = 4.51028e-17 4.51028e-17
  Final line search alpha, max atom move = 0.5 2.25514e-17
  Iterations, force evaluations = 1 2

Pair  time (%) = 3.39615e-05 (69.2049)
Neigh time (%) = 0 (0)
Comm  time (%) = 5.12053e-06 (10.4343)
Outpt time (%) = 0 (0)
Other time (%) = 9.99181e-06 (20.3608)

Nlocal:    41 ave 41 max 41 min
Histogram: 1 0 0 0 0 0 0 0 0 0
Nghost:    185 ave 185 max 185 min
Histogram: 1 0 0 0 0 0 0 0 0 0
Neighs:    359 ave 359 max 359 min
Histogram: 1 0 0 0 0 0 0 0 0 0

Total # of neighbors = 359
Ave neighs/atom = 8.7561
Neighbor list builds = 0
Dangerous builds = 0
	# write_dump all atom ${dumpfile}
        next i
jump SELF loop1
        displace_atoms upper move 0.0 ${ystep1} 0.0 units lattice
        displace_atoms upper move 0.0 0.002 0.0 units lattice
        min_style ${style}
        min_style cg
        minimize ${etol} ${ftol} ${maxiter} ${maxeval}
        minimize 1e-12 ${ftol} ${maxiter} ${maxeval}
        minimize 1e-12 1e-08 ${maxiter} ${maxeval}
        minimize 1e-12 1e-08 10000 ${maxeval}
        minimize 1e-12 1e-08 10000 20000
WARNING: Resetting reneighboring criteria during minimization (../min.cpp:168)
Memory usage per processor = 3.35941 Mbytes
Step Temp PotEng Lx Ly Lz 
      42            0   -120.66634    1.1224537    39.054023    1.1224537 
      43            0   -120.66634    1.1224537    39.054023    1.1224537 
Loop time of 4.80809e-05 on 1 procs for 1 steps with 41 atoms

Minimization stats:
  Stopping criterion = linesearch alpha is zero
  Energy initial, next-to-last, final = 
        -120.666341921     -120.666341921     -120.666341921
  Force two-norm initial, final = 1.22172e-16 1.22172e-16
  Force max component initial, final = 1.14492e-16 1.14492e-16
  Final line search alpha, max atom move = 0.5 5.72459e-17
  Iterations, force evaluations = 1 2

Pair  time (%) = 3.39366e-05 (70.5822)
Neigh time (%) = 0 (0)
Comm  time (%) = 2.8786e-06 (5.98699)
Outpt time (%) = 0 (0)
Other time (%) = 1.12657e-05 (23.4308)

Nlocal:    41 ave 41 max 41 min
Histogram: 1 0 0 0 0 0 0 0 0 0
Nghost:    185 ave 185 max 185 min
Histogram: 1 0 0 0 0 0 0 0 0 0
Neighs:    359 ave 359 max 359 min
Histogram: 1 0 0 0 0 0 0 0 0 0

Total # of neighbors = 359
Ave neighs/atom = 8.7561
Neighbor list builds = 0
Dangerous builds = 0
	# write_dump all atom ${dumpfile}
        next i
jump SELF loop1
        displace_atoms upper move 0.0 ${ystep1} 0.0 units lattice
        displace_atoms upper move 0.0 0.002 0.0 units lattice
        min_style ${style}
        min_style cg
        minimize ${etol} ${ftol} ${maxiter} ${maxeval}
        minimize 1e-12 ${ftol} ${maxiter} ${maxeval}
        minimize 1e-12 1e-08 ${maxiter} ${maxeval}
        minimize 1e-12 1e-08 10000 ${maxeval}
        minimize 1e-12 1e-08 10000 20000
WARNING: Resetting reneighboring criteria during minimization (../min.cpp:168)
Memory usage per processor = 3.35941 Mbytes
Step Temp PotEng Lx Ly Lz 
      43            0   -120.65061    1.1224537    39.057911    1.1224537 
      44            0   -120.65061    1.1224537    39.057911    1.1224537 
Loop time of 4.89163e-05 on 1 procs for 1 steps with 41 atoms

Minimization stats:
  Stopping criterion = linesearch alpha is zero
  Energy initial, next-to-last, final = 
        -120.650611036     -120.650611036     -120.650611036
  Force two-norm initial, final = 1.17961e-16 1.17961e-16
  Force max component initial, final = 1.14492e-16 1.14492e-16
  Final line search alpha, max atom move = 0.5 5.72459e-17
  Iterations, force evaluations = 1 2

Pair  time (%) = 3.42043e-05 (69.9242)
Neigh time (%) = 0 (0)
Comm  time (%) = 3.93717e-06 (8.04878)
Outpt time (%) = 0 (0)
Other time (%) = 1.07748e-05 (22.027)

Nlocal:    41 ave 41 max 41 min
Histogram: 1 0 0 0 0 0 0 0 0 0
Nghost:    185 ave 185 max 185 min
Histogram: 1 0 0 0 0 0 0 0 0 0
Neighs:    359 ave 359 max 359 min
Histogram: 1 0 0 0 0 0 0 0 0 0

Total # of neighbors = 359
Ave neighs/atom = 8.7561
Neighbor list builds = 0
Dangerous builds = 0
	# write_dump all atom ${dumpfile}
        next i
jump SELF loop1
        displace_atoms upper move 0.0 ${ystep1} 0.0 units lattice
        displace_atoms upper move 0.0 0.002 0.0 units lattice
        min_style ${style}
        min_style cg
        minimize ${etol} ${ftol} ${maxiter} ${maxeval}
        minimize 1e-12 ${ftol} ${maxiter} ${maxeval}
        minimize 1e-12 1e-08 ${maxiter} ${maxeval}
        minimize 1e-12 1e-08 10000 ${maxeval}
        minimize 1e-12 1e-08 10000 20000
WARNING: Resetting reneighboring criteria during minimization (../min.cpp:168)
Memory usage per processor = 3.35941 Mbytes
Step Temp PotEng Lx Ly Lz 
      44            0   -120.63445    1.1224537    39.061799    1.1224537 
      45            0   -120.63445    1.1224537    39.061799    1.1224537 
Loop time of 4.80297e-05 on 1 procs for 1 steps with 41 atoms

Minimization stats:
  Stopping criterion = linesearch alpha is zero
  Energy initial, next-to-last, final = 
        -120.634447907     -120.634447907     -120.634447907
  Force two-norm initial, final = 2.86098e-17 2.86098e-17
  Force max component initial, final = 2.77556e-17 2.77556e-17
  Final line search alpha, max atom move = 0.5 1.38778e-17
  Iterations, force evaluations = 1 2

Pair  time (%) = 3.40674e-05 (70.9299)
Neigh time (%) = 0 (0)
Comm  time (%) = 3.90213e-06 (8.1244)
Outpt time (%) = 0 (0)
Other time (%) = 1.00601e-05 (20.9457)

Nlocal:    41 ave 41 max 41 min
Histogram: 1 0 0 0 0 0 0 0 0 0
Nghost:    185 ave 185 max 185 min
Histogram: 1 0 0 0 0 0 0 0 0 0
Neighs:    359 ave 359 max 359 min
Histogram: 1 0 0 0 0 0 0 0 0 0

Total # of neighbors = 359
Ave neighs/atom = 8.7561
Neighbor list builds = 0
Dangerous builds = 0
	# write_dump all atom ${dumpfile}
        next i
jump SELF loop1
        displace_atoms upper move 0.0 ${ystep1} 0.0 units lattice
        displace_atoms upper move 0.0 0.002 0.0 units lattice
        min_style ${style}
        min_style cg
        minimize ${etol} ${ftol} ${maxiter} ${maxeval}
        minimize 1e-12 ${ftol} ${maxiter} ${maxeval}
        minimize 1e-12 1e-08 ${maxiter} ${maxeval}
        minimize 1e-12 1e-08 10000 ${maxeval}
[...]
        min_style cg
        minimize ${etol} ${ftol} ${maxiter} ${maxeval}
        minimize 1e-12 ${ftol} ${maxiter} ${maxeval}
        minimize 1e-12 1e-08 ${maxiter} ${maxeval}
        minimize 1e-12 1e-08 10000 ${maxeval}
        minimize 1e-12 1e-08 10000 20000
WARNING: Resetting reneighboring criteria during minimization (../min.cpp:168)
Memory usage per processor = 3.35948 Mbytes
Step Temp PotEng Lx Ly Lz 
     490            0   -118.99775    1.1224537    40.795979    1.1224537 
     491            0   -118.99775    1.1224537    40.795979    1.1224537 
Loop time of 4.70609e-05 on 1 procs for 1 steps with 41 atoms

Minimization stats:
  Stopping criterion = linesearch alpha is zero
  Energy initial, next-to-last, final = 
        -118.997752357     -118.997752357     -118.997752357
  Force two-norm initial, final = 6.93889e-18 6.93889e-18
  Force max component initial, final = 3.46945e-18 3.46945e-18
  Final line search alpha, max atom move = 0.5 1.73472e-18
  Iterations, force evaluations = 1 2

Pair  time (%) = 3.28299e-05 (69.7605)
Neigh time (%) = 0 (0)
Comm  time (%) = 3.90399e-06 (8.29561)
Outpt time (%) = 0 (0)
Other time (%) = 1.0327e-05 (21.9438)

Nlocal:    41 ave 41 max 41 min
Histogram: 1 0 0 0 0 0 0 0 0 0
Nghost:    185 ave 185 max 185 min
Histogram: 1 0 0 0 0 0 0 0 0 0
Neighs:    349 ave 349 max 349 min
Histogram: 1 0 0 0 0 0 0 0 0 0

Total # of neighbors = 349
Ave neighs/atom = 8.5122
Neighbor list builds = 0
Dangerous builds = 0
	# write_dump all atom ${dumpfile}
        next i
jump SELF loop1
        displace_atoms upper move 0.0 ${ystep1} 0.0 units lattice
        displace_atoms upper move 0.0 0.002 0.0 units lattice
        min_style ${style}
        min_style cg
        minimize ${etol} ${ftol} ${maxiter} ${maxeval}
        minimize 1e-12 ${ftol} ${maxiter} ${maxeval}
        minimize 1e-12 1e-08 ${maxiter} ${maxeval}
        minimize 1e-12 1e-08 10000 ${maxeval}
        minimize 1e-12 1e-08 10000 20000
WARNING: Resetting reneighboring criteria during minimization (../min.cpp:168)
Memory usage per processor = 3.35948 Mbytes
Step Temp PotEng Lx Ly Lz 
     491            0   -118.99775    1.1224537    40.799867    1.1224537 
     492            0   -118.99775    1.1224537    40.799867    1.1224537 
Loop time of 3.09758e-06 on 1 procs for 1 steps with 41 atoms

Minimization stats:
  Stopping criterion = linesearch alpha is zero
  Energy initial, next-to-last, final = 
        -118.997752357     -118.997752357     -118.997752357
  Force two-norm initial, final = 6.00926e-18 6.00926e-18
  Force max component initial, final = 3.46945e-18 3.46945e-18
  Final line search alpha, max atom move = 0.5 1.73472e-18
  Iterations, force evaluations = 1 2

Pair  time (%) = 2.92668e-07 (9.44829)
Neigh time (%) = 0 (0)
Comm  time (%) = 5.85336e-07 (18.8966)
Outpt time (%) = 0 (0)
Other time (%) = 2.21957e-06 (71.6551)

Nlocal:    41 ave 41 max 41 min
Histogram: 1 0 0 0 0 0 0 0 0 0
Nghost:    185 ave 185 max 185 min
Histogram: 1 0 0 0 0 0 0 0 0 0
Neighs:    349 ave 349 max 349 min
Histogram: 1 0 0 0 0 0 0 0 0 0

Total # of neighbors = 349
Ave neighs/atom = 8.5122
Neighbor list builds = 0
Dangerous builds = 0
	# write_dump all atom ${dumpfile}
        next i
jump SELF loop1
        displace_atoms upper move 0.0 ${ystep1} 0.0 units lattice
        displace_atoms upper move 0.0 0.002 0.0 units lattice
        min_style ${style}
        min_style cg
        minimize ${etol} ${ftol} ${maxiter} ${maxeval}
        minimize 1e-12 ${ftol} ${maxiter} ${maxeval}
        minimize 1e-12 1e-08 ${maxiter} ${maxeval}
        minimize 1e-12 1e-08 10000 ${maxeval}
        minimize 1e-12 1e-08 10000 20000
WARNING: Resetting reneighboring criteria during minimization (../min.cpp:168)
Memory usage per processor = 3.35948 Mbytes
Step Temp PotEng Lx Ly Lz 
     492            0   -118.99775    1.1224537    40.803755    1.1224537 
     493            0   -118.99775    1.1224537    40.803755    1.1224537 
Loop time of 7.59701e-05 on 1 procs for 1 steps with 41 atoms

Minimization stats:
  Stopping criterion = linesearch alpha is zero
  Energy initial, next-to-last, final = 
        -118.997752357     -118.997752357     -118.997752357
  Force two-norm initial, final = 6.93889e-18 6.93889e-18
  Force max component initial, final = 3.46945e-18 3.46945e-18
  Final line search alpha, max atom move = 0.5 1.73472e-18
  Iterations, force evaluations = 1 2

Pair  time (%) = 5.39937e-05 (71.0723)
Neigh time (%) = 0 (0)
Comm  time (%) = 6.11146e-06 (8.04456)
Outpt time (%) = 0 (0)
Other time (%) = 1.5865e-05 (20.8832)

Nlocal:    41 ave 41 max 41 min
Histogram: 1 0 0 0 0 0 0 0 0 0
Nghost:    185 ave 185 max 185 min
Histogram: 1 0 0 0 0 0 0 0 0 0
Neighs:    349 ave 349 max 349 min
Histogram: 1 0 0 0 0 0 0 0 0 0

Total # of neighbors = 349
Ave neighs/atom = 8.5122
Neighbor list builds = 0
Dangerous builds = 0
	# write_dump all atom ${dumpfile}
        next i
jump SELF loop1
        displace_atoms upper move 0.0 ${ystep1} 0.0 units lattice
        displace_atoms upper move 0.0 0.002 0.0 units lattice
        min_style ${style}
        min_style cg
        minimize ${etol} ${ftol} ${maxiter} ${maxeval}
        minimize 1e-12 ${ftol} ${maxiter} ${maxeval}
        minimize 1e-12 1e-08 ${maxiter} ${maxeval}
        minimize 1e-12 1e-08 10000 ${maxeval}
        minimize 1e-12 1e-08 10000 20000
WARNING: Resetting reneighboring criteria during minimization (../min.cpp:168)
Memory usage per processor = 3.35948 Mbytes
Step Temp PotEng Lx Ly Lz 
     493            0   -118.99775    1.1224537    40.807643    1.1224537 
     494            0   -118.99775    1.1224537    40.807643    1.1224537 
Loop time of 0.000156002 on 1 procs for 1 steps with 41 atoms

Minimization stats:
  Stopping criterion = linesearch alpha is zero
  Energy initial, next-to-last, final = 
        -118.997752357     -118.997752357     -118.997752357
  Force two-norm initial, final = 7.75792e-18 7.75792e-18
  Force max component initial, final = 3.46945e-18 3.46945e-18
  Final line search alpha, max atom move = 0.5 1.73472e-18
  Iterations, force evaluations = 1 2

Pair  time (%) = 0.000121051 (77.5963)
Neigh time (%) = 0 (0)
Comm  time (%) = 6.08584e-06 (3.90114)
Outpt time (%) = 0 (0)
Other time (%) = 2.88642e-05 (18.5025)

Nlocal:    41 ave 41 max 41 min
Histogram: 1 0 0 0 0 0 0 0 0 0
Nghost:    185 ave 185 max 185 min
Histogram: 1 0 0 0 0 0 0 0 0 0
Neighs:    349 ave 349 max 349 min
Histogram: 1 0 0 0 0 0 0 0 0 0

Total # of neighbors = 349
Ave neighs/atom = 8.5122
Neighbor list builds = 0
Dangerous builds = 0
	# write_dump all atom ${dumpfile}
        next i
jump SELF loop1
        displace_atoms upper move 0.0 ${ystep1} 0.0 units lattice
        displace_atoms upper move 0.0 0.002 0.0 units lattice
        min_style ${style}
        min_style cg
        minimize ${etol} ${ftol} ${maxiter} ${maxeval}
        minimize 1e-12 ${ftol} ${maxiter} ${maxeval}
        minimize 1e-12 1e-08 ${maxiter} ${maxeval}
        minimize 1e-12 1e-08 10000 ${maxeval}
        minimize 1e-12 1e-08 10000 20000
WARNING: Resetting reneighboring criteria during minimization (../min.cpp:168)
Memory usage per processor = 3.35948 Mbytes
Step Temp PotEng Lx Ly Lz 
     494            0   -118.99775    1.1224537    40.811532    1.1224537 
     495            0   -118.99775    1.1224537    40.811532    1.1224537 
Loop time of 7.90404e-05 on 1 procs for 1 steps with 41 atoms

Minimization stats:
  Stopping criterion = linesearch alpha is zero
  Energy initial, next-to-last, final = 
        -118.997752357     -118.997752357     -118.997752357
  Force two-norm initial, final = 6.00926e-18 6.00926e-18
  Force max component initial, final = 3.46945e-18 3.46945e-18
  Final line search alpha, max atom move = 0.5 1.73472e-18
  Iterations, force evaluations = 1 2

Pair  time (%) = 3.40928e-05 (43.1334)
Neigh time (%) = 0 (0)
Comm  time (%) = 3.90655e-06 (4.94247)
Outpt time (%) = 0 (0)
Other time (%) = 4.10411e-05 (51.9241)

Nlocal:    41 ave 41 max 41 min
Histogram: 1 0 0 0 0 0 0 0 0 0
Nghost:    185 ave 185 max 185 min
Histogram: 1 0 0 0 0 0 0 0 0 0
Neighs:    349 ave 349 max 349 min
Histogram: 1 0 0 0 0 0 0 0 0 0

Total # of neighbors = 349
Ave neighs/atom = 8.5122
Neighbor list builds = 0
Dangerous builds = 0
	# write_dump all atom ${dumpfile}
        next i
jump SELF loop1
        displace_atoms upper move 0.0 ${ystep1} 0.0 units lattice
        displace_atoms upper move 0.0 0.002 0.0 units lattice
        min_style ${style}
        min_style cg
        minimize ${etol} ${ftol} ${maxiter} ${maxeval}
        minimize 1e-12 ${ftol} ${maxiter} ${maxeval}
        minimize 1e-12 1e-08 ${maxiter} ${maxeval}
        minimize 1e-12 1e-08 10000 ${maxeval}
        minimize 1e-12 1e-08 10000 20000
WARNING: Resetting reneighboring criteria during minimization (../min.cpp:168)
Memory usage per processor = 3.35948 Mbytes
Step Temp PotEng Lx Ly Lz 
     495            0   -118.99775    1.1224537     40.81542    1.1224537 
     496            0   -118.99775    1.1224537     40.81542    1.1224537 
Loop time of 4.7966e-05 on 1 procs for 1 steps with 41 atoms

Minimization stats:
  Stopping criterion = linesearch alpha is zero
  Energy initial, next-to-last, final = 
        -118.997752357     -118.997752357     -118.997752357
  Force two-norm initial, final = 7.75792e-18 7.75792e-18
  Force max component initial, final = 3.46945e-18 3.46945e-18
  Final line search alpha, max atom move = 0.5 1.73472e-18
  Iterations, force evaluations = 1 2

Pair  time (%) = 3.28766e-05 (68.5415)
Neigh time (%) = 0 (0)
Comm  time (%) = 3.1892e-06 (6.64887)
Outpt time (%) = 0 (0)
Other time (%) = 1.19002e-05 (24.8097)

Nlocal:    41 ave 41 max 41 min
Histogram: 1 0 0 0 0 0 0 0 0 0
Nghost:    185 ave 185 max 185 min
Histogram: 1 0 0 0 0 0 0 0 0 0
Neighs:    349 ave 349 max 349 min
Histogram: 1 0 0 0 0 0 0 0 0 0

Total # of neighbors = 349
Ave neighs/atom = 8.5122
Neighbor list builds = 0
Dangerous builds = 0
	# write_dump all atom ${dumpfile}
        next i
jump SELF loop1
        displace_atoms upper move 0.0 ${ystep1} 0.0 units lattice
        displace_atoms upper move 0.0 0.002 0.0 units lattice
        min_style ${style}
        min_style cg
        minimize ${etol} ${ftol} ${maxiter} ${maxeval}
        minimize 1e-12 ${ftol} ${maxiter} ${maxeval}
        minimize 1e-12 1e-08 ${maxiter} ${maxeval}
        minimize 1e-12 1e-08 10000 ${maxeval}
        minimize 1e-12 1e-08 10000 20000
WARNING: Resetting reneighboring criteria during minimization (../min.cpp:168)
Memory usage per processor = 3.35948 Mbytes
Step Temp PotEng Lx Ly Lz 
     496            0   -118.99775    1.1224537    40.819308    1.1224537 
     497            0   -118.99775    1.1224537    40.819308    1.1224537 
Loop time of 4.79912e-05 on 1 procs for 1 steps with 41 atoms

Minimization stats:
  Stopping criterion = linesearch alpha is zero
  Energy initial, next-to-last, final = 
        -118.997752357     -118.997752357     -118.997752357
  Force two-norm initial, final = 7.75792e-18 7.75792e-18
  Force max component initial, final = 3.46945e-18 3.46945e-18
  Final line search alpha, max atom move = 0.5 1.73472e-18
  Iterations, force evaluations = 1 2

Pair  time (%) = 3.29518e-05 (68.6623)
Neigh time (%) = 0 (0)
Comm  time (%) = 1.86299e-06 (3.88195)
Outpt time (%) = 0 (0)
Other time (%) = 1.31764e-05 (27.4558)

Nlocal:    41 ave 41 max 41 min
Histogram: 1 0 0 0 0 0 0 0 0 0
Nghost:    185 ave 185 max 185 min
Histogram: 1 0 0 0 0 0 0 0 0 0
Neighs:    349 ave 349 max 349 min
Histogram: 1 0 0 0 0 0 0 0 0 0

Total # of neighbors = 349
Ave neighs/atom = 8.5122
Neighbor list builds = 0
Dangerous builds = 0
	# write_dump all atom ${dumpfile}
        next i
jump SELF loop1
        displace_atoms upper move 0.0 ${ystep1} 0.0 units lattice
        displace_atoms upper move 0.0 0.002 0.0 units lattice
        min_style ${style}
        min_style cg
        minimize ${etol} ${ftol} ${maxiter} ${maxeval}
        minimize 1e-12 ${ftol} ${maxiter} ${maxeval}
        minimize 1e-12 1e-08 ${maxiter} ${maxeval}
        minimize 1e-12 1e-08 10000 ${maxeval}
        minimize 1e-12 1e-08 10000 20000
WARNING: Resetting reneighboring criteria during minimization (../min.cpp:168)
Memory usage per processor = 3.35948 Mbytes
Step Temp PotEng Lx Ly Lz 
     497            0   -118.99775    1.1224537    40.823197    1.1224537 
     498            0   -118.99775    1.1224537    40.823197    1.1224537 
Loop time of 4.79247e-05 on 1 procs for 1 steps with 41 atoms

Minimization stats:
  Stopping criterion = linesearch alpha is zero
  Energy initial, next-to-last, final = 
        -118.997752357     -118.997752357     -118.997752357
  Force two-norm initial, final = 6.00926e-18 6.00926e-18
  Force max component initial, final = 3.46945e-18 3.46945e-18
  Final line search alpha, max atom move = 0.5 1.73472e-18
  Iterations, force evaluations = 1 2

Pair  time (%) = 3.31369e-05 (69.1437)
Neigh time (%) = 0 (0)
Comm  time (%) = 4.04101e-06 (8.432)
Outpt time (%) = 0 (0)
Other time (%) = 1.07468e-05 (22.4243)

Nlocal:    41 ave 41 max 41 min
Histogram: 1 0 0 0 0 0 0 0 0 0
Nghost:    185 ave 185 max 185 min
Histogram: 1 0 0 0 0 0 0 0 0 0
Neighs:    349 ave 349 max 349 min
Histogram: 1 0 0 0 0 0 0 0 0 0

Total # of neighbors = 349
Ave neighs/atom = 8.5122
Neighbor list builds = 0
Dangerous builds = 0
	# write_dump all atom ${dumpfile}
        next i
jump SELF loop1
        displace_atoms upper move 0.0 ${ystep1} 0.0 units lattice
        displace_atoms upper move 0.0 0.002 0.0 units lattice
        min_style ${style}
        min_style cg
        minimize ${etol} ${ftol} ${maxiter} ${maxeval}
        minimize 1e-12 ${ftol} ${maxiter} ${maxeval}
        minimize 1e-12 1e-08 ${maxiter} ${maxeval}
        minimize 1e-12 1e-08 10000 ${maxeval}
        minimize 1e-12 1e-08 10000 20000
WARNING: Resetting reneighboring criteria during minimization (../min.cpp:168)
Memory usage per processor = 3.35948 Mbytes
Step Temp PotEng Lx Ly Lz 
     498            0   -118.99775    1.1224537    40.827085    1.1224537 
     499            0   -118.99775    1.1224537    40.827085    1.1224537 
Loop time of 4.88843e-05 on 1 procs for 1 steps with 41 atoms

Minimization stats:
  Stopping criterion = linesearch alpha is zero
  Energy initial, next-to-last, final = 
        -118.997752357     -118.997752357     -118.997752357
  Force two-norm initial, final = 6.93889e-18 6.93889e-18
  Force max component initial, final = 3.46945e-18 3.46945e-18
  Final line search alpha, max atom move = 0.5 1.73472e-18
  Iterations, force evaluations = 1 2

Pair  time (%) = 3.29624e-05 (67.4294)
Neigh time (%) = 0 (0)
Comm  time (%) = 4.1225e-06 (8.43318)
Outpt time (%) = 0 (0)
Other time (%) = 1.17994e-05 (24.1374)

Nlocal:    41 ave 41 max 41 min
Histogram: 1 0 0 0 0 0 0 0 0 0
Nghost:    185 ave 185 max 185 min
Histogram: 1 0 0 0 0 0 0 0 0 0
Neighs:    349 ave 349 max 349 min
Histogram: 1 0 0 0 0 0 0 0 0 0

Total # of neighbors = 349
Ave neighs/atom = 8.5122
Neighbor list builds = 0
Dangerous builds = 0
	# write_dump all atom ${dumpfile}
        next i
jump SELF loop1
        displace_atoms upper move 0.0 ${ystep1} 0.0 units lattice
        displace_atoms upper move 0.0 0.002 0.0 units lattice
        min_style ${style}
        min_style cg
        minimize ${etol} ${ftol} ${maxiter} ${maxeval}
        minimize 1e-12 ${ftol} ${maxiter} ${maxeval}
        minimize 1e-12 1e-08 ${maxiter} ${maxeval}
        minimize 1e-12 1e-08 10000 ${maxeval}
        minimize 1e-12 1e-08 10000 20000
WARNING: Resetting reneighboring criteria during minimization (../min.cpp:168)
Memory usage per processor = 3.35948 Mbytes
Step Temp PotEng Lx Ly Lz 
     499            0   -118.99775    1.1224537    40.830973    1.1224537 
     500            0   -118.99775    1.1224537    40.830973    1.1224537 
Loop time of 4.7905e-05 on 1 procs for 1 steps with 41 atoms

Minimization stats:
  Stopping criterion = linesearch alpha is zero
  Energy initial, next-to-last, final = 
        -118.997752357     -118.997752357     -118.997752357
  Force two-norm initial, final = 6.93889e-18 6.93889e-18
  Force max component initial, final = 3.46945e-18 3.46945e-18
  Final line search alpha, max atom move = 0.5 1.73472e-18
  Iterations, force evaluations = 1 2

Pair  time (%) = 3.21702e-05 (67.1542)
Neigh time (%) = 0 (0)
Comm  time (%) = 3.01504e-06 (6.29379)
Outpt time (%) = 0 (0)
Other time (%) = 1.27198e-05 (26.5521)

Nlocal:    41 ave 41 max 41 min
Histogram: 1 0 0 0 0 0 0 0 0 0
Nghost:    185 ave 185 max 185 min
Histogram: 1 0 0 0 0 0 0 0 0 0
Neighs:    349 ave 349 max 349 min
Histogram: 1 0 0 0 0 0 0 0 0 0

Total # of neighbors = 349
Ave neighs/atom = 8.5122
Neighbor list builds = 0
Dangerous builds = 0
	# write_dump all atom ${dumpfile}
        next i
jump SELF loop1
        displace_atoms upper move 0.0 ${ystep1} 0.0 units lattice
        displace_atoms upper move 0.0 0.002 0.0 units lattice
        min_style ${style}
        min_style cg
        minimize ${etol} ${ftol} ${maxiter} ${maxeval}
        minimize 1e-12 ${ftol} ${maxiter} ${maxeval}
        minimize 1e-12 1e-08 ${maxiter} ${maxeval}
        minimize 1e-12 1e-08 10000 ${maxeval}
        minimize 1e-12 1e-08 10000 20000
WARNING: Resetting reneighboring criteria during minimization (../min.cpp:168)
Memory usage per processor = 3.35948 Mbytes
Step Temp PotEng Lx Ly Lz 
     500            0   -118.99775    1.1224537    40.834861    1.1224537 
     501            0   -118.99775    1.1224537    40.834861    1.1224537 
Loop time of 4.69787e-05 on 1 procs for 1 steps with 41 atoms

Minimization stats:
  Stopping criterion = linesearch alpha is zero
  Energy initial, next-to-last, final = 
        -118.997752357     -118.997752357     -118.997752357
  Force two-norm initial, final = 7.75792e-18 7.75792e-18
  Force max component initial, final = 3.46945e-18 3.46945e-18
  Final line search alpha, max atom move = 0.5 1.73472e-18
  Iterations, force evaluations = 1 2

Pair  time (%) = 3.40139e-05 (72.4028)
Neigh time (%) = 0 (0)
Comm  time (%) = 5.03345e-06 (10.7143)
Outpt time (%) = 0 (0)
Other time (%) = 7.93138e-06 (16.8829)

Nlocal:    41 ave 41 max 41 min
Histogram: 1 0 0 0 0 0 0 0 0 0
Nghost:    185 ave 185 max 185 min
Histogram: 1 0 0 0 0 0 0 0 0 0
Neighs:    349 ave 349 max 349 min
Histogram: 1 0 0 0 0 0 0 0 0 0

Total # of neighbors = 349
Ave neighs/atom = 8.5122
Neighbor list builds = 0
Dangerous builds = 0
	# write_dump all atom ${dumpfile}
        next i
jump SELF loop1

unfix 2
min_style ${style}
min_style cg
minimize ${etol} ${ftol} ${maxiter} ${maxeval}
minimize 1e-12 ${ftol} ${maxiter} ${maxeval}
minimize 1e-12 1e-08 ${maxiter} ${maxeval}
minimize 1e-12 1e-08 10000 ${maxeval}
minimize 1e-12 1e-08 10000 20000
WARNING: Resetting reneighboring criteria during minimization (../min.cpp:168)
Memory usage per processor = 3.35948 Mbytes
Step Temp PotEng Lx Ly Lz 
     501            0   -118.99775    1.1224537    40.834861    1.1224537 
     502            0   -118.99775    1.1224537    40.834861    1.1224537 
Loop time of 0.000278119 on 1 procs for 1 steps with 41 atoms

Minimization stats:
  Stopping criterion = linesearch alpha is zero
  Energy initial, next-to-last, final = 
        -118.997752357     -118.997752357     -118.997752357
  Force two-norm initial, final = 0.0701576 0.0701576
  Force max component initial, final = 0.0350788 0.0350788
  Final line search alpha, max atom move = 1.90735e-06 6.69075e-08
  Iterations, force evaluations = 1 20

Pair  time (%) = 0.000225337 (81.0217)
Neigh time (%) = 0 (0)
Comm  time (%) = 2.42034e-05 (8.70254)
Outpt time (%) = 0 (0)
Other time (%) = 2.85788e-05 (10.2757)

Nlocal:    41 ave 41 max 41 min
Histogram: 1 0 0 0 0 0 0 0 0 0
Nghost:    185 ave 185 max 185 min
Histogram: 1 0 0 0 0 0 0 0 0 0
Neighs:    349 ave 349 max 349 min
Histogram: 1 0 0 0 0 0 0 0 0 0

Total # of neighbors = 349
Ave neighs/atom = 8.5122
Neighbor list builds = 0
Dangerous builds = 0

