LAMMPS (28 Jun 2014)
# attempt at getting surface energy

#file prefix
variable prefix string surf_V_brittle_3d
variable dumpfile string ${prefix}.*.dump
variable dumpfile string surf_V_brittle_3d.*.dump
variable restartfile string ${prefix}.*.equil
variable restartfile string surf_V_brittle_3d.*.equil

#Mass (g/mol)
variable m equal 1.0

# lattice constant (in Angstroms) and orientation of axes (given by lattice vectors)
variable rho equal 1.0
variable x1 equal 1
variable x2 equal 1
variable x3 equal -2
variable y1 equal 1
variable y2 equal 1
variable y3 equal 1
variable z1 equal 1
variable z2 equal -1
variable z3 equal 0
# length of lattice in different directions (using orientation of lattice vectors)
variable ax equal sqrt(${x1}*${x1}+${x2}*${x2}+${x3}*${x3})
variable ax equal sqrt(1*${x1}+${x2}*${x2}+${x3}*${x3})
variable ax equal sqrt(1*1+${x2}*${x2}+${x3}*${x3})
variable ax equal sqrt(1*1+1*${x2}+${x3}*${x3})
variable ax equal sqrt(1*1+1*1+${x3}*${x3})
variable ax equal sqrt(1*1+1*1+-2*${x3})
variable ax equal sqrt(1*1+1*1+-2*-2)
variable ay equal sqrt(${y1}*${y1}+${y2}*${y2}+${y3}*${y3})
variable ay equal sqrt(1*${y1}+${y2}*${y2}+${y3}*${y3})
variable ay equal sqrt(1*1+${y2}*${y2}+${y3}*${y3})
variable ay equal sqrt(1*1+1*${y2}+${y3}*${y3})
variable ay equal sqrt(1*1+1*1+${y3}*${y3})
variable ay equal sqrt(1*1+1*1+1*${y3})
variable ay equal sqrt(1*1+1*1+1*1)
variable az equal sqrt(${z1}*${z1}+${z2}*${z2}+${z3}*${z3})
variable az equal sqrt(1*${z1}+${z2}*${z2}+${z3}*${z3})
variable az equal sqrt(1*1+${z2}*${z2}+${z3}*${z3})
variable az equal sqrt(1*1+-1*${z2}+${z3}*${z3})
variable az equal sqrt(1*1+-1*-1+${z3}*${z3})
variable az equal sqrt(1*1+-1*-1+0*${z3})
variable az equal sqrt(1*1+-1*-1+0*0)

# size of box in lattice units
variable lxpos equal 2
variable lxneg equal 0
variable lypos equal 15
variable lyneg equal -1*${lypos}
variable lyneg equal -1*15
variable lzpos equal 2
variable lzneg equal 0

# boundary conditions
dimension	3
boundary	p s p
atom_style	atomic

# Define minimization parameters and damping
variable etol equal 1.0e-12
variable ftol equal 1.0e-8
variable maxiter equal 10000
variable maxeval equal 20000
variable style string hftn

# create geometry
units		lj
lattice         fcc ${rho} orient x 1 1 -2 orient y 1 1 1 orient z 1 -1 0 spacing ${ax} ${ay} ${az}
lattice         fcc 1 orient x 1 1 -2 orient y 1 1 1 orient z 1 -1 0 spacing ${ax} ${ay} ${az}
lattice         fcc 1 orient x 1 1 -2 orient y 1 1 1 orient z 1 -1 0 spacing 2.44948974278318 ${ay} ${az}
lattice         fcc 1 orient x 1 1 -2 orient y 1 1 1 orient z 1 -1 0 spacing 2.44948974278318 1.73205080756888 ${az}
lattice         fcc 1 orient x 1 1 -2 orient y 1 1 1 orient z 1 -1 0 spacing 2.44948974278318 1.73205080756888 1.4142135623731
Lattice spacing in x,y,z = 3.88832 2.74946 2.24492
region		myregion block ${lxneg} ${lxpos} ${lyneg} ${lypos} ${lzneg} ${lzpos} units lattice
region		myregion block 0 ${lxpos} ${lyneg} ${lypos} ${lzneg} ${lzpos} units lattice
region		myregion block 0 2 ${lyneg} ${lypos} ${lzneg} ${lzpos} units lattice
region		myregion block 0 2 -15 ${lypos} ${lzneg} ${lzpos} units lattice
region		myregion block 0 2 -15 15 ${lzneg} ${lzpos} units lattice
region		myregion block 0 2 -15 15 0 ${lzpos} units lattice
region		myregion block 0 2 -15 15 0 2 units lattice
create_box	1 myregion
Created orthogonal box = (0 -41.2419 0) to (7.77665 41.2419 4.48985)
  1 by 1 by 1 MPI processor grid
create_atoms	1 box
Created 2912 atoms
write_dump all atom init.dump

# define masses
mass * $m
mass * 1

# my fake/morse potential
pair_style      table linear 3001
pair_coeff      * * vpotential_brittle3d dummy
neighbor	0.3 bin
neigh_modify	delay 5

# define groups. Nudge to separate planes cleanly
region	    upper block INF INF 0.01 ${lypos} INF INF units lattice
region	    upper block INF INF 0.01 15 INF INF units lattice
group		upper region upper
1440 atoms in group upper

# Setup output
thermo 1
thermo_style custom step temp pe lx ly lz
thermo_modify norm no

# Compute initial state by relaxing box
fix 3 all box/relax x 0.0
min_style ${style}
min_style hftn
minimize ${etol} ${ftol} ${maxiter} ${maxeval}
minimize 1e-12 ${ftol} ${maxiter} ${maxeval}
minimize 1e-12 1e-08 ${maxiter} ${maxeval}
minimize 1e-12 1e-08 10000 ${maxeval}
minimize 1e-12 1e-08 10000 20000
WARNING: Resetting reneighboring criteria during minimization (../min.cpp:168)
Memory usage per processor = 5.28939 Mbytes
Step Temp PotEng Lx Ly Lz 
       0            0   -17375.986    7.7766452    82.500275    4.4898482 
       1            0   -17375.986    7.7766452    82.500275    4.4898482 
       2            0   -17375.986    7.7766452    82.500275    4.4898482 
       3            0   -17375.986    7.7766452    82.500275    4.4898482 
       4            0   -17375.986    7.7766452    82.500275    4.4898482 
       5            0   -17375.986    7.7766452    82.500275    4.4898482 
       6            0   -17375.986    7.7766452    82.500275    4.4898482 
       7            0   -17375.986    7.7766452    82.500275    4.4898482 
       8            0   -17375.986    7.7766452    82.500275    4.4898482 
       9            0   -17375.986    7.7766452    82.500275    4.4898482 
      10            0   -17375.986    7.7766452    82.500275    4.4898482 
      11            0   -17375.986    7.7766452    82.500275    4.4898482 
      12            0   -17375.986    7.7766452    82.500275    4.4898482 
      13            0   -17375.986    7.7766452    82.500275    4.4898482 
      14            0   -17375.986    7.7766452    82.500275    4.4898482 
      15            0   -17375.986    7.7766452    82.500275    4.4898482 
Loop time of 0.244463 on 1 procs for 14 steps with 2912 atoms

Minimization stats:
  Stopping criterion = trust region too small
  Energy initial, next-to-last, final = 
        -17375.9855515     -17375.9855515     -17375.9855515
  Force two-norm initial, final = 0.840484 0.840484
  Force max component initial, final = 0.840481 0.840481
  Final line search alpha, max atom move = 0 0
  Iterations, force evaluations = 14 88

Pair  time (%) = 0.219737 (89.8856)
Neigh time (%) = 0 (0)
Comm  time (%) = 0.00674027 (2.75717)
Outpt time (%) = 0.00150752 (0.616668)
Other time (%) = 0.0164781 (6.74051)

Nlocal:    2912 ave 2912 max 2912 min
Histogram: 1 0 0 0 0 0 0 0 0 0
Nghost:    7129 ave 7129 max 7129 min
Histogram: 1 0 0 0 0 0 0 0 0 0
Neighs:    77856 ave 77856 max 77856 min
Histogram: 1 0 0 0 0 0 0 0 0 0

Total # of neighbors = 77856
Ave neighs/atom = 26.7363
Neighbor list builds = 0
Dangerous builds = 0
unfix 3

# don't allow atoms to relax in y-direction
fix 2 all setforce NULL 0.0 NULL

# GSF energy curve will have 100*2 steps
variable nsteps equal 300
variable sstep1 equal 1.5
variable ystep1 equal ${sstep1}/(${ay}*${nsteps})
variable ystep1 equal 1.5/(${ay}*${nsteps})
variable ystep1 equal 1.5/(1.73205080756888*${nsteps})
variable ystep1 equal 1.5/(1.73205080756888*300)

variable i loop ${nsteps}
variable i loop 300
label loop1
        displace_atoms upper move 0.0 ${ystep1} 0.0 units lattice
        displace_atoms upper move 0.0 0.00288675134594812 0.0 units lattice
        min_style ${style}
        min_style hftn
        minimize ${etol} ${ftol} ${maxiter} ${maxeval}
        minimize 1e-12 ${ftol} ${maxiter} ${maxeval}
        minimize 1e-12 1e-08 ${maxiter} ${maxeval}
        minimize 1e-12 1e-08 10000 ${maxeval}
        minimize 1e-12 1e-08 10000 20000
WARNING: Resetting reneighboring criteria during minimization (../min.cpp:168)
Memory usage per processor = 5.28939 Mbytes
Step Temp PotEng Lx Ly Lz 
      15            0   -17375.822    7.7766452    82.508212    4.4898482 
Loop time of 0.00194895 on 1 procs for 0 steps with 2912 atoms

Minimization stats:
  Stopping criterion = force tolerance
  Energy initial, next-to-last, final = 
        -17375.8217205     -17375.8217205     -17375.8217205
  Force two-norm initial, final = 8.51156e-11 8.51156e-11
  Force max component initial, final = 2.7994e-12 2.7994e-12
  Final line search alpha, max atom move = 0 0
  Iterations, force evaluations = 0 0

Pair  time (%) = 0.00189792 (97.3821)
Neigh time (%) = 0 (0)
Comm  time (%) = 2.1129e-05 (1.08413)
Outpt time (%) = 0 (0)
Other time (%) = 2.98925e-05 (1.53378)

Nlocal:    2912 ave 2912 max 2912 min
Histogram: 1 0 0 0 0 0 0 0 0 0
Nghost:    7129 ave 7129 max 7129 min
Histogram: 1 0 0 0 0 0 0 0 0 0
Neighs:    77856 ave 77856 max 77856 min
Histogram: 1 0 0 0 0 0 0 0 0 0

Total # of neighbors = 77856
Ave neighs/atom = 26.7363
Neighbor list builds = 0
Dangerous builds = 0
	# write_dump all atom ${dumpfile}
        next i
jump SELF loop1
        displace_atoms upper move 0.0 ${ystep1} 0.0 units lattice
        displace_atoms upper move 0.0 0.00288675134594812 0.0 units lattice
        min_style ${style}
        min_style hftn
        minimize ${etol} ${ftol} ${maxiter} ${maxeval}
        minimize 1e-12 ${ftol} ${maxiter} ${maxeval}
        minimize 1e-12 1e-08 ${maxiter} ${maxeval}
        minimize 1e-12 1e-08 10000 ${maxeval}
        minimize 1e-12 1e-08 10000 20000
WARNING: Resetting reneighboring criteria during minimization (../min.cpp:168)
Memory usage per processor = 5.28939 Mbytes
Step Temp PotEng Lx Ly Lz 
      15            0   -17375.355    7.7766452    82.516149    4.4898482 
Loop time of 0.00214494 on 1 procs for 0 steps with 2912 atoms

Minimization stats:
  Stopping criterion = force tolerance
  Energy initial, next-to-last, final = 
        -17375.3554661     -17375.3554661     -17375.3554661
  Force two-norm initial, final = 8.50972e-11 8.50972e-11
  Force max component initial, final = 2.7994e-12 2.7994e-12
  Final line search alpha, max atom move = 0 0
  Iterations, force evaluations = 0 0

Pair  time (%) = 0.00207194 (96.5963)
Neigh time (%) = 0 (0)
Comm  time (%) = 3.71479e-05 (1.73188)
Outpt time (%) = 0 (0)
Other time (%) = 3.58601e-05 (1.67184)

Nlocal:    2912 ave 2912 max 2912 min
Histogram: 1 0 0 0 0 0 0 0 0 0
Nghost:    7129 ave 7129 max 7129 min
Histogram: 1 0 0 0 0 0 0 0 0 0
Neighs:    77856 ave 77856 max 77856 min
Histogram: 1 0 0 0 0 0 0 0 0 0

Total # of neighbors = 77856
Ave neighs/atom = 26.7363
Neighbor list builds = 0
Dangerous builds = 0
	# write_dump all atom ${dumpfile}
        next i
jump SELF loop1
        displace_atoms upper move 0.0 ${ystep1} 0.0 units lattice
        displace_atoms upper move 0.0 0.00288675134594812 0.0 units lattice
        min_style ${style}
        min_style hftn
        minimize ${etol} ${ftol} ${maxiter} ${maxeval}
        minimize 1e-12 ${ftol} ${maxiter} ${maxeval}
        minimize 1e-12 1e-08 ${maxiter} ${maxeval}
        minimize 1e-12 1e-08 10000 ${maxeval}
        minimize 1e-12 1e-08 10000 20000
WARNING: Resetting reneighboring criteria during minimization (../min.cpp:168)
Memory usage per processor = 5.28939 Mbytes
Step Temp PotEng Lx Ly Lz 
      15            0   -17374.622    7.7766452    82.524086    4.4898482 
Loop time of 0.00282911 on 1 procs for 0 steps with 2912 atoms

Minimization stats:
  Stopping criterion = force tolerance
  Energy initial, next-to-last, final = 
        -17374.6218503     -17374.6218503     -17374.6218503
  Force two-norm initial, final = 8.50788e-11 8.50788e-11
  Force max component initial, final = 2.7994e-12 2.7994e-12
  Final line search alpha, max atom move = 0 0
  Iterations, force evaluations = 0 0

Pair  time (%) = 0.00275491 (97.3773)
Neigh time (%) = 0 (0)
Comm  time (%) = 3.69728e-05 (1.30687)
Outpt time (%) = 0 (0)
Other time (%) = 3.72273e-05 (1.31587)

Nlocal:    2912 ave 2912 max 2912 min
Histogram: 1 0 0 0 0 0 0 0 0 0
Nghost:    7129 ave 7129 max 7129 min
Histogram: 1 0 0 0 0 0 0 0 0 0
Neighs:    77856 ave 77856 max 77856 min
Histogram: 1 0 0 0 0 0 0 0 0 0

Total # of neighbors = 77856
Ave neighs/atom = 26.7363
Neighbor list builds = 0
Dangerous builds = 0
	# write_dump all atom ${dumpfile}
        next i
jump SELF loop1
        displace_atoms upper move 0.0 ${ystep1} 0.0 units lattice
        displace_atoms upper move 0.0 0.00288675134594812 0.0 units lattice
        min_style ${style}
        min_style hftn
        minimize ${etol} ${ftol} ${maxiter} ${maxeval}
        minimize 1e-12 ${ftol} ${maxiter} ${maxeval}
        minimize 1e-12 1e-08 ${maxiter} ${maxeval}
        minimize 1e-12 1e-08 10000 ${maxeval}
        minimize 1e-12 1e-08 10000 20000
WARNING: Resetting reneighboring criteria during minimization (../min.cpp:168)
Memory usage per processor = 5.28939 Mbytes
Step Temp PotEng Lx Ly Lz 
      15            0   -17373.653    7.7766452    82.532023    4.4898482 
Loop time of 0.00244791 on 1 procs for 0 steps with 2912 atoms

Minimization stats:
  Stopping criterion = force tolerance
  Energy initial, next-to-last, final = 
        -17373.6531956     -17373.6531956     -17373.6531956
  Force two-norm initial, final = 8.50672e-11 8.50672e-11
  Force max component initial, final = 2.7994e-12 2.7994e-12
  Final line search alpha, max atom move = 0 0
  Iterations, force evaluations = 0 0

Pair  time (%) = 0.00235689 (96.2817)
Neigh time (%) = 0 (0)
Comm  time (%) = 4.58192e-05 (1.87177)
Outpt time (%) = 0 (0)
Other time (%) = 4.52023e-05 (1.84657)

Nlocal:    2912 ave 2912 max 2912 min
Histogram: 1 0 0 0 0 0 0 0 0 0
Nghost:    7129 ave 7129 max 7129 min
Histogram: 1 0 0 0 0 0 0 0 0 0
Neighs:    77856 ave 77856 max 77856 min
Histogram: 1 0 0 0 0 0 0 0 0 0

Total # of neighbors = 77856
Ave neighs/atom = 26.7363
Neighbor list builds = 0
Dangerous builds = 0
	# write_dump all atom ${dumpfile}
        next i
jump SELF loop1
        displace_atoms upper move 0.0 ${ystep1} 0.0 units lattice
        displace_atoms upper move 0.0 0.00288675134594812 0.0 units lattice
        min_style ${style}
        min_style hftn
        minimize ${etol} ${ftol} ${maxiter} ${maxeval}
        minimize 1e-12 ${ftol} ${maxiter} ${maxeval}
        minimize 1e-12 1e-08 ${maxiter} ${maxeval}
        minimize 1e-12 1e-08 10000 ${maxeval}
        minimize 1e-12 1e-08 10000 20000
WARNING: Resetting reneighboring criteria during minimization (../min.cpp:168)
Memory usage per processor = 5.28939 Mbytes
Step Temp PotEng Lx Ly Lz 
      15            0   -17372.479    7.7766452     82.53996    4.4898482 
Loop time of 0.00288404 on 1 procs for 0 steps with 2912 atoms

Minimization stats:
  Stopping criterion = force tolerance
  Energy initial, next-to-last, final = 
        -17372.4792093     -17372.4792093     -17372.4792093
  Force two-norm initial, final = 8.50557e-11 8.50557e-11
  Force max component initial, final = 2.7994e-12 2.7994e-12
  Final line search alpha, max atom move = 0 0
  Iterations, force evaluations = 0 0

Pair  time (%) = 0.00277898 (96.3574)
Neigh time (%) = 0 (0)
Comm  time (%) = 5.90907e-05 (2.04889)
Outpt time (%) = 0 (0)
Other time (%) = 4.59637e-05 (1.59373)

Nlocal:    2912 ave 2912 max 2912 min
Histogram: 1 0 0 0 0 0 0 0 0 0
Nghost:    7129 ave 7129 max 7129 min
Histogram: 1 0 0 0 0 0 0 0 0 0
Neighs:    77856 ave 77856 max 77856 min
Histogram: 1 0 0 0 0 0 0 0 0 0

Total # of neighbors = 77856
Ave neighs/atom = 26.7363
Neighbor list builds = 0
Dangerous builds = 0
	# write_dump all atom ${dumpfile}
        next i
jump SELF loop1
        displace_atoms upper move 0.0 ${ystep1} 0.0 units lattice
        displace_atoms upper move 0.0 0.00288675134594812 0.0 units lattice
        min_style ${style}
        min_style hftn
        minimize ${etol} ${ftol} ${maxiter} ${maxeval}
        minimize 1e-12 ${ftol} ${maxiter} ${maxeval}
        minimize 1e-12 1e-08 ${maxiter} ${maxeval}
        minimize 1e-12 1e-08 10000 ${maxeval}
        minimize 1e-12 1e-08 10000 20000
WARNING: Resetting reneighboring criteria during minimization (../min.cpp:168)
Memory usage per processor = 5.28939 Mbytes
Step Temp PotEng Lx Ly Lz 
      15            0   -17371.127    7.7766452    82.547897    4.4898482 
Loop time of 0.00244808 on 1 procs for 0 steps with 2912 atoms

Minimization stats:
  Stopping criterion = force tolerance
  Energy initial, next-to-last, final = 
        -17371.1267864     -17371.1267864     -17371.1267864
  Force two-norm initial, final = 8.5043e-11 8.5043e-11
  Force max component initial, final = 2.7994e-12 2.7994e-12
  Final line search alpha, max atom move = 0 0
  Iterations, force evaluations = 0 0

Pair  time (%) = 0.0023229 (94.8868)
Neigh time (%) = 0 (0)
Comm  time (%) = 4.60315e-05 (1.88031)
Outpt time (%) = 0 (0)
Other time (%) = 7.91438e-05 (3.2329)

Nlocal:    2912 ave 2912 max 2912 min
Histogram: 1 0 0 0 0 0 0 0 0 0
Nghost:    7129 ave 7129 max 7129 min
Histogram: 1 0 0 0 0 0 0 0 0 0
Neighs:    77856 ave 77856 max 77856 min
Histogram: 1 0 0 0 0 0 0 0 0 0

Total # of neighbors = 77856
Ave neighs/atom = 26.7363
Neighbor list builds = 0
Dangerous builds = 0
	# write_dump all atom ${dumpfile}
        next i
jump SELF loop1
        displace_atoms upper move 0.0 ${ystep1} 0.0 units lattice
        displace_atoms upper move 0.0 0.00288675134594812 0.0 units lattice
        min_style ${style}
        min_style hftn
        minimize ${etol} ${ftol} ${maxiter} ${maxeval}
        minimize 1e-12 ${ftol} ${maxiter} ${maxeval}
        minimize 1e-12 1e-08 ${maxiter} ${maxeval}
        minimize 1e-12 1e-08 10000 ${maxeval}
        minimize 1e-12 1e-08 10000 20000
WARNING: Resetting reneighboring criteria during minimization (../min.cpp:168)
Memory usage per processor = 5.28939 Mbytes
Step Temp PotEng Lx Ly Lz 
      15            0    -17369.62    7.7766452    82.555834    4.4898482 
Loop time of 0.00333311 on 1 procs for 0 steps with 2912 atoms

Minimization stats:
  Stopping criterion = force tolerance
  Energy initial, next-to-last, final = 
        -17369.6203127     -17369.6203127     -17369.6203127
  Force two-norm initial, final = 8.50351e-11 8.50351e-11
  Force max component initial, final = 2.7994e-12 2.7994e-12
  Final line search alpha, max atom move = 0 0
  Iterations, force evaluations = 0 0

Pair  time (%) = 0.00321795 (96.5451)
Neigh time (%) = 0 (0)
Comm  time (%) = 7.19143e-05 (2.15757)
Outpt time (%) = 0 (0)
Other time (%) = 4.32407e-05 (1.29731)

Nlocal:    2912 ave 2912 max 2912 min
Histogram: 1 0 0 0 0 0 0 0 0 0
Nghost:    7129 ave 7129 max 7129 min
Histogram: 1 0 0 0 0 0 0 0 0 0
Neighs:    77856 ave 77856 max 77856 min
Histogram: 1 0 0 0 0 0 0 0 0 0

Total # of neighbors = 77856
Ave neighs/atom = 26.7363
Neighbor list builds = 0
Dangerous builds = 0
	# write_dump all atom ${dumpfile}
        next i
jump SELF loop1
        displace_atoms upper move 0.0 ${ystep1} 0.0 units lattice
        displace_atoms upper move 0.0 0.00288675134594812 0.0 units lattice
        min_style ${style}
        min_style hftn
        minimize ${etol} ${ftol} ${maxiter} ${maxeval}
        minimize 1e-12 ${ftol} ${maxiter} ${maxeval}
        minimize 1e-12 1e-08 ${maxiter} ${maxeval}
        minimize 1e-12 1e-08 10000 ${maxeval}
        minimize 1e-12 1e-08 10000 20000
WARNING: Resetting reneighboring criteria during minimization (../min.cpp:168)
Memory usage per processor = 5.28939 Mbytes
Step Temp PotEng Lx Ly Lz 
      15            0   -17367.982    7.7766452    82.563771    4.4898482 
Loop time of 0.00199703 on 1 procs for 0 steps with 2912 atoms

Minimization stats:
  Stopping criterion = force tolerance
  Energy initial, next-to-last, final = 
        -17367.9823934     -17367.9823934     -17367.9823934
  Force two-norm initial, final = 8.50252e-11 8.50252e-11
  Force max component initial, final = 2.7994e-12 2.7994e-12
  Final line search alpha, max atom move = 0 0
  Iterations, force evaluations = 0 0

Pair  time (%) = 0.00193003 (96.645)
Neigh time (%) = 0 (0)
Comm  time (%) = 3.50934e-05 (1.75728)
Outpt time (%) = 0 (0)
Other time (%) = 3.19078e-05 (1.59776)

Nlocal:    2912 ave 2912 max 2912 min
Histogram: 1 0 0 0 0 0 0 0 0 0
Nghost:    7129 ave 7129 max 7129 min
Histogram: 1 0 0 0 0 0 0 0 0 0
Neighs:    77856 ave 77856 max 77856 min
Histogram: 1 0 0 0 0 0 0 0 0 0

Total # of neighbors = 77856
Ave neighs/atom = 26.7363
Neighbor list builds = 0
Dangerous builds = 0
	# write_dump all atom ${dumpfile}
        next i
jump SELF loop1
        displace_atoms upper move 0.0 ${ystep1} 0.0 units lattice
        displace_atoms upper move 0.0 0.00288675134594812 0.0 units lattice
        min_style ${style}
        min_style hftn
        minimize ${etol} ${ftol} ${maxiter} ${maxeval}
        minimize 1e-12 ${ftol} ${maxiter} ${maxeval}
        minimize 1e-12 1e-08 ${maxiter} ${maxeval}
        minimize 1e-12 1e-08 10000 ${maxeval}
        minimize 1e-12 1e-08 10000 20000
WARNING: Resetting reneighboring criteria during minimization (../min.cpp:168)
Memory usage per processor = 5.28939 Mbytes
Step Temp PotEng Lx Ly Lz 
      15            0   -17366.191    7.7766452    82.571708    4.4898482 
Loop time of 0.00203997 on 1 procs for 0 steps with 2912 atoms

Minimization stats:
  Stopping criterion = force tolerance
  Energy initial, next-to-last, final = 
        -17366.1905038     -17366.1905038     -17366.1905038
  Force two-norm initial, final = 8.52148e-11 8.52148e-11
  Force max component initial, final = 2.94245e-12 2.94245e-12
  Final line search alpha, max atom move = 0 0
  Iterations, force evaluations = 0 0

Pair  time (%) = 0.0019561 (95.8887)
Neigh time (%) = 0 (0)
Comm  time (%) = 4.30217e-05 (2.10894)
Outpt time (%) = 0 (0)
Other time (%) = 4.08472e-05 (2.00234)

Nlocal:    2912 ave 2912 max 2912 min
Histogram: 1 0 0 0 0 0 0 0 0 0
Nghost:    7129 ave 7129 max 7129 min
Histogram: 1 0 0 0 0 0 0 0 0 0
Neighs:    77664 ave 77664 max 77664 min
Histogram: 1 0 0 0 0 0 0 0 0 0

Total # of neighbors = 77664
Ave neighs/atom = 26.6703
Neighbor list builds = 0
Dangerous builds = 0
	# write_dump all atom ${dumpfile}
        next i
jump SELF loop1
        displace_atoms upper move 0.0 ${ystep1} 0.0 units lattice
        displace_atoms upper move 0.0 0.00288675134594812 0.0 units lattice
        min_style ${style}
        min_style hftn
        minimize ${etol} ${ftol} ${maxiter} ${maxeval}
        minimize 1e-12 ${ftol} ${maxiter} ${maxeval}
        minimize 1e-12 1e-08 ${maxiter} ${maxeval}
        minimize 1e-12 1e-08 10000 ${maxeval}
        minimize 1e-12 1e-08 10000 20000
WARNING: Resetting reneighboring criteria during minimization (../min.cpp:168)
Memory usage per processor = 5.28939 Mbytes
Step Temp PotEng Lx Ly Lz 
      15            0   -17363.943    7.7766452    82.579645    4.4898482 
Loop time of 0.00266407 on 1 procs for 0 steps with 2912 atoms

Minimization stats:
  Stopping criterion = force tolerance
  Energy initial, next-to-last, final = 
        -17363.9433885     -17363.9433885     -17363.9433885
  Force two-norm initial, final = 8.51942e-11 8.51942e-11
  Force max component initial, final = 2.90748e-12 2.90748e-12
  Final line search alpha, max atom move = 0 0
  Iterations, force evaluations = 0 0

Pair  time (%) = 0.0025641 (96.2475)
Neigh time (%) = 0 (0)
Comm  time (%) = 6.3866e-05 (2.39731)
Outpt time (%) = 0 (0)
Other time (%) = 3.61024e-05 (1.35516)

Nlocal:    2912 ave 2912 max 2912 min
Histogram: 1 0 0 0 0 0 0 0 0 0
Nghost:    7129 ave 7129 max 7129 min
Histogram: 1 0 0 0 0 0 0 0 0 0
Neighs:    77664 ave 77664 max 77664 min
Histogram: 1 0 0 0 0 0 0 0 0 0

Total # of neighbors = 77664
Ave neighs/atom = 26.6703
Neighbor list builds = 0
Dangerous builds = 0
	# write_dump all atom ${dumpfile}
        next i
jump SELF loop1
        displace_atoms upper move 0.0 ${ystep1} 0.0 units lattice
        displace_atoms upper move 0.0 0.00288675134594812 0.0 units lattice
        min_style ${style}
        min_style hftn
        minimize ${etol} ${ftol} ${maxiter} ${maxeval}
        minimize 1e-12 ${ftol} ${maxiter} ${maxeval}
        minimize 1e-12 1e-08 ${maxiter} ${maxeval}
        minimize 1e-12 1e-08 10000 ${maxeval}
        minimize 1e-12 1e-08 10000 20000
WARNING: Resetting reneighboring criteria during minimization (../min.cpp:168)
Memory usage per processor = 5.28939 Mbytes
Step Temp PotEng Lx Ly Lz 
      15            0   -17361.216    7.7766452    82.587582    4.4898482 
Loop time of 0.00242599 on 1 procs for 0 steps with 2912 atoms

Minimization stats:
  Stopping criterion = force tolerance
  Energy initial, next-to-last, final = 
         -17361.216425      -17361.216425      -17361.216425
  Force two-norm initial, final = 8.51729e-11 8.51729e-11
  Force max component initial, final = 2.86301e-12 2.86301e-12
  Final line search alpha, max atom move = 0 0
  Iterations, force evaluations = 0 0

Pair  time (%) = 0.00233498 (96.2486)
Neigh time (%) = 0 (0)
Comm  time (%) = 4.59274e-05 (1.89314)
Outpt time (%) = 0 (0)
Other time (%) = 4.50807e-05 (1.85824)

Nlocal:    2912 ave 2912 max 2912 min
Histogram: 1 0 0 0 0 0 0 0 0 0
Nghost:    7129 ave 7129 max 7129 min
Histogram: 1 0 0 0 0 0 0 0 0 0
Neighs:    77664 ave 77664 max 77664 min
Histogram: 1 0 0 0 0 0 0 0 0 0

Total # of neighbors = 77664
Ave neighs/atom = 26.6703
Neighbor list builds = 0
Dangerous builds = 0
	# write_dump all atom ${dumpfile}
        next i
jump SELF loop1
        displace_atoms upper move 0.0 ${ystep1} 0.0 units lattice
        displace_atoms upper move 0.0 0.00288675134594812 0.0 units lattice
        min_style ${style}
        min_style hftn
        minimize ${etol} ${ftol} ${maxiter} ${maxeval}
        minimize 1e-12 ${ftol} ${maxiter} ${maxeval}
        minimize 1e-12 1e-08 ${maxiter} ${maxeval}
        minimize 1e-12 1e-08 10000 ${maxeval}
        minimize 1e-12 1e-08 10000 20000
WARNING: Resetting reneighboring criteria during minimization (../min.cpp:168)
Memory usage per processor = 5.28939 Mbytes
Step Temp PotEng Lx Ly Lz 
      15            0   -17358.056    7.7766452    82.595519    4.4898482 
Loop time of 0.00416106 on 1 procs for 0 steps with 2912 atoms

Minimization stats:
  Stopping criterion = force tolerance
  Energy initial, next-to-last, final = 
        -17358.0555377     -17358.0555377     -17358.0555377
  Force two-norm initial, final = 8.51518e-11 8.51518e-11
  Force max component initial, final = 2.82392e-12 2.82392e-12
  Final line search alpha, max atom move = 0 0
  Iterations, force evaluations = 0 0

Pair  time (%) = 0.00405809 (97.5254)
Neigh time (%) = 0 (0)
Comm  time (%) = 4.79071e-05 (1.15132)
Outpt time (%) = 0 (0)
Other time (%) = 5.50613e-05 (1.32325)

Nlocal:    2912 ave 2912 max 2912 min
Histogram: 1 0 0 0 0 0 0 0 0 0
Nghost:    7129 ave 7129 max 7129 min
Histogram: 1 0 0 0 0 0 0 0 0 0
Neighs:    77664 ave 77664 max 77664 min
Histogram: 1 0 0 0 0 0 0 0 0 0

Total # of neighbors = 77664
Ave neighs/atom = 26.6703
Neighbor list builds = 0
Dangerous builds = 0
	# write_dump all atom ${dumpfile}
        next i
jump SELF loop1
        displace_atoms upper move 0.0 ${ystep1} 0.0 units lattice
        displace_atoms upper move 0.0 0.00288675134594812 0.0 units lattice
        min_style ${style}
        min_style hftn
        minimize ${etol} ${ftol} ${maxiter} ${maxeval}
        minimize 1e-12 ${ftol} ${maxiter} ${maxeval}
        minimize 1e-12 1e-08 ${maxiter} ${maxeval}
        minimize 1e-12 1e-08 10000 ${maxeval}
        minimize 1e-12 1e-08 10000 20000
WARNING: Resetting reneighboring criteria during minimization (../min.cpp:168)
Memory usage per processor = 5.28939 Mbytes
Step Temp PotEng Lx Ly Lz 
      15            0   -17354.507    7.7766452    82.603456    4.4898482 
Loop time of 0.00539689 on 1 procs for 0 steps with 2912 atoms

Minimization stats:
  Stopping criterion = force tolerance
  Energy initial, next-to-last, final = 
        -17354.5074937     -17354.5074937     -17354.5074937
  Force two-norm initial, final = 8.51324e-11 8.51324e-11
  Force max component initial, final = 2.7994e-12 2.7994e-12
  Final line search alpha, max atom move = 0 0
  Iterations, force evaluations = 0 0

Pair  time (%) = 0.00532593 (98.6853)
Neigh time (%) = 0 (0)
Comm  time (%) = 3.58648e-05 (0.664545)
Outpt time (%) = 0 (0)
Other time (%) = 3.50901e-05 (0.650192)

Nlocal:    2912 ave 2912 max 2912 min
Histogram: 1 0 0 0 0 0 0 0 0 0
Nghost:    7129 ave 7129 max 7129 min
Histogram: 1 0 0 0 0 0 0 0 0 0
Neighs:    77664 ave 77664 max 77664 min
Histogram: 1 0 0 0 0 0 0 0 0 0

Total # of neighbors = 77664
Ave neighs/atom = 26.6703
Neighbor list builds = 0
Dangerous builds = 0
	# write_dump all atom ${dumpfile}
        next i
jump SELF loop1
        displace_atoms upper move 0.0 ${ystep1} 0.0 units lattice
        displace_atoms upper move 0.0 0.00288675134594812 0.0 units lattice
        min_style ${style}
        min_style hftn
        minimize ${etol} ${ftol} ${maxiter} ${maxeval}
        minimize 1e-12 ${ftol} ${maxiter} ${maxeval}
        minimize 1e-12 1e-08 ${maxiter} ${maxeval}
        minimize 1e-12 1e-08 10000 ${maxeval}
        minimize 1e-12 1e-08 10000 20000
WARNING: Resetting reneighboring criteria during minimization (../min.cpp:168)
Memory usage per processor = 5.28939 Mbytes
Step Temp PotEng Lx Ly Lz 
      15            0    -17350.62    7.7766452    82.611393    4.4898482 
Loop time of 0.00231397 on 1 procs for 0 steps with 2912 atoms

Minimization stats:
  Stopping criterion = force tolerance
  Energy initial, next-to-last, final = 
        -17350.6198393     -17350.6198393     -17350.6198393
  Force two-norm initial, final = 8.51132e-11 8.51132e-11
  Force max component initial, final = 2.7994e-12 2.7994e-12
  Final line search alpha, max atom move = 0 0
  Iterations, force evaluations = 0 0

Pair  time (%) = 0.00224391 (96.9725)
Neigh time (%) = 0 (0)
Comm  time (%) = 3.50097e-05 (1.51297)
Outpt time (%) = 0 (0)
Other time (%) = 3.50446e-05 (1.51448)

Nlocal:    2912 ave 2912 max 2912 min
Histogram: 1 0 0 0 0 0 0 0 0 0
Nghost:    7129 ave 7129 max 7129 min
Histogram: 1 0 0 0 0 0 0 0 0 0
Neighs:    77664 ave 77664 max 77664 min
Histogram: 1 0 0 0 0 0 0 0 0 0

Total # of neighbors = 77664
Ave neighs/atom = 26.6703
Neighbor list builds = 0
Dangerous builds = 0
	# write_dump all atom ${dumpfile}
        next i
jump SELF loop1
        displace_atoms upper move 0.0 ${ystep1} 0.0 units lattice
        displace_atoms upper move 0.0 0.00288675134594812 0.0 units lattice
        min_style ${style}
        min_style hftn
        minimize ${etol} ${ftol} ${maxiter} ${maxeval}
        minimize 1e-12 ${ftol} ${maxiter} ${maxeval}
        minimize 1e-12 1e-08 ${maxiter} ${maxeval}
        minimize 1e-12 1e-08 10000 ${maxeval}
        minimize 1e-12 1e-08 10000 20000
WARNING: Resetting reneighboring criteria during minimization (../min.cpp:168)
Memory usage per processor = 5.28939 Mbytes
Step Temp PotEng Lx Ly Lz 
      15            0   -17346.441    7.7766452     82.61933    4.4898482 
Loop time of 0.00547701 on 1 procs for 0 steps with 2912 atoms

Minimization stats:
  Stopping criterion = force tolerance
  Energy initial, next-to-last, final = 
        -17346.4405012     -17346.4405012     -17346.4405012
  Force two-norm initial, final = 8.50914e-11 8.50914e-11
  Force max component initial, final = 2.7994e-12 2.7994e-12
  Final line search alpha, max atom move = 0 0
  Iterations, force evaluations = 0 0

Pair  time (%) = 0.0053831 (98.2854)
Neigh time (%) = 0 (0)
Comm  time (%) = 4.39851e-05 (0.803086)
Outpt time (%) = 0 (0)
Other time (%) = 4.99235e-05 (0.911511)

Nlocal:    2912 ave 2912 max 2912 min
Histogram: 1 0 0 0 0 0 0 0 0 0
Nghost:    7129 ave 7129 max 7129 min
Histogram: 1 0 0 0 0 0 0 0 0 0
Neighs:    77664 ave 77664 max 77664 min
Histogram: 1 0 0 0 0 0 0 0 0 0

Total # of neighbors = 77664
Ave neighs/atom = 26.6703
Neighbor list builds = 0
Dangerous builds = 0
	# write_dump all atom ${dumpfile}
        next i
jump SELF loop1
        displace_atoms upper move 0.0 ${ystep1} 0.0 units lattice
        displace_atoms upper move 0.0 0.00288675134594812 0.0 units lattice
        min_style ${style}
        min_style hftn
        minimize ${etol} ${ftol} ${maxiter} ${maxeval}
        minimize 1e-12 ${ftol} ${maxiter} ${maxeval}
        minimize 1e-12 1e-08 ${maxiter} ${maxeval}
        minimize 1e-12 1e-08 10000 ${maxeval}
        minimize 1e-12 1e-08 10000 20000
WARNING: Resetting reneighboring criteria during minimization (../min.cpp:168)
Memory usage per processor = 5.28939 Mbytes
Step Temp PotEng Lx Ly Lz 
      15            0   -17342.019    7.7766452    82.627267    4.4898482 
Loop time of 0.00246093 on 1 procs for 0 steps with 2912 atoms

Minimization stats:
  Stopping criterion = force tolerance
  Energy initial, next-to-last, final = 
        -17342.0187541     -17342.0187541     -17342.0187541
  Force two-norm initial, final = 8.50735e-11 8.50735e-11
  Force max component initial, final = 2.7994e-12 2.7994e-12
  Final line search alpha, max atom move = 0 0
  Iterations, force evaluations = 0 0

Pair  time (%) = 0.00237905 (96.673)
Neigh time (%) = 0 (0)
Comm  time (%) = 4.30187e-05 (1.74807)
Outpt time (%) = 0 (0)
Other time (%) = 3.88571e-05 (1.57896)

Nlocal:    2912 ave 2912 max 2912 min
Histogram: 1 0 0 0 0 0 0 0 0 0
Nghost:    7129 ave 7129 max 7129 min
Histogram: 1 0 0 0 0 0 0 0 0 0
Neighs:    77664 ave 77664 max 77664 min
Histogram: 1 0 0 0 0 0 0 0 0 0

Total # of neighbors = 77664
Ave neighs/atom = 26.6703
Neighbor list builds = 0
Dangerous builds = 0
	# write_dump all atom ${dumpfile}
        next i
jump SELF loop1
        displace_atoms upper move 0.0 ${ystep1} 0.0 units lattice
        displace_atoms upper move 0.0 0.00288675134594812 0.0 units lattice
        min_style ${style}
        min_style hftn
        minimize ${etol} ${ftol} ${maxiter} ${maxeval}
        minimize 1e-12 ${ftol} ${maxiter} ${maxeval}
        minimize 1e-12 1e-08 ${maxiter} ${maxeval}
        minimize 1e-12 1e-08 10000 ${maxeval}
        minimize 1e-12 1e-08 10000 20000
WARNING: Resetting reneighboring criteria during minimization (../min.cpp:168)
Memory usage per processor = 5.28939 Mbytes
Step Temp PotEng Lx Ly Lz 
      15            0   -17337.404    7.7766452    82.635204    4.4898482 
Loop time of 0.00219703 on 1 procs for 0 steps with 2912 atoms

Minimization stats:
  Stopping criterion = force tolerance
  Energy initial, next-to-last, final = 
        -17337.4042112     -17337.4042112     -17337.4042112
  Force two-norm initial, final = 8.50543e-11 8.50543e-11
  Force max component initial, final = 2.7994e-12 2.7994e-12
  Final line search alpha, max atom move = 0 0
  Iterations, force evaluations = 0 0

Pair  time (%) = 0.00214596 (97.6753)
Neigh time (%) = 0 (0)
Comm  time (%) = 2.5988e-05 (1.18287)
Outpt time (%) = 0 (0)
Other time (%) = 2.50855e-05 (1.14179)

Nlocal:    2912 ave 2912 max 2912 min
Histogram: 1 0 0 0 0 0 0 0 0 0
Nghost:    7129 ave 7129 max 7129 min
Histogram: 1 0 0 0 0 0 0 0 0 0
Neighs:    77664 ave 77664 max 77664 min
Histogram: 1 0 0 0 0 0 0 0 0 0

Total # of neighbors = 77664
Ave neighs/atom = 26.6703
Neighbor list builds = 0
Dangerous builds = 0
	# write_dump all atom ${dumpfile}
        next i
jump SELF loop1
        displace_atoms upper move 0.0 ${ystep1} 0.0 units lattice
        displace_atoms upper move 0.0 0.00288675134594812 0.0 units lattice
        min_style ${style}
        min_style hftn
        minimize ${etol} ${ftol} ${maxiter} ${maxeval}
        minimize 1e-12 ${ftol} ${maxiter} ${maxeval}
        minimize 1e-12 1e-08 ${maxiter} ${maxeval}
        minimize 1e-12 1e-08 10000 ${maxeval}
        minimize 1e-12 1e-08 10000 20000
WARNING: Resetting reneighboring criteria during minimization (../min.cpp:168)
Memory usage per processor = 5.28939 Mbytes
Step Temp PotEng Lx Ly Lz 
      15            0   -17332.647    7.7766452    82.643141    4.4898482 
Loop time of 0.0023629 on 1 procs for 0 steps with 2912 atoms

Minimization stats:
  Stopping criterion = force tolerance
  Energy initial, next-to-last, final = 
         -17332.646958      -17332.646958      -17332.646958
  Force two-norm initial, final = 8.50355e-11 8.50355e-11
  Force max component initial, final = 2.7994e-12 2.7994e-12
  Final line search alpha, max atom move = 0 0
  Iterations, force evaluations = 0 0

Pair  time (%) = 0.00224711 (95.0997)
Neigh time (%) = 0 (0)
Comm  time (%) = 5.69314e-05 (2.40939)
Outpt time (%) = 0 (0)
Other time (%) = 5.88587e-05 (2.49095)

Nlocal:    2912 ave 2912 max 2912 min
Histogram: 1 0 0 0 0 0 0 0 0 0
Nghost:    7129 ave 7129 max 7129 min
Histogram: 1 0 0 0 0 0 0 0 0 0
Neighs:    77664 ave 77664 max 77664 min
Histogram: 1 0 0 0 0 0 0 0 0 0

Total # of neighbors = 77664
Ave neighs/atom = 26.6703
Neighbor list builds = 0
Dangerous builds = 0
	# write_dump all atom ${dumpfile}
        next i
jump SELF loop1
        displace_atoms upper move 0.0 ${ystep1} 0.0 units lattice
        displace_atoms upper move 0.0 0.00288675134594812 0.0 units lattice
        min_style ${style}
        min_style hftn
        minimize ${etol} ${ftol} ${maxiter} ${maxeval}
        minimize 1e-12 ${ftol} ${maxiter} ${maxeval}
        minimize 1e-12 1e-08 ${maxiter} ${maxeval}
        minimize 1e-12 1e-08 10000 ${maxeval}
        minimize 1e-12 1e-08 10000 20000
WARNING: Resetting reneighboring criteria during minimization (../min.cpp:168)
Memory usage per processor = 5.28939 Mbytes
Step Temp PotEng Lx Ly Lz 
      15            0   -17327.798    7.7766452    82.651078    4.4898482 
Loop time of 0.00184211 on 1 procs for 0 steps with 2912 atoms

Minimization stats:
  Stopping criterion = force tolerance
  Energy initial, next-to-last, final = 
        -17327.7980895     -17327.7980895     -17327.7980895
  Force two-norm initial, final = 8.50174e-11 8.50174e-11
  Force max component initial, final = 2.7994e-12 2.7994e-12
  Final line search alpha, max atom move = 0 0
  Iterations, force evaluations = 0 0

Pair  time (%) = 0.00177296 (96.2463)
Neigh time (%) = 0 (0)
Comm  time (%) = 3.60304e-05 (1.95593)
Outpt time (%) = 0 (0)
Other time (%) = 3.31166e-05 (1.79775)

Nlocal:    2912 ave 2912 max 2912 min
Histogram: 1 0 0 0 0 0 0 0 0 0
Nghost:    7129 ave 7129 max 7129 min
Histogram: 1 0 0 0 0 0 0 0 0 0
Neighs:    77664 ave 77664 max 77664 min
Histogram: 1 0 0 0 0 0 0 0 0 0

Total # of neighbors = 77664
Ave neighs/atom = 26.6703
Neighbor list builds = 0
Dangerous builds = 0
	# write_dump all atom ${dumpfile}
        next i
jump SELF loop1
        displace_atoms upper move 0.0 ${ystep1} 0.0 units lattice
        displace_atoms upper move 0.0 0.00288675134594812 0.0 units lattice
        min_style ${style}
        min_style hftn
        minimize ${etol} ${ftol} ${maxiter} ${maxeval}
        minimize 1e-12 ${ftol} ${maxiter} ${maxeval}
        minimize 1e-12 1e-08 ${maxiter} ${maxeval}
        minimize 1e-12 1e-08 10000 ${maxeval}
        minimize 1e-12 1e-08 10000 20000
WARNING: Resetting reneighboring criteria during minimization (../min.cpp:168)
Memory usage per processor = 5.28939 Mbytes
Step Temp PotEng Lx Ly Lz 
      15            0   -17322.909    7.7766452    82.659015    4.4898482 
Loop time of 0.00184693 on 1 procs for 0 steps with 2912 atoms

Minimization stats:
  Stopping criterion = force tolerance
  Energy initial, next-to-last, final = 
        -17322.9091054     -17322.9091054     -17322.9091054
  Force two-norm initial, final = 8.49997e-11 8.49997e-11
  Force max component initial, final = 2.7994e-12 2.7994e-12
  Final line search alpha, max atom move = 0 0
  Iterations, force evaluations = 0 0

Pair  time (%) = 0.00177711 (96.2199)
Neigh time (%) = 0 (0)
Comm  time (%) = 3.49968e-05 (1.89486)
Outpt time (%) = 0 (0)
Other time (%) = 3.48191e-05 (1.88524)

Nlocal:    2912 ave 2912 max 2912 min
Histogram: 1 0 0 0 0 0 0 0 0 0
Nghost:    7129 ave 7129 max 7129 min
Histogram: 1 0 0 0 0 0 0 0 0 0
Neighs:    77664 ave 77664 max 77664 min
Histogram: 1 0 0 0 0 0 0 0 0 0

Total # of neighbors = 77664
Ave neighs/atom = 26.6703
Neighbor list builds = 0
Dangerous builds = 0
	# write_dump all atom ${dumpfile}
        next i
jump SELF loop1
        displace_atoms upper move 0.0 ${ystep1} 0.0 units lattice
        displace_atoms upper move 0.0 0.00288675134594812 0.0 units lattice
        min_style ${style}
        min_style hftn
        minimize ${etol} ${ftol} ${maxiter} ${maxeval}
        minimize 1e-12 ${ftol} ${maxiter} ${maxeval}
        minimize 1e-12 1e-08 ${maxiter} ${maxeval}
        minimize 1e-12 1e-08 10000 ${maxeval}
        minimize 1e-12 1e-08 10000 20000
WARNING: Resetting reneighboring criteria during minimization (../min.cpp:168)
Memory usage per processor = 5.28939 Mbytes
Step Temp PotEng Lx Ly Lz 
      15            0   -17318.032    7.7766452    82.666952    4.4898482 
Loop time of 0.00232092 on 1 procs for 0 steps with 2912 atoms

Minimization stats:
  Stopping criterion = force tolerance
  Energy initial, next-to-last, final = 
        -17318.0322296     -17318.0322296     -17318.0322296
  Force two-norm initial, final = 8.49821e-11 8.49821e-11
  Force max component initial, final = 2.7994e-12 2.7994e-12
  Final line search alpha, max atom move = 0 0
  Iterations, force evaluations = 0 0

Pair  time (%) = 0.00225106 (96.9899)
Neigh time (%) = 0 (0)
Comm  time (%) = 3.78584e-05 (1.63118)
Outpt time (%) = 0 (0)
Other time (%) = 3.20039e-05 (1.37893)

Nlocal:    2912 ave 2912 max 2912 min
Histogram: 1 0 0 0 0 0 0 0 0 0
Nghost:    7129 ave 7129 max 7129 min
Histogram: 1 0 0 0 0 0 0 0 0 0
Neighs:    77664 ave 77664 max 77664 min
Histogram: 1 0 0 0 0 0 0 0 0 0

Total # of neighbors = 77664
Ave neighs/atom = 26.6703
Neighbor list builds = 0
Dangerous builds = 0
	# write_dump all atom ${dumpfile}
        next i
jump SELF loop1
        displace_atoms upper move 0.0 ${ystep1} 0.0 units lattice
        displace_atoms upper move 0.0 0.00288675134594812 0.0 units lattice
        min_style ${style}
        min_style hftn
        minimize ${etol} ${ftol} ${maxiter} ${maxeval}
        minimize 1e-12 ${ftol} ${maxiter} ${maxeval}
        minimize 1e-12 1e-08 ${maxiter} ${maxeval}
        minimize 1e-12 1e-08 10000 ${maxeval}
        minimize 1e-12 1e-08 10000 20000
WARNING: Resetting reneighboring criteria during minimization (../min.cpp:168)
Memory usage per processor = 5.28939 Mbytes
Step Temp PotEng Lx Ly Lz 
      15            0    -17313.22    7.7766452    82.674889    4.4898482 
Loop time of 0.00215312 on 1 procs for 0 steps with 2912 atoms

Minimization stats:
  Stopping criterion = force tolerance
  Energy initial, next-to-last, final = 
         -17313.220299      -17313.220299      -17313.220299
  Force two-norm initial, final = 8.49649e-11 8.49649e-11
  Force max component initial, final = 2.7994e-12 2.7994e-12
  Final line search alpha, max atom move = 0 0
  Iterations, force evaluations = 0 0

Pair  time (%) = 0.00209211 (97.1666)
Neigh time (%) = 0 (0)
Comm  time (%) = 4.31009e-05 (2.00179)
Outpt time (%) = 0 (0)
Other time (%) = 1.79058e-05 (0.831623)

Nlocal:    2912 ave 2912 max 2912 min
Histogram: 1 0 0 0 0 0 0 0 0 0
Nghost:    7129 ave 7129 max 7129 min
Histogram: 1 0 0 0 0 0 0 0 0 0
Neighs:    77664 ave 77664 max 77664 min
Histogram: 1 0 0 0 0 0 0 0 0 0

Total # of neighbors = 77664
Ave neighs/atom = 26.6703
Neighbor list builds = 0
Dangerous builds = 0
	# write_dump all atom ${dumpfile}
        next i
jump SELF loop1
        displace_atoms upper move 0.0 ${ystep1} 0.0 units lattice
        displace_atoms upper move 0.0 0.00288675134594812 0.0 units lattice
        min_style ${style}
        min_style hftn
        minimize ${etol} ${ftol} ${maxiter} ${maxeval}
        minimize 1e-12 ${ftol} ${maxiter} ${maxeval}
        minimize 1e-12 1e-08 ${maxiter} ${maxeval}
        minimize 1e-12 1e-08 10000 ${maxeval}
        minimize 1e-12 1e-08 10000 20000
WARNING: Resetting reneighboring criteria during minimization (../min.cpp:168)
Memory usage per processor = 5.28939 Mbytes
Step Temp PotEng Lx Ly Lz 
      15            0   -17308.527    7.7766452    82.682826    4.4898482 
Loop time of 0.0026281 on 1 procs for 0 steps with 2912 atoms

Minimization stats:
  Stopping criterion = force tolerance
  Energy initial, next-to-last, final = 
        -17308.5266693     -17308.5266693     -17308.5266693
  Force two-norm initial, final = 8.49486e-11 8.49486e-11
  Force max component initial, final = 2.7994e-12 2.7994e-12
  Final line search alpha, max atom move = 0 0
  Iterations, force evaluations = 0 0

Pair  time (%) = 0.00254005 (96.6498)
Neigh time (%) = 0 (0)
Comm  time (%) = 4.58382e-05 (1.74416)
Outpt time (%) = 0 (0)
Other time (%) = 4.22094e-05 (1.60608)

Nlocal:    2912 ave 2912 max 2912 min
Histogram: 1 0 0 0 0 0 0 0 0 0
Nghost:    7129 ave 7129 max 7129 min
Histogram: 1 0 0 0 0 0 0 0 0 0
Neighs:    77664 ave 77664 max 77664 min
Histogram: 1 0 0 0 0 0 0 0 0 0

Total # of neighbors = 77664
Ave neighs/atom = 26.6703
Neighbor list builds = 0
Dangerous builds = 0
	# write_dump all atom ${dumpfile}
        next i
jump SELF loop1
        displace_atoms upper move 0.0 ${ystep1} 0.0 units lattice
        displace_atoms upper move 0.0 0.00288675134594812 0.0 units lattice
        min_style ${style}
        min_style hftn
        minimize ${etol} ${ftol} ${maxiter} ${maxeval}
        minimize 1e-12 ${ftol} ${maxiter} ${maxeval}
        minimize 1e-12 1e-08 ${maxiter} ${maxeval}
        minimize 1e-12 1e-08 10000 ${maxeval}
        minimize 1e-12 1e-08 10000 20000
WARNING: Resetting reneighboring criteria during minimization (../min.cpp:168)
Memory usage per processor = 5.28939 Mbytes
Step Temp PotEng Lx Ly Lz 
      15            0   -17304.005    7.7766452    82.690763    4.4898482 
Loop time of 0.00229005 on 1 procs for 0 steps with 2912 atoms

Minimization stats:
  Stopping criterion = force tolerance
  Energy initial, next-to-last, final = 
        -17304.0053209     -17304.0053209     -17304.0053209
  Force two-norm initial, final = 8.49297e-11 8.49297e-11
  Force max component initial, final = 2.7994e-12 2.7994e-12
  Final line search alpha, max atom move = 0 0
  Iterations, force evaluations = 0 0

Pair  time (%) = 0.00225705 (98.559)
Neigh time (%) = 0 (0)
Comm  time (%) = 2.099e-05 (0.916576)
Outpt time (%) = 0 (0)
Other time (%) = 1.201e-05 (0.524442)

Nlocal:    2912 ave 2912 max 2912 min
Histogram: 1 0 0 0 0 0 0 0 0 0
Nghost:    7129 ave 7129 max 7129 min
Histogram: 1 0 0 0 0 0 0 0 0 0
Neighs:    77664 ave 77664 max 77664 min
Histogram: 1 0 0 0 0 0 0 0 0 0

Total # of neighbors = 77664
Ave neighs/atom = 26.6703
Neighbor list builds = 0
Dangerous builds = 0
	# write_dump all atom ${dumpfile}
        next i
jump SELF loop1
        displace_atoms upper move 0.0 ${ystep1} 0.0 units lattice
        displace_atoms upper move 0.0 0.00288675134594812 0.0 units lattice
        min_style ${style}
        min_style hftn
        minimize ${etol} ${ftol} ${maxiter} ${maxeval}
        minimize 1e-12 ${ftol} ${maxiter} ${maxeval}
        minimize 1e-12 1e-08 ${maxiter} ${maxeval}
        minimize 1e-12 1e-08 10000 ${maxeval}
        minimize 1e-12 1e-08 10000 20000
WARNING: Resetting reneighboring criteria during minimization (../min.cpp:168)
Memory usage per processor = 5.28939 Mbytes
Step Temp PotEng Lx Ly Lz 
      15            0   -17299.711    7.7766452      82.6987    4.4898482 
Loop time of 0.00188191 on 1 procs for 0 steps with 2912 atoms

Minimization stats:
  Stopping criterion = force tolerance
  Energy initial, next-to-last, final = 
        -17299.7110467     -17299.7110467     -17299.7110467
  Force two-norm initial, final = 8.49138e-11 8.49138e-11
  Force max component initial, final = 2.7994e-12 2.7994e-12
  Final line search alpha, max atom move = 0 0
  Iterations, force evaluations = 0 0

Pair  time (%) = 0.00181495 (96.4422)
Neigh time (%) = 0 (0)
Comm  time (%) = 3.40972e-05 (1.81184)
Outpt time (%) = 0 (0)
Other time (%) = 3.28576e-05 (1.74598)

Nlocal:    2912 ave 2912 max 2912 min
Histogram: 1 0 0 0 0 0 0 0 0 0
Nghost:    7129 ave 7129 max 7129 min
Histogram: 1 0 0 0 0 0 0 0 0 0
Neighs:    77664 ave 77664 max 77664 min
Histogram: 1 0 0 0 0 0 0 0 0 0

Total # of neighbors = 77664
Ave neighs/atom = 26.6703
Neighbor list builds = 0
Dangerous builds = 0
	# write_dump all atom ${dumpfile}
        next i
jump SELF loop1
        displace_atoms upper move 0.0 ${ystep1} 0.0 units lattice
        displace_atoms upper move 0.0 0.00288675134594812 0.0 units lattice
        min_style ${style}
        min_style hftn
        minimize ${etol} ${ftol} ${maxiter} ${maxeval}
        minimize 1e-12 ${ftol} ${maxiter} ${maxeval}
        minimize 1e-12 1e-08 ${maxiter} ${maxeval}
        minimize 1e-12 1e-08 10000 ${maxeval}
        minimize 1e-12 1e-08 10000 20000
WARNING: Resetting reneighboring criteria during minimization (../min.cpp:168)
Memory usage per processor = 5.28939 Mbytes
Step Temp PotEng Lx Ly Lz 
      15            0   -17295.699    7.7766452    82.706637    4.4898482 
Loop time of 0.002564 on 1 procs for 0 steps with 2912 atoms

Minimization stats:
  Stopping criterion = force tolerance
  Energy initial, next-to-last, final = 
        -17295.6987196     -17295.6987196     -17295.6987196
  Force two-norm initial, final = 8.48984e-11 8.48984e-11
  Force max component initial, final = 2.7994e-12 2.7994e-12
  Final line search alpha, max atom move = 0 0
  Iterations, force evaluations = 0 0

Pair  time (%) = 0.00245295 (95.669)
Neigh time (%) = 0 (0)
Comm  time (%) = 5.81334e-05 (2.26729)
Outpt time (%) = 0 (0)
Other time (%) = 5.29141e-05 (2.06373)

Nlocal:    2912 ave 2912 max 2912 min
Histogram: 1 0 0 0 0 0 0 0 0 0
Nghost:    7129 ave 7129 max 7129 min
Histogram: 1 0 0 0 0 0 0 0 0 0
Neighs:    77664 ave 77664 max 77664 min
Histogram: 1 0 0 0 0 0 0 0 0 0

Total # of neighbors = 77664
Ave neighs/atom = 26.6703
Neighbor list builds = 0
Dangerous builds = 0
	# write_dump all atom ${dumpfile}
        next i
jump SELF loop1
        displace_atoms upper move 0.0 ${ystep1} 0.0 units lattice
        displace_atoms upper move 0.0 0.00288675134594812 0.0 units lattice
        min_style ${style}
        min_style hftn
        minimize ${etol} ${ftol} ${maxiter} ${maxeval}
        minimize 1e-12 ${ftol} ${maxiter} ${maxeval}
        minimize 1e-12 1e-08 ${maxiter} ${maxeval}
        minimize 1e-12 1e-08 10000 ${maxeval}
        minimize 1e-12 1e-08 10000 20000
WARNING: Resetting reneighboring criteria during minimization (../min.cpp:168)
Memory usage per processor = 5.28939 Mbytes
Step Temp PotEng Lx Ly Lz 
      15            0   -17292.024    7.7766452    82.714574    4.4898482 
Loop time of 0.002112 on 1 procs for 0 steps with 2912 atoms

Minimization stats:
  Stopping criterion = force tolerance
  Energy initial, next-to-last, final = 
        -17292.0237548     -17292.0237548     -17292.0237548
  Force two-norm initial, final = 8.48815e-11 8.48815e-11
  Force max component initial, final = 2.7994e-12 2.7994e-12
  Final line search alpha, max atom move = 0 0
  Iterations, force evaluations = 0 0

Pair  time (%) = 0.00204791 (96.9653)
Neigh time (%) = 0 (0)
Comm  time (%) = 3.2876e-05 (1.55663)
Outpt time (%) = 0 (0)
Other time (%) = 3.12178e-05 (1.47812)

Nlocal:    2912 ave 2912 max 2912 min
Histogram: 1 0 0 0 0 0 0 0 0 0
Nghost:    7129 ave 7129 max 7129 min
Histogram: 1 0 0 0 0 0 0 0 0 0
Neighs:    77664 ave 77664 max 77664 min
Histogram: 1 0 0 0 0 0 0 0 0 0

Total # of neighbors = 77664
Ave neighs/atom = 26.6703
Neighbor list builds = 0
Dangerous builds = 0
	# write_dump all atom ${dumpfile}
        next i
jump SELF loop1
        displace_atoms upper move 0.0 ${ystep1} 0.0 units lattice
        displace_atoms upper move 0.0 0.00288675134594812 0.0 units lattice
        min_style ${style}
        min_style hftn
        minimize ${etol} ${ftol} ${maxiter} ${maxeval}
        minimize 1e-12 ${ftol} ${maxiter} ${maxeval}
        minimize 1e-12 1e-08 ${maxiter} ${maxeval}
        minimize 1e-12 1e-08 10000 ${maxeval}
        minimize 1e-12 1e-08 10000 20000
WARNING: Resetting reneighboring criteria during minimization (../min.cpp:168)
Memory usage per processor = 5.28939 Mbytes
Step Temp PotEng Lx Ly Lz 
      15            0   -17288.743    7.7766452    82.722511    4.4898482 
Loop time of 0.00210404 on 1 procs for 0 steps with 2912 atoms

Minimization stats:
  Stopping criterion = force tolerance
  Energy initial, next-to-last, final = 
         -17288.743219      -17288.743219      -17288.743219
  Force two-norm initial, final = 8.48653e-11 8.48653e-11
  Force max component initial, final = 2.7994e-12 2.7994e-12
  Final line search alpha, max atom move = 0 0
  Iterations, force evaluations = 0 0

Pair  time (%) = 0.0020709 (98.4247)
Neigh time (%) = 0 (0)
Comm  time (%) = 1.90373e-05 (0.904795)
Outpt time (%) = 0 (0)
Other time (%) = 1.41085e-05 (0.670542)

Nlocal:    2912 ave 2912 max 2912 min
Histogram: 1 0 0 0 0 0 0 0 0 0
Nghost:    7129 ave 7129 max 7129 min
Histogram: 1 0 0 0 0 0 0 0 0 0
Neighs:    77664 ave 77664 max 77664 min
Histogram: 1 0 0 0 0 0 0 0 0 0

Total # of neighbors = 77664
Ave neighs/atom = 26.6703
Neighbor list builds = 0
Dangerous builds = 0
	# write_dump all atom ${dumpfile}
        next i
jump SELF loop1
        displace_atoms upper move 0.0 ${ystep1} 0.0 units lattice
        displace_atoms upper move 0.0 0.00288675134594812 0.0 units lattice
        min_style ${style}
        min_style hftn
        minimize ${etol} ${ftol} ${maxiter} ${maxeval}
        minimize 1e-12 ${ftol} ${maxiter} ${maxeval}
        minimize 1e-12 1e-08 ${maxiter} ${maxeval}
        minimize 1e-12 1e-08 10000 ${maxeval}
        minimize 1e-12 1e-08 10000 20000
WARNING: Resetting reneighboring criteria during minimization (../min.cpp:168)
Memory usage per processor = 5.28939 Mbytes
Step Temp PotEng Lx Ly Lz 
      15            0   -17285.913    7.7766452    82.730448    4.4898482 
Loop time of 0.00204591 on 1 procs for 0 steps with 2912 atoms

Minimization stats:
  Stopping criterion = force tolerance
  Energy initial, next-to-last, final = 
         -17285.912798      -17285.912798      -17285.912798
  Force two-norm initial, final = 8.48503e-11 8.48503e-11
  Force max component initial, final = 2.7994e-12 2.7994e-12
  Final line search alpha, max atom move = 0 0
  Iterations, force evaluations = 0 0

Pair  time (%) = 0.00198311 (96.93)
Neigh time (%) = 0 (0)
Comm  time (%) = 3.28405e-05 (1.60518)
Outpt time (%) = 0 (0)
Other time (%) = 2.99687e-05 (1.46481)

Nlocal:    2912 ave 2912 max 2912 min
Histogram: 1 0 0 0 0 0 0 0 0 0
Nghost:    7129 ave 7129 max 7129 min
Histogram: 1 0 0 0 0 0 0 0 0 0
Neighs:    77664 ave 77664 max 77664 min
Histogram: 1 0 0 0 0 0 0 0 0 0

Total # of neighbors = 77664
Ave neighs/atom = 26.6703
Neighbor list builds = 0
Dangerous builds = 0
	# write_dump all atom ${dumpfile}
        next i
jump SELF loop1
        displace_atoms upper move 0.0 ${ystep1} 0.0 units lattice
        displace_atoms upper move 0.0 0.00288675134594812 0.0 units lattice
        min_style ${style}
        min_style hftn
        minimize ${etol} ${ftol} ${maxiter} ${maxeval}
        minimize 1e-12 ${ftol} ${maxiter} ${maxeval}
        minimize 1e-12 1e-08 ${maxiter} ${maxeval}
        minimize 1e-12 1e-08 10000 ${maxeval}
        minimize 1e-12 1e-08 10000 20000
WARNING: Resetting reneighboring criteria during minimization (../min.cpp:168)
Memory usage per processor = 5.28939 Mbytes
Step Temp PotEng Lx Ly Lz 
      15            0   -17283.591    7.7766452    82.738385    4.4898482 
Loop time of 0.00211692 on 1 procs for 0 steps with 2912 atoms

Minimization stats:
  Stopping criterion = force tolerance
  Energy initial, next-to-last, final = 
        -17283.5905402     -17283.5905402     -17283.5905402
  Force two-norm initial, final = 8.48339e-11 8.48339e-11
  Force max component initial, final = 2.7994e-12 2.7994e-12
  Final line search alpha, max atom move = 0 0
  Iterations, force evaluations = 0 0

Pair  time (%) = 0.00205096 (96.8844)
Neigh time (%) = 0 (0)
Comm  time (%) = 3.40366e-05 (1.60784)
Outpt time (%) = 0 (0)
Other time (%) = 3.19183e-05 (1.50777)

Nlocal:    2912 ave 2912 max 2912 min
Histogram: 1 0 0 0 0 0 0 0 0 0
Nghost:    7129 ave 7129 max 7129 min
Histogram: 1 0 0 0 0 0 0 0 0 0
Neighs:    77664 ave 77664 max 77664 min
Histogram: 1 0 0 0 0 0 0 0 0 0

Total # of neighbors = 77664
Ave neighs/atom = 26.6703
Neighbor list builds = 0
Dangerous builds = 0
	# write_dump all atom ${dumpfile}
        next i
jump SELF loop1
        displace_atoms upper move 0.0 ${ystep1} 0.0 units lattice
        displace_atoms upper move 0.0 0.00288675134594812 0.0 units lattice
        min_style ${style}
        min_style hftn
        minimize ${etol} ${ftol} ${maxiter} ${maxeval}
        minimize 1e-12 ${ftol} ${maxiter} ${maxeval}
        minimize 1e-12 1e-08 ${maxiter} ${maxeval}
        minimize 1e-12 1e-08 10000 ${maxeval}
        minimize 1e-12 1e-08 10000 20000
WARNING: Resetting reneighboring criteria during minimization (../min.cpp:168)
Memory usage per processor = 5.28939 Mbytes
Step Temp PotEng Lx Ly Lz 
      15            0   -17281.834    7.7766452    82.746322    4.4898482 
Loop time of 0.0019761 on 1 procs for 0 steps with 2912 atoms

Minimization stats:
  Stopping criterion = force tolerance
  Energy initial, next-to-last, final = 
        -17281.8339145     -17281.8339145     -17281.8339145
  Force two-norm initial, final = 8.48192e-11 8.48192e-11
  Force max component initial, final = 2.7994e-12 2.7994e-12
  Final line search alpha, max atom move = 0 0
  Iterations, force evaluations = 0 0

Pair  time (%) = 0.0019029 (96.2957)
Neigh time (%) = 0 (0)
Comm  time (%) = 4.01598e-05 (2.03228)
Outpt time (%) = 0 (0)
Other time (%) = 3.30403e-05 (1.672)

Nlocal:    2912 ave 2912 max 2912 min
Histogram: 1 0 0 0 0 0 0 0 0 0
Nghost:    7129 ave 7129 max 7129 min
Histogram: 1 0 0 0 0 0 0 0 0 0
Neighs:    77664 ave 77664 max 77664 min
Histogram: 1 0 0 0 0 0 0 0 0 0

Total # of neighbors = 77664
Ave neighs/atom = 26.6703
Neighbor list builds = 0
Dangerous builds = 0
	# write_dump all atom ${dumpfile}
        next i
jump SELF loop1
        displace_atoms upper move 0.0 ${ystep1} 0.0 units lattice
        displace_atoms upper move 0.0 0.00288675134594812 0.0 units lattice
        min_style ${style}
        min_style hftn
        minimize ${etol} ${ftol} ${maxiter} ${maxeval}
        minimize 1e-12 ${ftol} ${maxiter} ${maxeval}
        minimize 1e-12 1e-08 ${maxiter} ${maxeval}
        minimize 1e-12 1e-08 10000 ${maxeval}
        minimize 1e-12 1e-08 10000 20000
WARNING: Resetting reneighboring criteria during minimization (../min.cpp:168)
Memory usage per processor = 5.28939 Mbytes
Step Temp PotEng Lx Ly Lz 
      15            0     -17280.7    7.7766452    82.754259    4.4898482 
Loop time of 0.00187503 on 1 procs for 0 steps with 2912 atoms

Minimization stats:
  Stopping criterion = force tolerance
  Energy initial, next-to-last, final = 
        -17280.6999972     -17280.6999972     -17280.6999972
  Force two-norm initial, final = 8.4822e-11 8.4822e-11
  Force max component initial, final = 2.7994e-12 2.7994e-12
  Final line search alpha, max atom move = 0 0
  Iterations, force evaluations = 0 0

Pair  time (%) = 0.00178002 (94.9326)
Neigh time (%) = 0 (0)
Comm  time (%) = 5.208e-05 (2.77755)
Outpt time (%) = 0 (0)
Other time (%) = 4.29348e-05 (2.28982)

Nlocal:    2912 ave 2912 max 2912 min
Histogram: 1 0 0 0 0 0 0 0 0 0
Nghost:    7129 ave 7129 max 7129 min
Histogram: 1 0 0 0 0 0 0 0 0 0
Neighs:    77664 ave 77664 max 77664 min
Histogram: 1 0 0 0 0 0 0 0 0 0

Total # of neighbors = 77664
Ave neighs/atom = 26.6703
Neighbor list builds = 0
Dangerous builds = 0
	# write_dump all atom ${dumpfile}
        next i
jump SELF loop1
        displace_atoms upper move 0.0 ${ystep1} 0.0 units lattice
        displace_atoms upper move 0.0 0.00288675134594812 0.0 units lattice
        min_style ${style}
        min_style hftn
        minimize ${etol} ${ftol} ${maxiter} ${maxeval}
        minimize 1e-12 ${ftol} ${maxiter} ${maxeval}
        minimize 1e-12 1e-08 ${maxiter} ${maxeval}
        minimize 1e-12 1e-08 10000 ${maxeval}
        minimize 1e-12 1e-08 10000 20000
WARNING: Resetting reneighboring criteria during minimization (../min.cpp:168)
Memory usage per processor = 5.28939 Mbytes
Step Temp PotEng Lx Ly Lz 
      15            0   -17280.154    7.7766452    82.762196    4.4898482 
Loop time of 0.00215811 on 1 procs for 0 steps with 2912 atoms

Minimization stats:
  Stopping criterion = force tolerance
  Energy initial, next-to-last, final = 
        -17280.1540871     -17280.1540871     -17280.1540871
  Force two-norm initial, final = 8.48699e-11 8.48699e-11
  Force max component initial, final = 2.7994e-12 2.7994e-12
  Final line search alpha, max atom move = 0 0
  Iterations, force evaluations = 0 0

Pair  time (%) = 0.0020931 (96.988)
Neigh time (%) = 0 (0)
Comm  time (%) = 3.29741e-05 (1.52792)
Outpt time (%) = 0 (0)
Other time (%) = 3.20273e-05 (1.48404)

Nlocal:    2912 ave 2912 max 2912 min
Histogram: 1 0 0 0 0 0 0 0 0 0
Nghost:    7129 ave 7129 max 7129 min
Histogram: 1 0 0 0 0 0 0 0 0 0
Neighs:    77664 ave 77664 max 77664 min
Histogram: 1 0 0 0 0 0 0 0 0 0

Total # of neighbors = 77664
Ave neighs/atom = 26.6703
Neighbor list builds = 0
Dangerous builds = 0
	# write_dump all atom ${dumpfile}
        next i
jump SELF loop1
        displace_atoms upper move 0.0 ${ystep1} 0.0 units lattice
        displace_atoms upper move 0.0 0.00288675134594812 0.0 units lattice
        min_style ${style}
        min_style hftn
        minimize ${etol} ${ftol} ${maxiter} ${maxeval}
        minimize 1e-12 ${ftol} ${maxiter} ${maxeval}
        minimize 1e-12 1e-08 ${maxiter} ${maxeval}
        minimize 1e-12 1e-08 10000 ${maxeval}
        minimize 1e-12 1e-08 10000 20000
WARNING: Resetting reneighboring criteria during minimization (../min.cpp:168)
Memory usage per processor = 5.28939 Mbytes
Step Temp PotEng Lx Ly Lz 
      15            0   -17279.993    7.7766452    82.770133    4.4898482 
Loop time of 0.00190907 on 1 procs for 0 steps with 2912 atoms

Minimization stats:
  Stopping criterion = force tolerance
  Energy initial, next-to-last, final = 
         -17279.992659      -17279.992659      -17279.992659
  Force two-norm initial, final = 8.49239e-11 8.49239e-11
  Force max component initial, final = 2.7994e-12 2.7994e-12
  Final line search alpha, max atom move = 0 0
  Iterations, force evaluations = 0 0

Pair  time (%) = 0.00182888 (95.7997)
Neigh time (%) = 0 (0)
Comm  time (%) = 5.09812e-05 (2.67047)
Outpt time (%) = 0 (0)
Other time (%) = 2.92053e-05 (1.52982)

Nlocal:    2912 ave 2912 max 2912 min
Histogram: 1 0 0 0 0 0 0 0 0 0
Nghost:    7129 ave 7129 max 7129 min
Histogram: 1 0 0 0 0 0 0 0 0 0
Neighs:    77664 ave 77664 max 77664 min
Histogram: 1 0 0 0 0 0 0 0 0 0

Total # of neighbors = 77664
Ave neighs/atom = 26.6703
Neighbor list builds = 0
Dangerous builds = 0
	# write_dump all atom ${dumpfile}
        next i
jump SELF loop1
        displace_atoms upper move 0.0 ${ystep1} 0.0 units lattice
        displace_atoms upper move 0.0 0.00288675134594812 0.0 units lattice
        min_style ${style}
        min_style hftn
        minimize ${etol} ${ftol} ${maxiter} ${maxeval}
        minimize 1e-12 ${ftol} ${maxiter} ${maxeval}
        minimize 1e-12 1e-08 ${maxiter} ${maxeval}
        minimize 1e-12 1e-08 10000 ${maxeval}
        minimize 1e-12 1e-08 10000 20000
WARNING: Resetting reneighboring criteria during minimization (../min.cpp:168)
Memory usage per processor = 5.28939 Mbytes
Step Temp PotEng Lx Ly Lz 
      15            0   -17279.986    7.7766452     82.77807    4.4898482 
Loop time of 0.00200599 on 1 procs for 0 steps with 2912 atoms

Minimization stats:
  Stopping criterion = force tolerance
  Energy initial, next-to-last, final = 
        -17279.9856313     -17279.9856313     -17279.9856313
  Force two-norm initial, final = 8.49671e-11 8.49671e-11
  Force max component initial, final = 2.7994e-12 2.7994e-12
  Final line search alpha, max atom move = 0 0
  Iterations, force evaluations = 0 0

Pair  time (%) = 0.00194094 (96.7573)
Neigh time (%) = 0 (0)
Comm  time (%) = 3.39578e-05 (1.69282)
Outpt time (%) = 0 (0)
Other time (%) = 3.10898e-05 (1.54984)

Nlocal:    2912 ave 2912 max 2912 min
Histogram: 1 0 0 0 0 0 0 0 0 0
Nghost:    7129 ave 7129 max 7129 min
Histogram: 1 0 0 0 0 0 0 0 0 0
Neighs:    77664 ave 77664 max 77664 min
Histogram: 1 0 0 0 0 0 0 0 0 0

Total # of neighbors = 77664
Ave neighs/atom = 26.6703
Neighbor list builds = 0
Dangerous builds = 0
	# write_dump all atom ${dumpfile}
        next i
jump SELF loop1
        displace_atoms upper move 0.0 ${ystep1} 0.0 units lattice
        displace_atoms upper move 0.0 0.00288675134594812 0.0 units lattice
        min_style ${style}
        min_style hftn
        minimize ${etol} ${ftol} ${maxiter} ${maxeval}
        minimize 1e-12 ${ftol} ${maxiter} ${maxeval}
        minimize 1e-12 1e-08 ${maxiter} ${maxeval}
        minimize 1e-12 1e-08 10000 ${maxeval}
        minimize 1e-12 1e-08 10000 20000
WARNING: Resetting reneighboring criteria during minimization (../min.cpp:168)
Memory usage per processor = 5.28939 Mbytes
Step Temp PotEng Lx Ly Lz 
      15            0   -17279.986    7.7766452    82.786007    4.4898482 
Loop time of 0.00190208 on 1 procs for 0 steps with 2912 atoms

Minimization stats:
  Stopping criterion = force tolerance
  Energy initial, next-to-last, final = 
        -17279.9856313     -17279.9856313     -17279.9856313
  Force two-norm initial, final = 8.49659e-11 8.49659e-11
  Force max component initial, final = 2.7994e-12 2.7994e-12
  Final line search alpha, max atom move = 0 0
  Iterations, force evaluations = 0 0

Pair  time (%) = 0.0018549 (97.5192)
Neigh time (%) = 0 (0)
Comm  time (%) = 1.70246e-05 (0.895049)
Outpt time (%) = 0 (0)
Other time (%) = 3.01619e-05 (1.58573)

Nlocal:    2912 ave 2912 max 2912 min
Histogram: 1 0 0 0 0 0 0 0 0 0
Nghost:    7129 ave 7129 max 7129 min
Histogram: 1 0 0 0 0 0 0 0 0 0
Neighs:    77664 ave 77664 max 77664 min
Histogram: 1 0 0 0 0 0 0 0 0 0

Total # of neighbors = 77664
Ave neighs/atom = 26.6703
Neighbor list builds = 0
Dangerous builds = 0
	# write_dump all atom ${dumpfile}
        next i
jump SELF loop1
        displace_atoms upper move 0.0 ${ystep1} 0.0 units lattice
        displace_atoms upper move 0.0 0.00288675134594812 0.0 units lattice
        min_style ${style}
        min_style hftn
        minimize ${etol} ${ftol} ${maxiter} ${maxeval}
        minimize 1e-12 ${ftol} ${maxiter} ${maxeval}
        minimize 1e-12 1e-08 ${maxiter} ${maxeval}
        minimize 1e-12 1e-08 10000 ${maxeval}
        minimize 1e-12 1e-08 10000 20000
WARNING: Resetting reneighboring criteria during minimization (../min.cpp:168)
Memory usage per processor = 5.28939 Mbytes
Step Temp PotEng Lx Ly Lz 
      15            0   -17279.986    7.7766452    82.793944    4.4898482 
Loop time of 0.00338802 on 1 procs for 0 steps with 2912 atoms

Minimization stats:
  Stopping criterion = force tolerance
  Energy initial, next-to-last, final = 
        -17279.9856313     -17279.9856313     -17279.9856313
  Force two-norm initial, final = 8.49661e-11 8.49661e-11
  Force max component initial, final = 2.7994e-12 2.7994e-12
  Final line search alpha, max atom move = 0 0
  Iterations, force evaluations = 0 0

Pair  time (%) = 0.00332488 (98.1364)
Neigh time (%) = 0 (0)
Comm  time (%) = 3.28583e-05 (0.969838)
Outpt time (%) = 0 (0)
Other time (%) = 3.02818e-05 (0.893791)

Nlocal:    2912 ave 2912 max 2912 min
Histogram: 1 0 0 0 0 0 0 0 0 0
Nghost:    7129 ave 7129 max 7129 min
Histogram: 1 0 0 0 0 0 0 0 0 0
Neighs:    77664 ave 77664 max 77664 min
Histogram: 1 0 0 0 0 0 0 0 0 0

Total # of neighbors = 77664
Ave neighs/atom = 26.6703
Neighbor list builds = 0
Dangerous builds = 0
	# write_dump all atom ${dumpfile}
        next i
jump SELF loop1
        displace_atoms upper move 0.0 ${ystep1} 0.0 units lattice
        displace_atoms upper move 0.0 0.00288675134594812 0.0 units lattice
        min_style ${style}
        min_style hftn
        minimize ${etol} ${ftol} ${maxiter} ${maxeval}
        minimize 1e-12 ${ftol} ${maxiter} ${maxeval}
        minimize 1e-12 1e-08 ${maxiter} ${maxeval}
        minimize 1e-12 1e-08 10000 ${maxeval}
        minimize 1e-12 1e-08 10000 20000
WARNING: Resetting reneighboring criteria during minimization (../min.cpp:168)
Memory usage per processor = 5.29063 Mbytes
Step Temp PotEng Lx Ly Lz 
      15            0   -17279.986    7.7766452    82.801881    4.4898482 
Loop time of 0.00282003 on 1 procs for 0 steps with 2912 atoms

Minimization stats:
  Stopping criterion = force tolerance
  Energy initial, next-to-last, final = 
        -17279.9856313     -17279.9856313     -17279.9856313
  Force two-norm initial, final = 8.49671e-11 8.49671e-11
  Force max component initial, final = 2.7994e-12 2.7994e-12
  Final line search alpha, max atom move = 0 0
  Iterations, force evaluations = 0 0

Pair  time (%) = 0.00275303 (97.6241)
Neigh time (%) = 0 (0)
Comm  time (%) = 3.50759e-05 (1.24381)
Outpt time (%) = 0 (0)
Other time (%) = 3.19253e-05 (1.13209)

Nlocal:    2912 ave 2912 max 2912 min
Histogram: 1 0 0 0 0 0 0 0 0 0
Nghost:    7129 ave 7129 max 7129 min
Histogram: 1 0 0 0 0 0 0 0 0 0
Neighs:    77664 ave 77664 max 77664 min
Histogram: 1 0 0 0 0 0 0 0 0 0

Total # of neighbors = 77664
Ave neighs/atom = 26.6703
Neighbor list builds = 0
Dangerous builds = 0
	# write_dump all atom ${dumpfile}
        next i
jump SELF loop1
        displace_atoms upper move 0.0 ${ystep1} 0.0 units lattice
        displace_atoms upper move 0.0 0.00288675134594812 0.0 units lattice
        min_style ${style}
        min_style hftn
        minimize ${etol} ${ftol} ${maxiter} ${maxeval}
        minimize 1e-12 ${ftol} ${maxiter} ${maxeval}
        minimize 1e-12 1e-08 ${maxiter} ${maxeval}
        minimize 1e-12 1e-08 10000 ${maxeval}
        minimize 1e-12 1e-08 10000 20000
WARNING: Resetting reneighboring criteria during minimization (../min.cpp:168)
Memory usage per processor = 5.29063 Mbytes
Step Temp PotEng Lx Ly Lz 
      15            0   -17279.986    7.7766452    82.809818    4.4898482 
Loop time of 0.00382896 on 1 procs for 0 steps with 2912 atoms

Minimization stats:
  Stopping criterion = force tolerance
  Energy initial, next-to-last, final = 
        -17279.9856313     -17279.9856313     -17279.9856313
  Force two-norm initial, final = 8.49659e-11 8.49659e-11
  Force max component initial, final = 2.7994e-12 2.7994e-12
  Final line search alpha, max atom move = 0 0
  Iterations, force evaluations = 0 0

Pair  time (%) = 0.0037641 (98.3062)
Neigh time (%) = 0 (0)
Comm  time (%) = 3.28943e-05 (0.859093)
Outpt time (%) = 0 (0)
Other time (%) = 3.19611e-05 (0.834721)

Nlocal:    2912 ave 2912 max 2912 min
Histogram: 1 0 0 0 0 0 0 0 0 0
Nghost:    7129 ave 7129 max 7129 min
Histogram: 1 0 0 0 0 0 0 0 0 0
Neighs:    77664 ave 77664 max 77664 min
Histogram: 1 0 0 0 0 0 0 0 0 0

Total # of neighbors = 77664
Ave neighs/atom = 26.6703
Neighbor list builds = 0
Dangerous builds = 0
	# write_dump all atom ${dumpfile}
        next i
jump SELF loop1
        displace_atoms upper move 0.0 ${ystep1} 0.0 units lattice
        displace_atoms upper move 0.0 0.00288675134594812 0.0 units lattice
        min_style ${style}
        min_style hftn
        minimize ${etol} ${ftol} ${maxiter} ${maxeval}
        minimize 1e-12 ${ftol} ${maxiter} ${maxeval}
        minimize 1e-12 1e-08 ${maxiter} ${maxeval}
        minimize 1e-12 1e-08 10000 ${maxeval}
        minimize 1e-12 1e-08 10000 20000
WARNING: Resetting reneighboring criteria during minimization (../min.cpp:168)
Memory usage per processor = 5.29063 Mbytes
Step Temp PotEng Lx Ly Lz 
      15            0   -17279.986    7.7766452    82.817755    4.4898482 
Loop time of 0.00240788 on 1 procs for 0 steps with 2912 atoms

Minimization stats:
  Stopping criterion = force tolerance
  Energy initial, next-to-last, final = 
        -17279.9856313     -17279.9856313     -17279.9856313
  Force two-norm initial, final = 8.49661e-11 8.49661e-11
  Force max component initial, final = 2.7994e-12 2.7994e-12
  Final line search alpha, max atom move = 0 0
  Iterations, force evaluations = 0 0

Pair  time (%) = 0.00234498 (97.3877)
Neigh time (%) = 0 (0)
Comm  time (%) = 3.4954e-05 (1.45165)
Outpt time (%) = 0 (0)
Other time (%) = 2.79477e-05 (1.16068)

Nlocal:    2912 ave 2912 max 2912 min
Histogram: 1 0 0 0 0 0 0 0 0 0
Nghost:    7129 ave 7129 max 7129 min
Histogram: 1 0 0 0 0 0 0 0 0 0
Neighs:    77664 ave 77664 max 77664 min
Histogram: 1 0 0 0 0 0 0 0 0 0

Total # of neighbors = 77664
Ave neighs/atom = 26.6703
Neighbor list builds = 0
Dangerous builds = 0
	# write_dump all atom ${dumpfile}
        next i
jump SELF loop1
        displace_atoms upper move 0.0 ${ystep1} 0.0 units lattice
        displace_atoms upper move 0.0 0.00288675134594812 0.0 units lattice
        min_style ${style}
        min_style hftn
        minimize ${etol} ${ftol} ${maxiter} ${maxeval}
        minimize 1e-12 ${ftol} ${maxiter} ${maxeval}
        minimize 1e-12 1e-08 ${maxiter} ${maxeval}
        minimize 1e-12 1e-08 10000 ${maxeval}
        minimize 1e-12 1e-08 10000 20000
WARNING: Resetting reneighboring criteria during minimization (../min.cpp:168)
Memory usage per processor = 5.29063 Mbytes
Step Temp PotEng Lx Ly Lz 
      15            0   -17279.986    7.7766452    82.825692    4.4898482 
Loop time of 0.00213606 on 1 procs for 0 steps with 2912 atoms

Minimization stats:
  Stopping criterion = force tolerance
  Energy initial, next-to-last, final = 
        -17279.9856313     -17279.9856313     -17279.9856313
  Force two-norm initial, final = 8.49671e-11 8.49671e-11
  Force max component initial, final = 2.7994e-12 2.7994e-12
  Final line search alpha, max atom move = 0 0
  Iterations, force evaluations = 0 0

Pair  time (%) = 0.00203006 (95.0375)
Neigh time (%) = 0 (0)
Comm  time (%) = 5.59683e-05 (2.62017)
Outpt time (%) = 0 (0)
Other time (%) = 5.0033e-05 (2.3423)

Nlocal:    2912 ave 2912 max 2912 min
Histogram: 1 0 0 0 0 0 0 0 0 0
Nghost:    7129 ave 7129 max 7129 min
Histogram: 1 0 0 0 0 0 0 0 0 0
Neighs:    77664 ave 77664 max 77664 min
Histogram: 1 0 0 0 0 0 0 0 0 0

Total # of neighbors = 77664
Ave neighs/atom = 26.6703
Neighbor list builds = 0
Dangerous builds = 0
	# write_dump all atom ${dumpfile}
        next i
jump SELF loop1
        displace_atoms upper move 0.0 ${ystep1} 0.0 units lattice
        displace_atoms upper move 0.0 0.00288675134594812 0.0 units lattice
        min_style ${style}
        min_style hftn
        minimize ${etol} ${ftol} ${maxiter} ${maxeval}
        minimize 1e-12 ${ftol} ${maxiter} ${maxeval}
        minimize 1e-12 1e-08 ${maxiter} ${maxeval}
        minimize 1e-12 1e-08 10000 ${maxeval}
        minimize 1e-12 1e-08 10000 20000
WARNING: Resetting reneighboring criteria during minimization (../min.cpp:168)
Memory usage per processor = 5.29063 Mbytes
Step Temp PotEng Lx Ly Lz 
      15            0   -17279.986    7.7766452    82.833629    4.4898482 
Loop time of 0.00180007 on 1 procs for 0 steps with 2912 atoms

Minimization stats:
  Stopping criterion = force tolerance
  Energy initial, next-to-last, final = 
        -17279.9856313     -17279.9856313     -17279.9856313
  Force two-norm initial, final = 8.49659e-11 8.49659e-11
  Force max component initial, final = 2.7994e-12 2.7994e-12
  Final line search alpha, max atom move = 0 0
  Iterations, force evaluations = 0 0

Pair  time (%) = 0.00171988 (95.5454)
Neigh time (%) = 0 (0)
Comm  time (%) = 5.09409e-05 (2.82994)
Outpt time (%) = 0 (0)
Other time (%) = 2.92456e-05 (1.62469)

Nlocal:    2912 ave 2912 max 2912 min
Histogram: 1 0 0 0 0 0 0 0 0 0
Nghost:    7129 ave 7129 max 7129 min
Histogram: 1 0 0 0 0 0 0 0 0 0
Neighs:    77664 ave 77664 max 77664 min
Histogram: 1 0 0 0 0 0 0 0 0 0

Total # of neighbors = 77664
Ave neighs/atom = 26.6703
Neighbor list builds = 0
Dangerous builds = 0
	# write_dump all atom ${dumpfile}
        next i
jump SELF loop1
        displace_atoms upper move 0.0 ${ystep1} 0.0 units lattice
        displace_atoms upper move 0.0 0.00288675134594812 0.0 units lattice
        min_style ${style}
        min_style hftn
        minimize ${etol} ${ftol} ${maxiter} ${maxeval}
        minimize 1e-12 ${ftol} ${maxiter} ${maxeval}
        minimize 1e-12 1e-08 ${maxiter} ${maxeval}
        minimize 1e-12 1e-08 10000 ${maxeval}
        minimize 1e-12 1e-08 10000 20000
WARNING: Resetting reneighboring criteria during minimization (../min.cpp:168)
Memory usage per processor = 5.29063 Mbytes
Step Temp PotEng Lx Ly Lz 
      15            0   -17279.986    7.7766452    82.841566    4.4898482 
Loop time of 0.002532 on 1 procs for 0 steps with 2912 atoms

Minimization stats:
  Stopping criterion = force tolerance
  Energy initial, next-to-last, final = 
        -17279.9856313     -17279.9856313     -17279.9856313
  Force two-norm initial, final = 8.49657e-11 8.49657e-11
  Force max component initial, final = 2.7994e-12 2.7994e-12
  Final line search alpha, max atom move = 0 0
  Iterations, force evaluations = 0 0

Pair  time (%) = 0.0024659 (97.3897)
Neigh time (%) = 0 (0)
Comm  time (%) = 3.39242e-05 (1.33982)
Outpt time (%) = 0 (0)
Other time (%) = 3.21696e-05 (1.27052)

Nlocal:    2912 ave 2912 max 2912 min
Histogram: 1 0 0 0 0 0 0 0 0 0
Nghost:    7129 ave 7129 max 7129 min
Histogram: 1 0 0 0 0 0 0 0 0 0
Neighs:    77664 ave 77664 max 77664 min
Histogram: 1 0 0 0 0 0 0 0 0 0

Total # of neighbors = 77664
Ave neighs/atom = 26.6703
Neighbor list builds = 0
Dangerous builds = 0
	# write_dump all atom ${dumpfile}
        next i
jump SELF loop1
        displace_atoms upper move 0.0 ${ystep1} 0.0 units lattice
        displace_atoms upper move 0.0 0.00288675134594812 0.0 units lattice
        min_style ${style}
        min_style hftn
        minimize ${etol} ${ftol} ${maxiter} ${maxeval}
        minimize 1e-12 ${ftol} ${maxiter} ${maxeval}
        minimize 1e-12 1e-08 ${maxiter} ${maxeval}
        minimize 1e-12 1e-08 10000 ${maxeval}
        minimize 1e-12 1e-08 10000 20000
WARNING: Resetting reneighboring criteria during minimization (../min.cpp:168)
Memory usage per processor = 5.29063 Mbytes
Step Temp PotEng Lx Ly Lz 
      15            0   -17279.986    7.7766452    82.849503    4.4898482 
Loop time of 0.00257497 on 1 procs for 0 steps with 2912 atoms

Minimization stats:
  Stopping criterion = force tolerance
  Energy initial, next-to-last, final = 
        -17279.9856313     -17279.9856313     -17279.9856313
  Force two-norm initial, final = 8.4966e-11 8.4966e-11
  Force max component initial, final = 2.7994e-12 2.7994e-12
  Final line search alpha, max atom move = 0 0
  Iterations, force evaluations = 0 0

Pair  time (%) = 0.00251207 (97.5572)
Neigh time (%) = 0 (0)
Comm  time (%) = 3.2997e-05 (1.28145)
Outpt time (%) = 0 (0)
Other time (%) = 2.99049e-05 (1.16137)

Nlocal:    2912 ave 2912 max 2912 min
Histogram: 1 0 0 0 0 0 0 0 0 0
Nghost:    7129 ave 7129 max 7129 min
Histogram: 1 0 0 0 0 0 0 0 0 0
Neighs:    77664 ave 77664 max 77664 min
Histogram: 1 0 0 0 0 0 0 0 0 0

Total # of neighbors = 77664
Ave neighs/atom = 26.6703
Neighbor list builds = 0
Dangerous builds = 0
	# write_dump all atom ${dumpfile}
        next i
jump SELF loop1
        displace_atoms upper move 0.0 ${ystep1} 0.0 units lattice
        displace_atoms upper move 0.0 0.00288675134594812 0.0 units lattice
        min_style ${style}
        min_style hftn
        minimize ${etol} ${ftol} ${maxiter} ${maxeval}
        minimize 1e-12 ${ftol} ${maxiter} ${maxeval}
        minimize 1e-12 1e-08 ${maxiter} ${maxeval}
        minimize 1e-12 1e-08 10000 ${maxeval}
        minimize 1e-12 1e-08 10000 20000
WARNING: Resetting reneighboring criteria during minimization (../min.cpp:168)
Memory usage per processor = 5.29063 Mbytes
Step Temp PotEng Lx Ly Lz 
      15            0   -17279.986    7.7766452     82.85744    4.4898482 
Loop time of 0.0014869 on 1 procs for 0 steps with 2912 atoms

Minimization stats:
  Stopping criterion = force tolerance
  Energy initial, next-to-last, final = 
        -17279.9856313     -17279.9856313     -17279.9856313
  Force two-norm initial, final = 8.49659e-11 8.49659e-11
  Force max component initial, final = 2.7994e-12 2.7994e-12
  Final line search alpha, max atom move = 0 0
  Iterations, force evaluations = 0 0

[...]
Nghost:    7129 ave 7129 max 7129 min
Histogram: 1 0 0 0 0 0 0 0 0 0
Neighs:    77088 ave 77088 max 77088 min
Histogram: 1 0 0 0 0 0 0 0 0 0

Total # of neighbors = 77088
Ave neighs/atom = 26.4725
Neighbor list builds = 0
Dangerous builds = 0
	# write_dump all atom ${dumpfile}
        next i
jump SELF loop1
        displace_atoms upper move 0.0 ${ystep1} 0.0 units lattice
        displace_atoms upper move 0.0 0.00288675134594812 0.0 units lattice
        min_style ${style}
        min_style hftn
        minimize ${etol} ${ftol} ${maxiter} ${maxeval}
        minimize 1e-12 ${ftol} ${maxiter} ${maxeval}
        minimize 1e-12 1e-08 ${maxiter} ${maxeval}
        minimize 1e-12 1e-08 10000 ${maxeval}
        minimize 1e-12 1e-08 10000 20000
WARNING: Resetting reneighboring criteria during minimization (../min.cpp:168)
Memory usage per processor = 5.29104 Mbytes
Step Temp PotEng Lx Ly Lz 
      15            0   -17279.986    7.7766452    84.802007    4.4898482 
Loop time of 0.00154295 on 1 procs for 0 steps with 2912 atoms

Minimization stats:
  Stopping criterion = force tolerance
  Energy initial, next-to-last, final = 
        -17279.9856313     -17279.9856313     -17279.9856313
  Force two-norm initial, final = 8.49663e-11 8.49663e-11
  Force max component initial, final = 2.7994e-12 2.7994e-12
  Final line search alpha, max atom move = 0 0
  Iterations, force evaluations = 0 0

Pair  time (%) = 0.0014801 (95.9263)
Neigh time (%) = 0 (0)
Comm  time (%) = 3.39294e-05 (2.19899)
Outpt time (%) = 0 (0)
Other time (%) = 2.89261e-05 (1.87472)

Nlocal:    2912 ave 2912 max 2912 min
Histogram: 1 0 0 0 0 0 0 0 0 0
Nghost:    7129 ave 7129 max 7129 min
Histogram: 1 0 0 0 0 0 0 0 0 0
Neighs:    77088 ave 77088 max 77088 min
Histogram: 1 0 0 0 0 0 0 0 0 0

Total # of neighbors = 77088
Ave neighs/atom = 26.4725
Neighbor list builds = 0
Dangerous builds = 0
	# write_dump all atom ${dumpfile}
        next i
jump SELF loop1
        displace_atoms upper move 0.0 ${ystep1} 0.0 units lattice
        displace_atoms upper move 0.0 0.00288675134594812 0.0 units lattice
        min_style ${style}
        min_style hftn
        minimize ${etol} ${ftol} ${maxiter} ${maxeval}
        minimize 1e-12 ${ftol} ${maxiter} ${maxeval}
        minimize 1e-12 1e-08 ${maxiter} ${maxeval}
        minimize 1e-12 1e-08 10000 ${maxeval}
        minimize 1e-12 1e-08 10000 20000
WARNING: Resetting reneighboring criteria during minimization (../min.cpp:168)
Memory usage per processor = 5.29104 Mbytes
Step Temp PotEng Lx Ly Lz 
      15            0   -17279.986    7.7766452    84.809944    4.4898482 
Loop time of 0.00214688 on 1 procs for 0 steps with 2912 atoms

Minimization stats:
  Stopping criterion = force tolerance
  Energy initial, next-to-last, final = 
        -17279.9856313     -17279.9856313     -17279.9856313
  Force two-norm initial, final = 8.49669e-11 8.49669e-11
  Force max component initial, final = 2.7994e-12 2.7994e-12
  Final line search alpha, max atom move = 0 0
  Iterations, force evaluations = 0 0

Pair  time (%) = 0.00207607 (96.7015)
Neigh time (%) = 0 (0)
Comm  time (%) = 3.40156e-05 (1.58442)
Outpt time (%) = 0 (0)
Other time (%) = 3.68003e-05 (1.71413)

Nlocal:    2912 ave 2912 max 2912 min
Histogram: 1 0 0 0 0 0 0 0 0 0
Nghost:    7129 ave 7129 max 7129 min
Histogram: 1 0 0 0 0 0 0 0 0 0
Neighs:    77088 ave 77088 max 77088 min
Histogram: 1 0 0 0 0 0 0 0 0 0

Total # of neighbors = 77088
Ave neighs/atom = 26.4725
Neighbor list builds = 0
Dangerous builds = 0
	# write_dump all atom ${dumpfile}
        next i
jump SELF loop1
        displace_atoms upper move 0.0 ${ystep1} 0.0 units lattice
        displace_atoms upper move 0.0 0.00288675134594812 0.0 units lattice
        min_style ${style}
        min_style hftn
        minimize ${etol} ${ftol} ${maxiter} ${maxeval}
        minimize 1e-12 ${ftol} ${maxiter} ${maxeval}
        minimize 1e-12 1e-08 ${maxiter} ${maxeval}
        minimize 1e-12 1e-08 10000 ${maxeval}
        minimize 1e-12 1e-08 10000 20000
WARNING: Resetting reneighboring criteria during minimization (../min.cpp:168)
Memory usage per processor = 5.29104 Mbytes
Step Temp PotEng Lx Ly Lz 
      15            0   -17279.986    7.7766452    84.817881    4.4898482 
Loop time of 0.00299304 on 1 procs for 0 steps with 2912 atoms

Minimization stats:
  Stopping criterion = force tolerance
  Energy initial, next-to-last, final = 
        -17279.9856313     -17279.9856313     -17279.9856313
  Force two-norm initial, final = 8.49674e-11 8.49674e-11
  Force max component initial, final = 2.7994e-12 2.7994e-12
  Final line search alpha, max atom move = 0 0
  Iterations, force evaluations = 0 0

Pair  time (%) = 0.0029179 (97.4895)
Neigh time (%) = 0 (0)
Comm  time (%) = 4.29164e-05 (1.43387)
Outpt time (%) = 0 (0)
Other time (%) = 3.22238e-05 (1.07662)

Nlocal:    2912 ave 2912 max 2912 min
Histogram: 1 0 0 0 0 0 0 0 0 0
Nghost:    7129 ave 7129 max 7129 min
Histogram: 1 0 0 0 0 0 0 0 0 0
Neighs:    77088 ave 77088 max 77088 min
Histogram: 1 0 0 0 0 0 0 0 0 0

Total # of neighbors = 77088
Ave neighs/atom = 26.4725
Neighbor list builds = 0
Dangerous builds = 0
	# write_dump all atom ${dumpfile}
        next i
jump SELF loop1
        displace_atoms upper move 0.0 ${ystep1} 0.0 units lattice
        displace_atoms upper move 0.0 0.00288675134594812 0.0 units lattice
        min_style ${style}
        min_style hftn
        minimize ${etol} ${ftol} ${maxiter} ${maxeval}
        minimize 1e-12 ${ftol} ${maxiter} ${maxeval}
        minimize 1e-12 1e-08 ${maxiter} ${maxeval}
        minimize 1e-12 1e-08 10000 ${maxeval}
        minimize 1e-12 1e-08 10000 20000
WARNING: Resetting reneighboring criteria during minimization (../min.cpp:168)
Memory usage per processor = 5.29104 Mbytes
Step Temp PotEng Lx Ly Lz 
      15            0   -17279.986    7.7766452    84.825818    4.4898482 
Loop time of 0.00193793 on 1 procs for 0 steps with 2912 atoms

Minimization stats:
  Stopping criterion = force tolerance
  Energy initial, next-to-last, final = 
        -17279.9856313     -17279.9856313     -17279.9856313
  Force two-norm initial, final = 8.49663e-11 8.49663e-11
  Force max component initial, final = 2.7994e-12 2.7994e-12
  Final line search alpha, max atom move = 0 0
  Iterations, force evaluations = 0 0

Pair  time (%) = 0.00187108 (96.5502)
Neigh time (%) = 0 (0)
Comm  time (%) = 3.48912e-05 (1.80043)
Outpt time (%) = 0 (0)
Other time (%) = 3.19642e-05 (1.64939)

Nlocal:    2912 ave 2912 max 2912 min
Histogram: 1 0 0 0 0 0 0 0 0 0
Nghost:    7129 ave 7129 max 7129 min
Histogram: 1 0 0 0 0 0 0 0 0 0
Neighs:    77088 ave 77088 max 77088 min
Histogram: 1 0 0 0 0 0 0 0 0 0

Total # of neighbors = 77088
Ave neighs/atom = 26.4725
Neighbor list builds = 0
Dangerous builds = 0
	# write_dump all atom ${dumpfile}
        next i
jump SELF loop1
        displace_atoms upper move 0.0 ${ystep1} 0.0 units lattice
        displace_atoms upper move 0.0 0.00288675134594812 0.0 units lattice
        min_style ${style}
        min_style hftn
        minimize ${etol} ${ftol} ${maxiter} ${maxeval}
        minimize 1e-12 ${ftol} ${maxiter} ${maxeval}
        minimize 1e-12 1e-08 ${maxiter} ${maxeval}
        minimize 1e-12 1e-08 10000 ${maxeval}
        minimize 1e-12 1e-08 10000 20000
WARNING: Resetting reneighboring criteria during minimization (../min.cpp:168)
Memory usage per processor = 5.29104 Mbytes
Step Temp PotEng Lx Ly Lz 
      15            0   -17279.986    7.7766452    84.833755    4.4898482 
Loop time of 0.00281812 on 1 procs for 0 steps with 2912 atoms

Minimization stats:
  Stopping criterion = force tolerance
  Energy initial, next-to-last, final = 
        -17279.9856313     -17279.9856313     -17279.9856313
  Force two-norm initial, final = 8.49669e-11 8.49669e-11
  Force max component initial, final = 2.7994e-12 2.7994e-12
  Final line search alpha, max atom move = 0 0
  Iterations, force evaluations = 0 0

Pair  time (%) = 0.00275207 (97.6563)
Neigh time (%) = 0 (0)
Comm  time (%) = 3.39153e-05 (1.20347)
Outpt time (%) = 0 (0)
Other time (%) = 3.21323e-05 (1.1402)

Nlocal:    2912 ave 2912 max 2912 min
Histogram: 1 0 0 0 0 0 0 0 0 0
Nghost:    7129 ave 7129 max 7129 min
Histogram: 1 0 0 0 0 0 0 0 0 0
Neighs:    77088 ave 77088 max 77088 min
Histogram: 1 0 0 0 0 0 0 0 0 0

Total # of neighbors = 77088
Ave neighs/atom = 26.4725
Neighbor list builds = 0
Dangerous builds = 0
	# write_dump all atom ${dumpfile}
        next i
jump SELF loop1
        displace_atoms upper move 0.0 ${ystep1} 0.0 units lattice
        displace_atoms upper move 0.0 0.00288675134594812 0.0 units lattice
        min_style ${style}
        min_style hftn
        minimize ${etol} ${ftol} ${maxiter} ${maxeval}
        minimize 1e-12 ${ftol} ${maxiter} ${maxeval}
        minimize 1e-12 1e-08 ${maxiter} ${maxeval}
        minimize 1e-12 1e-08 10000 ${maxeval}
        minimize 1e-12 1e-08 10000 20000
WARNING: Resetting reneighboring criteria during minimization (../min.cpp:168)
Memory usage per processor = 5.29104 Mbytes
Step Temp PotEng Lx Ly Lz 
      15            0   -17279.986    7.7766452    84.841692    4.4898482 
Loop time of 0.0021189 on 1 procs for 0 steps with 2912 atoms

Minimization stats:
  Stopping criterion = force tolerance
  Energy initial, next-to-last, final = 
        -17279.9856313     -17279.9856313     -17279.9856313
  Force two-norm initial, final = 8.49674e-11 8.49674e-11
  Force max component initial, final = 2.7994e-12 2.7994e-12
  Final line search alpha, max atom move = 0 0
  Iterations, force evaluations = 0 0

Pair  time (%) = 0.00207604 (97.9771)
Neigh time (%) = 0 (0)
Comm  time (%) = 2.08685e-05 (0.984874)
Outpt time (%) = 0 (0)
Other time (%) = 2.19938e-05 (1.03798)

Nlocal:    2912 ave 2912 max 2912 min
Histogram: 1 0 0 0 0 0 0 0 0 0
Nghost:    7129 ave 7129 max 7129 min
Histogram: 1 0 0 0 0 0 0 0 0 0
Neighs:    77088 ave 77088 max 77088 min
Histogram: 1 0 0 0 0 0 0 0 0 0

Total # of neighbors = 77088
Ave neighs/atom = 26.4725
Neighbor list builds = 0
Dangerous builds = 0
	# write_dump all atom ${dumpfile}
        next i
jump SELF loop1
        displace_atoms upper move 0.0 ${ystep1} 0.0 units lattice
        displace_atoms upper move 0.0 0.00288675134594812 0.0 units lattice
        min_style ${style}
        min_style hftn
        minimize ${etol} ${ftol} ${maxiter} ${maxeval}
        minimize 1e-12 ${ftol} ${maxiter} ${maxeval}
        minimize 1e-12 1e-08 ${maxiter} ${maxeval}
        minimize 1e-12 1e-08 10000 ${maxeval}
        minimize 1e-12 1e-08 10000 20000
WARNING: Resetting reneighboring criteria during minimization (../min.cpp:168)
Memory usage per processor = 5.29104 Mbytes
Step Temp PotEng Lx Ly Lz 
      15            0   -17279.986    7.7766452    84.849629    4.4898482 
Loop time of 0.00170609 on 1 procs for 0 steps with 2912 atoms

Minimization stats:
  Stopping criterion = force tolerance
  Energy initial, next-to-last, final = 
        -17279.9856313     -17279.9856313     -17279.9856313
  Force two-norm initial, final = 8.49663e-11 8.49663e-11
  Force max component initial, final = 2.7994e-12 2.7994e-12
  Final line search alpha, max atom move = 0 0
  Iterations, force evaluations = 0 0

Pair  time (%) = 0.00163508 (95.838)
Neigh time (%) = 0 (0)
Comm  time (%) = 3.69382e-05 (2.16508)
Outpt time (%) = 0 (0)
Other time (%) = 3.40698e-05 (1.99695)

Nlocal:    2912 ave 2912 max 2912 min
Histogram: 1 0 0 0 0 0 0 0 0 0
Nghost:    7129 ave 7129 max 7129 min
Histogram: 1 0 0 0 0 0 0 0 0 0
Neighs:    77088 ave 77088 max 77088 min
Histogram: 1 0 0 0 0 0 0 0 0 0

Total # of neighbors = 77088
Ave neighs/atom = 26.4725
Neighbor list builds = 0
Dangerous builds = 0
	# write_dump all atom ${dumpfile}
        next i
jump SELF loop1
        displace_atoms upper move 0.0 ${ystep1} 0.0 units lattice
        displace_atoms upper move 0.0 0.00288675134594812 0.0 units lattice
        min_style ${style}
        min_style hftn
        minimize ${etol} ${ftol} ${maxiter} ${maxeval}
        minimize 1e-12 ${ftol} ${maxiter} ${maxeval}
        minimize 1e-12 1e-08 ${maxiter} ${maxeval}
        minimize 1e-12 1e-08 10000 ${maxeval}
        minimize 1e-12 1e-08 10000 20000
WARNING: Resetting reneighboring criteria during minimization (../min.cpp:168)
Memory usage per processor = 5.29104 Mbytes
Step Temp PotEng Lx Ly Lz 
      15            0   -17279.986    7.7766452    84.857566    4.4898482 
Loop time of 0.00274293 on 1 procs for 0 steps with 2912 atoms

Minimization stats:
  Stopping criterion = force tolerance
  Energy initial, next-to-last, final = 
        -17279.9856313     -17279.9856313     -17279.9856313
  Force two-norm initial, final = 8.49665e-11 8.49665e-11
  Force max component initial, final = 2.7994e-12 2.7994e-12
  Final line search alpha, max atom move = 0 0
  Iterations, force evaluations = 0 0

Pair  time (%) = 0.00262601 (95.7373)
Neigh time (%) = 0 (0)
Comm  time (%) = 4.60899e-05 (1.68032)
Outpt time (%) = 0 (0)
Other time (%) = 7.08334e-05 (2.5824)

Nlocal:    2912 ave 2912 max 2912 min
Histogram: 1 0 0 0 0 0 0 0 0 0
Nghost:    7129 ave 7129 max 7129 min
Histogram: 1 0 0 0 0 0 0 0 0 0
Neighs:    77088 ave 77088 max 77088 min
Histogram: 1 0 0 0 0 0 0 0 0 0

Total # of neighbors = 77088
Ave neighs/atom = 26.4725
Neighbor list builds = 0
Dangerous builds = 0
	# write_dump all atom ${dumpfile}
        next i
jump SELF loop1
        displace_atoms upper move 0.0 ${ystep1} 0.0 units lattice
        displace_atoms upper move 0.0 0.00288675134594812 0.0 units lattice
        min_style ${style}
        min_style hftn
        minimize ${etol} ${ftol} ${maxiter} ${maxeval}
        minimize 1e-12 ${ftol} ${maxiter} ${maxeval}
        minimize 1e-12 1e-08 ${maxiter} ${maxeval}
        minimize 1e-12 1e-08 10000 ${maxeval}
        minimize 1e-12 1e-08 10000 20000
WARNING: Resetting reneighboring criteria during minimization (../min.cpp:168)
Memory usage per processor = 5.29104 Mbytes
Step Temp PotEng Lx Ly Lz 
      15            0   -17279.986    7.7766452    84.865503    4.4898482 
Loop time of 0.00183593 on 1 procs for 0 steps with 2912 atoms

Minimization stats:
  Stopping criterion = force tolerance
  Energy initial, next-to-last, final = 
        -17279.9856313     -17279.9856313     -17279.9856313
  Force two-norm initial, final = 8.49674e-11 8.49674e-11
  Force max component initial, final = 2.7994e-12 2.7994e-12
  Final line search alpha, max atom move = 0 0
  Iterations, force evaluations = 0 0

Pair  time (%) = 0.00176407 (96.0858)
Neigh time (%) = 0 (0)
Comm  time (%) = 2.70187e-05 (1.47166)
Outpt time (%) = 0 (0)
Other time (%) = 4.48435e-05 (2.44255)

Nlocal:    2912 ave 2912 max 2912 min
Histogram: 1 0 0 0 0 0 0 0 0 0
Nghost:    7129 ave 7129 max 7129 min
Histogram: 1 0 0 0 0 0 0 0 0 0
Neighs:    77088 ave 77088 max 77088 min
Histogram: 1 0 0 0 0 0 0 0 0 0

Total # of neighbors = 77088
Ave neighs/atom = 26.4725
Neighbor list builds = 0
Dangerous builds = 0
	# write_dump all atom ${dumpfile}
        next i
jump SELF loop1
        displace_atoms upper move 0.0 ${ystep1} 0.0 units lattice
        displace_atoms upper move 0.0 0.00288675134594812 0.0 units lattice
        min_style ${style}
        min_style hftn
        minimize ${etol} ${ftol} ${maxiter} ${maxeval}
        minimize 1e-12 ${ftol} ${maxiter} ${maxeval}
        minimize 1e-12 1e-08 ${maxiter} ${maxeval}
        minimize 1e-12 1e-08 10000 ${maxeval}
        minimize 1e-12 1e-08 10000 20000
WARNING: Resetting reneighboring criteria during minimization (../min.cpp:168)
Memory usage per processor = 5.29104 Mbytes
Step Temp PotEng Lx Ly Lz 
      15            0   -17279.986    7.7766452     84.87344    4.4898482 
Loop time of 0.00588493 on 1 procs for 0 steps with 2912 atoms

Minimization stats:
  Stopping criterion = force tolerance
  Energy initial, next-to-last, final = 
        -17279.9856313     -17279.9856313     -17279.9856313
  Force two-norm initial, final = 8.49663e-11 8.49663e-11
  Force max component initial, final = 2.7994e-12 2.7994e-12
  Final line search alpha, max atom move = 0 0
  Iterations, force evaluations = 0 0

Pair  time (%) = 0.00580898 (98.7094)
Neigh time (%) = 0 (0)
Comm  time (%) = 4.70178e-05 (0.798953)
Outpt time (%) = 0 (0)
Other time (%) = 2.89303e-05 (0.491599)

Nlocal:    2912 ave 2912 max 2912 min
Histogram: 1 0 0 0 0 0 0 0 0 0
Nghost:    7129 ave 7129 max 7129 min
Histogram: 1 0 0 0 0 0 0 0 0 0
Neighs:    77088 ave 77088 max 77088 min
Histogram: 1 0 0 0 0 0 0 0 0 0

Total # of neighbors = 77088
Ave neighs/atom = 26.4725
Neighbor list builds = 0
Dangerous builds = 0
	# write_dump all atom ${dumpfile}
        next i
jump SELF loop1
        displace_atoms upper move 0.0 ${ystep1} 0.0 units lattice
        displace_atoms upper move 0.0 0.00288675134594812 0.0 units lattice
        min_style ${style}
        min_style hftn
        minimize ${etol} ${ftol} ${maxiter} ${maxeval}
        minimize 1e-12 ${ftol} ${maxiter} ${maxeval}
        minimize 1e-12 1e-08 ${maxiter} ${maxeval}
        minimize 1e-12 1e-08 10000 ${maxeval}
        minimize 1e-12 1e-08 10000 20000
WARNING: Resetting reneighboring criteria during minimization (../min.cpp:168)
Memory usage per processor = 5.29104 Mbytes
Step Temp PotEng Lx Ly Lz 
      15            0   -17279.986    7.7766452    84.881377    4.4898482 
Loop time of 0.00205409 on 1 procs for 0 steps with 2912 atoms

Minimization stats:
  Stopping criterion = force tolerance
  Energy initial, next-to-last, final = 
        -17279.9856313     -17279.9856313     -17279.9856313
  Force two-norm initial, final = 8.49665e-11 8.49665e-11
  Force max component initial, final = 2.7994e-12 2.7994e-12
  Final line search alpha, max atom move = 0 0
  Iterations, force evaluations = 0 0

Pair  time (%) = 0.00198899 (96.831)
Neigh time (%) = 0 (0)
Comm  time (%) = 3.51804e-05 (1.7127)
Outpt time (%) = 0 (0)
Other time (%) = 2.99135e-05 (1.45629)

Nlocal:    2912 ave 2912 max 2912 min
Histogram: 1 0 0 0 0 0 0 0 0 0
Nghost:    7129 ave 7129 max 7129 min
Histogram: 1 0 0 0 0 0 0 0 0 0
Neighs:    77088 ave 77088 max 77088 min
Histogram: 1 0 0 0 0 0 0 0 0 0

Total # of neighbors = 77088
Ave neighs/atom = 26.4725
Neighbor list builds = 0
Dangerous builds = 0
	# write_dump all atom ${dumpfile}
        next i
jump SELF loop1

# allow atoms to relax in y-direction, now that two halves have separated
unfix 2
min_style ${style}
min_style hftn
minimize ${etol} ${ftol} ${maxiter} ${maxeval}
minimize 1e-12 ${ftol} ${maxiter} ${maxeval}
minimize 1e-12 1e-08 ${maxiter} ${maxeval}
minimize 1e-12 1e-08 10000 ${maxeval}
minimize 1e-12 1e-08 10000 20000
WARNING: Resetting reneighboring criteria during minimization (../min.cpp:168)
Memory usage per processor = 5.29104 Mbytes
Step Temp PotEng Lx Ly Lz 
      15            0   -17279.986    7.7766452    84.881377    4.4898482 
      16            0   -17279.986    7.7766452    84.881377    4.4898482 
      17            0   -17279.986    7.7766452    84.881377    4.4898482 
Loop time of 1.14967 on 1 procs for 1 steps with 2912 atoms

Minimization stats:
  Stopping criterion = force tolerance
  Energy initial, next-to-last, final = 
        -17279.9856313     -17279.9856313     -17279.9859193
  Force two-norm initial, final = 0.00357281 6.1525e-12
  Force max component initial, final = 0.000315795 5.69712e-13
  Final line search alpha, max atom move = 0 0
  Iterations, force evaluations = 1 495

Pair  time (%) = 1.05423 (91.6992)
Neigh time (%) = 0 (0)
Comm  time (%) = 0.0179498 (1.5613)
Outpt time (%) = 0.000120035 (0.0104409)
Other time (%) = 0.0773612 (6.72902)

Nlocal:    2912 ave 2912 max 2912 min
Histogram: 1 0 0 0 0 0 0 0 0 0
Nghost:    7129 ave 7129 max 7129 min
Histogram: 1 0 0 0 0 0 0 0 0 0
Neighs:    77088 ave 77088 max 77088 min
Histogram: 1 0 0 0 0 0 0 0 0 0

Total # of neighbors = 77088
Ave neighs/atom = 26.4725
Neighbor list builds = 0
Dangerous builds = 0

write_dump all atom ${dumpfile}
write_dump all atom surf_V_brittle_3d.*.dump


