LAMMPS (28 Jun 2014)
# attempt at getting surface energy

#file prefix
variable prefix string surf_V_ductilenew2
variable dumpfile string ${prefix}.*.dump
variable dumpfile string surf_V_ductilenew2.*.dump
variable restartfile string ${prefix}.*.equil
variable restartfile string surf_V_ductilenew2.*.equil

#Mass (g/mol)
variable m equal 1

# lattice constant (in Angstroms) and orientation of axes (given by lattice vectors)
variable rho equal 0.9165
variable x1 equal 1
variable x2 equal 0
variable x3 equal 0
variable y1 equal 0
variable y2 equal 1
variable y3 equal 0
# length of lattice in different directions (using orientation of lattice vectors)
variable ax equal sqrt(${x1}*${x1}+${x2}*${x2}+${x3}*${x3})
variable ax equal sqrt(1*${x1}+${x2}*${x2}+${x3}*${x3})
variable ax equal sqrt(1*1+${x2}*${x2}+${x3}*${x3})
variable ax equal sqrt(1*1+0*${x2}+${x3}*${x3})
variable ax equal sqrt(1*1+0*0+${x3}*${x3})
variable ax equal sqrt(1*1+0*0+0*${x3})
variable ax equal sqrt(1*1+0*0+0*0)
variable ay equal sqrt(${y1}*${y1}+${y2}*${y2}+${y3}*${y3})
variable ay equal sqrt(0*${y1}+${y2}*${y2}+${y3}*${y3})
variable ay equal sqrt(0*0+${y2}*${y2}+${y3}*${y3})
variable ay equal sqrt(0*0+1*${y2}+${y3}*${y3})
variable ay equal sqrt(0*0+1*1+${y3}*${y3})
variable ay equal sqrt(0*0+1*1+0*${y3})
variable ay equal sqrt(0*0+1*1+0*0)
variable az equal 1

# size of box in lattice units
variable lxpos equal 1
variable lxneg equal 0
variable lypos equal 10
variable lyneg equal -1*${lypos}
variable lyneg equal -1*10
variable lzpos equal 1
variable lzneg equal 0

# Define minimization parameters and damping
variable etol equal 1.0e-12
variable ftol equal 1.0e-8
variable maxiter equal 10000
variable maxeval equal 20000
variable style string cg

# boundary conditions
dimension	2
boundary	p s p
atom_style	atomic

# create geometry
units		lj
lattice         hex ${rho}
lattice         hex 0.9165
Lattice spacing in x,y,z = 1.12245 1.94415 1.12245
region		myregion block ${lxneg} ${lxpos} ${lyneg} ${lypos} ${lzneg} ${lzpos} units lattice
region		myregion block 0 ${lxpos} ${lyneg} ${lypos} ${lzneg} ${lzpos} units lattice
region		myregion block 0 1 ${lyneg} ${lypos} ${lzneg} ${lzpos} units lattice
region		myregion block 0 1 -10 ${lypos} ${lzneg} ${lzpos} units lattice
region		myregion block 0 1 -10 10 ${lzneg} ${lzpos} units lattice
region		myregion block 0 1 -10 10 0 ${lzpos} units lattice
region		myregion block 0 1 -10 10 0 1 units lattice
create_box	1 myregion
Created orthogonal box = (0 -19.4415 0) to (1.12245 19.4415 1.12245)
  1 by 1 by 1 MPI processor grid
create_atoms	1 box
Created 41 atoms

# define masses
mass * $m
mass * 1

# my fake/morse potential
pair_style      table linear 3001
pair_coeff      * * vpotential_ductilenew2 dummy
neighbor	0.3 bin
neigh_modify	delay 5

# define groups
region	    upper block INF INF 0.01 ${lypos} INF INF units lattice
region	    upper block INF INF 0.01 10 INF INF units lattice
group		upper region upper
20 atoms in group upper

# Setup output
thermo 1
thermo_style custom step temp pe lx ly lz
thermo_modify norm no

# Compute initial state by relaxing box
min_style ${style}
min_style cg
minimize ${etol} ${ftol} ${maxiter} ${maxeval}
minimize 1e-12 ${ftol} ${maxiter} ${maxeval}
minimize 1e-12 1e-08 ${maxiter} ${maxeval}
minimize 1e-12 1e-08 10000 ${maxeval}
minimize 1e-12 1e-08 10000 20000
WARNING: Resetting reneighboring criteria during minimization (../min.cpp:168)
Memory usage per processor = 3.35962 Mbytes
Step Temp PotEng Lx Ly Lz 
       0            0   -120.99996    1.1224537    38.890715    1.1224537 
       1            0   -120.99996    1.1224537    38.890715    1.1224537 
       2            0   -120.99996    1.1224537    38.890715    1.1224537 
Loop time of 0.000270955 on 1 procs for 2 steps with 41 atoms

Minimization stats:
  Stopping criterion = linesearch alpha is zero
  Energy initial, next-to-last, final = 
        -120.999963848     -120.999964932     -120.999964932
  Force two-norm initial, final = 0.000550698 0.00322436
  Force max component initial, final = 0.000389403 0.00179508
  Final line search alpha, max atom move = 0.000976562 1.75301e-06
  Iterations, force evaluations = 2 15

Pair  time (%) = 0.000146909 (54.219)
Neigh time (%) = 0 (0)
Comm  time (%) = 2.2596e-05 (8.33937)
Outpt time (%) = 4.1073e-05 (15.1586)
Other time (%) = 6.03772e-05 (22.2831)

Nlocal:    41 ave 41 max 41 min
Histogram: 1 0 0 0 0 0 0 0 0 0
Nghost:    185 ave 185 max 185 min
Histogram: 1 0 0 0 0 0 0 0 0 0
Neighs:    359 ave 359 max 359 min
Histogram: 1 0 0 0 0 0 0 0 0 0

Total # of neighbors = 359
Ave neighs/atom = 8.7561
Neighbor list builds = 0
Dangerous builds = 0

# don't allow atoms to relax in y-direction
fix 2 all setforce NULL 0.0 NULL

# Energy curve will have nstep steps
variable nsteps equal 500
variable sstep1 equal 1.0
variable ystep1 equal ${sstep1}/(${ay}*${nsteps})
variable ystep1 equal 1/(${ay}*${nsteps})
variable ystep1 equal 1/(1*${nsteps})
variable ystep1 equal 1/(1*500)

variable i loop ${nsteps}
variable i loop 500
label loop1
        displace_atoms upper move 0.0 ${ystep1} 0.0 units lattice
        displace_atoms upper move 0.0 0.002 0.0 units lattice
        min_style ${style}
        min_style cg
        minimize ${etol} ${ftol} ${maxiter} ${maxeval}
        minimize 1e-12 ${ftol} ${maxiter} ${maxeval}
        minimize 1e-12 1e-08 ${maxiter} ${maxeval}
        minimize 1e-12 1e-08 10000 ${maxeval}
        minimize 1e-12 1e-08 10000 20000
WARNING: Resetting reneighboring criteria during minimization (../min.cpp:168)
Memory usage per processor = 3.35962 Mbytes
Step Temp PotEng Lx Ly Lz 
       2            0   -120.99969    1.1224537      38.8947    1.1224537 
       3            0   -120.99969    1.1224537      38.8947    1.1224537 
Loop time of 7.60281e-05 on 1 procs for 1 steps with 41 atoms

Minimization stats:
  Stopping criterion = linesearch alpha is zero
  Energy initial, next-to-last, final = 
        -120.999690069     -120.999690069     -120.999690069
  Force two-norm initial, final = 1.80447e-18 1.80447e-18
  Force max component initial, final = 1.30104e-18 1.30104e-18
  Final line search alpha, max atom move = 0.5 6.50521e-19
  Iterations, force evaluations = 1 2

Pair  time (%) = 2.80628e-05 (36.9112)
Neigh time (%) = 0 (0)
Comm  time (%) = 4.80679e-06 (6.32239)
Outpt time (%) = 0 (0)
Other time (%) = 4.31584e-05 (56.7664)

Nlocal:    41 ave 41 max 41 min
Histogram: 1 0 0 0 0 0 0 0 0 0
Nghost:    185 ave 185 max 185 min
Histogram: 1 0 0 0 0 0 0 0 0 0
Neighs:    359 ave 359 max 359 min
Histogram: 1 0 0 0 0 0 0 0 0 0

Total # of neighbors = 359
Ave neighs/atom = 8.7561
Neighbor list builds = 0
Dangerous builds = 0
	# write_dump all atom ${dumpfile}
        next i
jump SELF loop1
        displace_atoms upper move 0.0 ${ystep1} 0.0 units lattice
        displace_atoms upper move 0.0 0.002 0.0 units lattice
        min_style ${style}
        min_style cg
        minimize ${etol} ${ftol} ${maxiter} ${maxeval}
        minimize 1e-12 ${ftol} ${maxiter} ${maxeval}
        minimize 1e-12 1e-08 ${maxiter} ${maxeval}
        minimize 1e-12 1e-08 10000 ${maxeval}
        minimize 1e-12 1e-08 10000 20000
WARNING: Resetting reneighboring criteria during minimization (../min.cpp:168)
Memory usage per processor = 3.35962 Mbytes
Step Temp PotEng Lx Ly Lz 
       3            0   -120.99888    1.1224537    38.898588    1.1224537 
       4            0   -120.99888    1.1224537    38.898588    1.1224537 
Loop time of 7.49859e-05 on 1 procs for 1 steps with 41 atoms

Minimization stats:
  Stopping criterion = linesearch alpha is zero
  Energy initial, next-to-last, final = 
        -120.998878952     -120.998878952     -120.998878952
  Force two-norm initial, final = 5.10231e-18 5.10231e-18
  Force max component initial, final = 4.93312e-18 4.93312e-18
  Final line search alpha, max atom move = 0.5 2.46656e-18
  Iterations, force evaluations = 1 2

Pair  time (%) = 2.90819e-05 (38.7832)
Neigh time (%) = 0 (0)
Comm  time (%) = 3.93775e-06 (5.25132)
Outpt time (%) = 0 (0)
Other time (%) = 4.19662e-05 (55.9655)

Nlocal:    41 ave 41 max 41 min
Histogram: 1 0 0 0 0 0 0 0 0 0
Nghost:    185 ave 185 max 185 min
Histogram: 1 0 0 0 0 0 0 0 0 0
Neighs:    359 ave 359 max 359 min
Histogram: 1 0 0 0 0 0 0 0 0 0

Total # of neighbors = 359
Ave neighs/atom = 8.7561
Neighbor list builds = 0
Dangerous builds = 0
	# write_dump all atom ${dumpfile}
        next i
jump SELF loop1
        displace_atoms upper move 0.0 ${ystep1} 0.0 units lattice
        displace_atoms upper move 0.0 0.002 0.0 units lattice
        min_style ${style}
        min_style cg
        minimize ${etol} ${ftol} ${maxiter} ${maxeval}
        minimize 1e-12 ${ftol} ${maxiter} ${maxeval}
        minimize 1e-12 1e-08 ${maxiter} ${maxeval}
        minimize 1e-12 1e-08 10000 ${maxeval}
        minimize 1e-12 1e-08 10000 20000
WARNING: Resetting reneighboring criteria during minimization (../min.cpp:168)
Memory usage per processor = 3.35962 Mbytes
Step Temp PotEng Lx Ly Lz 
       4            0   -120.99755    1.1224537    38.902477    1.1224537 
       5            0   -120.99755    1.1224537    38.902477    1.1224537 
Loop time of 4.49907e-05 on 1 procs for 1 steps with 41 atoms

Minimization stats:
  Stopping criterion = linesearch alpha is zero
  Energy initial, next-to-last, final = 
         -120.99754844      -120.99754844      -120.99754844
  Force two-norm initial, final = 3.05639e-18 3.05639e-18
  Force max component initial, final = 2.76472e-18 2.76472e-18
  Final line search alpha, max atom move = 0.5 1.38236e-18
  Iterations, force evaluations = 1 2

Pair  time (%) = 2.70036e-05 (60.0204)
Neigh time (%) = 0 (0)
Comm  time (%) = 6.07269e-06 (13.4977)
Outpt time (%) = 0 (0)
Other time (%) = 1.19144e-05 (26.482)

Nlocal:    41 ave 41 max 41 min
Histogram: 1 0 0 0 0 0 0 0 0 0
Nghost:    185 ave 185 max 185 min
Histogram: 1 0 0 0 0 0 0 0 0 0
Neighs:    359 ave 359 max 359 min
Histogram: 1 0 0 0 0 0 0 0 0 0

Total # of neighbors = 359
Ave neighs/atom = 8.7561
Neighbor list builds = 0
Dangerous builds = 0
	# write_dump all atom ${dumpfile}
        next i
jump SELF loop1
        displace_atoms upper move 0.0 ${ystep1} 0.0 units lattice
        displace_atoms upper move 0.0 0.002 0.0 units lattice
        min_style ${style}
        min_style cg
        minimize ${etol} ${ftol} ${maxiter} ${maxeval}
        minimize 1e-12 ${ftol} ${maxiter} ${maxeval}
        minimize 1e-12 1e-08 ${maxiter} ${maxeval}
        minimize 1e-12 1e-08 10000 ${maxeval}
        minimize 1e-12 1e-08 10000 20000
WARNING: Resetting reneighboring criteria during minimization (../min.cpp:168)
Memory usage per processor = 3.35962 Mbytes
Step Temp PotEng Lx Ly Lz 
       5            0   -120.99571    1.1224537    38.906365    1.1224537 
       6            0   -120.99571    1.1224537    38.906365    1.1224537 
Loop time of 2.70497e-05 on 1 procs for 1 steps with 41 atoms

Minimization stats:
  Stopping criterion = linesearch alpha is zero
  Energy initial, next-to-last, final = 
        -120.995712014     -120.995712014     -120.995712014
  Force two-norm initial, final = 1.48313e-17 1.48313e-17
  Force max component initial, final = 1.25767e-17 1.25767e-17
  Final line search alpha, max atom move = 0.5 6.28837e-18
  Iterations, force evaluations = 1 2

Pair  time (%) = 1.91343e-05 (70.7374)
Neigh time (%) = 0 (0)
Comm  time (%) = 1.10245e-06 (4.07566)
Outpt time (%) = 0 (0)
Other time (%) = 6.81297e-06 (25.1869)

Nlocal:    41 ave 41 max 41 min
Histogram: 1 0 0 0 0 0 0 0 0 0
Nghost:    185 ave 185 max 185 min
Histogram: 1 0 0 0 0 0 0 0 0 0
Neighs:    359 ave 359 max 359 min
Histogram: 1 0 0 0 0 0 0 0 0 0

Total # of neighbors = 359
Ave neighs/atom = 8.7561
Neighbor list builds = 0
Dangerous builds = 0
	# write_dump all atom ${dumpfile}
        next i
jump SELF loop1
        displace_atoms upper move 0.0 ${ystep1} 0.0 units lattice
        displace_atoms upper move 0.0 0.002 0.0 units lattice
        min_style ${style}
        min_style cg
        minimize ${etol} ${ftol} ${maxiter} ${maxeval}
        minimize 1e-12 ${ftol} ${maxiter} ${maxeval}
        minimize 1e-12 1e-08 ${maxiter} ${maxeval}
        minimize 1e-12 1e-08 10000 ${maxeval}
        minimize 1e-12 1e-08 10000 20000
WARNING: Resetting reneighboring criteria during minimization (../min.cpp:168)
Memory usage per processor = 3.35962 Mbytes
Step Temp PotEng Lx Ly Lz 
       6            0   -120.99339    1.1224537    38.910253    1.1224537 
       7            0   -120.99339    1.1224537    38.910253    1.1224537 
Loop time of 4.5066e-05 on 1 procs for 1 steps with 41 atoms

Minimization stats:
  Stopping criterion = linesearch alpha is zero
  Energy initial, next-to-last, final = 
        -120.993389112     -120.993389112     -120.993389112
  Force two-norm initial, final = 1.70736e-17 1.70736e-17
  Force max component initial, final = 1.25767e-17 1.25767e-17
  Final line search alpha, max atom move = 0.5 6.28837e-18
  Iterations, force evaluations = 1 2

Pair  time (%) = 2.80376e-05 (62.2145)
Neigh time (%) = 0 (0)
Comm  time (%) = 4.99468e-06 (11.083)
Outpt time (%) = 0 (0)
Other time (%) = 1.20337e-05 (26.7025)

Nlocal:    41 ave 41 max 41 min
Histogram: 1 0 0 0 0 0 0 0 0 0
Nghost:    185 ave 185 max 185 min
Histogram: 1 0 0 0 0 0 0 0 0 0
Neighs:    359 ave 359 max 359 min
Histogram: 1 0 0 0 0 0 0 0 0 0

Total # of neighbors = 359
Ave neighs/atom = 8.7561
Neighbor list builds = 0
Dangerous builds = 0
	# write_dump all atom ${dumpfile}
        next i
jump SELF loop1
        displace_atoms upper move 0.0 ${ystep1} 0.0 units lattice
        displace_atoms upper move 0.0 0.002 0.0 units lattice
        min_style ${style}
        min_style cg
        minimize ${etol} ${ftol} ${maxiter} ${maxeval}
        minimize 1e-12 ${ftol} ${maxiter} ${maxeval}
        minimize 1e-12 1e-08 ${maxiter} ${maxeval}
        minimize 1e-12 1e-08 10000 ${maxeval}
        minimize 1e-12 1e-08 10000 20000
WARNING: Resetting reneighboring criteria during minimization (../min.cpp:168)
Memory usage per processor = 3.35962 Mbytes
Step Temp PotEng Lx Ly Lz 
       7            0    -120.9906    1.1224537    38.914142    1.1224537 
       8            0    -120.9906    1.1224537    38.914142    1.1224537 
Loop time of 2.6973e-05 on 1 procs for 1 steps with 41 atoms

Minimization stats:
  Stopping criterion = linesearch alpha is zero
  Energy initial, next-to-last, final = 
        -120.990596162     -120.990596162     -120.990596162
  Force two-norm initial, final = 1.56563e-17 1.56563e-17
  Force max component initial, final = 1.25767e-17 1.25767e-17
  Final line search alpha, max atom move = 0.5 6.28837e-18
  Iterations, force evaluations = 1 2

Pair  time (%) = 1.69051e-05 (62.6744)
Neigh time (%) = 0 (0)
Comm  time (%) = 1.83622e-06 (6.80763)
Outpt time (%) = 0 (0)
Other time (%) = 8.23161e-06 (30.518)

Nlocal:    41 ave 41 max 41 min
Histogram: 1 0 0 0 0 0 0 0 0 0
Nghost:    185 ave 185 max 185 min
Histogram: 1 0 0 0 0 0 0 0 0 0
Neighs:    359 ave 359 max 359 min
Histogram: 1 0 0 0 0 0 0 0 0 0

Total # of neighbors = 359
Ave neighs/atom = 8.7561
Neighbor list builds = 0
Dangerous builds = 0
	# write_dump all atom ${dumpfile}
        next i
jump SELF loop1
        displace_atoms upper move 0.0 ${ystep1} 0.0 units lattice
        displace_atoms upper move 0.0 0.002 0.0 units lattice
        min_style ${style}
        min_style cg
        minimize ${etol} ${ftol} ${maxiter} ${maxeval}
        minimize 1e-12 ${ftol} ${maxiter} ${maxeval}
        minimize 1e-12 1e-08 ${maxiter} ${maxeval}
        minimize 1e-12 1e-08 10000 ${maxeval}
        minimize 1e-12 1e-08 10000 20000
WARNING: Resetting reneighboring criteria during minimization (../min.cpp:168)
Memory usage per processor = 3.35962 Mbytes
Step Temp PotEng Lx Ly Lz 
       8            0   -120.98735    1.1224537     38.91803    1.1224537 
       9            0   -120.98735    1.1224537     38.91803    1.1224537 
Loop time of 4.39732e-05 on 1 procs for 1 steps with 41 atoms

Minimization stats:
  Stopping criterion = linesearch alpha is zero
  Energy initial, next-to-last, final = 
         -120.98734878      -120.98734878      -120.98734878
  Force two-norm initial, final = 1.62112e-17 1.62112e-17
  Force max component initial, final = 1.51788e-17 1.51788e-17
  Final line search alpha, max atom move = 0.5 7.58942e-18
  Iterations, force evaluations = 1 2

Pair  time (%) = 2.90971e-05 (66.17)
Neigh time (%) = 0 (0)
Comm  time (%) = 3.96813e-06 (9.02398)
Outpt time (%) = 0 (0)
Other time (%) = 1.0908e-05 (24.806)

Nlocal:    41 ave 41 max 41 min
Histogram: 1 0 0 0 0 0 0 0 0 0
Nghost:    185 ave 185 max 185 min
Histogram: 1 0 0 0 0 0 0 0 0 0
Neighs:    359 ave 359 max 359 min
Histogram: 1 0 0 0 0 0 0 0 0 0

Total # of neighbors = 359
Ave neighs/atom = 8.7561
Neighbor list builds = 0
Dangerous builds = 0
	# write_dump all atom ${dumpfile}
        next i
jump SELF loop1
        displace_atoms upper move 0.0 ${ystep1} 0.0 units lattice
        displace_atoms upper move 0.0 0.002 0.0 units lattice
        min_style ${style}
        min_style cg
        minimize ${etol} ${ftol} ${maxiter} ${maxeval}
        minimize 1e-12 ${ftol} ${maxiter} ${maxeval}
        minimize 1e-12 1e-08 ${maxiter} ${maxeval}
        minimize 1e-12 1e-08 10000 ${maxeval}
        minimize 1e-12 1e-08 10000 20000
WARNING: Resetting reneighboring criteria during minimization (../min.cpp:168)
Memory usage per processor = 3.35962 Mbytes
Step Temp PotEng Lx Ly Lz 
       9            0   -120.98366    1.1224537    38.921918    1.1224537 
      10            0   -120.98366    1.1224537    38.921918    1.1224537 
Loop time of 4.49532e-05 on 1 procs for 1 steps with 41 atoms

Minimization stats:
  Stopping criterion = linesearch alpha is zero
  Energy initial, next-to-last, final = 
        -120.983662255     -120.983662255     -120.983662255
  Force two-norm initial, final = 2.94715e-17 2.94715e-17
  Force max component initial, final = 2.52619e-17 2.52619e-17
  Final line search alpha, max atom move = 0.5 1.2631e-17
  Iterations, force evaluations = 1 2

Pair  time (%) = 2.79375e-05 (62.1479)
Neigh time (%) = 0 (0)
Comm  time (%) = 5.07932e-06 (11.2991)
Outpt time (%) = 0 (0)
Other time (%) = 1.19364e-05 (26.553)

Nlocal:    41 ave 41 max 41 min
Histogram: 1 0 0 0 0 0 0 0 0 0
Nghost:    185 ave 185 max 185 min
Histogram: 1 0 0 0 0 0 0 0 0 0
Neighs:    359 ave 359 max 359 min
Histogram: 1 0 0 0 0 0 0 0 0 0

Total # of neighbors = 359
Ave neighs/atom = 8.7561
Neighbor list builds = 0
Dangerous builds = 0
	# write_dump all atom ${dumpfile}
        next i
jump SELF loop1
        displace_atoms upper move 0.0 ${ystep1} 0.0 units lattice
        displace_atoms upper move 0.0 0.002 0.0 units lattice
        min_style ${style}
        min_style cg
        minimize ${etol} ${ftol} ${maxiter} ${maxeval}
        minimize 1e-12 ${ftol} ${maxiter} ${maxeval}
        minimize 1e-12 1e-08 ${maxiter} ${maxeval}
        minimize 1e-12 1e-08 10000 ${maxeval}
        minimize 1e-12 1e-08 10000 20000
WARNING: Resetting reneighboring criteria during minimization (../min.cpp:168)
Memory usage per processor = 3.35962 Mbytes
Step Temp PotEng Lx Ly Lz 
      10            0   -120.97955    1.1224537    38.925807    1.1224537 
      11            0   -120.97955    1.1224537    38.925807    1.1224537 
Loop time of 4.39591e-05 on 1 procs for 1 steps with 41 atoms

Minimization stats:
  Stopping criterion = linesearch alpha is zero
  Energy initial, next-to-last, final = 
        -120.979550066     -120.979550066     -120.979550066
  Force two-norm initial, final = 3.11605e-17 3.11605e-17
  Force max component initial, final = 2.72135e-17 2.72135e-17
  Final line search alpha, max atom move = 0.5 1.36067e-17
  Iterations, force evaluations = 1 2

Pair  time (%) = 2.79088e-05 (63.4881)
Neigh time (%) = 0 (0)
Comm  time (%) = 3.02226e-06 (6.87516)
Outpt time (%) = 0 (0)
Other time (%) = 1.3028e-05 (29.6367)

Nlocal:    41 ave 41 max 41 min
Histogram: 1 0 0 0 0 0 0 0 0 0
Nghost:    185 ave 185 max 185 min
Histogram: 1 0 0 0 0 0 0 0 0 0
Neighs:    359 ave 359 max 359 min
Histogram: 1 0 0 0 0 0 0 0 0 0

Total # of neighbors = 359
Ave neighs/atom = 8.7561
Neighbor list builds = 0
Dangerous builds = 0
	# write_dump all atom ${dumpfile}
        next i
jump SELF loop1
        displace_atoms upper move 0.0 ${ystep1} 0.0 units lattice
        displace_atoms upper move 0.0 0.002 0.0 units lattice
        min_style ${style}
        min_style cg
        minimize ${etol} ${ftol} ${maxiter} ${maxeval}
        minimize 1e-12 ${ftol} ${maxiter} ${maxeval}
        minimize 1e-12 1e-08 ${maxiter} ${maxeval}
        minimize 1e-12 1e-08 10000 ${maxeval}
        minimize 1e-12 1e-08 10000 20000
WARNING: Resetting reneighboring criteria during minimization (../min.cpp:168)
Memory usage per processor = 3.35962 Mbytes
Step Temp PotEng Lx Ly Lz 
      11            0   -120.97503    1.1224537    38.929695    1.1224537 
      12            0   -120.97503    1.1224537    38.929695    1.1224537 
Loop time of 4.39459e-05 on 1 procs for 1 steps with 41 atoms

Minimization stats:
  Stopping criterion = linesearch alpha is zero
  Energy initial, next-to-last, final = 
        -120.975028663     -120.975028663     -120.975028663
  Force two-norm initial, final = 2.85476e-17 2.85476e-17
  Force max component initial, final = 2.41777e-17 2.41777e-17
  Final line search alpha, max atom move = 0.5 1.20889e-17
  Iterations, force evaluations = 1 2

Pair  time (%) = 2.78227e-05 (63.3113)
Neigh time (%) = 0 (0)
Comm  time (%) = 5.28048e-06 (12.0159)
Outpt time (%) = 0 (0)
Other time (%) = 1.08427e-05 (24.6728)

Nlocal:    41 ave 41 max 41 min
Histogram: 1 0 0 0 0 0 0 0 0 0
Nghost:    185 ave 185 max 185 min
Histogram: 1 0 0 0 0 0 0 0 0 0
Neighs:    359 ave 359 max 359 min
Histogram: 1 0 0 0 0 0 0 0 0 0

Total # of neighbors = 359
Ave neighs/atom = 8.7561
Neighbor list builds = 0
Dangerous builds = 0
	# write_dump all atom ${dumpfile}
        next i
jump SELF loop1
        displace_atoms upper move 0.0 ${ystep1} 0.0 units lattice
        displace_atoms upper move 0.0 0.002 0.0 units lattice
        min_style ${style}
        min_style cg
        minimize ${etol} ${ftol} ${maxiter} ${maxeval}
        minimize 1e-12 ${ftol} ${maxiter} ${maxeval}
        minimize 1e-12 1e-08 ${maxiter} ${maxeval}
        minimize 1e-12 1e-08 10000 ${maxeval}
        minimize 1e-12 1e-08 10000 20000
WARNING: Resetting reneighboring criteria during minimization (../min.cpp:168)
Memory usage per processor = 3.35962 Mbytes
Step Temp PotEng Lx Ly Lz 
      12            0   -120.97011    1.1224537    38.933583    1.1224537 
      13            0   -120.97011    1.1224537    38.933583    1.1224537 
Loop time of 4.39055e-05 on 1 procs for 1 steps with 41 atoms

Minimization stats:
  Stopping criterion = linesearch alpha is zero
  Energy initial, next-to-last, final = 
        -120.970112426     -120.970112426     -120.970112426
  Force two-norm initial, final = 2.25651e-17 2.25651e-17
  Force max component initial, final = 1.66967e-17 1.66967e-17
  Final line search alpha, max atom move = 0.5 8.34836e-18
  Iterations, force evaluations = 1 2

Pair  time (%) = 2.79862e-05 (63.7421)
Neigh time (%) = 0 (0)
Comm  time (%) = 2.93856e-06 (6.69292)
Outpt time (%) = 0 (0)
Other time (%) = 1.29807e-05 (29.565)

Nlocal:    41 ave 41 max 41 min
Histogram: 1 0 0 0 0 0 0 0 0 0
Nghost:    185 ave 185 max 185 min
Histogram: 1 0 0 0 0 0 0 0 0 0
Neighs:    359 ave 359 max 359 min
Histogram: 1 0 0 0 0 0 0 0 0 0

Total # of neighbors = 359
Ave neighs/atom = 8.7561
Neighbor list builds = 0
Dangerous builds = 0
	# write_dump all atom ${dumpfile}
        next i
jump SELF loop1
        displace_atoms upper move 0.0 ${ystep1} 0.0 units lattice
        displace_atoms upper move 0.0 0.002 0.0 units lattice
        min_style ${style}
        min_style cg
        minimize ${etol} ${ftol} ${maxiter} ${maxeval}
        minimize 1e-12 ${ftol} ${maxiter} ${maxeval}
        minimize 1e-12 1e-08 ${maxiter} ${maxeval}
        minimize 1e-12 1e-08 10000 ${maxeval}
        minimize 1e-12 1e-08 10000 20000
WARNING: Resetting reneighboring criteria during minimization (../min.cpp:168)
Memory usage per processor = 3.35962 Mbytes
Step Temp PotEng Lx Ly Lz 
      13            0   -120.96482    1.1224537    38.937471    1.1224537 
      14            0   -120.96482    1.1224537    38.937471    1.1224537 
Loop time of 4.59404e-05 on 1 procs for 1 steps with 41 atoms

Minimization stats:
  Stopping criterion = linesearch alpha is zero
  Energy initial, next-to-last, final = 
        -120.964815371     -120.964815371     -120.964815371
  Force two-norm initial, final = 1.68277e-17 1.68277e-17
  Force max component initial, final = 1.51788e-17 1.51788e-17
  Final line search alpha, max atom move = 0.5 7.58942e-18
  Iterations, force evaluations = 1 2

Pair  time (%) = 2.88989e-05 (62.9053)
Neigh time (%) = 0 (0)
Comm  time (%) = 4.04881e-06 (8.81318)
Outpt time (%) = 0 (0)
Other time (%) = 1.29926e-05 (28.2815)

Nlocal:    41 ave 41 max 41 min
Histogram: 1 0 0 0 0 0 0 0 0 0
Nghost:    185 ave 185 max 185 min
Histogram: 1 0 0 0 0 0 0 0 0 0
Neighs:    359 ave 359 max 359 min
Histogram: 1 0 0 0 0 0 0 0 0 0

Total # of neighbors = 359
Ave neighs/atom = 8.7561
Neighbor list builds = 0
Dangerous builds = 0
	# write_dump all atom ${dumpfile}
        next i
jump SELF loop1
        displace_atoms upper move 0.0 ${ystep1} 0.0 units lattice
        displace_atoms upper move 0.0 0.002 0.0 units lattice
        min_style ${style}
        min_style cg
        minimize ${etol} ${ftol} ${maxiter} ${maxeval}
        minimize 1e-12 ${ftol} ${maxiter} ${maxeval}
        minimize 1e-12 1e-08 ${maxiter} ${maxeval}
        minimize 1e-12 1e-08 10000 ${maxeval}
        minimize 1e-12 1e-08 10000 20000
WARNING: Resetting reneighboring criteria during minimization (../min.cpp:168)
Memory usage per processor = 3.35962 Mbytes
Step Temp PotEng Lx Ly Lz 
      14            0   -120.95915    1.1224537     38.94136    1.1224537 
      15            0   -120.95915    1.1224537     38.94136    1.1224537 
Loop time of 4.49191e-05 on 1 procs for 1 steps with 41 atoms

Minimization stats:
  Stopping criterion = linesearch alpha is zero
  Energy initial, next-to-last, final = 
        -120.959151201     -120.959151201     -120.959151201
  Force two-norm initial, final = 1.81631e-17 1.81631e-17
  Force max component initial, final = 1.51788e-17 1.51788e-17
  Final line search alpha, max atom move = 0.5 7.58942e-18
  Iterations, force evaluations = 1 2

Pair  time (%) = 2.90273e-05 (64.6214)
Neigh time (%) = 0 (0)
Comm  time (%) = 3.82843e-06 (8.52296)
Outpt time (%) = 0 (0)
Other time (%) = 1.20633e-05 (26.8556)

Nlocal:    41 ave 41 max 41 min
Histogram: 1 0 0 0 0 0 0 0 0 0
Nghost:    185 ave 185 max 185 min
Histogram: 1 0 0 0 0 0 0 0 0 0
Neighs:    359 ave 359 max 359 min
Histogram: 1 0 0 0 0 0 0 0 0 0

Total # of neighbors = 359
Ave neighs/atom = 8.7561
Neighbor list builds = 0
Dangerous builds = 0
	# write_dump all atom ${dumpfile}
        next i
jump SELF loop1
        displace_atoms upper move 0.0 ${ystep1} 0.0 units lattice
        displace_atoms upper move 0.0 0.002 0.0 units lattice
        min_style ${style}
        min_style cg
        minimize ${etol} ${ftol} ${maxiter} ${maxeval}
        minimize 1e-12 ${ftol} ${maxiter} ${maxeval}
        minimize 1e-12 1e-08 ${maxiter} ${maxeval}
        minimize 1e-12 1e-08 10000 ${maxeval}
        minimize 1e-12 1e-08 10000 20000
WARNING: Resetting reneighboring criteria during minimization (../min.cpp:168)
Memory usage per processor = 3.35962 Mbytes
Step Temp PotEng Lx Ly Lz 
      15            0   -120.95313    1.1224537    38.945248    1.1224537 
      16            0   -120.95313    1.1224537    38.945248    1.1224537 
Loop time of 4.50775e-05 on 1 procs for 1 steps with 41 atoms

Minimization stats:
  Stopping criterion = linesearch alpha is zero
  Energy initial, next-to-last, final = 
        -120.953133304     -120.953133304     -120.953133304
  Force two-norm initial, final = 1.76461e-17 1.76461e-17
  Force max component initial, final = 1.51788e-17 1.51788e-17
  Final line search alpha, max atom move = 0.5 7.58942e-18
  Iterations, force evaluations = 1 2

Pair  time (%) = 2.90259e-05 (64.3912)
Neigh time (%) = 0 (0)
Comm  time (%) = 4.06406e-06 (9.01571)
Outpt time (%) = 0 (0)
Other time (%) = 1.19875e-05 (26.5931)

Nlocal:    41 ave 41 max 41 min
Histogram: 1 0 0 0 0 0 0 0 0 0
Nghost:    185 ave 185 max 185 min
Histogram: 1 0 0 0 0 0 0 0 0 0
Neighs:    359 ave 359 max 359 min
Histogram: 1 0 0 0 0 0 0 0 0 0

Total # of neighbors = 359
Ave neighs/atom = 8.7561
Neighbor list builds = 0
Dangerous builds = 0
	# write_dump all atom ${dumpfile}
        next i
jump SELF loop1
        displace_atoms upper move 0.0 ${ystep1} 0.0 units lattice
        displace_atoms upper move 0.0 0.002 0.0 units lattice
        min_style ${style}
        min_style cg
        minimize ${etol} ${ftol} ${maxiter} ${maxeval}
        minimize 1e-12 ${ftol} ${maxiter} ${maxeval}
        minimize 1e-12 1e-08 ${maxiter} ${maxeval}
        minimize 1e-12 1e-08 10000 ${maxeval}
        minimize 1e-12 1e-08 10000 20000
WARNING: Resetting reneighboring criteria during minimization (../min.cpp:168)
Memory usage per processor = 3.35962 Mbytes
Step Temp PotEng Lx Ly Lz 
      16            0   -120.94677    1.1224537    38.949136    1.1224537 
      17            0   -120.94677    1.1224537    38.949136    1.1224537 
Loop time of 4.61162e-05 on 1 procs for 1 steps with 41 atoms

Minimization stats:
  Stopping criterion = linesearch alpha is zero
  Energy initial, next-to-last, final = 
        -120.946774753     -120.946774753     -120.946774753
  Force two-norm initial, final = 1.55013e-17 1.55013e-17
  Force max component initial, final = 1.51788e-17 1.51788e-17
  Final line search alpha, max atom move = 0.5 7.58942e-18
  Iterations, force evaluations = 1 2

Pair  time (%) = 2.80887e-05 (60.9085)
Neigh time (%) = 0 (0)
Comm  time (%) = 4.81238e-06 (10.4353)
Outpt time (%) = 0 (0)
Other time (%) = 1.32151e-05 (28.6561)

Nlocal:    41 ave 41 max 41 min
Histogram: 1 0 0 0 0 0 0 0 0 0
Nghost:    185 ave 185 max 185 min
Histogram: 1 0 0 0 0 0 0 0 0 0
Neighs:    359 ave 359 max 359 min
Histogram: 1 0 0 0 0 0 0 0 0 0

Total # of neighbors = 359
Ave neighs/atom = 8.7561
Neighbor list builds = 0
Dangerous builds = 0
	# write_dump all atom ${dumpfile}
        next i
jump SELF loop1
        displace_atoms upper move 0.0 ${ystep1} 0.0 units lattice
        displace_atoms upper move 0.0 0.002 0.0 units lattice
        min_style ${style}
        min_style cg
        minimize ${etol} ${ftol} ${maxiter} ${maxeval}
        minimize 1e-12 ${ftol} ${maxiter} ${maxeval}
        minimize 1e-12 1e-08 ${maxiter} ${maxeval}
        minimize 1e-12 1e-08 10000 ${maxeval}
        minimize 1e-12 1e-08 10000 20000
WARNING: Resetting reneighboring criteria during minimization (../min.cpp:168)
Memory usage per processor = 3.35962 Mbytes
Step Temp PotEng Lx Ly Lz 
      17            0   -120.94009    1.1224537    38.953025    1.1224537 
      18            0   -120.94009    1.1224537    38.953025    1.1224537 
Loop time of 4.39504e-05 on 1 procs for 1 steps with 41 atoms

Minimization stats:
  Stopping criterion = linesearch alpha is zero
  Energy initial, next-to-last, final = 
        -120.940088362     -120.940088362     -120.940088362
  Force two-norm initial, final = 1.51837e-17 1.51837e-17
  Force max component initial, final = 1.51788e-17 1.51788e-17
  Final line search alpha, max atom move = 0.5 7.58942e-18
  Iterations, force evaluations = 1 2

Pair  time (%) = 2.78828e-05 (63.4414)
Neigh time (%) = 0 (0)
Comm  time (%) = 4.87734e-06 (11.0974)
Outpt time (%) = 0 (0)
Other time (%) = 1.11903e-05 (25.4612)

Nlocal:    41 ave 41 max 41 min
Histogram: 1 0 0 0 0 0 0 0 0 0
Nghost:    185 ave 185 max 185 min
Histogram: 1 0 0 0 0 0 0 0 0 0
Neighs:    359 ave 359 max 359 min
Histogram: 1 0 0 0 0 0 0 0 0 0

Total # of neighbors = 359
Ave neighs/atom = 8.7561
Neighbor list builds = 0
Dangerous builds = 0
	# write_dump all atom ${dumpfile}
        next i
jump SELF loop1
        displace_atoms upper move 0.0 ${ystep1} 0.0 units lattice
        displace_atoms upper move 0.0 0.002 0.0 units lattice
        min_style ${style}
        min_style cg
        minimize ${etol} ${ftol} ${maxiter} ${maxeval}
        minimize 1e-12 ${ftol} ${maxiter} ${maxeval}
        minimize 1e-12 1e-08 ${maxiter} ${maxeval}
        minimize 1e-12 1e-08 10000 ${maxeval}
        minimize 1e-12 1e-08 10000 20000
WARNING: Resetting reneighboring criteria during minimization (../min.cpp:168)
Memory usage per processor = 3.35962 Mbytes
Step Temp PotEng Lx Ly Lz 
      18            0   -120.93312    1.1224537    38.956913    1.1224537 
      19            0   -120.93312    1.1224537    38.956913    1.1224537 
Loop time of 4.49371e-05 on 1 procs for 1 steps with 41 atoms

Minimization stats:
  Stopping criterion = linesearch alpha is zero
  Energy initial, next-to-last, final = 
        -120.933121018     -120.933121018     -120.933121018
  Force two-norm initial, final = 1.90389e-17 1.90389e-17
  Force max component initial, final = 1.51788e-17 1.51788e-17
  Final line search alpha, max atom move = 0.5 7.58942e-18
  Iterations, force evaluations = 1 2

Pair  time (%) = 2.88893e-05 (64.2882)
Neigh time (%) = 0 (0)
Comm  time (%) = 3.98303e-06 (8.86357)
Outpt time (%) = 0 (0)
Other time (%) = 1.20648e-05 (26.8482)

Nlocal:    41 ave 41 max 41 min
Histogram: 1 0 0 0 0 0 0 0 0 0
Nghost:    185 ave 185 max 185 min
Histogram: 1 0 0 0 0 0 0 0 0 0
Neighs:    355 ave 355 max 355 min
Histogram: 1 0 0 0 0 0 0 0 0 0

Total # of neighbors = 355
Ave neighs/atom = 8.65854
Neighbor list builds = 0
Dangerous builds = 0
	# write_dump all atom ${dumpfile}
        next i
jump SELF loop1
        displace_atoms upper move 0.0 ${ystep1} 0.0 units lattice
        displace_atoms upper move 0.0 0.002 0.0 units lattice
        min_style ${style}
        min_style cg
        minimize ${etol} ${ftol} ${maxiter} ${maxeval}
        minimize 1e-12 ${ftol} ${maxiter} ${maxeval}
        minimize 1e-12 1e-08 ${maxiter} ${maxeval}
        minimize 1e-12 1e-08 10000 ${maxeval}
        minimize 1e-12 1e-08 10000 20000
WARNING: Resetting reneighboring criteria during minimization (../min.cpp:168)
Memory usage per processor = 3.35962 Mbytes
Step Temp PotEng Lx Ly Lz 
      19            0   -120.92611    1.1224537    38.960801    1.1224537 
      20            0   -120.92611    1.1224537    38.960801    1.1224537 
Loop time of 3.99949e-05 on 1 procs for 1 steps with 41 atoms

Minimization stats:
  Stopping criterion = linesearch alpha is zero
  Energy initial, next-to-last, final = 
        -120.926113234     -120.926113234     -120.926113234
  Force two-norm initial, final = 2.19702e-17 2.19702e-17
  Force max component initial, final = 1.58836e-17 1.58836e-17
  Final line search alpha, max atom move = 0.5 7.94178e-18
  Iterations, force evaluations = 1 2

Pair  time (%) = 2.57848e-05 (64.4702)
Neigh time (%) = 0 (0)
Comm  time (%) = 4.11202e-06 (10.2814)
Outpt time (%) = 0 (0)
Other time (%) = 1.00981e-05 (25.2484)

Nlocal:    41 ave 41 max 41 min
Histogram: 1 0 0 0 0 0 0 0 0 0
Nghost:    185 ave 185 max 185 min
Histogram: 1 0 0 0 0 0 0 0 0 0
Neighs:    355 ave 355 max 355 min
Histogram: 1 0 0 0 0 0 0 0 0 0

Total # of neighbors = 355
Ave neighs/atom = 8.65854
Neighbor list builds = 0
Dangerous builds = 0
	# write_dump all atom ${dumpfile}
        next i
jump SELF loop1
        displace_atoms upper move 0.0 ${ystep1} 0.0 units lattice
        displace_atoms upper move 0.0 0.002 0.0 units lattice
        min_style ${style}
        min_style cg
        minimize ${etol} ${ftol} ${maxiter} ${maxeval}
        minimize 1e-12 ${ftol} ${maxiter} ${maxeval}
        minimize 1e-12 1e-08 ${maxiter} ${maxeval}
        minimize 1e-12 1e-08 10000 ${maxeval}
        minimize 1e-12 1e-08 10000 20000
WARNING: Resetting reneighboring criteria during minimization (../min.cpp:168)
Memory usage per processor = 3.35962 Mbytes
Step Temp PotEng Lx Ly Lz 
      20            0   -120.91911    1.1224537    38.964689    1.1224537 
      21            0   -120.91911    1.1224537    38.964689    1.1224537 
Loop time of 3.98903e-05 on 1 procs for 1 steps with 41 atoms

Minimization stats:
  Stopping criterion = linesearch alpha is zero
  Energy initial, next-to-last, final = 
        -120.919111091     -120.919111091     -120.919111091
  Force two-norm initial, final = 2.15047e-17 2.15047e-17
  Force max component initial, final = 1.5233e-17 1.5233e-17
  Final line search alpha, max atom move = 0.5 7.61652e-18
  Iterations, force evaluations = 1 2

Pair  time (%) = 2.5186e-05 (63.1381)
Neigh time (%) = 0 (0)
Comm  time (%) = 4.00678e-06 (10.0445)
Outpt time (%) = 0 (0)
Other time (%) = 1.06975e-05 (26.8174)

Nlocal:    41 ave 41 max 41 min
Histogram: 1 0 0 0 0 0 0 0 0 0
Nghost:    185 ave 185 max 185 min
Histogram: 1 0 0 0 0 0 0 0 0 0
Neighs:    355 ave 355 max 355 min
Histogram: 1 0 0 0 0 0 0 0 0 0

Total # of neighbors = 355
Ave neighs/atom = 8.65854
Neighbor list builds = 0
Dangerous builds = 0
	# write_dump all atom ${dumpfile}
        next i
jump SELF loop1
        displace_atoms upper move 0.0 ${ystep1} 0.0 units lattice
        displace_atoms upper move 0.0 0.002 0.0 units lattice
        min_style ${style}
        min_style cg
        minimize ${etol} ${ftol} ${maxiter} ${maxeval}
        minimize 1e-12 ${ftol} ${maxiter} ${maxeval}
        minimize 1e-12 1e-08 ${maxiter} ${maxeval}
        minimize 1e-12 1e-08 10000 ${maxeval}
        minimize 1e-12 1e-08 10000 20000
WARNING: Resetting reneighboring criteria during minimization (../min.cpp:168)
Memory usage per processor = 3.35962 Mbytes
Step Temp PotEng Lx Ly Lz 
      21            0   -120.91211    1.1224537    38.968578    1.1224537 
      22            0   -120.91211    1.1224537    38.968578    1.1224537 
Loop time of 4.29042e-05 on 1 procs for 1 steps with 41 atoms

Minimization stats:
  Stopping criterion = linesearch alpha is zero
  Energy initial, next-to-last, final = 
        -120.912113136     -120.912113136     -120.912113136
  Force two-norm initial, final = 3.1445e-17 3.1445e-17
  Force max component initial, final = 2.75387e-17 2.75387e-17
  Final line search alpha, max atom move = 0.5 1.37694e-17
  Iterations, force evaluations = 1 2

Pair  time (%) = 2.58897e-05 (60.3431)
Neigh time (%) = 0 (0)
Comm  time (%) = 4.36814e-06 (10.1811)
Outpt time (%) = 0 (0)
Other time (%) = 1.26463e-05 (29.4757)

Nlocal:    41 ave 41 max 41 min
Histogram: 1 0 0 0 0 0 0 0 0 0
Nghost:    185 ave 185 max 185 min
Histogram: 1 0 0 0 0 0 0 0 0 0
Neighs:    355 ave 355 max 355 min
Histogram: 1 0 0 0 0 0 0 0 0 0

Total # of neighbors = 355
Ave neighs/atom = 8.65854
Neighbor list builds = 0
Dangerous builds = 0
	# write_dump all atom ${dumpfile}
        next i
jump SELF loop1
        displace_atoms upper move 0.0 ${ystep1} 0.0 units lattice
        displace_atoms upper move 0.0 0.002 0.0 units lattice
        min_style ${style}
        min_style cg
        minimize ${etol} ${ftol} ${maxiter} ${maxeval}
        minimize 1e-12 ${ftol} ${maxiter} ${maxeval}
        minimize 1e-12 1e-08 ${maxiter} ${maxeval}
        minimize 1e-12 1e-08 10000 ${maxeval}
        minimize 1e-12 1e-08 10000 20000
WARNING: Resetting reneighboring criteria during minimization (../min.cpp:168)
Memory usage per processor = 3.35962 Mbytes
Step Temp PotEng Lx Ly Lz 
      22            0   -120.90512    1.1224537    38.972466    1.1224537 
      23            0   -120.90512    1.1224537    38.972466    1.1224537 
Loop time of 4.3042e-05 on 1 procs for 1 steps with 41 atoms

Minimization stats:
  Stopping criterion = linesearch alpha is zero
  Energy initial, next-to-last, final = 
        -120.905118031     -120.905118031     -120.905118031
  Force two-norm initial, final = 2.4045e-17 2.4045e-17
  Force max component initial, final = 1.86483e-17 1.86483e-17
  Final line search alpha, max atom move = 0.5 9.32414e-18
  Iterations, force evaluations = 1 2

Pair  time (%) = 2.61113e-05 (60.6646)
Neigh time (%) = 0 (0)
Comm  time (%) = 5.85744e-06 (13.6087)
Outpt time (%) = 0 (0)
Other time (%) = 1.10733e-05 (25.7268)

Nlocal:    41 ave 41 max 41 min
Histogram: 1 0 0 0 0 0 0 0 0 0
Nghost:    185 ave 185 max 185 min
Histogram: 1 0 0 0 0 0 0 0 0 0
Neighs:    355 ave 355 max 355 min
Histogram: 1 0 0 0 0 0 0 0 0 0

Total # of neighbors = 355
Ave neighs/atom = 8.65854
Neighbor list builds = 0
Dangerous builds = 0
	# write_dump all atom ${dumpfile}
        next i
jump SELF loop1
        displace_atoms upper move 0.0 ${ystep1} 0.0 units lattice
        displace_atoms upper move 0.0 0.002 0.0 units lattice
        min_style ${style}
        min_style cg
        minimize ${etol} ${ftol} ${maxiter} ${maxeval}
        minimize 1e-12 ${ftol} ${maxiter} ${maxeval}
        minimize 1e-12 1e-08 ${maxiter} ${maxeval}
        minimize 1e-12 1e-08 10000 ${maxeval}
        minimize 1e-12 1e-08 10000 20000
WARNING: Resetting reneighboring criteria during minimization (../min.cpp:168)
Memory usage per processor = 3.35962 Mbytes
Step Temp PotEng Lx Ly Lz 
      23            0   -120.89812    1.1224537    38.976354    1.1224537 
      24            0   -120.89812    1.1224537    38.976354    1.1224537 
Loop time of 4.80004e-05 on 1 procs for 1 steps with 41 atoms

Minimization stats:
  Stopping criterion = linesearch alpha is zero
  Energy initial, next-to-last, final = 
        -120.898124433     -120.898124433     -120.898124433
  Force two-norm initial, final = 2.19311e-17 2.19311e-17
  Force max component initial, final = 1.58294e-17 1.58294e-17
  Final line search alpha, max atom move = 0.5 7.91468e-18
  Iterations, force evaluations = 1 2

Pair  time (%) = 2.88937e-05 (60.1948)
Neigh time (%) = 0 (0)
Comm  time (%) = 4.94556e-06 (10.3032)
Outpt time (%) = 0 (0)
Other time (%) = 1.41611e-05 (29.5021)

Nlocal:    41 ave 41 max 41 min
Histogram: 1 0 0 0 0 0 0 0 0 0
Nghost:    185 ave 185 max 185 min
Histogram: 1 0 0 0 0 0 0 0 0 0
Neighs:    355 ave 355 max 355 min
Histogram: 1 0 0 0 0 0 0 0 0 0

Total # of neighbors = 355
Ave neighs/atom = 8.65854
Neighbor list builds = 0
Dangerous builds = 0
	# write_dump all atom ${dumpfile}
        next i
jump SELF loop1
        displace_atoms upper move 0.0 ${ystep1} 0.0 units lattice
        displace_atoms upper move 0.0 0.002 0.0 units lattice
        min_style ${style}
        min_style cg
        minimize ${etol} ${ftol} ${maxiter} ${maxeval}
        minimize 1e-12 ${ftol} ${maxiter} ${maxeval}
        minimize 1e-12 1e-08 ${maxiter} ${maxeval}
        minimize 1e-12 1e-08 10000 ${maxeval}
        minimize 1e-12 1e-08 10000 20000
WARNING: Resetting reneighboring criteria during minimization (../min.cpp:168)
Memory usage per processor = 3.35962 Mbytes
Step Temp PotEng Lx Ly Lz 
      24            0   -120.89113    1.1224537    38.980243    1.1224537 
      25            0   -120.89113    1.1224537    38.980243    1.1224537 
Loop time of 4.40514e-05 on 1 procs for 1 steps with 41 atoms

Minimization stats:
  Stopping criterion = linesearch alpha is zero
  Energy initial, next-to-last, final = 
        -120.891130858     -120.891130858     -120.891130858
  Force two-norm initial, final = 1.66009e-17 1.66009e-17
  Force max component initial, final = 1.51788e-17 1.51788e-17
  Final line search alpha, max atom move = 0.5 7.58942e-18
  Iterations, force evaluations = 1 2

Pair  time (%) = 2.51858e-05 (57.1735)
Neigh time (%) = 0 (0)
Comm  time (%) = 5.9139e-06 (13.425)
Outpt time (%) = 0 (0)
Other time (%) = 1.29518e-05 (29.4015)

Nlocal:    41 ave 41 max 41 min
Histogram: 1 0 0 0 0 0 0 0 0 0
Nghost:    185 ave 185 max 185 min
Histogram: 1 0 0 0 0 0 0 0 0 0
Neighs:    355 ave 355 max 355 min
Histogram: 1 0 0 0 0 0 0 0 0 0

Total # of neighbors = 355
Ave neighs/atom = 8.65854
Neighbor list builds = 0
Dangerous builds = 0
	# write_dump all atom ${dumpfile}
        next i
jump SELF loop1
        displace_atoms upper move 0.0 ${ystep1} 0.0 units lattice
        displace_atoms upper move 0.0 0.002 0.0 units lattice
        min_style ${style}
        min_style cg
        minimize ${etol} ${ftol} ${maxiter} ${maxeval}
        minimize 1e-12 ${ftol} ${maxiter} ${maxeval}
        minimize 1e-12 1e-08 ${maxiter} ${maxeval}
        minimize 1e-12 1e-08 10000 ${maxeval}
        minimize 1e-12 1e-08 10000 20000
WARNING: Resetting reneighboring criteria during minimization (../min.cpp:168)
Memory usage per processor = 3.35962 Mbytes
Step Temp PotEng Lx Ly Lz 
      25            0   -120.88414    1.1224537    38.984131    1.1224537 
      26            0   -120.88414    1.1224537    38.984131    1.1224537 
Loop time of 3.99264e-05 on 1 procs for 1 steps with 41 atoms

Minimization stats:
  Stopping criterion = linesearch alpha is zero
  Energy initial, next-to-last, final = 
        -120.884135867     -120.884135867     -120.884135867
  Force two-norm initial, final = 1.54387e-17 1.54387e-17
  Force max component initial, final = 1.51788e-17 1.51788e-17
  Final line search alpha, max atom move = 0.5 7.58942e-18
  Iterations, force evaluations = 1 2

Pair  time (%) = 2.52941e-05 (63.3519)
Neigh time (%) = 0 (0)
Comm  time (%) = 5.13066e-06 (12.8503)
Outpt time (%) = 0 (0)
Other time (%) = 9.50159e-06 (23.7978)

Nlocal:    41 ave 41 max 41 min
Histogram: 1 0 0 0 0 0 0 0 0 0
Nghost:    185 ave 185 max 185 min
Histogram: 1 0 0 0 0 0 0 0 0 0
Neighs:    355 ave 355 max 355 min
Histogram: 1 0 0 0 0 0 0 0 0 0

Total # of neighbors = 355
Ave neighs/atom = 8.65854
Neighbor list builds = 0
Dangerous builds = 0
	# write_dump all atom ${dumpfile}
        next i
jump SELF loop1
        displace_atoms upper move 0.0 ${ystep1} 0.0 units lattice
        displace_atoms upper move 0.0 0.002 0.0 units lattice
        min_style ${style}
        min_style cg
        minimize ${etol} ${ftol} ${maxiter} ${maxeval}
        minimize 1e-12 ${ftol} ${maxiter} ${maxeval}
        minimize 1e-12 1e-08 ${maxiter} ${maxeval}
        minimize 1e-12 1e-08 10000 ${maxeval}
        minimize 1e-12 1e-08 10000 20000
WARNING: Resetting reneighboring criteria during minimization (../min.cpp:168)
Memory usage per processor = 3.35962 Mbytes
Step Temp PotEng Lx Ly Lz 
      26            0   -120.87714    1.1224537    38.988019    1.1224537 
      27            0   -120.87714    1.1224537    38.988019    1.1224537 
Loop time of 4.00996e-05 on 1 procs for 1 steps with 41 atoms

Minimization stats:
  Stopping criterion = linesearch alpha is zero
  Energy initial, next-to-last, final = 
         -120.87713803      -120.87713803      -120.87713803
  Force two-norm initial, final = 3.08769e-17 3.08769e-17
  Force max component initial, final = 2.68882e-17 2.68882e-17
  Final line search alpha, max atom move = 0.5 1.34441e-17
  Iterations, force evaluations = 1 2

Pair  time (%) = 2.51913e-05 (62.8219)
Neigh time (%) = 0 (0)
Comm  time (%) = 1.97126e-06 (4.91591)
Outpt time (%) = 0 (0)
Other time (%) = 1.2937e-05 (32.2622)

Nlocal:    41 ave 41 max 41 min
Histogram: 1 0 0 0 0 0 0 0 0 0
Nghost:    185 ave 185 max 185 min
Histogram: 1 0 0 0 0 0 0 0 0 0
Neighs:    355 ave 355 max 355 min
Histogram: 1 0 0 0 0 0 0 0 0 0

Total # of neighbors = 355
Ave neighs/atom = 8.65854
Neighbor list builds = 0
Dangerous builds = 0
	# write_dump all atom ${dumpfile}
        next i
jump SELF loop1
        displace_atoms upper move 0.0 ${ystep1} 0.0 units lattice
        displace_atoms upper move 0.0 0.002 0.0 units lattice
        min_style ${style}
        min_style cg
        minimize ${etol} ${ftol} ${maxiter} ${maxeval}
        minimize 1e-12 ${ftol} ${maxiter} ${maxeval}
        minimize 1e-12 1e-08 ${maxiter} ${maxeval}
        minimize 1e-12 1e-08 10000 ${maxeval}
        minimize 1e-12 1e-08 10000 20000
WARNING: Resetting reneighboring criteria during minimization (../min.cpp:168)
Memory usage per processor = 3.35962 Mbytes
Step Temp PotEng Lx Ly Lz 
      27            0   -120.87014    1.1224537    38.991908    1.1224537 
      28            0   -120.87014    1.1224537    38.991908    1.1224537 
Loop time of 4.00863e-05 on 1 procs for 1 steps with 41 atoms

Minimization stats:
  Stopping criterion = linesearch alpha is zero
  Energy initial, next-to-last, final = 
        -120.870135903     -120.870135903     -120.870135903
  Force two-norm initial, final = 2.0567e-17 2.0567e-17
  Force max component initial, final = 1.51788e-17 1.51788e-17
  Final line search alpha, max atom move = 0.5 7.58942e-18
  Iterations, force evaluations = 1 2

Pair  time (%) = 2.51515e-05 (62.7434)
Neigh time (%) = 0 (0)
Comm  time (%) = 1.89175e-06 (4.71919)
Outpt time (%) = 0 (0)
Other time (%) = 1.30431e-05 (32.5374)

Nlocal:    41 ave 41 max 41 min
Histogram: 1 0 0 0 0 0 0 0 0 0
Nghost:    185 ave 185 max 185 min
Histogram: 1 0 0 0 0 0 0 0 0 0
Neighs:    355 ave 355 max 355 min
Histogram: 1 0 0 0 0 0 0 0 0 0

Total # of neighbors = 355
Ave neighs/atom = 8.65854
Neighbor list builds = 0
Dangerous builds = 0
	# write_dump all atom ${dumpfile}
        next i
jump SELF loop1
        displace_atoms upper move 0.0 ${ystep1} 0.0 units lattice
        displace_atoms upper move 0.0 0.002 0.0 units lattice
        min_style ${style}
        min_style cg
        minimize ${etol} ${ftol} ${maxiter} ${maxeval}
        minimize 1e-12 ${ftol} ${maxiter} ${maxeval}
        minimize 1e-12 1e-08 ${maxiter} ${maxeval}
        minimize 1e-12 1e-08 10000 ${maxeval}
        minimize 1e-12 1e-08 10000 20000
WARNING: Resetting reneighboring criteria during minimization (../min.cpp:168)
Memory usage per processor = 3.35962 Mbytes
Step Temp PotEng Lx Ly Lz 
      28            0   -120.86313    1.1224537    38.995796    1.1224537 
      29            0   -120.86313    1.1224537    38.995796    1.1224537 
Loop time of 4.00279e-05 on 1 procs for 1 steps with 41 atoms

Minimization stats:
  Stopping criterion = linesearch alpha is zero
  Energy initial, next-to-last, final = 
        -120.863128205     -120.863128205     -120.863128205
  Force two-norm initial, final = 2.48954e-17 2.48954e-17
  Force max component initial, final = 1.97325e-17 1.97325e-17
  Final line search alpha, max atom move = 0.5 9.86624e-18
  Iterations, force evaluations = 1 2

Pair  time (%) = 2.49301e-05 (62.2818)
Neigh time (%) = 0 (0)
Comm  time (%) = 2.92552e-06 (7.3087)
Outpt time (%) = 0 (0)
Other time (%) = 1.21723e-05 (30.4095)

Nlocal:    41 ave 41 max 41 min
Histogram: 1 0 0 0 0 0 0 0 0 0
Nghost:    185 ave 185 max 185 min
Histogram: 1 0 0 0 0 0 0 0 0 0
Neighs:    355 ave 355 max 355 min
Histogram: 1 0 0 0 0 0 0 0 0 0

Total # of neighbors = 355
Ave neighs/atom = 8.65854
Neighbor list builds = 0
Dangerous builds = 0
	# write_dump all atom ${dumpfile}
        next i
jump SELF loop1
        displace_atoms upper move 0.0 ${ystep1} 0.0 units lattice
        displace_atoms upper move 0.0 0.002 0.0 units lattice
        min_style ${style}
        min_style cg
        minimize ${etol} ${ftol} ${maxiter} ${maxeval}
        minimize 1e-12 ${ftol} ${maxiter} ${maxeval}
        minimize 1e-12 1e-08 ${maxiter} ${maxeval}
        minimize 1e-12 1e-08 10000 ${maxeval}
        minimize 1e-12 1e-08 10000 20000
WARNING: Resetting reneighboring criteria during minimization (../min.cpp:168)
Memory usage per processor = 3.35962 Mbytes
Step Temp PotEng Lx Ly Lz 
      29            0   -120.85611    1.1224537    38.999684    1.1224537 
      30            0   -120.85611    1.1224537    38.999684    1.1224537 
Loop time of 3.90159e-05 on 1 procs for 1 steps with 41 atoms

Minimization stats:
  Stopping criterion = linesearch alpha is zero
  Energy initial, next-to-last, final = 
        -120.856113312     -120.856113312     -120.856113312
  Force two-norm initial, final = 2.26456e-17 2.26456e-17
  Force max component initial, final = 1.68051e-17 1.68051e-17
  Final line search alpha, max atom move = 0.5 8.40257e-18
  Iterations, force evaluations = 1 2

Pair  time (%) = 2.48012e-05 (63.567)
Neigh time (%) = 0 (0)
Comm  time (%) = 4.14485e-06 (10.6235)
Outpt time (%) = 0 (0)
Other time (%) = 1.00698e-05 (25.8095)

Nlocal:    41 ave 41 max 41 min
Histogram: 1 0 0 0 0 0 0 0 0 0
Nghost:    185 ave 185 max 185 min
Histogram: 1 0 0 0 0 0 0 0 0 0
Neighs:    355 ave 355 max 355 min
Histogram: 1 0 0 0 0 0 0 0 0 0

Total # of neighbors = 355
Ave neighs/atom = 8.65854
Neighbor list builds = 0
Dangerous builds = 0
	# write_dump all atom ${dumpfile}
        next i
jump SELF loop1
        displace_atoms upper move 0.0 ${ystep1} 0.0 units lattice
        displace_atoms upper move 0.0 0.002 0.0 units lattice
        min_style ${style}
        min_style cg
        minimize ${etol} ${ftol} ${maxiter} ${maxeval}
        minimize 1e-12 ${ftol} ${maxiter} ${maxeval}
        minimize 1e-12 1e-08 ${maxiter} ${maxeval}
        minimize 1e-12 1e-08 10000 ${maxeval}
        minimize 1e-12 1e-08 10000 20000
WARNING: Resetting reneighboring criteria during minimization (../min.cpp:168)
Memory usage per processor = 3.35962 Mbytes
Step Temp PotEng Lx Ly Lz 
      30            0   -120.84909    1.1224537    39.003572    1.1224537 
      31            0   -120.84909    1.1224537    39.003572    1.1224537 
Loop time of 3.90649e-05 on 1 procs for 1 steps with 41 atoms

Minimization stats:
  Stopping criterion = linesearch alpha is zero
  Energy initial, next-to-last, final = 
        -120.849089788     -120.849089788     -120.849089788
  Force two-norm initial, final = 2.94715e-17 2.94715e-17
  Force max component initial, final = 2.52619e-17 2.52619e-17
  Final line search alpha, max atom move = 0.5 1.2631e-17
  Iterations, force evaluations = 1 2

Pair  time (%) = 2.49484e-05 (63.8639)
Neigh time (%) = 0 (0)
Comm  time (%) = 3.72389e-06 (9.53258)
Outpt time (%) = 0 (0)
Other time (%) = 1.03926e-05 (26.6035)

Nlocal:    41 ave 41 max 41 min
Histogram: 1 0 0 0 0 0 0 0 0 0
Nghost:    185 ave 185 max 185 min
Histogram: 1 0 0 0 0 0 0 0 0 0
Neighs:    355 ave 355 max 355 min
Histogram: 1 0 0 0 0 0 0 0 0 0

Total # of neighbors = 355
Ave neighs/atom = 8.65854
Neighbor list builds = 0
Dangerous builds = 0
	# write_dump all atom ${dumpfile}
        next i
jump SELF loop1
        displace_atoms upper move 0.0 ${ystep1} 0.0 units lattice
        displace_atoms upper move 0.0 0.002 0.0 units lattice
        min_style ${style}
        min_style cg
        minimize ${etol} ${ftol} ${maxiter} ${maxeval}
        minimize 1e-12 ${ftol} ${maxiter} ${maxeval}
        minimize 1e-12 1e-08 ${maxiter} ${maxeval}
        minimize 1e-12 1e-08 10000 ${maxeval}
        minimize 1e-12 1e-08 10000 20000
WARNING: Resetting reneighboring criteria during minimization (../min.cpp:168)
Memory usage per processor = 3.35962 Mbytes
Step Temp PotEng Lx Ly Lz 
      31            0   -120.84206    1.1224537    39.007461    1.1224537 
      32            0   -120.84206    1.1224537    39.007461    1.1224537 
Loop time of 4.20742e-05 on 1 procs for 1 steps with 41 atoms

Minimization stats:
  Stopping criterion = linesearch alpha is zero
  Energy initial, next-to-last, final = 
        -120.842056261     -120.842056261     -120.842056261
  Force two-norm initial, final = 1.98864e-17 1.98864e-17
  Force max component initial, final = 1.51788e-17 1.51788e-17
  Final line search alpha, max atom move = 0.5 7.58942e-18
  Iterations, force evaluations = 1 2

Pair  time (%) = 2.52542e-05 (60.023)
Neigh time (%) = 0 (0)
Comm  time (%) = 4.05079e-06 (9.62771)
Outpt time (%) = 0 (0)
Other time (%) = 1.27692e-05 (30.3493)

Nlocal:    41 ave 41 max 41 min
Histogram: 1 0 0 0 0 0 0 0 0 0
Nghost:    185 ave 185 max 185 min
Histogram: 1 0 0 0 0 0 0 0 0 0
Neighs:    355 ave 355 max 355 min
Histogram: 1 0 0 0 0 0 0 0 0 0

Total # of neighbors = 355
Ave neighs/atom = 8.65854
Neighbor list builds = 0
Dangerous builds = 0
	# write_dump all atom ${dumpfile}
        next i
jump SELF loop1
        displace_atoms upper move 0.0 ${ystep1} 0.0 units lattice
        displace_atoms upper move 0.0 0.002 0.0 units lattice
        min_style ${style}
        min_style cg
        minimize ${etol} ${ftol} ${maxiter} ${maxeval}
        minimize 1e-12 ${ftol} ${maxiter} ${maxeval}
        minimize 1e-12 1e-08 ${maxiter} ${maxeval}
        minimize 1e-12 1e-08 10000 ${maxeval}
        minimize 1e-12 1e-08 10000 20000
WARNING: Resetting reneighboring criteria during minimization (../min.cpp:168)
Memory usage per processor = 3.35962 Mbytes
Step Temp PotEng Lx Ly Lz 
      32            0   -120.83501    1.1224537    39.011349    1.1224537 
      33            0   -120.83501    1.1224537    39.011349    1.1224537 
Loop time of 3.99423e-05 on 1 procs for 1 steps with 41 atoms

Minimization stats:
  Stopping criterion = linesearch alpha is zero
  Energy initial, next-to-last, final = 
        -120.835011204     -120.835011204     -120.835011204
  Force two-norm initial, final = 1.71186e-17 1.71186e-17
  Force max component initial, final = 1.51788e-17 1.51788e-17
  Final line search alpha, max atom move = 0.5 7.58942e-18
  Iterations, force evaluations = 1 2

Pair  time (%) = 2.51039e-05 (62.8504)
Neigh time (%) = 0 (0)
Comm  time (%) = 5.22682e-06 (13.0859)
Outpt time (%) = 0 (0)
Other time (%) = 9.6116e-06 (24.0637)

Nlocal:    41 ave 41 max 41 min
Histogram: 1 0 0 0 0 0 0 0 0 0
Nghost:    185 ave 185 max 185 min
Histogram: 1 0 0 0 0 0 0 0 0 0
Neighs:    355 ave 355 max 355 min
Histogram: 1 0 0 0 0 0 0 0 0 0

Total # of neighbors = 355
Ave neighs/atom = 8.65854
Neighbor list builds = 0
Dangerous builds = 0
	# write_dump all atom ${dumpfile}
        next i
jump SELF loop1
        displace_atoms upper move 0.0 ${ystep1} 0.0 units lattice
        displace_atoms upper move 0.0 0.002 0.0 units lattice
        min_style ${style}
        min_style cg
        minimize ${etol} ${ftol} ${maxiter} ${maxeval}
        minimize 1e-12 ${ftol} ${maxiter} ${maxeval}
        minimize 1e-12 1e-08 ${maxiter} ${maxeval}
        minimize 1e-12 1e-08 10000 ${maxeval}
        minimize 1e-12 1e-08 10000 20000
WARNING: Resetting reneighboring criteria during minimization (../min.cpp:168)
Memory usage per processor = 3.35962 Mbytes
Step Temp PotEng Lx Ly Lz 
      33            0   -120.82795    1.1224537    39.015237    1.1224537 
      34            0   -120.82795    1.1224537    39.015237    1.1224537 
Loop time of 4.00625e-05 on 1 procs for 1 steps with 41 atoms

Minimization stats:
  Stopping criterion = linesearch alpha is zero
  Energy initial, next-to-last, final = 
        -120.827953086     -120.827953086     -120.827953086
  Force two-norm initial, final = 2.51539e-17 2.51539e-17
  Force max component initial, final = 2.00577e-17 2.00577e-17
  Final line search alpha, max atom move = 0.5 1.00289e-17
  Iterations, force evaluations = 1 2

Pair  time (%) = 2.50337e-05 (62.4867)
Neigh time (%) = 0 (0)
Comm  time (%) = 2.65613e-06 (6.62998)
Outpt time (%) = 0 (0)
Other time (%) = 1.23726e-05 (30.8833)

Nlocal:    41 ave 41 max 41 min
Histogram: 1 0 0 0 0 0 0 0 0 0
Nghost:    185 ave 185 max 185 min
Histogram: 1 0 0 0 0 0 0 0 0 0
Neighs:    355 ave 355 max 355 min
Histogram: 1 0 0 0 0 0 0 0 0 0

Total # of neighbors = 355
Ave neighs/atom = 8.65854
Neighbor list builds = 0
Dangerous builds = 0
	# write_dump all atom ${dumpfile}
        next i
jump SELF loop1
        displace_atoms upper move 0.0 ${ystep1} 0.0 units lattice
        displace_atoms upper move 0.0 0.002 0.0 units lattice
        min_style ${style}
        min_style cg
        minimize ${etol} ${ftol} ${maxiter} ${maxeval}
        minimize 1e-12 ${ftol} ${maxiter} ${maxeval}
        minimize 1e-12 1e-08 ${maxiter} ${maxeval}
        minimize 1e-12 1e-08 10000 ${maxeval}
        minimize 1e-12 1e-08 10000 20000
WARNING: Resetting reneighboring criteria during minimization (../min.cpp:168)
Memory usage per processor = 3.35962 Mbytes
Step Temp PotEng Lx Ly Lz 
      34            0   -120.82088    1.1224537    39.019126    1.1224537 
      35            0   -120.82088    1.1224537    39.019126    1.1224537 
Loop time of 3.98844e-05 on 1 procs for 1 steps with 41 atoms

Minimization stats:
  Stopping criterion = linesearch alpha is zero
  Energy initial, next-to-last, final = 
        -120.820880556     -120.820880556     -120.820880556
  Force two-norm initial, final = 2.11997e-17 2.11997e-17
  Force max component initial, final = 1.51788e-17 1.51788e-17
  Final line search alpha, max atom move = 0.5 7.58942e-18
  Iterations, force evaluations = 1 2

Pair  time (%) = 2.52144e-05 (63.2188)
Neigh time (%) = 0 (0)
Comm  time (%) = 3.01749e-06 (7.56559)
Outpt time (%) = 0 (0)
Other time (%) = 1.16525e-05 (29.2157)

Nlocal:    41 ave 41 max 41 min
Histogram: 1 0 0 0 0 0 0 0 0 0
Nghost:    185 ave 185 max 185 min
Histogram: 1 0 0 0 0 0 0 0 0 0
Neighs:    355 ave 355 max 355 min
Histogram: 1 0 0 0 0 0 0 0 0 0

Total # of neighbors = 355
Ave neighs/atom = 8.65854
Neighbor list builds = 0
Dangerous builds = 0
	# write_dump all atom ${dumpfile}
        next i
jump SELF loop1
        displace_atoms upper move 0.0 ${ystep1} 0.0 units lattice
        displace_atoms upper move 0.0 0.002 0.0 units lattice
        min_style ${style}
        min_style cg
        minimize ${etol} ${ftol} ${maxiter} ${maxeval}
        minimize 1e-12 ${ftol} ${maxiter} ${maxeval}
        minimize 1e-12 1e-08 ${maxiter} ${maxeval}
        minimize 1e-12 1e-08 10000 ${maxeval}
        minimize 1e-12 1e-08 10000 20000
WARNING: Resetting reneighboring criteria during minimization (../min.cpp:168)
Memory usage per processor = 3.35962 Mbytes
Step Temp PotEng Lx Ly Lz 
      35            0   -120.81379    1.1224537    39.023014    1.1224537 
      36            0   -120.81379    1.1224537    39.023014    1.1224537 
Loop time of 4.00643e-05 on 1 procs for 1 steps with 41 atoms

Minimization stats:
  Stopping criterion = linesearch alpha is zero
  Energy initial, next-to-last, final = 
        -120.813791998     -120.813791998     -120.813791998
  Force two-norm initial, final = 1.61549e-17 1.61549e-17
  Force max component initial, final = 1.51788e-17 1.51788e-17
  Final line search alpha, max atom move = 0.5 7.58942e-18
  Iterations, force evaluations = 1 2

Pair  time (%) = 2.4993e-05 (62.3821)
Neigh time (%) = 0 (0)
Comm  time (%) = 4.52832e-06 (11.3026)
Outpt time (%) = 0 (0)
Other time (%) = 1.0543e-05 (26.3153)

Nlocal:    41 ave 41 max 41 min
Histogram: 1 0 0 0 0 0 0 0 0 0
Nghost:    185 ave 185 max 185 min
Histogram: 1 0 0 0 0 0 0 0 0 0
Neighs:    355 ave 355 max 355 min
Histogram: 1 0 0 0 0 0 0 0 0 0

Total # of neighbors = 355
Ave neighs/atom = 8.65854
Neighbor list builds = 0
Dangerous builds = 0
	# write_dump all atom ${dumpfile}
        next i
jump SELF loop1
        displace_atoms upper move 0.0 ${ystep1} 0.0 units lattice
        displace_atoms upper move 0.0 0.002 0.0 units lattice
        min_style ${style}
        min_style cg
        minimize ${etol} ${ftol} ${maxiter} ${maxeval}
        minimize 1e-12 ${ftol} ${maxiter} ${maxeval}
        minimize 1e-12 1e-08 ${maxiter} ${maxeval}
        minimize 1e-12 1e-08 10000 ${maxeval}
        minimize 1e-12 1e-08 10000 20000
WARNING: Resetting reneighboring criteria during minimization (../min.cpp:168)
Memory usage per processor = 3.35962 Mbytes
Step Temp PotEng Lx Ly Lz 
      36            0   -120.80669    1.1224537    39.026902    1.1224537 
      37            0   -120.80669    1.1224537    39.026902    1.1224537 
Loop time of 1.80986e-05 on 1 procs for 1 steps with 41 atoms

Minimization stats:
  Stopping criterion = linesearch alpha is zero
  Energy initial, next-to-last, final = 
        -120.806685993     -120.806685993     -120.806685993
  Force two-norm initial, final = 1.93374e-17 1.93374e-17
  Force max component initial, final = 1.51788e-17 1.51788e-17
  Final line search alpha, max atom move = 0.5 7.58942e-18
  Iterations, force evaluations = 1 2

Pair  time (%) = 1.20099e-05 (66.3579)
Neigh time (%) = 0 (0)
Comm  time (%) = 1.76777e-06 (9.76741)
Outpt time (%) = 0 (0)
Other time (%) = 4.32099e-06 (23.8747)

Nlocal:    41 ave 41 max 41 min
Histogram: 1 0 0 0 0 0 0 0 0 0
Nghost:    185 ave 185 max 185 min
Histogram: 1 0 0 0 0 0 0 0 0 0
Neighs:    355 ave 355 max 355 min
Histogram: 1 0 0 0 0 0 0 0 0 0

Total # of neighbors = 355
Ave neighs/atom = 8.65854
Neighbor list builds = 0
Dangerous builds = 0
	# write_dump all atom ${dumpfile}
        next i
jump SELF loop1
        displace_atoms upper move 0.0 ${ystep1} 0.0 units lattice
        displace_atoms upper move 0.0 0.002 0.0 units lattice
        min_style ${style}
        min_style cg
        minimize ${etol} ${ftol} ${maxiter} ${maxeval}
        minimize 1e-12 ${ftol} ${maxiter} ${maxeval}
        minimize 1e-12 1e-08 ${maxiter} ${maxeval}
        minimize 1e-12 1e-08 10000 ${maxeval}
        minimize 1e-12 1e-08 10000 20000
WARNING: Resetting reneighboring criteria during minimization (../min.cpp:168)
Memory usage per processor = 3.35962 Mbytes
Step Temp PotEng Lx Ly Lz 
      37            0   -120.79956    1.1224537     39.03079    1.1224537 
      38            0   -120.79956    1.1224537     39.03079    1.1224537 
Loop time of 3.9115e-05 on 1 procs for 1 steps with 41 atoms

Minimization stats:
  Stopping criterion = linesearch alpha is zero
  Energy initial, next-to-last, final = 
        -120.799560983     -120.799560983     -120.799560983
  Force two-norm initial, final = 1.70688e-17 1.70688e-17
  Force max component initial, final = 1.51788e-17 1.51788e-17
  Final line search alpha, max atom move = 0.5 7.58942e-18
  Iterations, force evaluations = 1 2

Pair  time (%) = 2.60983e-05 (66.7221)
Neigh time (%) = 0 (0)
Comm  time (%) = 3.83169e-06 (9.79598)
Outpt time (%) = 0 (0)
Other time (%) = 9.18494e-06 (23.4819)

Nlocal:    41 ave 41 max 41 min
Histogram: 1 0 0 0 0 0 0 0 0 0
Nghost:    185 ave 185 max 185 min
Histogram: 1 0 0 0 0 0 0 0 0 0
Neighs:    355 ave 355 max 355 min
Histogram: 1 0 0 0 0 0 0 0 0 0

Total # of neighbors = 355
Ave neighs/atom = 8.65854
Neighbor list builds = 0
Dangerous builds = 0
	# write_dump all atom ${dumpfile}
        next i
jump SELF loop1
        displace_atoms upper move 0.0 ${ystep1} 0.0 units lattice
        displace_atoms upper move 0.0 0.002 0.0 units lattice
        min_style ${style}
        min_style cg
        minimize ${etol} ${ftol} ${maxiter} ${maxeval}
        minimize 1e-12 ${ftol} ${maxiter} ${maxeval}
        minimize 1e-12 1e-08 ${maxiter} ${maxeval}
        minimize 1e-12 1e-08 10000 ${maxeval}
        minimize 1e-12 1e-08 10000 20000
WARNING: Resetting reneighboring criteria during minimization (../min.cpp:168)
Memory usage per processor = 3.35962 Mbytes
Step Temp PotEng Lx Ly Lz 
      38            0   -120.79242    1.1224537    39.034679    1.1224537 
      39            0   -120.79242    1.1224537    39.034679    1.1224537 
Loop time of 4.00565e-05 on 1 procs for 1 steps with 41 atoms

Minimization stats:
  Stopping criterion = linesearch alpha is zero
  Energy initial, next-to-last, final = 
        -120.792415491     -120.792415491     -120.792415491
  Force two-norm initial, final = 1.52259e-17 1.52259e-17
  Force max component initial, final = 1.51788e-17 1.51788e-17
  Final line search alpha, max atom move = 0.5 7.58942e-18
  Iterations, force evaluations = 1 2

Pair  time (%) = 2.50159e-05 (62.4515)
Neigh time (%) = 0 (0)
Comm  time (%) = 2.62051e-06 (6.54203)
Outpt time (%) = 0 (0)
Other time (%) = 1.24201e-05 (31.0065)

Nlocal:    41 ave 41 max 41 min
Histogram: 1 0 0 0 0 0 0 0 0 0
Nghost:    185 ave 185 max 185 min
Histogram: 1 0 0 0 0 0 0 0 0 0
Neighs:    355 ave 355 max 355 min
Histogram: 1 0 0 0 0 0 0 0 0 0

Total # of neighbors = 355
Ave neighs/atom = 8.65854
Neighbor list builds = 0
Dangerous builds = 0
	# write_dump all atom ${dumpfile}
        next i
jump SELF loop1
        displace_atoms upper move 0.0 ${ystep1} 0.0 units lattice
        displace_atoms upper move 0.0 0.002 0.0 units lattice
        min_style ${style}
        min_style cg
        minimize ${etol} ${ftol} ${maxiter} ${maxeval}
        minimize 1e-12 ${ftol} ${maxiter} ${maxeval}
        minimize 1e-12 1e-08 ${maxiter} ${maxeval}
        minimize 1e-12 1e-08 10000 ${maxeval}
        minimize 1e-12 1e-08 10000 20000
WARNING: Resetting reneighboring criteria during minimization (../min.cpp:168)
Memory usage per processor = 3.35962 Mbytes
Step Temp PotEng Lx Ly Lz 
      39            0   -120.78525    1.1224537    39.038567    1.1224537 
      40            0   -120.78525    1.1224537    39.038567    1.1224537 
Loop time of 4.00433e-05 on 1 procs for 1 steps with 41 atoms

Minimization stats:
  Stopping criterion = linesearch alpha is zero
  Energy initial, next-to-last, final = 
        -120.785247996     -120.785247996     -120.785247996
  Force two-norm initial, final = 3.05941e-17 3.05941e-17
  Force max component initial, final = 2.6563e-17 2.6563e-17
  Final line search alpha, max atom move = 0.5 1.32815e-17
  Iterations, force evaluations = 1 2

Pair  time (%) = 2.58834e-05 (64.6387)
Neigh time (%) = 0 (0)
Comm  time (%) = 4.64031e-06 (11.5883)
Outpt time (%) = 0 (0)
Other time (%) = 9.51951e-06 (23.7731)

Nlocal:    41 ave 41 max 41 min
Histogram: 1 0 0 0 0 0 0 0 0 0
Nghost:    185 ave 185 max 185 min
Histogram: 1 0 0 0 0 0 0 0 0 0
Neighs:    355 ave 355 max 355 min
Histogram: 1 0 0 0 0 0 0 0 0 0

Total # of neighbors = 355
Ave neighs/atom = 8.65854
Neighbor list builds = 0
Dangerous builds = 0
	# write_dump all atom ${dumpfile}
        next i
jump SELF loop1
        displace_atoms upper move 0.0 ${ystep1} 0.0 units lattice
        displace_atoms upper move 0.0 0.002 0.0 units lattice
        min_style ${style}
        min_style cg
        minimize ${etol} ${ftol} ${maxiter} ${maxeval}
        minimize 1e-12 ${ftol} ${maxiter} ${maxeval}
        minimize 1e-12 1e-08 ${maxiter} ${maxeval}
        minimize 1e-12 1e-08 10000 ${maxeval}
        minimize 1e-12 1e-08 10000 20000
WARNING: Resetting reneighboring criteria during minimization (../min.cpp:168)
Memory usage per processor = 3.35962 Mbytes
Step Temp PotEng Lx Ly Lz 
      40            0   -120.77806    1.1224537    39.042455    1.1224537 
      41            0   -120.77806    1.1224537    39.042455    1.1224537 
Loop time of 7.41165e-05 on 1 procs for 1 steps with 41 atoms

Minimization stats:
  Stopping criterion = linesearch alpha is zero
  Energy initial, next-to-last, final = 
         -120.77805696      -120.77805696      -120.77805696
  Force two-norm initial, final = 2.75449e-17 2.75449e-17
  Force max component initial, final = 2.29851e-17 2.29851e-17
  Final line search alpha, max atom move = 0.5 1.14925e-17
  Iterations, force evaluations = 1 2

Pair  time (%) = 2.80433e-05 (37.8368)
Neigh time (%) = 0 (0)
Comm  time (%) = 4.76791e-06 (6.43299)
Outpt time (%) = 0 (0)
Other time (%) = 4.13053e-05 (55.7303)

Nlocal:    41 ave 41 max 41 min
Histogram: 1 0 0 0 0 0 0 0 0 0
Nghost:    185 ave 185 max 185 min
Histogram: 1 0 0 0 0 0 0 0 0 0
Neighs:    355 ave 355 max 355 min
Histogram: 1 0 0 0 0 0 0 0 0 0

Total # of neighbors = 355
Ave neighs/atom = 8.65854
Neighbor list builds = 0
Dangerous builds = 0
	# write_dump all atom ${dumpfile}
        next i
jump SELF loop1
        displace_atoms upper move 0.0 ${ystep1} 0.0 units lattice
        displace_atoms upper move 0.0 0.002 0.0 units lattice
        min_style ${style}
        min_style cg
        minimize ${etol} ${ftol} ${maxiter} ${maxeval}
        minimize 1e-12 ${ftol} ${maxiter} ${maxeval}
        minimize 1e-12 1e-08 ${maxiter} ${maxeval}
        minimize 1e-12 1e-08 10000 ${maxeval}
        minimize 1e-12 1e-08 10000 20000
WARNING: Resetting reneighboring criteria during minimization (../min.cpp:168)
Memory usage per processor = 3.35962 Mbytes
Step Temp PotEng Lx Ly Lz 
      41            0   -120.77084    1.1224537    39.046344    1.1224537 
      42            0   -120.77084    1.1224537    39.046344    1.1224537 
Loop time of 4.30385e-05 on 1 procs for 1 steps with 41 atoms

Minimization stats:
  Stopping criterion = linesearch alpha is zero
  Energy initial, next-to-last, final = 
        -120.770840862     -120.770840862     -120.770840862
  Force two-norm initial, final = 2.55011e-17 2.55011e-17
  Force max component initial, final = 2.04914e-17 2.04914e-17
  Final line search alpha, max atom move = 0.5 1.02457e-17
  Iterations, force evaluations = 1 2

Pair  time (%) = 2.70546e-05 (62.8613)
Neigh time (%) = 0 (0)
Comm  time (%) = 2.79036e-06 (6.4834)
Outpt time (%) = 0 (0)
Other time (%) = 1.31936e-05 (30.6553)

Nlocal:    41 ave 41 max 41 min
Histogram: 1 0 0 0 0 0 0 0 0 0
Nghost:    185 ave 185 max 185 min
Histogram: 1 0 0 0 0 0 0 0 0 0
Neighs:    355 ave 355 max 355 min
Histogram: 1 0 0 0 0 0 0 0 0 0

Total # of neighbors = 355
Ave neighs/atom = 8.65854
Neighbor list builds = 0
Dangerous builds = 0
	# write_dump all atom ${dumpfile}
        next i
jump SELF loop1
        displace_atoms upper move 0.0 ${ystep1} 0.0 units lattice
        displace_atoms upper move 0.0 0.002 0.0 units lattice
        min_style ${style}
        min_style cg
        minimize ${etol} ${ftol} ${maxiter} ${maxeval}
        minimize 1e-12 ${ftol} ${maxiter} ${maxeval}
        minimize 1e-12 1e-08 ${maxiter} ${maxeval}
        minimize 1e-12 1e-08 10000 ${maxeval}
        minimize 1e-12 1e-08 10000 20000
WARNING: Resetting reneighboring criteria during minimization (../min.cpp:168)
Memory usage per processor = 3.35962 Mbytes
Step Temp PotEng Lx Ly Lz 
      42            0    -120.7636    1.1224537    39.050232    1.1224537 
      43            0    -120.7636    1.1224537    39.050232    1.1224537 
Loop time of 4.10388e-05 on 1 procs for 1 steps with 41 atoms

Minimization stats:
  Stopping criterion = linesearch alpha is zero
  Energy initial, next-to-last, final = 
        -120.763598159     -120.763598159     -120.763598159
  Force two-norm initial, final = 3.03121e-17 3.03121e-17
  Force max component initial, final = 2.62377e-17 2.62377e-17
  Final line search alpha, max atom move = 0.5 1.31188e-17
  Iterations, force evaluations = 1 2

Pair  time (%) = 2.50092e-05 (60.9402)
Neigh time (%) = 0 (0)
Comm  time (%) = 3.7991e-06 (9.25732)
Outpt time (%) = 0 (0)
Other time (%) = 1.22306e-05 (29.8025)

Nlocal:    41 ave 41 max 41 min
Histogram: 1 0 0 0 0 0 0 0 0 0
Nghost:    185 ave 185 max 185 min
Histogram: 1 0 0 0 0 0 0 0 0 0
Neighs:    355 ave 355 max 355 min
Histogram: 1 0 0 0 0 0 0 0 0 0

Total # of neighbors = 355
Ave neighs/atom = 8.65854
Neighbor list builds = 0
Dangerous builds = 0
	# write_dump all atom ${dumpfile}
        next i
jump SELF loop1
        displace_atoms upper move 0.0 ${ystep1} 0.0 units lattice
        displace_atoms upper move 0.0 0.002 0.0 units lattice
        min_style ${style}
        min_style cg
        minimize ${etol} ${ftol} ${maxiter} ${maxeval}
        minimize 1e-12 ${ftol} ${maxiter} ${maxeval}
        minimize 1e-12 1e-08 ${maxiter} ${maxeval}
        minimize 1e-12 1e-08 10000 ${maxeval}
        minimize 1e-12 1e-08 10000 20000
WARNING: Resetting reneighboring criteria during minimization (../min.cpp:168)
Memory usage per processor = 3.35962 Mbytes
Step Temp PotEng Lx Ly Lz 
      43            0   -120.75633    1.1224537     39.05412    1.1224537 
      44            0   -120.75633    1.1224537     39.05412    1.1224537 
Loop time of 4.00459e-05 on 1 procs for 1 steps with 41 atoms

Minimization stats:
  Stopping criterion = linesearch alpha is zero
  Energy initial, next-to-last, final = 
        -120.756327316     -120.756327316     -120.756327316
  Force two-norm initial, final = 2.62032e-17 2.62032e-17
  Force max component initial, final = 2.13588e-17 2.13588e-17
  Final line search alpha, max atom move = 0.5 1.06794e-17
  Iterations, force evaluations = 1 2

Pair  time (%) = 2.59378e-05 (64.7701)
Neigh time (%) = 0 (0)
Comm  time (%) = 3.70271e-06 (9.24615)
Outpt time (%) = 0 (0)
Other time (%) = 1.04054e-05 (25.9837)

Nlocal:    41 ave 41 max 41 min
Histogram: 1 0 0 0 0 0 0 0 0 0
Nghost:    185 ave 185 max 185 min
Histogram: 1 0 0 0 0 0 0 0 0 0
Neighs:    355 ave 355 max 355 min
Histogram: 1 0 0 0 0 0 0 0 0 0

Total # of neighbors = 355
Ave neighs/atom = 8.65854
Neighbor list builds = 0
Dangerous builds = 0
	# write_dump all atom ${dumpfile}
        next i
jump SELF loop1
        displace_atoms upper move 0.0 ${ystep1} 0.0 units lattice
        displace_atoms upper move 0.0 0.002 0.0 units lattice
        min_style ${style}
        min_style cg
        minimize ${etol} ${ftol} ${maxiter} ${maxeval}
        minimize 1e-12 ${ftol} ${maxiter} ${maxeval}
        minimize 1e-12 1e-08 ${maxiter} ${maxeval}
        minimize 1e-12 1e-08 10000 ${maxeval}
        minimize 1e-12 1e-08 10000 20000
WARNING: Resetting reneighboring criteria during minimization (../min.cpp:168)
Memory usage per processor = 3.35962 Mbytes
Step Temp PotEng Lx Ly Lz 
      44            0   -120.74903    1.1224537    39.058009    1.1224537 
      45            0   -120.74903    1.1224537    39.058009    1.1224537 
Loop time of 3.98882e-05 on 1 procs for 1 steps with 41 atoms

Minimization stats:
  Stopping criterion = linesearch alpha is zero
  Energy initial, next-to-last, final = 
        -120.749026782     -120.749026782     -120.749026782
  Force two-norm initial, final = 1.57426e-17 1.57426e-17
  Force max component initial, final = 1.51788e-17 1.51788e-17
  Final line search alpha, max atom move = 0.5 7.58942e-18
  Iterations, force evaluations = 1 2

Pair  time (%) = 2.51796e-05 (63.1254)
Neigh time (%) = 0 (0)
Comm  time (%) = 3.94788e-06 (9.89735)
Outpt time (%) = 0 (0)
Other time (%) = 1.07607e-05 (26.9772)

Nlocal:    41 ave 41 max 41 min
Histogram: 1 0 0 0 0 0 0 0 0 0
Nghost:    185 ave 185 max 185 min
Histogram: 1 0 0 0 0 0 0 0 0 0
Neighs:    355 ave 355 max 355 min
Histogram: 1 0 0 0 0 0 0 0 0 0

Total # of neighbors = 355
Ave neighs/atom = 8.65854
Neighbor list builds = 0
Dangerous builds = 0
	# write_dump all atom ${dumpfile}
        next i
jump SELF loop1
        displace_atoms upper move 0.0 ${ystep1} 0.0 units lattice
        displace_atoms upper move 0.0 0.002 0.0 units lattice
        min_style ${style}
        min_style cg
        minimize ${etol} ${ftol} ${maxiter} ${maxeval}
        minimize 1e-12 ${ftol} ${maxiter} ${maxeval}
        minimize 1e-12 1e-08 ${maxiter} ${maxeval}
        minimize 1e-12 1e-08 10000 ${maxeval}
        minimize 1e-12 1e-08 10000 20000
WARNING: Resetting reneighboring criteria during minimization (../min.cpp:168)
Memory usage per processor = 3.35962 Mbytes
Step Temp PotEng Lx Ly Lz 
      45            0   -120.74169    1.1224537    39.061897    1.1224537 
      46            0   -120.74169    1.1224537    39.061897    1.1224537 
Loop time of 3.9962e-05 on 1 procs for 1 steps with 41 atoms

Minimization stats:
  Stopping criterion = linesearch alpha is zero
  Energy initial, next-to-last, final = 
        -120.741694993     -120.741694993     -120.741694993
  Force two-norm initial, final = 2.28879e-17 2.28879e-17
  Force max component initial, final = 1.71304e-17 1.71304e-17
  Final line search alpha, max atom move = 0.5 8.5652e-18
  Iterations, force evaluations = 1 2

Pair  time (%) = 2.47784e-05 (62.0049)
Neigh time (%) = 0 (0)
Comm  time (%) = 2.0992e-06 (5.25299)
Outpt time (%) = 0 (0)
Other time (%) = 1.30844e-05 (32.7421)

Nlocal:    41 ave 41 max 41 min
Histogram: 1 0 0 0 0 0 0 0 0 0
Nghost:    185 ave 185 max 185 min
Histogram: 1 0 0 0 0 0 0 0 0 0
Neighs:    355 ave 355 max 355 min
Histogram: 1 0 0 0 0 0 0 0 0 0

Total # of neighbors = 355
Ave neighs/atom = 8.65854
Neighbor list builds = 0
Dangerous builds = 0
	# write_dump all atom ${dumpfile}
        next i
jump SELF loop1
        displace_atoms upper move 0.0 ${ystep1} 0.0 units lattice
        displace_atoms upper move 0.0 0.002 0.0 units lattice
        min_style ${style}
        min_style cg
        minimize ${etol} ${ftol} ${maxiter} ${maxeval}
[...]
        min_style cg
        minimize ${etol} ${ftol} ${maxiter} ${maxeval}
        minimize 1e-12 ${ftol} ${maxiter} ${maxeval}
        minimize 1e-12 1e-08 ${maxiter} ${maxeval}
        minimize 1e-12 1e-08 10000 ${maxeval}
        minimize 1e-12 1e-08 10000 20000
WARNING: Resetting reneighboring criteria during minimization (../min.cpp:168)
Memory usage per processor = 3.35969 Mbytes
Step Temp PotEng Lx Ly Lz 
     491            0   -118.99997    1.1224537    40.796076    1.1224537 
     492            0   -118.99997    1.1224537    40.796076    1.1224537 
Loop time of 5.99384e-05 on 1 procs for 1 steps with 41 atoms

Minimization stats:
  Stopping criterion = linesearch alpha is zero
  Energy initial, next-to-last, final = 
        -118.999965529     -118.999965529     -118.999965529
  Force two-norm initial, final = 4.69473e-20 4.69473e-20
  Force max component initial, final = 2.71051e-20 2.71051e-20
  Final line search alpha, max atom move = 0.5 1.35525e-20
  Iterations, force evaluations = 1 2

Pair  time (%) = 3.10838e-05 (51.8596)
Neigh time (%) = 0 (0)
Comm  time (%) = 9.85584e-06 (16.4433)
Outpt time (%) = 0 (0)
Other time (%) = 1.89987e-05 (31.6971)

Nlocal:    41 ave 41 max 41 min
Histogram: 1 0 0 0 0 0 0 0 0 0
Nghost:    185 ave 185 max 185 min
Histogram: 1 0 0 0 0 0 0 0 0 0
Neighs:    349 ave 349 max 349 min
Histogram: 1 0 0 0 0 0 0 0 0 0

Total # of neighbors = 349
Ave neighs/atom = 8.5122
Neighbor list builds = 0
Dangerous builds = 0
	# write_dump all atom ${dumpfile}
        next i
jump SELF loop1
        displace_atoms upper move 0.0 ${ystep1} 0.0 units lattice
        displace_atoms upper move 0.0 0.002 0.0 units lattice
        min_style ${style}
        min_style cg
        minimize ${etol} ${ftol} ${maxiter} ${maxeval}
        minimize 1e-12 ${ftol} ${maxiter} ${maxeval}
        minimize 1e-12 1e-08 ${maxiter} ${maxeval}
        minimize 1e-12 1e-08 10000 ${maxeval}
        minimize 1e-12 1e-08 10000 20000
WARNING: Resetting reneighboring criteria during minimization (../min.cpp:168)
Memory usage per processor = 3.35969 Mbytes
Step Temp PotEng Lx Ly Lz 
     492            0   -118.99997    1.1224537    40.799964    1.1224537 
     493            0   -118.99997    1.1224537    40.799964    1.1224537 
Loop time of 3.80269e-05 on 1 procs for 1 steps with 41 atoms

Minimization stats:
  Stopping criterion = linesearch alpha is zero
  Energy initial, next-to-last, final = 
        -118.999965529     -118.999965529     -118.999965529
  Force two-norm initial, final = 5.42101e-20 5.42101e-20
  Force max component initial, final = 2.71051e-20 2.71051e-20
  Final line search alpha, max atom move = 0.5 1.35525e-20
  Iterations, force evaluations = 1 2

Pair  time (%) = 2.48809e-05 (65.4296)
Neigh time (%) = 0 (0)
Comm  time (%) = 4.82728e-06 (12.6944)
Outpt time (%) = 0 (0)
Other time (%) = 8.31881e-06 (21.8761)

Nlocal:    41 ave 41 max 41 min
Histogram: 1 0 0 0 0 0 0 0 0 0
Nghost:    185 ave 185 max 185 min
Histogram: 1 0 0 0 0 0 0 0 0 0
Neighs:    349 ave 349 max 349 min
Histogram: 1 0 0 0 0 0 0 0 0 0

Total # of neighbors = 349
Ave neighs/atom = 8.5122
Neighbor list builds = 0
Dangerous builds = 0
	# write_dump all atom ${dumpfile}
        next i
jump SELF loop1
        displace_atoms upper move 0.0 ${ystep1} 0.0 units lattice
        displace_atoms upper move 0.0 0.002 0.0 units lattice
        min_style ${style}
        min_style cg
        minimize ${etol} ${ftol} ${maxiter} ${maxeval}
        minimize 1e-12 ${ftol} ${maxiter} ${maxeval}
        minimize 1e-12 1e-08 ${maxiter} ${maxeval}
        minimize 1e-12 1e-08 10000 ${maxeval}
        minimize 1e-12 1e-08 10000 20000
WARNING: Resetting reneighboring criteria during minimization (../min.cpp:168)
Memory usage per processor = 3.35969 Mbytes
Step Temp PotEng Lx Ly Lz 
     493            0   -118.99997    1.1224537    40.803852    1.1224537 
     494            0   -118.99997    1.1224537    40.803852    1.1224537 
Loop time of 1.07964e-06 on 1 procs for 1 steps with 41 atoms

Minimization stats:
  Stopping criterion = linesearch alpha is zero
  Energy initial, next-to-last, final = 
        -118.999965529     -118.999965529     -118.999965529
  Force two-norm initial, final = 5.42101e-20 5.42101e-20
  Force max component initial, final = 2.71051e-20 2.71051e-20
  Final line search alpha, max atom move = 0.5 1.35525e-20
  Iterations, force evaluations = 1 2

Pair  time (%) = 1.04681e-06 (96.9592)
Neigh time (%) = 0 (0)
Comm  time (%) = -9.84874e-08 (-9.12228)
Outpt time (%) = 0 (0)
Other time (%) = 1.31316e-07 (12.163)

Nlocal:    41 ave 41 max 41 min
Histogram: 1 0 0 0 0 0 0 0 0 0
Nghost:    185 ave 185 max 185 min
Histogram: 1 0 0 0 0 0 0 0 0 0
Neighs:    349 ave 349 max 349 min
Histogram: 1 0 0 0 0 0 0 0 0 0

Total # of neighbors = 349
Ave neighs/atom = 8.5122
Neighbor list builds = 0
Dangerous builds = 0
	# write_dump all atom ${dumpfile}
        next i
jump SELF loop1
        displace_atoms upper move 0.0 ${ystep1} 0.0 units lattice
        displace_atoms upper move 0.0 0.002 0.0 units lattice
        min_style ${style}
        min_style cg
        minimize ${etol} ${ftol} ${maxiter} ${maxeval}
        minimize 1e-12 ${ftol} ${maxiter} ${maxeval}
        minimize 1e-12 1e-08 ${maxiter} ${maxeval}
        minimize 1e-12 1e-08 10000 ${maxeval}
        minimize 1e-12 1e-08 10000 20000
WARNING: Resetting reneighboring criteria during minimization (../min.cpp:168)
Memory usage per processor = 3.35969 Mbytes
Step Temp PotEng Lx Ly Lz 
     494            0   -118.99997    1.1224537    40.807741    1.1224537 
     495            0   -118.99997    1.1224537    40.807741    1.1224537 
Loop time of 3.99291e-05 on 1 procs for 1 steps with 41 atoms

Minimization stats:
  Stopping criterion = linesearch alpha is zero
  Energy initial, next-to-last, final = 
        -118.999965529     -118.999965529     -118.999965529
  Force two-norm initial, final = 5.42101e-20 5.42101e-20
  Force max component initial, final = 2.71051e-20 2.71051e-20
  Final line search alpha, max atom move = 0.5 1.35525e-20
  Iterations, force evaluations = 1 2

Pair  time (%) = 2.53023e-05 (63.3681)
Neigh time (%) = 0 (0)
Comm  time (%) = 5.19329e-06 (13.0063)
Outpt time (%) = 0 (0)
Other time (%) = 9.43348e-06 (23.6256)

Nlocal:    41 ave 41 max 41 min
Histogram: 1 0 0 0 0 0 0 0 0 0
Nghost:    185 ave 185 max 185 min
Histogram: 1 0 0 0 0 0 0 0 0 0
Neighs:    349 ave 349 max 349 min
Histogram: 1 0 0 0 0 0 0 0 0 0

Total # of neighbors = 349
Ave neighs/atom = 8.5122
Neighbor list builds = 0
Dangerous builds = 0
	# write_dump all atom ${dumpfile}
        next i
jump SELF loop1
        displace_atoms upper move 0.0 ${ystep1} 0.0 units lattice
        displace_atoms upper move 0.0 0.002 0.0 units lattice
        min_style ${style}
        min_style cg
        minimize ${etol} ${ftol} ${maxiter} ${maxeval}
        minimize 1e-12 ${ftol} ${maxiter} ${maxeval}
        minimize 1e-12 1e-08 ${maxiter} ${maxeval}
        minimize 1e-12 1e-08 10000 ${maxeval}
        minimize 1e-12 1e-08 10000 20000
WARNING: Resetting reneighboring criteria during minimization (../min.cpp:168)
Memory usage per processor = 3.35969 Mbytes
Step Temp PotEng Lx Ly Lz 
     495            0   -118.99997    1.1224537    40.811629    1.1224537 
     496            0   -118.99997    1.1224537    40.811629    1.1224537 
Loop time of 3.89701e-05 on 1 procs for 1 steps with 41 atoms

Minimization stats:
  Stopping criterion = linesearch alpha is zero
  Energy initial, next-to-last, final = 
        -118.999965529     -118.999965529     -118.999965529
  Force two-norm initial, final = 5.42101e-20 5.42101e-20
  Force max component initial, final = 2.71051e-20 2.71051e-20
  Final line search alpha, max atom move = 0.5 1.35525e-20
  Iterations, force evaluations = 1 2

Pair  time (%) = 2.51939e-05 (64.6492)
Neigh time (%) = 0 (0)
Comm  time (%) = 1.9765e-06 (5.07183)
Outpt time (%) = 0 (0)
Other time (%) = 1.17997e-05 (30.2789)

Nlocal:    41 ave 41 max 41 min
Histogram: 1 0 0 0 0 0 0 0 0 0
Nghost:    185 ave 185 max 185 min
Histogram: 1 0 0 0 0 0 0 0 0 0
Neighs:    349 ave 349 max 349 min
Histogram: 1 0 0 0 0 0 0 0 0 0

Total # of neighbors = 349
Ave neighs/atom = 8.5122
Neighbor list builds = 0
Dangerous builds = 0
	# write_dump all atom ${dumpfile}
        next i
jump SELF loop1
        displace_atoms upper move 0.0 ${ystep1} 0.0 units lattice
        displace_atoms upper move 0.0 0.002 0.0 units lattice
        min_style ${style}
        min_style cg
        minimize ${etol} ${ftol} ${maxiter} ${maxeval}
        minimize 1e-12 ${ftol} ${maxiter} ${maxeval}
        minimize 1e-12 1e-08 ${maxiter} ${maxeval}
        minimize 1e-12 1e-08 10000 ${maxeval}
        minimize 1e-12 1e-08 10000 20000
WARNING: Resetting reneighboring criteria during minimization (../min.cpp:168)
Memory usage per processor = 3.35969 Mbytes
Step Temp PotEng Lx Ly Lz 
     496            0   -118.99997    1.1224537    40.815517    1.1224537 
     497            0   -118.99997    1.1224537    40.815517    1.1224537 
Loop time of 3.99117e-05 on 1 procs for 1 steps with 41 atoms

Minimization stats:
  Stopping criterion = linesearch alpha is zero
  Energy initial, next-to-last, final = 
        -118.999965529     -118.999965529     -118.999965529
  Force two-norm initial, final = 5.42101e-20 5.42101e-20
  Force max component initial, final = 2.71051e-20 2.71051e-20
  Final line search alpha, max atom move = 0.5 1.35525e-20
  Iterations, force evaluations = 1 2

Pair  time (%) = 2.52504e-05 (63.2656)
Neigh time (%) = 0 (0)
Comm  time (%) = 4.08944e-06 (10.2462)
Outpt time (%) = 0 (0)
Other time (%) = 1.05719e-05 (26.4882)

Nlocal:    41 ave 41 max 41 min
Histogram: 1 0 0 0 0 0 0 0 0 0
Nghost:    185 ave 185 max 185 min
Histogram: 1 0 0 0 0 0 0 0 0 0
Neighs:    349 ave 349 max 349 min
Histogram: 1 0 0 0 0 0 0 0 0 0

Total # of neighbors = 349
Ave neighs/atom = 8.5122
Neighbor list builds = 0
Dangerous builds = 0
	# write_dump all atom ${dumpfile}
        next i
jump SELF loop1
        displace_atoms upper move 0.0 ${ystep1} 0.0 units lattice
        displace_atoms upper move 0.0 0.002 0.0 units lattice
        min_style ${style}
        min_style cg
        minimize ${etol} ${ftol} ${maxiter} ${maxeval}
        minimize 1e-12 ${ftol} ${maxiter} ${maxeval}
        minimize 1e-12 1e-08 ${maxiter} ${maxeval}
        minimize 1e-12 1e-08 10000 ${maxeval}
        minimize 1e-12 1e-08 10000 20000
WARNING: Resetting reneighboring criteria during minimization (../min.cpp:168)
Memory usage per processor = 3.35969 Mbytes
Step Temp PotEng Lx Ly Lz 
     497            0   -118.99997    1.1224537    40.819406    1.1224537 
     498            0   -118.99997    1.1224537    40.819406    1.1224537 
Loop time of 4.30427e-05 on 1 procs for 1 steps with 41 atoms

Minimization stats:
  Stopping criterion = linesearch alpha is zero
  Energy initial, next-to-last, final = 
        -118.999965529     -118.999965529     -118.999965529
  Force two-norm initial, final = 4.69473e-20 4.69473e-20
  Force max component initial, final = 2.71051e-20 2.71051e-20
  Final line search alpha, max atom move = 0.5 1.35525e-20
  Iterations, force evaluations = 1 2

Pair  time (%) = 2.69675e-05 (62.6529)
Neigh time (%) = 0 (0)
Comm  time (%) = 6.04696e-06 (14.0487)
Outpt time (%) = 0 (0)
Other time (%) = 1.00282e-05 (23.2984)

Nlocal:    41 ave 41 max 41 min
Histogram: 1 0 0 0 0 0 0 0 0 0
Nghost:    185 ave 185 max 185 min
Histogram: 1 0 0 0 0 0 0 0 0 0
Neighs:    349 ave 349 max 349 min
Histogram: 1 0 0 0 0 0 0 0 0 0

Total # of neighbors = 349
Ave neighs/atom = 8.5122
Neighbor list builds = 0
Dangerous builds = 0
	# write_dump all atom ${dumpfile}
        next i
jump SELF loop1
        displace_atoms upper move 0.0 ${ystep1} 0.0 units lattice
        displace_atoms upper move 0.0 0.002 0.0 units lattice
        min_style ${style}
        min_style cg
        minimize ${etol} ${ftol} ${maxiter} ${maxeval}
        minimize 1e-12 ${ftol} ${maxiter} ${maxeval}
        minimize 1e-12 1e-08 ${maxiter} ${maxeval}
        minimize 1e-12 1e-08 10000 ${maxeval}
        minimize 1e-12 1e-08 10000 20000
WARNING: Resetting reneighboring criteria during minimization (../min.cpp:168)
Memory usage per processor = 3.35969 Mbytes
Step Temp PotEng Lx Ly Lz 
     498            0   -118.99997    1.1224537    40.823294    1.1224537 
     499            0   -118.99997    1.1224537    40.823294    1.1224537 
Loop time of 4.11109e-05 on 1 procs for 1 steps with 41 atoms

Minimization stats:
  Stopping criterion = linesearch alpha is zero
  Energy initial, next-to-last, final = 
        -118.999965529     -118.999965529     -118.999965529
  Force two-norm initial, final = 4.69473e-20 4.69473e-20
  Force max component initial, final = 2.71051e-20 2.71051e-20
  Final line search alpha, max atom move = 0.5 1.35525e-20
  Iterations, force evaluations = 1 2

Pair  time (%) = 2.79869e-05 (68.0767)
Neigh time (%) = 0 (0)
Comm  time (%) = 5.17827e-06 (12.5959)
Outpt time (%) = 0 (0)
Other time (%) = 7.94569e-06 (19.3275)

Nlocal:    41 ave 41 max 41 min
Histogram: 1 0 0 0 0 0 0 0 0 0
Nghost:    185 ave 185 max 185 min
Histogram: 1 0 0 0 0 0 0 0 0 0
Neighs:    349 ave 349 max 349 min
Histogram: 1 0 0 0 0 0 0 0 0 0

Total # of neighbors = 349
Ave neighs/atom = 8.5122
Neighbor list builds = 0
Dangerous builds = 0
	# write_dump all atom ${dumpfile}
        next i
jump SELF loop1
        displace_atoms upper move 0.0 ${ystep1} 0.0 units lattice
        displace_atoms upper move 0.0 0.002 0.0 units lattice
        min_style ${style}
        min_style cg
        minimize ${etol} ${ftol} ${maxiter} ${maxeval}
        minimize 1e-12 ${ftol} ${maxiter} ${maxeval}
        minimize 1e-12 1e-08 ${maxiter} ${maxeval}
        minimize 1e-12 1e-08 10000 ${maxeval}
        minimize 1e-12 1e-08 10000 20000
WARNING: Resetting reneighboring criteria during minimization (../min.cpp:168)
Memory usage per processor = 3.35969 Mbytes
Step Temp PotEng Lx Ly Lz 
     499            0   -118.99997    1.1224537    40.827182    1.1224537 
     500            0   -118.99997    1.1224537    40.827182    1.1224537 
Loop time of 4.08944e-05 on 1 procs for 1 steps with 41 atoms

Minimization stats:
  Stopping criterion = linesearch alpha is zero
  Energy initial, next-to-last, final = 
        -118.999965529     -118.999965529     -118.999965529
  Force two-norm initial, final = 4.69473e-20 4.69473e-20
  Force max component initial, final = 2.71051e-20 2.71051e-20
  Final line search alpha, max atom move = 0.5 1.35525e-20
  Iterations, force evaluations = 1 2

Pair  time (%) = 2.80989e-05 (68.711)
Neigh time (%) = 0 (0)
Comm  time (%) = 5.11762e-06 (12.5142)
Outpt time (%) = 0 (0)
Other time (%) = 7.67782e-06 (18.7748)

Nlocal:    41 ave 41 max 41 min
Histogram: 1 0 0 0 0 0 0 0 0 0
Nghost:    185 ave 185 max 185 min
Histogram: 1 0 0 0 0 0 0 0 0 0
Neighs:    349 ave 349 max 349 min
Histogram: 1 0 0 0 0 0 0 0 0 0

Total # of neighbors = 349
Ave neighs/atom = 8.5122
Neighbor list builds = 0
Dangerous builds = 0
	# write_dump all atom ${dumpfile}
        next i
jump SELF loop1
        displace_atoms upper move 0.0 ${ystep1} 0.0 units lattice
        displace_atoms upper move 0.0 0.002 0.0 units lattice
        min_style ${style}
        min_style cg
        minimize ${etol} ${ftol} ${maxiter} ${maxeval}
        minimize 1e-12 ${ftol} ${maxiter} ${maxeval}
        minimize 1e-12 1e-08 ${maxiter} ${maxeval}
        minimize 1e-12 1e-08 10000 ${maxeval}
        minimize 1e-12 1e-08 10000 20000
WARNING: Resetting reneighboring criteria during minimization (../min.cpp:168)
Memory usage per processor = 3.35969 Mbytes
Step Temp PotEng Lx Ly Lz 
     500            0   -118.99997    1.1224537    40.831071    1.1224537 
     501            0   -118.99997    1.1224537    40.831071    1.1224537 
Loop time of 3.9933e-05 on 1 procs for 1 steps with 41 atoms

Minimization stats:
  Stopping criterion = linesearch alpha is zero
  Energy initial, next-to-last, final = 
        -118.999965529     -118.999965529     -118.999965529
  Force two-norm initial, final = 5.42101e-20 5.42101e-20
  Force max component initial, final = 2.71051e-20 2.71051e-20
  Final line search alpha, max atom move = 0.5 1.35525e-20
  Iterations, force evaluations = 1 2

Pair  time (%) = 2.53144e-05 (63.3921)
Neigh time (%) = 0 (0)
Comm  time (%) = 5.21727e-06 (13.0651)
Outpt time (%) = 0 (0)
Other time (%) = 9.40135e-06 (23.5428)

Nlocal:    41 ave 41 max 41 min
Histogram: 1 0 0 0 0 0 0 0 0 0
Nghost:    185 ave 185 max 185 min
Histogram: 1 0 0 0 0 0 0 0 0 0
Neighs:    349 ave 349 max 349 min
Histogram: 1 0 0 0 0 0 0 0 0 0

Total # of neighbors = 349
Ave neighs/atom = 8.5122
Neighbor list builds = 0
Dangerous builds = 0
	# write_dump all atom ${dumpfile}
        next i
jump SELF loop1
        displace_atoms upper move 0.0 ${ystep1} 0.0 units lattice
        displace_atoms upper move 0.0 0.002 0.0 units lattice
        min_style ${style}
        min_style cg
        minimize ${etol} ${ftol} ${maxiter} ${maxeval}
        minimize 1e-12 ${ftol} ${maxiter} ${maxeval}
        minimize 1e-12 1e-08 ${maxiter} ${maxeval}
        minimize 1e-12 1e-08 10000 ${maxeval}
        minimize 1e-12 1e-08 10000 20000
WARNING: Resetting reneighboring criteria during minimization (../min.cpp:168)
Memory usage per processor = 3.35969 Mbytes
Step Temp PotEng Lx Ly Lz 
     501            0   -118.99997    1.1224537    40.834959    1.1224537 
     502            0   -118.99997    1.1224537    40.834959    1.1224537 
Loop time of 1.16765e-07 on 1 procs for 1 steps with 41 atoms

Minimization stats:
  Stopping criterion = linesearch alpha is zero
  Energy initial, next-to-last, final = 
        -118.999965529     -118.999965529     -118.999965529
  Force two-norm initial, final = 5.42101e-20 5.42101e-20
  Force max component initial, final = 2.71051e-20 2.71051e-20
  Final line search alpha, max atom move = 0.5 1.35525e-20
  Iterations, force evaluations = 1 2

Pair  time (%) = 3.50294e-07 (300)
Neigh time (%) = 0 (0)
Comm  time (%) = 7.00587e-07 (600)
Outpt time (%) = 0 (0)
Other time (%) = -9.34117e-07 (-800)

Nlocal:    41 ave 41 max 41 min
Histogram: 1 0 0 0 0 0 0 0 0 0
Nghost:    185 ave 185 max 185 min
Histogram: 1 0 0 0 0 0 0 0 0 0
Neighs:    349 ave 349 max 349 min
Histogram: 1 0 0 0 0 0 0 0 0 0

Total # of neighbors = 349
Ave neighs/atom = 8.5122
Neighbor list builds = 0
Dangerous builds = 0
	# write_dump all atom ${dumpfile}
        next i
jump SELF loop1

unfix 2
min_style ${style}
min_style cg
minimize ${etol} ${ftol} ${maxiter} ${maxeval}
minimize 1e-12 ${ftol} ${maxiter} ${maxeval}
minimize 1e-12 1e-08 ${maxiter} ${maxeval}
minimize 1e-12 1e-08 10000 ${maxeval}
minimize 1e-12 1e-08 10000 20000
WARNING: Resetting reneighboring criteria during minimization (../min.cpp:168)
Memory usage per processor = 3.35969 Mbytes
Step Temp PotEng Lx Ly Lz 
     502            0   -118.99997    1.1224537    40.834959    1.1224537 
     503            0   -118.99997    1.1224537    40.834959    1.1224537 
Loop time of 0.000128935 on 1 procs for 1 steps with 41 atoms

Minimization stats:
  Stopping criterion = linesearch alpha is zero
  Energy initial, next-to-last, final = 
        -118.999965529     -118.999965529     -118.999965529
  Force two-norm initial, final = 0.00327105 0.00327105
  Force max component initial, final = 0.00179508 0.00179508
  Final line search alpha, max atom move = 0.000976562 1.75301e-06
  Iterations, force evaluations = 1 11

Pair  time (%) = 9.75053e-05 (75.6234)
Neigh time (%) = 0 (0)
Comm  time (%) = 1.17027e-05 (9.07637)
Outpt time (%) = 0 (0)
Other time (%) = 1.97274e-05 (15.3002)

Nlocal:    41 ave 41 max 41 min
Histogram: 1 0 0 0 0 0 0 0 0 0
Nghost:    185 ave 185 max 185 min
Histogram: 1 0 0 0 0 0 0 0 0 0
Neighs:    349 ave 349 max 349 min
Histogram: 1 0 0 0 0 0 0 0 0 0

Total # of neighbors = 349
Ave neighs/atom = 8.5122
Neighbor list builds = 0
Dangerous builds = 0

