LAMMPS (28 Jun 2014)
# attempt at getting surface energy

#file prefix
variable prefix string surf_V_brittlenewnorm
variable dumpfile string ${prefix}.*.dump
variable dumpfile string surf_V_brittlenewnorm.*.dump
variable restartfile string ${prefix}.*.equil
variable restartfile string surf_V_brittlenewnorm.*.equil

#Mass (g/mol)
variable m equal 1

# lattice constant (in Angstroms) and orientation of axes (given by lattice vectors)
variable rho equal 1.1547
variable x1 equal 1
variable x2 equal 0
variable x3 equal 0
variable y1 equal 0
variable y2 equal 1
variable y3 equal 0
# length of lattice in different directions (using orientation of lattice vectors)
variable ax equal sqrt(${x1}*${x1}+${x2}*${x2}+${x3}*${x3})
variable ax equal sqrt(1*${x1}+${x2}*${x2}+${x3}*${x3})
variable ax equal sqrt(1*1+${x2}*${x2}+${x3}*${x3})
variable ax equal sqrt(1*1+0*${x2}+${x3}*${x3})
variable ax equal sqrt(1*1+0*0+${x3}*${x3})
variable ax equal sqrt(1*1+0*0+0*${x3})
variable ax equal sqrt(1*1+0*0+0*0)
variable ay equal sqrt(${y1}*${y1}+${y2}*${y2}+${y3}*${y3})
variable ay equal sqrt(0*${y1}+${y2}*${y2}+${y3}*${y3})
variable ay equal sqrt(0*0+${y2}*${y2}+${y3}*${y3})
variable ay equal sqrt(0*0+1*${y2}+${y3}*${y3})
variable ay equal sqrt(0*0+1*1+${y3}*${y3})
variable ay equal sqrt(0*0+1*1+0*${y3})
variable ay equal sqrt(0*0+1*1+0*0)
variable az equal 1

# size of box in lattice units
variable lxpos equal 1
variable lxneg equal 0
variable lypos equal 10
variable lyneg equal -1*${lypos}
variable lyneg equal -1*10
variable lzpos equal 1
variable lzneg equal 0

# Define minimization parameters and damping
variable etol equal 1.0e-12
variable ftol equal 1.0e-8
variable maxiter equal 10000
variable maxeval equal 20000
variable style string cg

# boundary conditions
dimension	2
boundary	p s p
atom_style	atomic

# create geometry
units		lj
lattice         hex ${rho}
lattice         hex 1.1547
Lattice spacing in x,y,z = 1 1.73205 1
region		myregion block ${lxneg} ${lxpos} ${lyneg} ${lypos} ${lzneg} ${lzpos} units lattice
region		myregion block 0 ${lxpos} ${lyneg} ${lypos} ${lzneg} ${lzpos} units lattice
region		myregion block 0 1 ${lyneg} ${lypos} ${lzneg} ${lzpos} units lattice
region		myregion block 0 1 -10 ${lypos} ${lzneg} ${lzpos} units lattice
region		myregion block 0 1 -10 10 ${lzneg} ${lzpos} units lattice
region		myregion block 0 1 -10 10 0 ${lzpos} units lattice
region		myregion block 0 1 -10 10 0 1 units lattice
create_box	1 myregion
Created orthogonal box = (0 -17.3205 0) to (1 17.3205 1)
  1 by 1 by 1 MPI processor grid
create_atoms	1 box
Created 41 atoms

# define masses
mass * $m
mass * 1

# my fake/morse potential
pair_style      table linear 3001
pair_coeff      * * vpotential_brittlenewnorm dummy
neighbor	0.3 bin
neigh_modify	delay 5

# define groups
region	    upper block INF INF 0.01 ${lypos} INF INF units lattice
region	    upper block INF INF 0.01 10 INF INF units lattice
group		upper region upper
20 atoms in group upper

# Setup output
thermo 1
thermo_style custom step temp pe lx ly lz
thermo_modify norm no

# Compute initial state by relaxing box
min_style ${style}
min_style cg
minimize ${etol} ${ftol} ${maxiter} ${maxeval}
minimize 1e-12 ${ftol} ${maxiter} ${maxeval}
minimize 1e-12 1e-08 ${maxiter} ${maxeval}
minimize 1e-12 1e-08 10000 ${maxeval}
minimize 1e-12 1e-08 10000 20000
WARNING: Resetting reneighboring criteria during minimization (../min.cpp:168)
Memory usage per processor = 3.35952 Mbytes
Step Temp PotEng Lx Ly Lz 
       0            0   -120.99996    1.0000002    34.647952    1.0000002 
       1            0   -120.99996    1.0000002    34.647952    1.0000002 
Loop time of 4.50929e-05 on 1 procs for 1 steps with 41 atoms

Minimization stats:
  Stopping criterion = linesearch alpha is zero
  Energy initial, next-to-last, final = 
        -120.999955904     -120.999955904     -120.999955904
  Force two-norm initial, final = 4.32358e-06 4.32358e-06
  Force max component initial, final = 3.05723e-06 3.05723e-06
  Final line search alpha, max atom move = 0.5 1.52862e-06
  Iterations, force evaluations = 1 2

Pair  time (%) = 2.57338e-05 (57.0685)
Neigh time (%) = 0 (0)
Comm  time (%) = 5.5331e-06 (12.2705)
Outpt time (%) = 0 (0)
Other time (%) = 1.38259e-05 (30.661)

Nlocal:    41 ave 41 max 41 min
Histogram: 1 0 0 0 0 0 0 0 0 0
Nghost:    185 ave 185 max 185 min
Histogram: 1 0 0 0 0 0 0 0 0 0
Neighs:    359 ave 359 max 359 min
Histogram: 1 0 0 0 0 0 0 0 0 0

Total # of neighbors = 359
Ave neighs/atom = 8.7561
Neighbor list builds = 0
Dangerous builds = 0

# don't allow atoms to relax in y-direction
fix 2 all setforce NULL 0.0 NULL

# Energy curve will have nstep steps
variable nsteps equal 500
variable sstep1 equal 1.0
variable ystep1 equal ${sstep1}/(${ay}*${nsteps})
variable ystep1 equal 1/(${ay}*${nsteps})
variable ystep1 equal 1/(1*${nsteps})
variable ystep1 equal 1/(1*500)

variable i loop ${nsteps}
variable i loop 500
label loop1
        displace_atoms upper move 0.0 ${ystep1} 0.0 units lattice
        displace_atoms upper move 0.0 0.002 0.0 units lattice
        min_style ${style}
        min_style cg
        minimize ${etol} ${ftol} ${maxiter} ${maxeval}
        minimize 1e-12 ${ftol} ${maxiter} ${maxeval}
        minimize 1e-12 1e-08 ${maxiter} ${maxeval}
        minimize 1e-12 1e-08 10000 ${maxeval}
        minimize 1e-12 1e-08 10000 20000
WARNING: Resetting reneighboring criteria during minimization (../min.cpp:168)
Memory usage per processor = 3.35952 Mbytes
Step Temp PotEng Lx Ly Lz 
       1            0   -120.99968    1.0000002    34.651417    1.0000002 
       2            0   -120.99968    1.0000002    34.651417    1.0000002 
Loop time of 3.90444e-05 on 1 procs for 1 steps with 41 atoms

Minimization stats:
  Stopping criterion = linesearch alpha is zero
  Energy initial, next-to-last, final = 
        -120.999678504     -120.999678504     -120.999678504
  Force two-norm initial, final = 2.15316e-18 2.15316e-18
  Force max component initial, final = 1.89905e-18 1.89905e-18
  Final line search alpha, max atom move = 0.5 9.49524e-19
  Iterations, force evaluations = 1 2

Pair  time (%) = 2.47943e-05 (63.5027)
Neigh time (%) = 0 (0)
Comm  time (%) = 5.17711e-06 (13.2595)
Outpt time (%) = 0 (0)
Other time (%) = 9.07306e-06 (23.2378)

Nlocal:    41 ave 41 max 41 min
Histogram: 1 0 0 0 0 0 0 0 0 0
Nghost:    185 ave 185 max 185 min
Histogram: 1 0 0 0 0 0 0 0 0 0
Neighs:    359 ave 359 max 359 min
Histogram: 1 0 0 0 0 0 0 0 0 0

Total # of neighbors = 359
Ave neighs/atom = 8.7561
Neighbor list builds = 0
Dangerous builds = 0
	# write_dump all atom ${dumpfile}
        next i
jump SELF loop1
        displace_atoms upper move 0.0 ${ystep1} 0.0 units lattice
        displace_atoms upper move 0.0 0.002 0.0 units lattice
        min_style ${style}
        min_style cg
        minimize ${etol} ${ftol} ${maxiter} ${maxeval}
        minimize 1e-12 ${ftol} ${maxiter} ${maxeval}
        minimize 1e-12 1e-08 ${maxiter} ${maxeval}
        minimize 1e-12 1e-08 10000 ${maxeval}
        minimize 1e-12 1e-08 10000 20000
WARNING: Resetting reneighboring criteria during minimization (../min.cpp:168)
Memory usage per processor = 3.35952 Mbytes
Step Temp PotEng Lx Ly Lz 
       2            0   -120.99887    1.0000002    34.654881    1.0000002 
       3            0   -120.99887    1.0000002    34.654881    1.0000002 
Loop time of 1.28854e-05 on 1 procs for 1 steps with 41 atoms

Minimization stats:
  Stopping criterion = linesearch alpha is zero
  Energy initial, next-to-last, final = 
        -120.998868755     -120.998868755     -120.998868755
  Force two-norm initial, final = 6.03425e-18 6.03425e-18
  Force max component initial, final = 5.72764e-18 5.72764e-18
  Final line search alpha, max atom move = 0.5 2.86382e-18
  Iterations, force evaluations = 1 2

Pair  time (%) = 8.09238e-06 (62.8025)
Neigh time (%) = 0 (0)
Comm  time (%) = 3.21306e-08 (0.249356)
Outpt time (%) = 0 (0)
Other time (%) = 4.76092e-06 (36.9481)

Nlocal:    41 ave 41 max 41 min
Histogram: 1 0 0 0 0 0 0 0 0 0
Nghost:    185 ave 185 max 185 min
Histogram: 1 0 0 0 0 0 0 0 0 0
Neighs:    359 ave 359 max 359 min
Histogram: 1 0 0 0 0 0 0 0 0 0

Total # of neighbors = 359
Ave neighs/atom = 8.7561
Neighbor list builds = 0
Dangerous builds = 0
	# write_dump all atom ${dumpfile}
        next i
jump SELF loop1
        displace_atoms upper move 0.0 ${ystep1} 0.0 units lattice
        displace_atoms upper move 0.0 0.002 0.0 units lattice
        min_style ${style}
        min_style cg
        minimize ${etol} ${ftol} ${maxiter} ${maxeval}
        minimize 1e-12 ${ftol} ${maxiter} ${maxeval}
        minimize 1e-12 1e-08 ${maxiter} ${maxeval}
        minimize 1e-12 1e-08 10000 ${maxeval}
        minimize 1e-12 1e-08 10000 20000
WARNING: Resetting reneighboring criteria during minimization (../min.cpp:168)
Memory usage per processor = 3.35952 Mbytes
Step Temp PotEng Lx Ly Lz 
       3            0   -120.99753    1.0000002    34.658345    1.0000002 
       4            0   -120.99753    1.0000002    34.658345    1.0000002 
Loop time of 3.89888e-05 on 1 procs for 1 steps with 41 atoms

Minimization stats:
  Stopping criterion = linesearch alpha is zero
  Energy initial, next-to-last, final = 
        -120.997532764     -120.997532764     -120.997532764
  Force two-norm initial, final = 4.90096e-18 4.90096e-18
  Force max component initial, final = 4.51807e-18 4.51807e-18
  Final line search alpha, max atom move = 0.5 2.25904e-18
  Iterations, force evaluations = 1 2

Pair  time (%) = 2.51041e-05 (64.3882)
Neigh time (%) = 0 (0)
Comm  time (%) = 6.27374e-06 (16.0911)
Outpt time (%) = 0 (0)
Other time (%) = 7.61088e-06 (19.5207)

Nlocal:    41 ave 41 max 41 min
Histogram: 1 0 0 0 0 0 0 0 0 0
Nghost:    185 ave 185 max 185 min
Histogram: 1 0 0 0 0 0 0 0 0 0
Neighs:    359 ave 359 max 359 min
Histogram: 1 0 0 0 0 0 0 0 0 0

Total # of neighbors = 359
Ave neighs/atom = 8.7561
Neighbor list builds = 0
Dangerous builds = 0
	# write_dump all atom ${dumpfile}
        next i
jump SELF loop1
        displace_atoms upper move 0.0 ${ystep1} 0.0 units lattice
        displace_atoms upper move 0.0 0.002 0.0 units lattice
        min_style ${style}
        min_style cg
        minimize ${etol} ${ftol} ${maxiter} ${maxeval}
        minimize 1e-12 ${ftol} ${maxiter} ${maxeval}
        minimize 1e-12 1e-08 ${maxiter} ${maxeval}
        minimize 1e-12 1e-08 10000 ${maxeval}
        minimize 1e-12 1e-08 10000 20000
WARNING: Resetting reneighboring criteria during minimization (../min.cpp:168)
Memory usage per processor = 3.35952 Mbytes
Step Temp PotEng Lx Ly Lz 
       4            0    -120.9957    1.0000002    34.661809    1.0000002 
       5            0    -120.9957    1.0000002    34.661809    1.0000002 
Loop time of 3.88976e-05 on 1 procs for 1 steps with 41 atoms

Minimization stats:
  Stopping criterion = linesearch alpha is zero
  Energy initial, next-to-last, final = 
        -120.995698063     -120.995698063     -120.995698063
  Force two-norm initial, final = 2.2616e-18 2.2616e-18
  Force max component initial, final = 1.89905e-18 1.89905e-18
  Final line search alpha, max atom move = 0.5 9.49524e-19
  Iterations, force evaluations = 1 2

Pair  time (%) = 2.42081e-05 (62.2354)
Neigh time (%) = 0 (0)
Comm  time (%) = 1.91224e-06 (4.91608)
Outpt time (%) = 0 (0)
Other time (%) = 1.27773e-05 (32.8485)

Nlocal:    41 ave 41 max 41 min
Histogram: 1 0 0 0 0 0 0 0 0 0
Nghost:    185 ave 185 max 185 min
Histogram: 1 0 0 0 0 0 0 0 0 0
Neighs:    359 ave 359 max 359 min
Histogram: 1 0 0 0 0 0 0 0 0 0

Total # of neighbors = 359
Ave neighs/atom = 8.7561
Neighbor list builds = 0
Dangerous builds = 0
	# write_dump all atom ${dumpfile}
        next i
jump SELF loop1
        displace_atoms upper move 0.0 ${ystep1} 0.0 units lattice
        displace_atoms upper move 0.0 0.002 0.0 units lattice
        min_style ${style}
        min_style cg
        minimize ${etol} ${ftol} ${maxiter} ${maxeval}
        minimize 1e-12 ${ftol} ${maxiter} ${maxeval}
        minimize 1e-12 1e-08 ${maxiter} ${maxeval}
        minimize 1e-12 1e-08 10000 ${maxeval}
        minimize 1e-12 1e-08 10000 20000
WARNING: Resetting reneighboring criteria during minimization (../min.cpp:168)
Memory usage per processor = 3.35952 Mbytes
Step Temp PotEng Lx Ly Lz 
       5            0   -120.99337    1.0000002    34.665273    1.0000002 
       6            0   -120.99337    1.0000002    34.665273    1.0000002 
Loop time of 3.9116e-05 on 1 procs for 1 steps with 41 atoms

Minimization stats:
  Stopping criterion = linesearch alpha is zero
  Energy initial, next-to-last, final = 
        -120.993372898     -120.993372898     -120.993372898
  Force two-norm initial, final = 4.52888e-18 4.52888e-18
  Force max component initial, final = 4.1115e-18 4.1115e-18
  Final line search alpha, max atom move = 0.5 2.05575e-18
  Iterations, force evaluations = 1 2

Pair  time (%) = 2.41017e-05 (61.6159)
Neigh time (%) = 0 (0)
Comm  time (%) = 2.74566e-06 (7.01926)
Outpt time (%) = 0 (0)
Other time (%) = 1.22687e-05 (31.3648)

Nlocal:    41 ave 41 max 41 min
Histogram: 1 0 0 0 0 0 0 0 0 0
Nghost:    185 ave 185 max 185 min
Histogram: 1 0 0 0 0 0 0 0 0 0
Neighs:    359 ave 359 max 359 min
Histogram: 1 0 0 0 0 0 0 0 0 0

Total # of neighbors = 359
Ave neighs/atom = 8.7561
Neighbor list builds = 0
Dangerous builds = 0
	# write_dump all atom ${dumpfile}
        next i
jump SELF loop1
        displace_atoms upper move 0.0 ${ystep1} 0.0 units lattice
        displace_atoms upper move 0.0 0.002 0.0 units lattice
        min_style ${style}
        min_style cg
        minimize ${etol} ${ftol} ${maxiter} ${maxeval}
        minimize 1e-12 ${ftol} ${maxiter} ${maxeval}
        minimize 1e-12 1e-08 ${maxiter} ${maxeval}
        minimize 1e-12 1e-08 10000 ${maxeval}
        minimize 1e-12 1e-08 10000 20000
WARNING: Resetting reneighboring criteria during minimization (../min.cpp:168)
Memory usage per processor = 3.35952 Mbytes
Step Temp PotEng Lx Ly Lz 
       6            0   -120.99058    1.0000002    34.668737    1.0000002 
       7            0   -120.99058    1.0000002    34.668737    1.0000002 
Loop time of 3.80712e-05 on 1 procs for 1 steps with 41 atoms

Minimization stats:
  Stopping criterion = linesearch alpha is zero
  Energy initial, next-to-last, final = 
        -120.990578934     -120.990578934     -120.990578934
  Force two-norm initial, final = 3.92401e-18 3.92401e-18
  Force max component initial, final = 3.43387e-18 3.43387e-18
  Final line search alpha, max atom move = 0.5 1.71694e-18
  Iterations, force evaluations = 1 2

Pair  time (%) = 2.29672e-05 (60.3271)
Neigh time (%) = 0 (0)
Comm  time (%) = 3.90736e-06 (10.2633)
Outpt time (%) = 0 (0)
Other time (%) = 1.11966e-05 (29.4096)

Nlocal:    41 ave 41 max 41 min
Histogram: 1 0 0 0 0 0 0 0 0 0
Nghost:    185 ave 185 max 185 min
Histogram: 1 0 0 0 0 0 0 0 0 0
Neighs:    359 ave 359 max 359 min
Histogram: 1 0 0 0 0 0 0 0 0 0

Total # of neighbors = 359
Ave neighs/atom = 8.7561
Neighbor list builds = 0
Dangerous builds = 0
	# write_dump all atom ${dumpfile}
        next i
jump SELF loop1
        displace_atoms upper move 0.0 ${ystep1} 0.0 units lattice
        displace_atoms upper move 0.0 0.002 0.0 units lattice
        min_style ${style}
        min_style cg
        minimize ${etol} ${ftol} ${maxiter} ${maxeval}
        minimize 1e-12 ${ftol} ${maxiter} ${maxeval}
        minimize 1e-12 1e-08 ${maxiter} ${maxeval}
        minimize 1e-12 1e-08 10000 ${maxeval}
        minimize 1e-12 1e-08 10000 20000
WARNING: Resetting reneighboring criteria during minimization (../min.cpp:168)
Memory usage per processor = 3.35952 Mbytes
Step Temp PotEng Lx Ly Lz 
       7            0   -120.98733    1.0000002    34.672201    1.0000002 
       8            0   -120.98733    1.0000002    34.672201    1.0000002 
Loop time of 4.09676e-05 on 1 procs for 1 steps with 41 atoms

Minimization stats:
  Stopping criterion = linesearch alpha is zero
  Energy initial, next-to-last, final = 
        -120.987330804     -120.987330804     -120.987330804
  Force two-norm initial, final = 3.09892e-17 3.09892e-17
  Force max component initial, final = 2.58565e-17 2.58565e-17
  Final line search alpha, max atom move = 0.5 1.29283e-17
  Iterations, force evaluations = 1 2

Pair  time (%) = 2.47954e-05 (60.5245)
Neigh time (%) = 0 (0)
Comm  time (%) = 5.13298e-06 (12.5294)
Outpt time (%) = 0 (0)
Other time (%) = 1.10392e-05 (26.9462)

Nlocal:    41 ave 41 max 41 min
Histogram: 1 0 0 0 0 0 0 0 0 0
Nghost:    185 ave 185 max 185 min
Histogram: 1 0 0 0 0 0 0 0 0 0
Neighs:    359 ave 359 max 359 min
Histogram: 1 0 0 0 0 0 0 0 0 0

Total # of neighbors = 359
Ave neighs/atom = 8.7561
Neighbor list builds = 0
Dangerous builds = 0
	# write_dump all atom ${dumpfile}
        next i
jump SELF loop1
        displace_atoms upper move 0.0 ${ystep1} 0.0 units lattice
        displace_atoms upper move 0.0 0.002 0.0 units lattice
        min_style ${style}
        min_style cg
        minimize ${etol} ${ftol} ${maxiter} ${maxeval}
        minimize 1e-12 ${ftol} ${maxiter} ${maxeval}
        minimize 1e-12 1e-08 ${maxiter} ${maxeval}
        minimize 1e-12 1e-08 10000 ${maxeval}
        minimize 1e-12 1e-08 10000 20000
WARNING: Resetting reneighboring criteria during minimization (../min.cpp:168)
Memory usage per processor = 3.35952 Mbytes
Step Temp PotEng Lx Ly Lz 
       8            0   -120.98364    1.0000002    34.675665    1.0000002 
       9            0   -120.98364    1.0000002    34.675665    1.0000002 
Loop time of 4.00537e-05 on 1 procs for 1 steps with 41 atoms

Minimization stats:
  Stopping criterion = linesearch alpha is zero
  Energy initial, next-to-last, final = 
        -120.983640945     -120.983640945     -120.983640945
  Force two-norm initial, final = 2.74209e-17 2.74209e-17
  Force max component initial, final = 2.58565e-17 2.58565e-17
  Final line search alpha, max atom move = 0.5 1.29283e-17
  Iterations, force evaluations = 1 2

Pair  time (%) = 2.49613e-05 (62.3195)
Neigh time (%) = 0 (0)
Comm  time (%) = 4.51121e-06 (11.2629)
Outpt time (%) = 0 (0)
Other time (%) = 1.05812e-05 (26.4176)

Nlocal:    41 ave 41 max 41 min
Histogram: 1 0 0 0 0 0 0 0 0 0
Nghost:    185 ave 185 max 185 min
Histogram: 1 0 0 0 0 0 0 0 0 0
Neighs:    359 ave 359 max 359 min
Histogram: 1 0 0 0 0 0 0 0 0 0

Total # of neighbors = 359
Ave neighs/atom = 8.7561
Neighbor list builds = 0
Dangerous builds = 0
	# write_dump all atom ${dumpfile}
        next i
jump SELF loop1
        displace_atoms upper move 0.0 ${ystep1} 0.0 units lattice
        displace_atoms upper move 0.0 0.002 0.0 units lattice
        min_style ${style}
        min_style cg
        minimize ${etol} ${ftol} ${maxiter} ${maxeval}
        minimize 1e-12 ${ftol} ${maxiter} ${maxeval}
        minimize 1e-12 1e-08 ${maxiter} ${maxeval}
        minimize 1e-12 1e-08 10000 ${maxeval}
        minimize 1e-12 1e-08 10000 20000
WARNING: Resetting reneighboring criteria during minimization (../min.cpp:168)
Memory usage per processor = 3.35952 Mbytes
Step Temp PotEng Lx Ly Lz 
       9            0   -120.97953    1.0000002    34.679129    1.0000002 
      10            0   -120.97953    1.0000002    34.679129    1.0000002 
Loop time of 3.90022e-05 on 1 procs for 1 steps with 41 atoms

Minimization stats:
  Stopping criterion = linesearch alpha is zero
  Energy initial, next-to-last, final = 
        -120.979529325     -120.979529325     -120.979529325
  Force two-norm initial, final = 3.47618e-17 3.47618e-17
  Force max component initial, final = 2.58565e-17 2.58565e-17
  Final line search alpha, max atom move = 0.5 1.29283e-17
  Iterations, force evaluations = 1 2

Pair  time (%) = 2.4906e-05 (63.858)
Neigh time (%) = 0 (0)
Comm  time (%) = 6.35418e-06 (16.2919)
Outpt time (%) = 0 (0)
Other time (%) = 7.74197e-06 (19.8501)

Nlocal:    41 ave 41 max 41 min
Histogram: 1 0 0 0 0 0 0 0 0 0
Nghost:    185 ave 185 max 185 min
Histogram: 1 0 0 0 0 0 0 0 0 0
Neighs:    359 ave 359 max 359 min
Histogram: 1 0 0 0 0 0 0 0 0 0

Total # of neighbors = 359
Ave neighs/atom = 8.7561
Neighbor list builds = 0
Dangerous builds = 0
	# write_dump all atom ${dumpfile}
        next i
jump SELF loop1
        displace_atoms upper move 0.0 ${ystep1} 0.0 units lattice
        displace_atoms upper move 0.0 0.002 0.0 units lattice
        min_style ${style}
        min_style cg
        minimize ${etol} ${ftol} ${maxiter} ${maxeval}
        minimize 1e-12 ${ftol} ${maxiter} ${maxeval}
        minimize 1e-12 1e-08 ${maxiter} ${maxeval}
        minimize 1e-12 1e-08 10000 ${maxeval}
        minimize 1e-12 1e-08 10000 20000
WARNING: Resetting reneighboring criteria during minimization (../min.cpp:168)
Memory usage per processor = 3.35952 Mbytes
Step Temp PotEng Lx Ly Lz 
      10            0   -120.97501    1.0000002    34.682593    1.0000002 
      11            0   -120.97501    1.0000002    34.682593    1.0000002 
Loop time of 4.00987e-05 on 1 procs for 1 steps with 41 atoms

Minimization stats:
  Stopping criterion = linesearch alpha is zero
  Energy initial, next-to-last, final = 
        -120.975007363     -120.975007363     -120.975007363
  Force two-norm initial, final = 3.46646e-17 3.46646e-17
  Force max component initial, final = 2.58565e-17 2.58565e-17
  Final line search alpha, max atom move = 0.5 1.29283e-17
  Iterations, force evaluations = 1 2

Pair  time (%) = 2.50958e-05 (62.585)
Neigh time (%) = 0 (0)
Comm  time (%) = 5.73392e-06 (14.2995)
Outpt time (%) = 0 (0)
Other time (%) = 9.26899e-06 (23.1154)

Nlocal:    41 ave 41 max 41 min
Histogram: 1 0 0 0 0 0 0 0 0 0
Nghost:    185 ave 185 max 185 min
Histogram: 1 0 0 0 0 0 0 0 0 0
Neighs:    359 ave 359 max 359 min
Histogram: 1 0 0 0 0 0 0 0 0 0

Total # of neighbors = 359
Ave neighs/atom = 8.7561
Neighbor list builds = 0
Dangerous builds = 0
	# write_dump all atom ${dumpfile}
        next i
jump SELF loop1
        displace_atoms upper move 0.0 ${ystep1} 0.0 units lattice
        displace_atoms upper move 0.0 0.002 0.0 units lattice
        min_style ${style}
        min_style cg
        minimize ${etol} ${ftol} ${maxiter} ${maxeval}
        minimize 1e-12 ${ftol} ${maxiter} ${maxeval}
        minimize 1e-12 1e-08 ${maxiter} ${maxeval}
        minimize 1e-12 1e-08 10000 ${maxeval}
        minimize 1e-12 1e-08 10000 20000
WARNING: Resetting reneighboring criteria during minimization (../min.cpp:168)
Memory usage per processor = 3.35952 Mbytes
Step Temp PotEng Lx Ly Lz 
      11            0   -120.97009    1.0000002    34.686058    1.0000002 
      12            0   -120.97009    1.0000002    34.686058    1.0000002 
Loop time of 5.21074e-05 on 1 procs for 1 steps with 41 atoms

Minimization stats:
  Stopping criterion = linesearch alpha is zero
  Energy initial, next-to-last, final = 
        -120.970089341     -120.970089341     -120.970089341
  Force two-norm initial, final = 3.69495e-17 3.69495e-17
  Force max component initial, final = 2.63952e-17 2.63952e-17
  Final line search alpha, max atom move = 0.5 1.31976e-17
  Iterations, force evaluations = 1 2

Pair  time (%) = 3.11345e-05 (59.7506)
Neigh time (%) = 0 (0)
Comm  time (%) = 4.04287e-06 (7.75873)
Outpt time (%) = 0 (0)
Other time (%) = 1.693e-05 (32.4907)

Nlocal:    41 ave 41 max 41 min
Histogram: 1 0 0 0 0 0 0 0 0 0
Nghost:    185 ave 185 max 185 min
Histogram: 1 0 0 0 0 0 0 0 0 0
Neighs:    359 ave 359 max 359 min
Histogram: 1 0 0 0 0 0 0 0 0 0

Total # of neighbors = 359
Ave neighs/atom = 8.7561
Neighbor list builds = 0
Dangerous builds = 0
	# write_dump all atom ${dumpfile}
        next i
jump SELF loop1
        displace_atoms upper move 0.0 ${ystep1} 0.0 units lattice
        displace_atoms upper move 0.0 0.002 0.0 units lattice
        min_style ${style}
        min_style cg
        minimize ${etol} ${ftol} ${maxiter} ${maxeval}
        minimize 1e-12 ${ftol} ${maxiter} ${maxeval}
        minimize 1e-12 1e-08 ${maxiter} ${maxeval}
        minimize 1e-12 1e-08 10000 ${maxeval}
        minimize 1e-12 1e-08 10000 20000
WARNING: Resetting reneighboring criteria during minimization (../min.cpp:168)
Memory usage per processor = 3.35952 Mbytes
Step Temp PotEng Lx Ly Lz 
      12            0   -120.96479    1.0000002    34.689522    1.0000002 
      13            0   -120.96479    1.0000002    34.689522    1.0000002 
Loop time of 5.6093e-05 on 1 procs for 1 steps with 41 atoms

Minimization stats:
  Stopping criterion = linesearch alpha is zero
  Energy initial, next-to-last, final = 
        -120.964791927     -120.964791927     -120.964791927
  Force two-norm initial, final = 2.75402e-17 2.75402e-17
  Force max component initial, final = 2.58565e-17 2.58565e-17
  Final line search alpha, max atom move = 0.5 1.29283e-17
  Iterations, force evaluations = 1 2

Pair  time (%) = 3.7899e-05 (67.5646)
Neigh time (%) = 0 (0)
Comm  time (%) = 3.75044e-06 (6.68611)
Outpt time (%) = 0 (0)
Other time (%) = 1.44435e-05 (25.7493)

Nlocal:    41 ave 41 max 41 min
Histogram: 1 0 0 0 0 0 0 0 0 0
Nghost:    185 ave 185 max 185 min
Histogram: 1 0 0 0 0 0 0 0 0 0
Neighs:    359 ave 359 max 359 min
Histogram: 1 0 0 0 0 0 0 0 0 0

Total # of neighbors = 359
Ave neighs/atom = 8.7561
Neighbor list builds = 0
Dangerous builds = 0
	# write_dump all atom ${dumpfile}
        next i
jump SELF loop1
        displace_atoms upper move 0.0 ${ystep1} 0.0 units lattice
        displace_atoms upper move 0.0 0.002 0.0 units lattice
        min_style ${style}
        min_style cg
        minimize ${etol} ${ftol} ${maxiter} ${maxeval}
        minimize 1e-12 ${ftol} ${maxiter} ${maxeval}
        minimize 1e-12 1e-08 ${maxiter} ${maxeval}
        minimize 1e-12 1e-08 10000 ${maxeval}
        minimize 1e-12 1e-08 10000 20000
WARNING: Resetting reneighboring criteria during minimization (../min.cpp:168)
Memory usage per processor = 3.35952 Mbytes
Step Temp PotEng Lx Ly Lz 
      13            0   -120.95913    1.0000002    34.692986    1.0000002 
      14            0   -120.95913    1.0000002    34.692986    1.0000002 
Loop time of 3.91068e-05 on 1 procs for 1 steps with 41 atoms

Minimization stats:
  Stopping criterion = linesearch alpha is zero
  Energy initial, next-to-last, final = 
        -120.959127939     -120.959127939     -120.959127939
  Force two-norm initial, final = 2.65923e-17 2.65923e-17
  Force max component initial, final = 2.58565e-17 2.58565e-17
  Final line search alpha, max atom move = 0.5 1.29283e-17
  Iterations, force evaluations = 1 2

Pair  time (%) = 2.51203e-05 (64.2352)
Neigh time (%) = 0 (0)
Comm  time (%) = 1.82935e-06 (4.67783)
Outpt time (%) = 0 (0)
Other time (%) = 1.21571e-05 (31.087)

Nlocal:    41 ave 41 max 41 min
Histogram: 1 0 0 0 0 0 0 0 0 0
Nghost:    185 ave 185 max 185 min
Histogram: 1 0 0 0 0 0 0 0 0 0
Neighs:    359 ave 359 max 359 min
Histogram: 1 0 0 0 0 0 0 0 0 0

Total # of neighbors = 359
Ave neighs/atom = 8.7561
Neighbor list builds = 0
Dangerous builds = 0
	# write_dump all atom ${dumpfile}
        next i
jump SELF loop1
        displace_atoms upper move 0.0 ${ystep1} 0.0 units lattice
        displace_atoms upper move 0.0 0.002 0.0 units lattice
        min_style ${style}
        min_style cg
        minimize ${etol} ${ftol} ${maxiter} ${maxeval}
        minimize 1e-12 ${ftol} ${maxiter} ${maxeval}
        minimize 1e-12 1e-08 ${maxiter} ${maxeval}
        minimize 1e-12 1e-08 10000 ${maxeval}
        minimize 1e-12 1e-08 10000 20000
WARNING: Resetting reneighboring criteria during minimization (../min.cpp:168)
Memory usage per processor = 3.35952 Mbytes
Step Temp PotEng Lx Ly Lz 
      14            0   -120.95311    1.0000002     34.69645    1.0000002 
      15            0   -120.95311    1.0000002     34.69645    1.0000002 
Loop time of 1.10874e-06 on 1 procs for 1 steps with 41 atoms

Minimization stats:
  Stopping criterion = linesearch alpha is zero
  Energy initial, next-to-last, final = 
        -120.953107839     -120.953107839     -120.953107839
  Force two-norm initial, final = 2.6609e-17 2.6609e-17
  Force max component initial, final = 2.58565e-17 2.58565e-17
  Final line search alpha, max atom move = 0.5 1.29283e-17
  Iterations, force evaluations = 1 2

Pair  time (%) = -5.78584e-08 (-5.2184)
Neigh time (%) = 0 (0)
Comm  time (%) = 1.07638e-06 (97.0811)
Outpt time (%) = 0 (0)
Other time (%) = 9.02219e-08 (8.13734)

Nlocal:    41 ave 41 max 41 min
Histogram: 1 0 0 0 0 0 0 0 0 0
Nghost:    185 ave 185 max 185 min
Histogram: 1 0 0 0 0 0 0 0 0 0
Neighs:    359 ave 359 max 359 min
Histogram: 1 0 0 0 0 0 0 0 0 0

Total # of neighbors = 359
Ave neighs/atom = 8.7561
Neighbor list builds = 0
Dangerous builds = 0
	# write_dump all atom ${dumpfile}
        next i
jump SELF loop1
        displace_atoms upper move 0.0 ${ystep1} 0.0 units lattice
        displace_atoms upper move 0.0 0.002 0.0 units lattice
        min_style ${style}
        min_style cg
        minimize ${etol} ${ftol} ${maxiter} ${maxeval}
        minimize 1e-12 ${ftol} ${maxiter} ${maxeval}
        minimize 1e-12 1e-08 ${maxiter} ${maxeval}
        minimize 1e-12 1e-08 10000 ${maxeval}
        minimize 1e-12 1e-08 10000 20000
WARNING: Resetting reneighboring criteria during minimization (../min.cpp:168)
Memory usage per processor = 3.35952 Mbytes
Step Temp PotEng Lx Ly Lz 
      15            0   -120.94675    1.0000002    34.699914    1.0000002 
      16            0   -120.94675    1.0000002    34.699914    1.0000002 
Loop time of 3.89342e-05 on 1 procs for 1 steps with 41 atoms

Minimization stats:
  Stopping criterion = linesearch alpha is zero
  Energy initial, next-to-last, final = 
        -120.946748121     -120.946748121     -120.946748121
  Force two-norm initial, final = 3.39286e-17 3.39286e-17
  Force max component initial, final = 2.96546e-17 2.96546e-17
  Final line search alpha, max atom move = 0.5 1.48273e-17
  Iterations, force evaluations = 1 2

Pair  time (%) = 2.42252e-05 (62.221)
Neigh time (%) = 0 (0)
Comm  time (%) = 4.03903e-06 (10.374)
Outpt time (%) = 0 (0)
Other time (%) = 1.06699e-05 (27.4051)

Nlocal:    41 ave 41 max 41 min
Histogram: 1 0 0 0 0 0 0 0 0 0
Nghost:    185 ave 185 max 185 min
Histogram: 1 0 0 0 0 0 0 0 0 0
Neighs:    359 ave 359 max 359 min
Histogram: 1 0 0 0 0 0 0 0 0 0

Total # of neighbors = 359
Ave neighs/atom = 8.7561
Neighbor list builds = 0
Dangerous builds = 0
	# write_dump all atom ${dumpfile}
        next i
jump SELF loop1
        displace_atoms upper move 0.0 ${ystep1} 0.0 units lattice
        displace_atoms upper move 0.0 0.002 0.0 units lattice
        min_style ${style}
        min_style cg
        minimize ${etol} ${ftol} ${maxiter} ${maxeval}
        minimize 1e-12 ${ftol} ${maxiter} ${maxeval}
        minimize 1e-12 1e-08 ${maxiter} ${maxeval}
        minimize 1e-12 1e-08 10000 ${maxeval}
        minimize 1e-12 1e-08 10000 20000
WARNING: Resetting reneighboring criteria during minimization (../min.cpp:168)
Memory usage per processor = 3.35952 Mbytes
Step Temp PotEng Lx Ly Lz 
      16            0   -120.94006    1.0000002    34.703378    1.0000002 
      17            0   -120.94006    1.0000002    34.703378    1.0000002 
Loop time of 3.79573e-05 on 1 procs for 1 steps with 41 atoms

Minimization stats:
  Stopping criterion = linesearch alpha is zero
  Energy initial, next-to-last, final = 
         -120.94006125      -120.94006125      -120.94006125
  Force two-norm initial, final = 4.43405e-17 4.43405e-17
  Force max component initial, final = 3.29648e-17 3.29648e-17
  Final line search alpha, max atom move = 0.5 1.64824e-17
  Iterations, force evaluations = 1 2

Pair  time (%) = 2.27644e-05 (59.9737)
Neigh time (%) = 0 (0)
Comm  time (%) = 4.21703e-06 (11.1099)
Outpt time (%) = 0 (0)
Other time (%) = 1.09759e-05 (28.9163)

Nlocal:    41 ave 41 max 41 min
Histogram: 1 0 0 0 0 0 0 0 0 0
Nghost:    185 ave 185 max 185 min
Histogram: 1 0 0 0 0 0 0 0 0 0
Neighs:    359 ave 359 max 359 min
Histogram: 1 0 0 0 0 0 0 0 0 0

Total # of neighbors = 359
Ave neighs/atom = 8.7561
Neighbor list builds = 0
Dangerous builds = 0
	# write_dump all atom ${dumpfile}
        next i
jump SELF loop1
        displace_atoms upper move 0.0 ${ystep1} 0.0 units lattice
        displace_atoms upper move 0.0 0.002 0.0 units lattice
        min_style ${style}
        min_style cg
        minimize ${etol} ${ftol} ${maxiter} ${maxeval}
        minimize 1e-12 ${ftol} ${maxiter} ${maxeval}
        minimize 1e-12 1e-08 ${maxiter} ${maxeval}
        minimize 1e-12 1e-08 10000 ${maxeval}
        minimize 1e-12 1e-08 10000 20000
WARNING: Resetting reneighboring criteria during minimization (../min.cpp:168)
Memory usage per processor = 3.35952 Mbytes
Step Temp PotEng Lx Ly Lz 
      17            0   -120.93306    1.0000002    34.706842    1.0000002 
      18            0   -120.93306    1.0000002    34.706842    1.0000002 
Loop time of 3.70867e-05 on 1 procs for 1 steps with 41 atoms

Minimization stats:
  Stopping criterion = linesearch alpha is zero
  Energy initial, next-to-last, final = 
        -120.933055951     -120.933055951     -120.933055951
  Force two-norm initial, final = 2.98626e-17 2.98626e-17
  Force max component initial, final = 2.96546e-17 2.96546e-17
  Final line search alpha, max atom move = 0.5 1.48273e-17
  Iterations, force evaluations = 1 2

Pair  time (%) = 2.50598e-05 (67.5709)
Neigh time (%) = 0 (0)
Comm  time (%) = 2.70829e-06 (7.30259)
Outpt time (%) = 0 (0)
Other time (%) = 9.31858e-06 (25.1265)

Nlocal:    41 ave 41 max 41 min
Histogram: 1 0 0 0 0 0 0 0 0 0
Nghost:    185 ave 185 max 185 min
Histogram: 1 0 0 0 0 0 0 0 0 0
Neighs:    359 ave 359 max 359 min
Histogram: 1 0 0 0 0 0 0 0 0 0

Total # of neighbors = 359
Ave neighs/atom = 8.7561
Neighbor list builds = 0
Dangerous builds = 0
	# write_dump all atom ${dumpfile}
        next i
jump SELF loop1
        displace_atoms upper move 0.0 ${ystep1} 0.0 units lattice
        displace_atoms upper move 0.0 0.002 0.0 units lattice
        min_style ${style}
        min_style cg
        minimize ${etol} ${ftol} ${maxiter} ${maxeval}
        minimize 1e-12 ${ftol} ${maxiter} ${maxeval}
        minimize 1e-12 1e-08 ${maxiter} ${maxeval}
        minimize 1e-12 1e-08 10000 ${maxeval}
        minimize 1e-12 1e-08 10000 20000
WARNING: Resetting reneighboring criteria during minimization (../min.cpp:168)
Memory usage per processor = 3.35952 Mbytes
Step Temp PotEng Lx Ly Lz 
      18            0   -120.92572    1.0000002    34.710306    1.0000002 
      19            0   -120.92572    1.0000002    34.710306    1.0000002 
Loop time of 9.89843e-05 on 1 procs for 1 steps with 41 atoms

Minimization stats:
  Stopping criterion = linesearch alpha is zero
  Energy initial, next-to-last, final = 
        -120.925715635     -120.925715635     -120.925715635
  Force two-norm initial, final = 4.81212e-17 4.81212e-17
  Force max component initial, final = 3.78979e-17 3.78979e-17
  Final line search alpha, max atom move = 0.5 1.8949e-17
  Iterations, force evaluations = 1 2

Pair  time (%) = 2.49741e-05 (25.2304)
Neigh time (%) = 0 (0)
Comm  time (%) = 6.21416e-05 (62.7792)
Outpt time (%) = 0 (0)
Other time (%) = 1.18687e-05 (11.9904)

Nlocal:    41 ave 41 max 41 min
Histogram: 1 0 0 0 0 0 0 0 0 0
Nghost:    185 ave 185 max 185 min
Histogram: 1 0 0 0 0 0 0 0 0 0
Neighs:    359 ave 359 max 359 min
Histogram: 1 0 0 0 0 0 0 0 0 0

Total # of neighbors = 359
Ave neighs/atom = 8.7561
Neighbor list builds = 0
Dangerous builds = 0
	# write_dump all atom ${dumpfile}
        next i
jump SELF loop1
        displace_atoms upper move 0.0 ${ystep1} 0.0 units lattice
        displace_atoms upper move 0.0 0.002 0.0 units lattice
        min_style ${style}
        min_style cg
        minimize ${etol} ${ftol} ${maxiter} ${maxeval}
        minimize 1e-12 ${ftol} ${maxiter} ${maxeval}
        minimize 1e-12 1e-08 ${maxiter} ${maxeval}
        minimize 1e-12 1e-08 10000 ${maxeval}
        minimize 1e-12 1e-08 10000 20000
WARNING: Resetting reneighboring criteria during minimization (../min.cpp:168)
Memory usage per processor = 3.35952 Mbytes
Step Temp PotEng Lx Ly Lz 
      19            0   -120.91804    1.0000002     34.71377    1.0000002 
      20            0   -120.91804    1.0000002     34.71377    1.0000002 
Loop time of 3.69655e-05 on 1 procs for 1 steps with 41 atoms

Minimization stats:
  Stopping criterion = linesearch alpha is zero
  Energy initial, next-to-last, final = 
          -120.9180418       -120.9180418       -120.9180418
  Force two-norm initial, final = 5.44364e-17 5.44364e-17
  Force max component initial, final = 4.565e-17 4.565e-17
  Final line search alpha, max atom move = 0.5 2.2825e-17
  Iterations, force evaluations = 1 2

Pair  time (%) = 2.52726e-05 (68.3681)
Neigh time (%) = 0 (0)
Comm  time (%) = 6.13392e-06 (16.5937)
Outpt time (%) = 0 (0)
Other time (%) = 5.55895e-06 (15.0382)

Nlocal:    41 ave 41 max 41 min
Histogram: 1 0 0 0 0 0 0 0 0 0
Nghost:    185 ave 185 max 185 min
Histogram: 1 0 0 0 0 0 0 0 0 0
Neighs:    359 ave 359 max 359 min
Histogram: 1 0 0 0 0 0 0 0 0 0

Total # of neighbors = 359
Ave neighs/atom = 8.7561
Neighbor list builds = 0
Dangerous builds = 0
	# write_dump all atom ${dumpfile}
        next i
jump SELF loop1
        displace_atoms upper move 0.0 ${ystep1} 0.0 units lattice
        displace_atoms upper move 0.0 0.002 0.0 units lattice
        min_style ${style}
        min_style cg
        minimize ${etol} ${ftol} ${maxiter} ${maxeval}
        minimize 1e-12 ${ftol} ${maxiter} ${maxeval}
        minimize 1e-12 1e-08 ${maxiter} ${maxeval}
        minimize 1e-12 1e-08 10000 ${maxeval}
        minimize 1e-12 1e-08 10000 20000
WARNING: Resetting reneighboring criteria during minimization (../min.cpp:168)
Memory usage per processor = 3.35952 Mbytes
Step Temp PotEng Lx Ly Lz 
      20            0   -120.91004    1.0000002    34.717234    1.0000002 
      21            0   -120.91004    1.0000002    34.717234    1.0000002 
Loop time of 3.70552e-05 on 1 procs for 1 steps with 41 atoms

Minimization stats:
  Stopping criterion = linesearch alpha is zero
  Energy initial, next-to-last, final = 
        -120.910039379     -120.910039379     -120.910039379
  Force two-norm initial, final = 3.11367e-17 3.11367e-17
  Force max component initial, final = 2.96546e-17 2.96546e-17
  Final line search alpha, max atom move = 0.5 1.48273e-17
  Iterations, force evaluations = 1 2

Pair  time (%) = 2.29195e-05 (61.8523)
Neigh time (%) = 0 (0)
Comm  time (%) = 4.05009e-06 (10.9299)
Outpt time (%) = 0 (0)
Other time (%) = 1.00856e-05 (27.2179)

Nlocal:    41 ave 41 max 41 min
Histogram: 1 0 0 0 0 0 0 0 0 0
Nghost:    185 ave 185 max 185 min
Histogram: 1 0 0 0 0 0 0 0 0 0
Neighs:    359 ave 359 max 359 min
Histogram: 1 0 0 0 0 0 0 0 0 0

Total # of neighbors = 359
Ave neighs/atom = 8.7561
Neighbor list builds = 0
Dangerous builds = 0
	# write_dump all atom ${dumpfile}
        next i
jump SELF loop1
        displace_atoms upper move 0.0 ${ystep1} 0.0 units lattice
        displace_atoms upper move 0.0 0.002 0.0 units lattice
        min_style ${style}
        min_style cg
        minimize ${etol} ${ftol} ${maxiter} ${maxeval}
        minimize 1e-12 ${ftol} ${maxiter} ${maxeval}
        minimize 1e-12 1e-08 ${maxiter} ${maxeval}
        minimize 1e-12 1e-08 10000 ${maxeval}
        minimize 1e-12 1e-08 10000 20000
WARNING: Resetting reneighboring criteria during minimization (../min.cpp:168)
Memory usage per processor = 3.35952 Mbytes
Step Temp PotEng Lx Ly Lz 
      21            0   -120.90171    1.0000002    34.720699    1.0000002 
      22            0   -120.90171    1.0000002    34.720699    1.0000002 
Loop time of 3.71055e-05 on 1 procs for 1 steps with 41 atoms

Minimization stats:
  Stopping criterion = linesearch alpha is zero
  Energy initial, next-to-last, final = 
        -120.901712821     -120.901712821     -120.901712821
  Force two-norm initial, final = 3.61665e-17 3.61665e-17
  Force max component initial, final = 2.96546e-17 2.96546e-17
  Final line search alpha, max atom move = 0.5 1.48273e-17
  Iterations, force evaluations = 1 2

Pair  time (%) = 2.40239e-05 (64.7449)
Neigh time (%) = 0 (0)
Comm  time (%) = 3.63635e-06 (9.80002)
Outpt time (%) = 0 (0)
Other time (%) = 9.44524e-06 (25.4551)

Nlocal:    41 ave 41 max 41 min
Histogram: 1 0 0 0 0 0 0 0 0 0
Nghost:    185 ave 185 max 185 min
Histogram: 1 0 0 0 0 0 0 0 0 0
Neighs:    359 ave 359 max 359 min
Histogram: 1 0 0 0 0 0 0 0 0 0

Total # of neighbors = 359
Ave neighs/atom = 8.7561
Neighbor list builds = 0
Dangerous builds = 0
	# write_dump all atom ${dumpfile}
        next i
jump SELF loop1
        displace_atoms upper move 0.0 ${ystep1} 0.0 units lattice
        displace_atoms upper move 0.0 0.002 0.0 units lattice
        min_style ${style}
        min_style cg
        minimize ${etol} ${ftol} ${maxiter} ${maxeval}
        minimize 1e-12 ${ftol} ${maxiter} ${maxeval}
        minimize 1e-12 1e-08 ${maxiter} ${maxeval}
        minimize 1e-12 1e-08 10000 ${maxeval}
        minimize 1e-12 1e-08 10000 20000
WARNING: Resetting reneighboring criteria during minimization (../min.cpp:168)
Memory usage per processor = 3.35952 Mbytes
Step Temp PotEng Lx Ly Lz 
      22            0   -120.89307    1.0000002    34.724163    1.0000002 
      23            0   -120.89307    1.0000002    34.724163    1.0000002 
Loop time of 3.79458e-05 on 1 procs for 1 steps with 41 atoms

Minimization stats:
  Stopping criterion = linesearch alpha is zero
  Energy initial, next-to-last, final = 
        -120.893066608     -120.893066608     -120.893066608
  Force two-norm initial, final = 5.91501e-17 5.91501e-17
  Force max component initial, final = 5.11794e-17 5.11794e-17
  Final line search alpha, max atom move = 0.5 2.55897e-17
  Iterations, force evaluations = 1 2

Pair  time (%) = 2.473e-05 (65.1719)
Neigh time (%) = 0 (0)
Comm  time (%) = 2.47895e-06 (6.53286)
Outpt time (%) = 0 (0)
Other time (%) = 1.07369e-05 (28.2953)

Nlocal:    41 ave 41 max 41 min
Histogram: 1 0 0 0 0 0 0 0 0 0
Nghost:    185 ave 185 max 185 min
Histogram: 1 0 0 0 0 0 0 0 0 0
Neighs:    359 ave 359 max 359 min
Histogram: 1 0 0 0 0 0 0 0 0 0

Total # of neighbors = 359
Ave neighs/atom = 8.7561
Neighbor list builds = 0
Dangerous builds = 0
	# write_dump all atom ${dumpfile}
        next i
jump SELF loop1
        displace_atoms upper move 0.0 ${ystep1} 0.0 units lattice
        displace_atoms upper move 0.0 0.002 0.0 units lattice
        min_style ${style}
        min_style cg
        minimize ${etol} ${ftol} ${maxiter} ${maxeval}
        minimize 1e-12 ${ftol} ${maxiter} ${maxeval}
        minimize 1e-12 1e-08 ${maxiter} ${maxeval}
        minimize 1e-12 1e-08 10000 ${maxeval}
        minimize 1e-12 1e-08 10000 20000
WARNING: Resetting reneighboring criteria during minimization (../min.cpp:168)
Memory usage per processor = 3.35952 Mbytes
Step Temp PotEng Lx Ly Lz 
      23            0   -120.88411    1.0000002    34.727627    1.0000002 
      24            0   -120.88411    1.0000002    34.727627    1.0000002 
Loop time of 3.69214e-05 on 1 procs for 1 steps with 41 atoms

Minimization stats:
  Stopping criterion = linesearch alpha is zero
  Energy initial, next-to-last, final = 
        -120.884105265     -120.884105265     -120.884105265
  Force two-norm initial, final = 3.5349e-17 3.5349e-17
  Force max component initial, final = 2.96546e-17 2.96546e-17
  Final line search alpha, max atom move = 0.5 1.48273e-17
  Iterations, force evaluations = 1 2

Pair  time (%) = 2.62329e-05 (71.0508)
Neigh time (%) = 0 (0)
Comm  time (%) = 4.10085e-06 (11.107)
Outpt time (%) = 0 (0)
Other time (%) = 6.58759e-06 (17.8422)

Nlocal:    41 ave 41 max 41 min
Histogram: 1 0 0 0 0 0 0 0 0 0
Nghost:    185 ave 185 max 185 min
Histogram: 1 0 0 0 0 0 0 0 0 0
Neighs:    359 ave 359 max 359 min
Histogram: 1 0 0 0 0 0 0 0 0 0

Total # of neighbors = 359
Ave neighs/atom = 8.7561
Neighbor list builds = 0
Dangerous builds = 0
	# write_dump all atom ${dumpfile}
        next i
jump SELF loop1
        displace_atoms upper move 0.0 ${ystep1} 0.0 units lattice
        displace_atoms upper move 0.0 0.002 0.0 units lattice
        min_style ${style}
        min_style cg
        minimize ${etol} ${ftol} ${maxiter} ${maxeval}
        minimize 1e-12 ${ftol} ${maxiter} ${maxeval}
        minimize 1e-12 1e-08 ${maxiter} ${maxeval}
        minimize 1e-12 1e-08 10000 ${maxeval}
        minimize 1e-12 1e-08 10000 20000
WARNING: Resetting reneighboring criteria during minimization (../min.cpp:168)
Memory usage per processor = 3.35952 Mbytes
Step Temp PotEng Lx Ly Lz 
      24            0   -120.87483    1.0000002    34.731091    1.0000002 
      25            0   -120.87483    1.0000002    34.731091    1.0000002 
Loop time of 3.71038e-05 on 1 procs for 1 steps with 41 atoms

Minimization stats:
  Stopping criterion = linesearch alpha is zero
  Energy initial, next-to-last, final = 
        -120.874833364     -120.874833364     -120.874833364
  Force two-norm initial, final = 3.12716e-17 3.12716e-17
  Force max component initial, final = 2.96546e-17 2.96546e-17
  Final line search alpha, max atom move = 0.5 1.48273e-17
  Iterations, force evaluations = 1 2

Pair  time (%) = 2.51114e-05 (67.6787)
Neigh time (%) = 0 (0)
Comm  time (%) = 1.81131e-06 (4.88173)
Outpt time (%) = 0 (0)
Other time (%) = 1.01811e-05 (27.4395)

Nlocal:    41 ave 41 max 41 min
Histogram: 1 0 0 0 0 0 0 0 0 0
Nghost:    185 ave 185 max 185 min
Histogram: 1 0 0 0 0 0 0 0 0 0
Neighs:    359 ave 359 max 359 min
Histogram: 1 0 0 0 0 0 0 0 0 0

Total # of neighbors = 359
Ave neighs/atom = 8.7561
Neighbor list builds = 0
Dangerous builds = 0
	# write_dump all atom ${dumpfile}
        next i
jump SELF loop1
        displace_atoms upper move 0.0 ${ystep1} 0.0 units lattice
        displace_atoms upper move 0.0 0.002 0.0 units lattice
        min_style ${style}
        min_style cg
        minimize ${etol} ${ftol} ${maxiter} ${maxeval}
        minimize 1e-12 ${ftol} ${maxiter} ${maxeval}
        minimize 1e-12 1e-08 ${maxiter} ${maxeval}
        minimize 1e-12 1e-08 10000 ${maxeval}
        minimize 1e-12 1e-08 10000 20000
WARNING: Resetting reneighboring criteria during minimization (../min.cpp:168)
Memory usage per processor = 3.35952 Mbytes
Step Temp PotEng Lx Ly Lz 
      25            0   -120.86526    1.0000002    34.734555    1.0000002 
      26            0   -120.86526    1.0000002    34.734555    1.0000002 
Loop time of 4.60398e-05 on 1 procs for 1 steps with 41 atoms

Minimization stats:
  Stopping criterion = linesearch alpha is zero
  Energy initial, next-to-last, final = 
        -120.865255552     -120.865255552     -120.865255552
  Force two-norm initial, final = 3.31887e-17 3.31887e-17
  Force max component initial, final = 2.96546e-17 2.96546e-17
  Final line search alpha, max atom move = 0.5 1.48273e-17
  Iterations, force evaluations = 1 2

Pair  time (%) = 2.41239e-05 (52.398)
Neigh time (%) = 0 (0)
Comm  time (%) = 4.31319e-06 (9.36839)
Outpt time (%) = 0 (0)
Other time (%) = 1.76027e-05 (38.2336)

Nlocal:    41 ave 41 max 41 min
Histogram: 1 0 0 0 0 0 0 0 0 0
Nghost:    185 ave 185 max 185 min
Histogram: 1 0 0 0 0 0 0 0 0 0
Neighs:    359 ave 359 max 359 min
Histogram: 1 0 0 0 0 0 0 0 0 0

Total # of neighbors = 359
Ave neighs/atom = 8.7561
Neighbor list builds = 0
Dangerous builds = 0
	# write_dump all atom ${dumpfile}
        next i
jump SELF loop1
        displace_atoms upper move 0.0 ${ystep1} 0.0 units lattice
        displace_atoms upper move 0.0 0.002 0.0 units lattice
        min_style ${style}
        min_style cg
        minimize ${etol} ${ftol} ${maxiter} ${maxeval}
        minimize 1e-12 ${ftol} ${maxiter} ${maxeval}
        minimize 1e-12 1e-08 ${maxiter} ${maxeval}
        minimize 1e-12 1e-08 10000 ${maxeval}
        minimize 1e-12 1e-08 10000 20000
WARNING: Resetting reneighboring criteria during minimization (../min.cpp:168)
Memory usage per processor = 3.35952 Mbytes
Step Temp PotEng Lx Ly Lz 
      26            0   -120.85538    1.0000002    34.738019    1.0000002 
      27            0   -120.85538    1.0000002    34.738019    1.0000002 
Loop time of 3.70729e-05 on 1 procs for 1 steps with 41 atoms

Minimization stats:
  Stopping criterion = linesearch alpha is zero
  Energy initial, next-to-last, final = 
        -120.855376524     -120.855376524     -120.855376524
  Force two-norm initial, final = 2.96607e-17 2.96607e-17
  Force max component initial, final = 2.96546e-17 2.96546e-17
  Final line search alpha, max atom move = 0.5 1.48273e-17
  Iterations, force evaluations = 1 2

Pair  time (%) = 2.50186e-05 (67.4848)
Neigh time (%) = 0 (0)
Comm  time (%) = 4.62588e-06 (12.4778)
Outpt time (%) = 0 (0)
Other time (%) = 7.42846e-06 (20.0374)

Nlocal:    41 ave 41 max 41 min
Histogram: 1 0 0 0 0 0 0 0 0 0
Nghost:    185 ave 185 max 185 min
Histogram: 1 0 0 0 0 0 0 0 0 0
Neighs:    359 ave 359 max 359 min
Histogram: 1 0 0 0 0 0 0 0 0 0

Total # of neighbors = 359
Ave neighs/atom = 8.7561
Neighbor list builds = 0
Dangerous builds = 0
	# write_dump all atom ${dumpfile}
        next i
jump SELF loop1
        displace_atoms upper move 0.0 ${ystep1} 0.0 units lattice
        displace_atoms upper move 0.0 0.002 0.0 units lattice
        min_style ${style}
        min_style cg
        minimize ${etol} ${ftol} ${maxiter} ${maxeval}
        minimize 1e-12 ${ftol} ${maxiter} ${maxeval}
        minimize 1e-12 1e-08 ${maxiter} ${maxeval}
        minimize 1e-12 1e-08 10000 ${maxeval}
        minimize 1e-12 1e-08 10000 20000
WARNING: Resetting reneighboring criteria during minimization (../min.cpp:168)
Memory usage per processor = 3.35952 Mbytes
Step Temp PotEng Lx Ly Lz 
      27            0    -120.8452    1.0000002    34.741483    1.0000002 
      28            0    -120.8452    1.0000002    34.741483    1.0000002 
Loop time of 3.60348e-05 on 1 procs for 1 steps with 41 atoms

Minimization stats:
  Stopping criterion = linesearch alpha is zero
  Energy initial, next-to-last, final = 
        -120.845200962     -120.845200962     -120.845200962
  Force two-norm initial, final = 3.91355e-17 3.91355e-17
  Force max component initial, final = 2.96546e-17 2.96546e-17
  Final line search alpha, max atom move = 0.5 1.48273e-17
  Iterations, force evaluations = 1 2

Pair  time (%) = 2.47656e-05 (68.7268)
Neigh time (%) = 0 (0)
Comm  time (%) = 6.31204e-06 (17.5165)
Outpt time (%) = 0 (0)
Other time (%) = 4.9572e-06 (13.7567)

Nlocal:    41 ave 41 max 41 min
Histogram: 1 0 0 0 0 0 0 0 0 0
Nghost:    185 ave 185 max 185 min
Histogram: 1 0 0 0 0 0 0 0 0 0
Neighs:    359 ave 359 max 359 min
Histogram: 1 0 0 0 0 0 0 0 0 0

Total # of neighbors = 359
Ave neighs/atom = 8.7561
Neighbor list builds = 0
Dangerous builds = 0
	# write_dump all atom ${dumpfile}
        next i
jump SELF loop1
        displace_atoms upper move 0.0 ${ystep1} 0.0 units lattice
        displace_atoms upper move 0.0 0.002 0.0 units lattice
        min_style ${style}
        min_style cg
        minimize ${etol} ${ftol} ${maxiter} ${maxeval}
        minimize 1e-12 ${ftol} ${maxiter} ${maxeval}
        minimize 1e-12 1e-08 ${maxiter} ${maxeval}
        minimize 1e-12 1e-08 10000 ${maxeval}
        minimize 1e-12 1e-08 10000 20000
WARNING: Resetting reneighboring criteria during minimization (../min.cpp:168)
Memory usage per processor = 3.35952 Mbytes
Step Temp PotEng Lx Ly Lz 
      28            0   -120.83473    1.0000002    34.744947    1.0000002 
      29            0   -120.83473    1.0000002    34.744947    1.0000002 
Loop time of 0.0234279 on 1 procs for 1 steps with 41 atoms

Minimization stats:
  Stopping criterion = linesearch alpha is zero
  Energy initial, next-to-last, final = 
        -120.834733674     -120.834733674     -120.834733674
  Force two-norm initial, final = 5.39373e-17 5.39373e-17
  Force max component initial, final = 4.50537e-17 4.50537e-17
  Final line search alpha, max atom move = 0.5 2.25268e-17
  Iterations, force evaluations = 1 2

Pair  time (%) = 5.52667e-05 (0.235901)
Neigh time (%) = 0 (0)
Comm  time (%) = 4.08129e-06 (0.0174206)
Outpt time (%) = 0 (0)
Other time (%) = 0.0233686 (99.7467)

Nlocal:    41 ave 41 max 41 min
Histogram: 1 0 0 0 0 0 0 0 0 0
Nghost:    185 ave 185 max 185 min
Histogram: 1 0 0 0 0 0 0 0 0 0
Neighs:    359 ave 359 max 359 min
Histogram: 1 0 0 0 0 0 0 0 0 0

Total # of neighbors = 359
Ave neighs/atom = 8.7561
Neighbor list builds = 0
Dangerous builds = 0
	# write_dump all atom ${dumpfile}
        next i
jump SELF loop1
        displace_atoms upper move 0.0 ${ystep1} 0.0 units lattice
        displace_atoms upper move 0.0 0.002 0.0 units lattice
        min_style ${style}
        min_style cg
        minimize ${etol} ${ftol} ${maxiter} ${maxeval}
        minimize 1e-12 ${ftol} ${maxiter} ${maxeval}
        minimize 1e-12 1e-08 ${maxiter} ${maxeval}
        minimize 1e-12 1e-08 10000 ${maxeval}
        minimize 1e-12 1e-08 10000 20000
WARNING: Resetting reneighboring criteria during minimization (../min.cpp:168)
Memory usage per processor = 3.35952 Mbytes
Step Temp PotEng Lx Ly Lz 
      29            0   -120.82398    1.0000002    34.748411    1.0000002 
      30            0   -120.82398    1.0000002    34.748411    1.0000002 
Loop time of 6.59318e-05 on 1 procs for 1 steps with 41 atoms

Minimization stats:
  Stopping criterion = linesearch alpha is zero
  Energy initial, next-to-last, final = 
        -120.823979449     -120.823979449     -120.823979449
  Force two-norm initial, final = 3.0765e-17 3.0765e-17
  Force max component initial, final = 2.96546e-17 2.96546e-17
  Final line search alpha, max atom move = 0.5 1.48273e-17
  Iterations, force evaluations = 1 2

Pair  time (%) = 2.53014e-05 (38.375)
Neigh time (%) = 0 (0)
Comm  time (%) = 4.14485e-06 (6.28657)
Outpt time (%) = 0 (0)
Other time (%) = 3.64856e-05 (55.3384)

Nlocal:    41 ave 41 max 41 min
Histogram: 1 0 0 0 0 0 0 0 0 0
Nghost:    185 ave 185 max 185 min
Histogram: 1 0 0 0 0 0 0 0 0 0
Neighs:    359 ave 359 max 359 min
Histogram: 1 0 0 0 0 0 0 0 0 0

Total # of neighbors = 359
Ave neighs/atom = 8.7561
Neighbor list builds = 0
Dangerous builds = 0
	# write_dump all atom ${dumpfile}
        next i
jump SELF loop1
        displace_atoms upper move 0.0 ${ystep1} 0.0 units lattice
        displace_atoms upper move 0.0 0.002 0.0 units lattice
        min_style ${style}
        min_style cg
        minimize ${etol} ${ftol} ${maxiter} ${maxeval}
        minimize 1e-12 ${ftol} ${maxiter} ${maxeval}
        minimize 1e-12 1e-08 ${maxiter} ${maxeval}
        minimize 1e-12 1e-08 10000 ${maxeval}
        minimize 1e-12 1e-08 10000 20000
WARNING: Resetting reneighboring criteria during minimization (../min.cpp:168)
Memory usage per processor = 3.35952 Mbytes
Step Temp PotEng Lx Ly Lz 
      30            0   -120.81294    1.0000002    34.751876    1.0000002 
      31            0   -120.81294    1.0000002    34.751876    1.0000002 
Loop time of 3.69209e-05 on 1 procs for 1 steps with 41 atoms

Minimization stats:
  Stopping criterion = linesearch alpha is zero
  Energy initial, next-to-last, final = 
        -120.812943159     -120.812943159     -120.812943159
  Force two-norm initial, final = 5.4983e-17 5.4983e-17
  Force max component initial, final = 4.63005e-17 4.63005e-17
  Final line search alpha, max atom move = 0.5 2.31503e-17
  Iterations, force evaluations = 1 2

Pair  time (%) = 2.5278e-05 (68.4652)
Neigh time (%) = 0 (0)
Comm  time (%) = 4.09828e-06 (11.1002)
Outpt time (%) = 0 (0)
Other time (%) = 7.54464e-06 (20.4346)

Nlocal:    41 ave 41 max 41 min
Histogram: 1 0 0 0 0 0 0 0 0 0
Nghost:    185 ave 185 max 185 min
Histogram: 1 0 0 0 0 0 0 0 0 0
Neighs:    359 ave 359 max 359 min
Histogram: 1 0 0 0 0 0 0 0 0 0

Total # of neighbors = 359
Ave neighs/atom = 8.7561
Neighbor list builds = 0
Dangerous builds = 0
	# write_dump all atom ${dumpfile}
        next i
jump SELF loop1
        displace_atoms upper move 0.0 ${ystep1} 0.0 units lattice
        displace_atoms upper move 0.0 0.002 0.0 units lattice
        min_style ${style}
        min_style cg
        minimize ${etol} ${ftol} ${maxiter} ${maxeval}
        minimize 1e-12 ${ftol} ${maxiter} ${maxeval}
        minimize 1e-12 1e-08 ${maxiter} ${maxeval}
        minimize 1e-12 1e-08 10000 ${maxeval}
        minimize 1e-12 1e-08 10000 20000
WARNING: Resetting reneighboring criteria during minimization (../min.cpp:168)
Memory usage per processor = 3.35952 Mbytes
Step Temp PotEng Lx Ly Lz 
      31            0   -120.80163    1.0000002     34.75534    1.0000002 
      32            0   -120.80163    1.0000002     34.75534    1.0000002 
Loop time of 0.000219052 on 1 procs for 1 steps with 41 atoms

Minimization stats:
  Stopping criterion = linesearch alpha is zero
  Energy initial, next-to-last, final = 
        -120.801629666     -120.801629666     -120.801629666
  Force two-norm initial, final = 5.23182e-17 5.23182e-17
  Force max component initial, final = 4.31021e-17 4.31021e-17
  Final line search alpha, max atom move = 0.5 2.15511e-17
  Iterations, force evaluations = 1 2

Pair  time (%) = 5.77796e-05 (26.3771)
Neigh time (%) = 0 (0)
Comm  time (%) = 7.0679e-05 (32.2658)
Outpt time (%) = 0 (0)
Other time (%) = 9.05936e-05 (41.3571)

Nlocal:    41 ave 41 max 41 min
Histogram: 1 0 0 0 0 0 0 0 0 0
Nghost:    185 ave 185 max 185 min
Histogram: 1 0 0 0 0 0 0 0 0 0
Neighs:    359 ave 359 max 359 min
Histogram: 1 0 0 0 0 0 0 0 0 0

Total # of neighbors = 359
Ave neighs/atom = 8.7561
Neighbor list builds = 0
Dangerous builds = 0
	# write_dump all atom ${dumpfile}
        next i
jump SELF loop1
        displace_atoms upper move 0.0 ${ystep1} 0.0 units lattice
        displace_atoms upper move 0.0 0.002 0.0 units lattice
        min_style ${style}
        min_style cg
        minimize ${etol} ${ftol} ${maxiter} ${maxeval}
        minimize 1e-12 ${ftol} ${maxiter} ${maxeval}
        minimize 1e-12 1e-08 ${maxiter} ${maxeval}
        minimize 1e-12 1e-08 10000 ${maxeval}
        minimize 1e-12 1e-08 10000 20000
WARNING: Resetting reneighboring criteria during minimization (../min.cpp:168)
Memory usage per processor = 3.35952 Mbytes
Step Temp PotEng Lx Ly Lz 
      32            0   -120.79004    1.0000002    34.758804    1.0000002 
      33            0   -120.79004    1.0000002    34.758804    1.0000002 
Loop time of 3.90509e-05 on 1 procs for 1 steps with 41 atoms

Minimization stats:
  Stopping criterion = linesearch alpha is zero
  Energy initial, next-to-last, final = 
        -120.790043933     -120.790043933     -120.790043933
  Force two-norm initial, final = 3.62599e-17 3.62599e-17
  Force max component initial, final = 2.96546e-17 2.96546e-17
  Final line search alpha, max atom move = 0.5 1.48273e-17
  Iterations, force evaluations = 1 2

Pair  time (%) = 2.49064e-05 (63.7792)
Neigh time (%) = 0 (0)
Comm  time (%) = 1.87801e-06 (4.80913)
Outpt time (%) = 0 (0)
Other time (%) = 1.22666e-05 (31.4117)

Nlocal:    41 ave 41 max 41 min
Histogram: 1 0 0 0 0 0 0 0 0 0
Nghost:    185 ave 185 max 185 min
Histogram: 1 0 0 0 0 0 0 0 0 0
Neighs:    359 ave 359 max 359 min
Histogram: 1 0 0 0 0 0 0 0 0 0

Total # of neighbors = 359
Ave neighs/atom = 8.7561
Neighbor list builds = 0
Dangerous builds = 0
	# write_dump all atom ${dumpfile}
        next i
jump SELF loop1
        displace_atoms upper move 0.0 ${ystep1} 0.0 units lattice
        displace_atoms upper move 0.0 0.002 0.0 units lattice
        min_style ${style}
        min_style cg
        minimize ${etol} ${ftol} ${maxiter} ${maxeval}
        minimize 1e-12 ${ftol} ${maxiter} ${maxeval}
        minimize 1e-12 1e-08 ${maxiter} ${maxeval}
        minimize 1e-12 1e-08 10000 ${maxeval}
        minimize 1e-12 1e-08 10000 20000
WARNING: Resetting reneighboring criteria during minimization (../min.cpp:168)
Memory usage per processor = 3.35952 Mbytes
Step Temp PotEng Lx Ly Lz 
      33            0   -120.77819    1.0000002    34.762268    1.0000002 
      34            0   -120.77819    1.0000002    34.762268    1.0000002 
Loop time of 3.89135e-05 on 1 procs for 1 steps with 41 atoms

Minimization stats:
  Stopping criterion = linesearch alpha is zero
  Energy initial, next-to-last, final = 
        -120.778190886     -120.778190886     -120.778190886
  Force two-norm initial, final = 2.97837e-17 2.97837e-17
  Force max component initial, final = 2.96546e-17 2.96546e-17
  Final line search alpha, max atom move = 0.5 1.48273e-17
  Iterations, force evaluations = 1 2

Pair  time (%) = 2.52555e-05 (64.9017)
Neigh time (%) = 0 (0)
Comm  time (%) = 5.05336e-06 (12.9861)
Outpt time (%) = 0 (0)
Other time (%) = 8.60461e-06 (22.1122)

Nlocal:    41 ave 41 max 41 min
Histogram: 1 0 0 0 0 0 0 0 0 0
Nghost:    185 ave 185 max 185 min
Histogram: 1 0 0 0 0 0 0 0 0 0
Neighs:    359 ave 359 max 359 min
Histogram: 1 0 0 0 0 0 0 0 0 0

Total # of neighbors = 359
Ave neighs/atom = 8.7561
Neighbor list builds = 0
Dangerous builds = 0
	# write_dump all atom ${dumpfile}
        next i
jump SELF loop1
        displace_atoms upper move 0.0 ${ystep1} 0.0 units lattice
        displace_atoms upper move 0.0 0.002 0.0 units lattice
        min_style ${style}
        min_style cg
        minimize ${etol} ${ftol} ${maxiter} ${maxeval}
        minimize 1e-12 ${ftol} ${maxiter} ${maxeval}
        minimize 1e-12 1e-08 ${maxiter} ${maxeval}
        minimize 1e-12 1e-08 10000 ${maxeval}
        minimize 1e-12 1e-08 10000 20000
WARNING: Resetting reneighboring criteria during minimization (../min.cpp:168)
Memory usage per processor = 3.35952 Mbytes
Step Temp PotEng Lx Ly Lz 
      34            0   -120.76608    1.0000002    34.765732    1.0000002 
      35            0   -120.76608    1.0000002    34.765732    1.0000002 
Loop time of 3.90607e-05 on 1 procs for 1 steps with 41 atoms

Minimization stats:
  Stopping criterion = linesearch alpha is zero
  Energy initial, next-to-last, final = 
        -120.766075544     -120.766075544     -120.766075544
  Force two-norm initial, final = 4.23254e-17 4.23254e-17
  Force max component initial, final = 3.02001e-17 3.02001e-17
  Final line search alpha, max atom move = 0.5 1.51001e-17
  Iterations, force evaluations = 1 2

Pair  time (%) = 2.49821e-05 (63.9572)
Neigh time (%) = 0 (0)
Comm  time (%) = 4.553e-06 (11.6562)
Outpt time (%) = 0 (0)
Other time (%) = 9.52557e-06 (24.3866)

Nlocal:    41 ave 41 max 41 min
Histogram: 1 0 0 0 0 0 0 0 0 0
Nghost:    185 ave 185 max 185 min
Histogram: 1 0 0 0 0 0 0 0 0 0
Neighs:    359 ave 359 max 359 min
Histogram: 1 0 0 0 0 0 0 0 0 0

Total # of neighbors = 359
Ave neighs/atom = 8.7561
Neighbor list builds = 0
Dangerous builds = 0
	# write_dump all atom ${dumpfile}
        next i
jump SELF loop1
        displace_atoms upper move 0.0 ${ystep1} 0.0 units lattice
        displace_atoms upper move 0.0 0.002 0.0 units lattice
        min_style ${style}
        min_style cg
        minimize ${etol} ${ftol} ${maxiter} ${maxeval}
        minimize 1e-12 ${ftol} ${maxiter} ${maxeval}
        minimize 1e-12 1e-08 ${maxiter} ${maxeval}
        minimize 1e-12 1e-08 10000 ${maxeval}
        minimize 1e-12 1e-08 10000 20000
WARNING: Resetting reneighboring criteria during minimization (../min.cpp:168)
Memory usage per processor = 3.35952 Mbytes
Step Temp PotEng Lx Ly Lz 
      35            0    -120.7537    1.0000002    34.769196    1.0000002 
      36            0    -120.7537    1.0000002    34.769196    1.0000002 
Loop time of 2.64263e-08 on 1 procs for 1 steps with 41 atoms

Minimization stats:
  Stopping criterion = linesearch alpha is zero
  Energy initial, next-to-last, final = 
        -120.753702898     -120.753702898     -120.753702898
  Force two-norm initial, final = 2.97191e-17 2.97191e-17
  Force max component initial, final = 2.96546e-17 2.96546e-17
  Final line search alpha, max atom move = 0.5 1.48273e-17
  Iterations, force evaluations = 1 2

Pair  time (%) = 7.92788e-08 (300)
Neigh time (%) = 0 (0)
Comm  time (%) = 1.58558e-07 (600)
Outpt time (%) = 0 (0)
Other time (%) = -2.1141e-07 (-800)

Nlocal:    41 ave 41 max 41 min
Histogram: 1 0 0 0 0 0 0 0 0 0
Nghost:    185 ave 185 max 185 min
Histogram: 1 0 0 0 0 0 0 0 0 0
Neighs:    359 ave 359 max 359 min
Histogram: 1 0 0 0 0 0 0 0 0 0

Total # of neighbors = 359
Ave neighs/atom = 8.7561
Neighbor list builds = 0
Dangerous builds = 0
	# write_dump all atom ${dumpfile}
        next i
jump SELF loop1
        displace_atoms upper move 0.0 ${ystep1} 0.0 units lattice
        displace_atoms upper move 0.0 0.002 0.0 units lattice
        min_style ${style}
        min_style cg
        minimize ${etol} ${ftol} ${maxiter} ${maxeval}
        minimize 1e-12 ${ftol} ${maxiter} ${maxeval}
        minimize 1e-12 1e-08 ${maxiter} ${maxeval}
        minimize 1e-12 1e-08 10000 ${maxeval}
        minimize 1e-12 1e-08 10000 20000
WARNING: Resetting reneighboring criteria during minimization (../min.cpp:168)
Memory usage per processor = 3.35952 Mbytes
Step Temp PotEng Lx Ly Lz 
      36            0   -120.74108    1.0000002     34.77266    1.0000002 
      37            0   -120.74108    1.0000002     34.77266    1.0000002 
Loop time of 5.80067e-05 on 1 procs for 1 steps with 41 atoms

Minimization stats:
  Stopping criterion = linesearch alpha is zero
  Energy initial, next-to-last, final = 
         -120.74107806      -120.74107806      -120.74107806
  Force two-norm initial, final = 5.20505e-17 5.20505e-17
  Force max component initial, final = 4.27769e-17 4.27769e-17
  Final line search alpha, max atom move = 0.5 2.13884e-17
  Iterations, force evaluations = 1 2

Pair  time (%) = 2.52688e-05 (43.5618)
Neigh time (%) = 0 (0)
Comm  time (%) = 6.12601e-06 (10.5609)
Outpt time (%) = 0 (0)
Other time (%) = 2.6612e-05 (45.8774)

Nlocal:    41 ave 41 max 41 min
Histogram: 1 0 0 0 0 0 0 0 0 0
Nghost:    185 ave 185 max 185 min
Histogram: 1 0 0 0 0 0 0 0 0 0
Neighs:    359 ave 359 max 359 min
Histogram: 1 0 0 0 0 0 0 0 0 0

Total # of neighbors = 359
Ave neighs/atom = 8.7561
Neighbor list builds = 0
Dangerous builds = 0
	# write_dump all atom ${dumpfile}
        next i
jump SELF loop1
        displace_atoms upper move 0.0 ${ystep1} 0.0 units lattice
        displace_atoms upper move 0.0 0.002 0.0 units lattice
        min_style ${style}
        min_style cg
        minimize ${etol} ${ftol} ${maxiter} ${maxeval}
        minimize 1e-12 ${ftol} ${maxiter} ${maxeval}
        minimize 1e-12 1e-08 ${maxiter} ${maxeval}
        minimize 1e-12 1e-08 10000 ${maxeval}
        minimize 1e-12 1e-08 10000 20000
WARNING: Resetting reneighboring criteria during minimization (../min.cpp:168)
Memory usage per processor = 3.35952 Mbytes
Step Temp PotEng Lx Ly Lz 
      37            0   -120.72821    1.0000002    34.776124    1.0000002 
      38            0   -120.72821    1.0000002    34.776124    1.0000002 
Loop time of 3.70163e-05 on 1 procs for 1 steps with 41 atoms

Minimization stats:
  Stopping criterion = linesearch alpha is zero
  Energy initial, next-to-last, final = 
        -120.728206067     -120.728206067     -120.728206067
  Force two-norm initial, final = 3.08532e-17 3.08532e-17
  Force max component initial, final = 2.96546e-17 2.96546e-17
  Final line search alpha, max atom move = 0.5 1.48273e-17
  Iterations, force evaluations = 1 2

Pair  time (%) = 2.38488e-05 (64.4279)
Neigh time (%) = 0 (0)
Comm  time (%) = 2.14728e-06 (5.8009)
Outpt time (%) = 0 (0)
Other time (%) = 1.10202e-05 (29.7712)

Nlocal:    41 ave 41 max 41 min
Histogram: 1 0 0 0 0 0 0 0 0 0
Nghost:    185 ave 185 max 185 min
Histogram: 1 0 0 0 0 0 0 0 0 0
Neighs:    359 ave 359 max 359 min
Histogram: 1 0 0 0 0 0 0 0 0 0

Total # of neighbors = 359
Ave neighs/atom = 8.7561
Neighbor list builds = 0
Dangerous builds = 0
	# write_dump all atom ${dumpfile}
        next i
jump SELF loop1
        displace_atoms upper move 0.0 ${ystep1} 0.0 units lattice
        displace_atoms upper move 0.0 0.002 0.0 units lattice
        min_style ${style}
        min_style cg
        minimize ${etol} ${ftol} ${maxiter} ${maxeval}
        minimize 1e-12 ${ftol} ${maxiter} ${maxeval}
        minimize 1e-12 1e-08 ${maxiter} ${maxeval}
        minimize 1e-12 1e-08 10000 ${maxeval}
        minimize 1e-12 1e-08 10000 20000
WARNING: Resetting reneighboring criteria during minimization (../min.cpp:168)
Memory usage per processor = 3.35952 Mbytes
Step Temp PotEng Lx Ly Lz 
      38            0   -120.71509    1.0000002    34.779588    1.0000002 
      39            0   -120.71509    1.0000002    34.779588    1.0000002 
Loop time of 3.90394e-05 on 1 procs for 1 steps with 41 atoms

Minimization stats:
  Stopping criterion = linesearch alpha is zero
  Energy initial, next-to-last, final = 
        -120.715092035     -120.715092035     -120.715092035
  Force two-norm initial, final = 3.62287e-17 3.62287e-17
  Force max component initial, final = 2.96546e-17 2.96546e-17
  Final line search alpha, max atom move = 0.5 1.48273e-17
  Iterations, force evaluations = 1 2

Pair  time (%) = 2.50571e-05 (64.1842)
Neigh time (%) = 0 (0)
Comm  time (%) = 5.6565e-06 (14.4892)
Outpt time (%) = 0 (0)
Other time (%) = 8.32579e-06 (21.3266)

Nlocal:    41 ave 41 max 41 min
Histogram: 1 0 0 0 0 0 0 0 0 0
Nghost:    185 ave 185 max 185 min
Histogram: 1 0 0 0 0 0 0 0 0 0
Neighs:    359 ave 359 max 359 min
Histogram: 1 0 0 0 0 0 0 0 0 0

Total # of neighbors = 359
Ave neighs/atom = 8.7561
Neighbor list builds = 0
Dangerous builds = 0
	# write_dump all atom ${dumpfile}
        next i
jump SELF loop1
        displace_atoms upper move 0.0 ${ystep1} 0.0 units lattice
        displace_atoms upper move 0.0 0.002 0.0 units lattice
        min_style ${style}
        min_style cg
        minimize ${etol} ${ftol} ${maxiter} ${maxeval}
        minimize 1e-12 ${ftol} ${maxiter} ${maxeval}
        minimize 1e-12 1e-08 ${maxiter} ${maxeval}
        minimize 1e-12 1e-08 10000 ${maxeval}
        minimize 1e-12 1e-08 10000 20000
WARNING: Resetting reneighboring criteria during minimization (../min.cpp:168)
Memory usage per processor = 3.35952 Mbytes
Step Temp PotEng Lx Ly Lz 
      39            0   -120.70174    1.0000002    34.783052    1.0000002 
      40            0   -120.70174    1.0000002    34.783052    1.0000002 
Loop time of 3.70828e-05 on 1 procs for 1 steps with 41 atoms

Minimization stats:
  Stopping criterion = linesearch alpha is zero
  Energy initial, next-to-last, final = 
        -120.701740163     -120.701740163     -120.701740163
  Force two-norm initial, final = 5.3305e-17 5.3305e-17
  Force max component initial, final = 4.42947e-17 4.42947e-17
  Final line search alpha, max atom move = 0.5 2.21474e-17
  Iterations, force evaluations = 1 2

Pair  time (%) = 2.30022e-05 (62.0291)
Neigh time (%) = 0 (0)
Comm  time (%) = 3.97721e-06 (10.7252)
Outpt time (%) = 0 (0)
Other time (%) = 1.01035e-05 (27.2456)

Nlocal:    41 ave 41 max 41 min
Histogram: 1 0 0 0 0 0 0 0 0 0
Nghost:    185 ave 185 max 185 min
Histogram: 1 0 0 0 0 0 0 0 0 0
Neighs:    359 ave 359 max 359 min
Histogram: 1 0 0 0 0 0 0 0 0 0

Total # of neighbors = 359
Ave neighs/atom = 8.7561
Neighbor list builds = 0
Dangerous builds = 0
	# write_dump all atom ${dumpfile}
        next i
jump SELF loop1
        displace_atoms upper move 0.0 ${ystep1} 0.0 units lattice
        displace_atoms upper move 0.0 0.002 0.0 units lattice
        min_style ${style}
        min_style cg
        minimize ${etol} ${ftol} ${maxiter} ${maxeval}
        minimize 1e-12 ${ftol} ${maxiter} ${maxeval}
        minimize 1e-12 1e-08 ${maxiter} ${maxeval}
        minimize 1e-12 1e-08 10000 ${maxeval}
        minimize 1e-12 1e-08 10000 20000
WARNING: Resetting reneighboring criteria during minimization (../min.cpp:168)
Memory usage per processor = 3.35952 Mbytes
Step Temp PotEng Lx Ly Lz 
      40            0   -120.68816    1.0000002    34.786517    1.0000002 
      41            0   -120.68816    1.0000002    34.786517    1.0000002 
Loop time of 3.70337e-05 on 1 procs for 1 steps with 41 atoms

Minimization stats:
  Stopping criterion = linesearch alpha is zero
  Energy initial, next-to-last, final = 
        -120.688156169     -120.688156169     -120.688156169
  Force two-norm initial, final = 5.44364e-17 5.44364e-17
  Force max component initial, final = 4.565e-17 4.565e-17
  Final line search alpha, max atom move = 0.5 2.2825e-17
  Iterations, force evaluations = 1 2

Pair  time (%) = 2.48547e-05 (67.1137)
Neigh time (%) = 0 (0)
Comm  time (%) = 1.77487e-06 (4.79258)
Outpt time (%) = 0 (0)
Other time (%) = 1.04042e-05 (28.0938)

Nlocal:    41 ave 41 max 41 min
Histogram: 1 0 0 0 0 0 0 0 0 0
Nghost:    185 ave 185 max 185 min
Histogram: 1 0 0 0 0 0 0 0 0 0
Neighs:    359 ave 359 max 359 min
Histogram: 1 0 0 0 0 0 0 0 0 0

Total # of neighbors = 359
Ave neighs/atom = 8.7561
Neighbor list builds = 0
Dangerous builds = 0
	# write_dump all atom ${dumpfile}
        next i
jump SELF loop1
        displace_atoms upper move 0.0 ${ystep1} 0.0 units lattice
        displace_atoms upper move 0.0 0.002 0.0 units lattice
        min_style ${style}
        min_style cg
        minimize ${etol} ${ftol} ${maxiter} ${maxeval}
        minimize 1e-12 ${ftol} ${maxiter} ${maxeval}
        minimize 1e-12 1e-08 ${maxiter} ${maxeval}
        minimize 1e-12 1e-08 10000 ${maxeval}
        minimize 1e-12 1e-08 10000 20000
WARNING: Resetting reneighboring criteria during minimization (../min.cpp:168)
Memory usage per processor = 3.35952 Mbytes
Step Temp PotEng Lx Ly Lz 
      41            0   -120.67435    1.0000002    34.789981    1.0000002 
      42            0   -120.67435    1.0000002    34.789981    1.0000002 
Loop time of 3.80524e-05 on 1 procs for 1 steps with 41 atoms

Minimization stats:
  Stopping criterion = linesearch alpha is zero
  Energy initial, next-to-last, final = 
        -120.674345633     -120.674345633     -120.674345633
  Force two-norm initial, final = 5.03192e-17 5.03192e-17
  Force max component initial, final = 4.06525e-17 4.06525e-17
  Final line search alpha, max atom move = 0.5 2.03262e-17
  Iterations, force evaluations = 1 2

Pair  time (%) = 2.50499e-05 (65.8299)
Neigh time (%) = 0 (0)
Comm  time (%) = 2.68838e-06 (7.06493)
Outpt time (%) = 0 (0)
Other time (%) = 1.03142e-05 (27.1051)

Nlocal:    41 ave 41 max 41 min
Histogram: 1 0 0 0 0 0 0 0 0 0
Nghost:    185 ave 185 max 185 min
Histogram: 1 0 0 0 0 0 0 0 0 0
Neighs:    359 ave 359 max 359 min
Histogram: 1 0 0 0 0 0 0 0 0 0

Total # of neighbors = 359
Ave neighs/atom = 8.7561
Neighbor list builds = 0
Dangerous builds = 0
	# write_dump all atom ${dumpfile}
        next i
jump SELF loop1
        displace_atoms upper move 0.0 ${ystep1} 0.0 units lattice
        displace_atoms upper move 0.0 0.002 0.0 units lattice
        min_style ${style}
        min_style cg
        minimize ${etol} ${ftol} ${maxiter} ${maxeval}
        minimize 1e-12 ${ftol} ${maxiter} ${maxeval}
        minimize 1e-12 1e-08 ${maxiter} ${maxeval}
        minimize 1e-12 1e-08 10000 ${maxeval}
        minimize 1e-12 1e-08 10000 20000
WARNING: Resetting reneighboring criteria during minimization (../min.cpp:168)
Memory usage per processor = 3.35952 Mbytes
Step Temp PotEng Lx Ly Lz 
      42            0   -120.66031    1.0000002    34.793445    1.0000002 
      43            0   -120.66031    1.0000002    34.793445    1.0000002 
Loop time of 3.70879e-05 on 1 procs for 1 steps with 41 atoms

Minimization stats:
  Stopping criterion = linesearch alpha is zero
  Energy initial, next-to-last, final = 
        -120.660313725     -120.660313725     -120.660313725
  Force two-norm initial, final = 8.22052e-17 8.22052e-17
  Force max component initial, final = 8.13677e-17 8.13677e-17
  Final line search alpha, max atom move = 0.5 4.06838e-17
  Iterations, force evaluations = 1 2

Pair  time (%) = 2.50636e-05 (67.5789)
Neigh time (%) = 0 (0)
Comm  time (%) = 1.71596e-06 (4.62674)
Outpt time (%) = 0 (0)
Other time (%) = 1.03083e-05 (27.7943)

Nlocal:    41 ave 41 max 41 min
Histogram: 1 0 0 0 0 0 0 0 0 0
Nghost:    185 ave 185 max 185 min
Histogram: 1 0 0 0 0 0 0 0 0 0
Neighs:    359 ave 359 max 359 min
Histogram: 1 0 0 0 0 0 0 0 0 0

Total # of neighbors = 359
Ave neighs/atom = 8.7561
Neighbor list builds = 0
Dangerous builds = 0
	# write_dump all atom ${dumpfile}
        next i
jump SELF loop1
        displace_atoms upper move 0.0 ${ystep1} 0.0 units lattice
        displace_atoms upper move 0.0 0.002 0.0 units lattice
        min_style ${style}
        min_style cg
        minimize ${etol} ${ftol} ${maxiter} ${maxeval}
        minimize 1e-12 ${ftol} ${maxiter} ${maxeval}
        minimize 1e-12 1e-08 ${maxiter} ${maxeval}
        minimize 1e-12 1e-08 10000 ${maxeval}
        minimize 1e-12 1e-08 10000 20000
WARNING: Resetting reneighboring criteria during minimization (../min.cpp:168)
Memory usage per processor = 3.35952 Mbytes
Step Temp PotEng Lx Ly Lz 
      43            0   -120.64607    1.0000002    34.796909    1.0000002 
      44            0   -120.64607    1.0000002    34.796909    1.0000002 
Loop time of 3.70512e-05 on 1 procs for 1 steps with 41 atoms

Minimization stats:
  Stopping criterion = linesearch alpha is zero
  Energy initial, next-to-last, final = 
          -120.6460652       -120.6460652       -120.6460652
  Force two-norm initial, final = 1.16263e-16 1.16263e-16
  Force max component initial, final = 8.30448e-17 8.30448e-17
  Final line search alpha, max atom move = 0.5 4.15224e-17
  Iterations, force evaluations = 1 2

Pair  time (%) = 2.49533e-05 (67.3482)
Neigh time (%) = 0 (0)
Comm  time (%) = 3.73344e-06 (10.0764)
Outpt time (%) = 0 (0)
Other time (%) = 8.36444e-06 (22.5754)

Nlocal:    41 ave 41 max 41 min
Histogram: 1 0 0 0 0 0 0 0 0 0
Nghost:    185 ave 185 max 185 min
Histogram: 1 0 0 0 0 0 0 0 0 0
Neighs:    359 ave 359 max 359 min
Histogram: 1 0 0 0 0 0 0 0 0 0

Total # of neighbors = 359
Ave neighs/atom = 8.7561
Neighbor list builds = 0
Dangerous builds = 0
	# write_dump all atom ${dumpfile}
        next i
jump SELF loop1
        displace_atoms upper move 0.0 ${ystep1} 0.0 units lattice
        displace_atoms upper move 0.0 0.002 0.0 units lattice
        min_style ${style}
        min_style cg
        minimize ${etol} ${ftol} ${maxiter} ${maxeval}
        minimize 1e-12 ${ftol} ${maxiter} ${maxeval}
        minimize 1e-12 1e-08 ${maxiter} ${maxeval}
        minimize 1e-12 1e-08 10000 ${maxeval}
        minimize 1e-12 1e-08 10000 20000
WARNING: Resetting reneighboring criteria during minimization (../min.cpp:168)
Memory usage per processor = 3.35952 Mbytes
Step Temp PotEng Lx Ly Lz 
      44            0    -120.6316    1.0000002    34.800373    1.0000002 
      45            0    -120.6316    1.0000002    34.800373    1.0000002 
Loop time of 3.90067e-05 on 1 procs for 1 steps with 41 atoms

Minimization stats:
  Stopping criterion = linesearch alpha is zero
  Energy initial, next-to-last, final = 
        -120.631604797     -120.631604797     -120.631604797
  Force two-norm initial, final = 8.47903e-17 8.47903e-17
  Force max component initial, final = 8.13677e-17 8.13677e-17
  Final line search alpha, max atom move = 0.5 4.06838e-17
  Iterations, force evaluations = 1 2

Pair  time (%) = 2.57737e-05 (66.0749)
Neigh time (%) = 0 (0)
Comm  time (%) = 4.37442e-06 (11.2145)
Outpt time (%) = 0 (0)
Other time (%) = 8.85862e-06 (22.7105)

Nlocal:    41 ave 41 max 41 min
Histogram: 1 0 0 0 0 0 0 0 0 0
Nghost:    185 ave 185 max 185 min
Histogram: 1 0 0 0 0 0 0 0 0 0
Neighs:    359 ave 359 max 359 min
Histogram: 1 0 0 0 0 0 0 0 0 0

Total # of neighbors = 359
Ave neighs/atom = 8.7561
Neighbor list builds = 0
Dangerous builds = 0
	# write_dump all atom ${dumpfile}
        next i
jump SELF loop1
        displace_atoms upper move 0.0 ${ystep1} 0.0 units lattice
        displace_atoms upper move 0.0 0.002 0.0 units lattice
        min_style ${style}
        min_style cg
        minimize ${etol} ${ftol} ${maxiter} ${maxeval}
        minimize 1e-12 ${ftol} ${maxiter} ${maxeval}
        minimize 1e-12 1e-08 ${maxiter} ${maxeval}
        minimize 1e-12 1e-08 10000 ${maxeval}
[...]
Histogram: 1 0 0 0 0 0 0 0 0 0
Nghost:    185 ave 185 max 185 min
Histogram: 1 0 0 0 0 0 0 0 0 0
Neighs:    349 ave 349 max 349 min
Histogram: 1 0 0 0 0 0 0 0 0 0

Total # of neighbors = 349
Ave neighs/atom = 8.5122
Neighbor list builds = 0
Dangerous builds = 0
	# write_dump all atom ${dumpfile}
        next i
jump SELF loop1
        displace_atoms upper move 0.0 ${ystep1} 0.0 units lattice
        displace_atoms upper move 0.0 0.002 0.0 units lattice
        min_style ${style}
        min_style cg
        minimize ${etol} ${ftol} ${maxiter} ${maxeval}
        minimize 1e-12 ${ftol} ${maxiter} ${maxeval}
        minimize 1e-12 1e-08 ${maxiter} ${maxeval}
        minimize 1e-12 1e-08 10000 ${maxeval}
        minimize 1e-12 1e-08 10000 20000
WARNING: Resetting reneighboring criteria during minimization (../min.cpp:168)
Memory usage per processor = 3.35955 Mbytes
Step Temp PotEng Lx Ly Lz 
     490            0   -118.99996    1.0000002    36.345363    1.0000002 
     491            0   -118.99996    1.0000002    36.345363    1.0000002 
Loop time of 1.79593e-05 on 1 procs for 1 steps with 41 atoms

Minimization stats:
  Stopping criterion = search direction is not downhill
  Energy initial, next-to-last, final = 
        -118.999956633     -118.999956633     -118.999956633
  Force two-norm initial, final = 0 0
  Force max component initial, final = 0 0
  Final line search alpha, max atom move = 0.5 0
  Iterations, force evaluations = 1 0

Pair  time (%) = 9.09832e-06 (50.6609)
Neigh time (%) = 0 (0)
Comm  time (%) = 2.09024e-06 (11.6388)
Outpt time (%) = 0 (0)
Other time (%) = 6.77072e-06 (37.7004)

Nlocal:    41 ave 41 max 41 min
Histogram: 1 0 0 0 0 0 0 0 0 0
Nghost:    185 ave 185 max 185 min
Histogram: 1 0 0 0 0 0 0 0 0 0
Neighs:    349 ave 349 max 349 min
Histogram: 1 0 0 0 0 0 0 0 0 0

Total # of neighbors = 349
Ave neighs/atom = 8.5122
Neighbor list builds = 0
Dangerous builds = 0
	# write_dump all atom ${dumpfile}
        next i
jump SELF loop1
        displace_atoms upper move 0.0 ${ystep1} 0.0 units lattice
        displace_atoms upper move 0.0 0.002 0.0 units lattice
        min_style ${style}
        min_style cg
        minimize ${etol} ${ftol} ${maxiter} ${maxeval}
        minimize 1e-12 ${ftol} ${maxiter} ${maxeval}
        minimize 1e-12 1e-08 ${maxiter} ${maxeval}
        minimize 1e-12 1e-08 10000 ${maxeval}
        minimize 1e-12 1e-08 10000 20000
WARNING: Resetting reneighboring criteria during minimization (../min.cpp:168)
Memory usage per processor = 3.35955 Mbytes
Step Temp PotEng Lx Ly Lz 
     491            0   -118.99996    1.0000002    36.348827    1.0000002 
     492            0   -118.99996    1.0000002    36.348827    1.0000002 
Loop time of 1.70806e-05 on 1 procs for 1 steps with 41 atoms

Minimization stats:
  Stopping criterion = search direction is not downhill
  Energy initial, next-to-last, final = 
        -118.999956633     -118.999956633     -118.999956633
  Force two-norm initial, final = 0 0
  Force max component initial, final = 0 0
  Final line search alpha, max atom move = 0.5 0
  Iterations, force evaluations = 1 0

Pair  time (%) = 8.93488e-06 (52.3102)
Neigh time (%) = 0 (0)
Comm  time (%) = 2.00188e-06 (11.7202)
Outpt time (%) = 0 (0)
Other time (%) = 6.14382e-06 (35.9696)

Nlocal:    41 ave 41 max 41 min
Histogram: 1 0 0 0 0 0 0 0 0 0
Nghost:    185 ave 185 max 185 min
Histogram: 1 0 0 0 0 0 0 0 0 0
Neighs:    349 ave 349 max 349 min
Histogram: 1 0 0 0 0 0 0 0 0 0

Total # of neighbors = 349
Ave neighs/atom = 8.5122
Neighbor list builds = 0
Dangerous builds = 0
	# write_dump all atom ${dumpfile}
        next i
jump SELF loop1
        displace_atoms upper move 0.0 ${ystep1} 0.0 units lattice
        displace_atoms upper move 0.0 0.002 0.0 units lattice
        min_style ${style}
        min_style cg
        minimize ${etol} ${ftol} ${maxiter} ${maxeval}
        minimize 1e-12 ${ftol} ${maxiter} ${maxeval}
        minimize 1e-12 1e-08 ${maxiter} ${maxeval}
        minimize 1e-12 1e-08 10000 ${maxeval}
        minimize 1e-12 1e-08 10000 20000
WARNING: Resetting reneighboring criteria during minimization (../min.cpp:168)
Memory usage per processor = 3.35955 Mbytes
Step Temp PotEng Lx Ly Lz 
     492            0   -118.99996    1.0000002    36.352291    1.0000002 
     493            0   -118.99996    1.0000002    36.352291    1.0000002 
Loop time of 1.78844e-05 on 1 procs for 1 steps with 41 atoms

Minimization stats:
  Stopping criterion = search direction is not downhill
  Energy initial, next-to-last, final = 
        -118.999956633     -118.999956633     -118.999956633
  Force two-norm initial, final = 0 0
  Force max component initial, final = 0 0
  Final line search alpha, max atom move = 0.5 0
  Iterations, force evaluations = 1 0

Pair  time (%) = 9.02347e-06 (50.4544)
Neigh time (%) = 0 (0)
Comm  time (%) = 1.94064e-06 (10.851)
Outpt time (%) = 0 (0)
Other time (%) = 6.92031e-06 (38.6946)

Nlocal:    41 ave 41 max 41 min
Histogram: 1 0 0 0 0 0 0 0 0 0
Nghost:    185 ave 185 max 185 min
Histogram: 1 0 0 0 0 0 0 0 0 0
Neighs:    349 ave 349 max 349 min
Histogram: 1 0 0 0 0 0 0 0 0 0

Total # of neighbors = 349
Ave neighs/atom = 8.5122
Neighbor list builds = 0
Dangerous builds = 0
	# write_dump all atom ${dumpfile}
        next i
jump SELF loop1
        displace_atoms upper move 0.0 ${ystep1} 0.0 units lattice
        displace_atoms upper move 0.0 0.002 0.0 units lattice
        min_style ${style}
        min_style cg
        minimize ${etol} ${ftol} ${maxiter} ${maxeval}
        minimize 1e-12 ${ftol} ${maxiter} ${maxeval}
        minimize 1e-12 1e-08 ${maxiter} ${maxeval}
        minimize 1e-12 1e-08 10000 ${maxeval}
        minimize 1e-12 1e-08 10000 20000
WARNING: Resetting reneighboring criteria during minimization (../min.cpp:168)
Memory usage per processor = 3.35955 Mbytes
Step Temp PotEng Lx Ly Lz 
     493            0   -118.99996    1.0000002    36.355755    1.0000002 
     494            0   -118.99996    1.0000002    36.355755    1.0000002 
Loop time of 1.7112e-05 on 1 procs for 1 steps with 41 atoms

Minimization stats:
  Stopping criterion = search direction is not downhill
  Energy initial, next-to-last, final = 
        -118.999956633     -118.999956633     -118.999956633
  Force two-norm initial, final = 0 0
  Force max component initial, final = 0 0
  Final line search alpha, max atom move = 0.5 0
  Iterations, force evaluations = 1 0

Pair  time (%) = 8.96631e-06 (52.3978)
Neigh time (%) = 0 (0)
Comm  time (%) = 1.82632e-06 (10.6728)
Outpt time (%) = 0 (0)
Other time (%) = 6.31937e-06 (36.9295)

Nlocal:    41 ave 41 max 41 min
Histogram: 1 0 0 0 0 0 0 0 0 0
Nghost:    185 ave 185 max 185 min
Histogram: 1 0 0 0 0 0 0 0 0 0
Neighs:    349 ave 349 max 349 min
Histogram: 1 0 0 0 0 0 0 0 0 0

Total # of neighbors = 349
Ave neighs/atom = 8.5122
Neighbor list builds = 0
Dangerous builds = 0
	# write_dump all atom ${dumpfile}
        next i
jump SELF loop1
        displace_atoms upper move 0.0 ${ystep1} 0.0 units lattice
        displace_atoms upper move 0.0 0.002 0.0 units lattice
        min_style ${style}
        min_style cg
        minimize ${etol} ${ftol} ${maxiter} ${maxeval}
        minimize 1e-12 ${ftol} ${maxiter} ${maxeval}
        minimize 1e-12 1e-08 ${maxiter} ${maxeval}
        minimize 1e-12 1e-08 10000 ${maxeval}
        minimize 1e-12 1e-08 10000 20000
WARNING: Resetting reneighboring criteria during minimization (../min.cpp:168)
Memory usage per processor = 3.35955 Mbytes
Step Temp PotEng Lx Ly Lz 
     494            0   -118.99996    1.0000002    36.359219    1.0000002 
     495            0   -118.99996    1.0000002    36.359219    1.0000002 
Loop time of 1.89998e-05 on 1 procs for 1 steps with 41 atoms

Minimization stats:
  Stopping criterion = search direction is not downhill
  Energy initial, next-to-last, final = 
        -118.999956633     -118.999956633     -118.999956633
  Force two-norm initial, final = 0 0
  Force max component initial, final = 0 0
  Final line search alpha, max atom move = 0.5 0
  Iterations, force evaluations = 1 0

Pair  time (%) = 9.90042e-06 (52.1081)
Neigh time (%) = 0 (0)
Comm  time (%) = 9.79286e-07 (5.15419)
Outpt time (%) = 0 (0)
Other time (%) = 8.12009e-06 (42.7378)

Nlocal:    41 ave 41 max 41 min
Histogram: 1 0 0 0 0 0 0 0 0 0
Nghost:    185 ave 185 max 185 min
Histogram: 1 0 0 0 0 0 0 0 0 0
Neighs:    349 ave 349 max 349 min
Histogram: 1 0 0 0 0 0 0 0 0 0

Total # of neighbors = 349
Ave neighs/atom = 8.5122
Neighbor list builds = 0
Dangerous builds = 0
	# write_dump all atom ${dumpfile}
        next i
jump SELF loop1
        displace_atoms upper move 0.0 ${ystep1} 0.0 units lattice
        displace_atoms upper move 0.0 0.002 0.0 units lattice
        min_style ${style}
        min_style cg
        minimize ${etol} ${ftol} ${maxiter} ${maxeval}
        minimize 1e-12 ${ftol} ${maxiter} ${maxeval}
        minimize 1e-12 1e-08 ${maxiter} ${maxeval}
        minimize 1e-12 1e-08 10000 ${maxeval}
        minimize 1e-12 1e-08 10000 20000
WARNING: Resetting reneighboring criteria during minimization (../min.cpp:168)
Memory usage per processor = 3.35955 Mbytes
Step Temp PotEng Lx Ly Lz 
     495            0   -118.99996    1.0000002    36.362683    1.0000002 
     496            0   -118.99996    1.0000002    36.362683    1.0000002 
Loop time of 1.80458e-05 on 1 procs for 1 steps with 41 atoms

Minimization stats:
  Stopping criterion = search direction is not downhill
  Energy initial, next-to-last, final = 
        -118.999956633     -118.999956633     -118.999956633
  Force two-norm initial, final = 0 0
  Force max component initial, final = 0 0
  Final line search alpha, max atom move = 0.5 0
  Iterations, force evaluations = 1 0

Pair  time (%) = 8.94628e-06 (49.5755)
Neigh time (%) = 0 (0)
Comm  time (%) = 7.86385e-07 (4.35773)
Outpt time (%) = 0 (0)
Other time (%) = 8.3131e-06 (46.0668)

Nlocal:    41 ave 41 max 41 min
Histogram: 1 0 0 0 0 0 0 0 0 0
Nghost:    185 ave 185 max 185 min
Histogram: 1 0 0 0 0 0 0 0 0 0
Neighs:    349 ave 349 max 349 min
Histogram: 1 0 0 0 0 0 0 0 0 0

Total # of neighbors = 349
Ave neighs/atom = 8.5122
Neighbor list builds = 0
Dangerous builds = 0
	# write_dump all atom ${dumpfile}
        next i
jump SELF loop1
        displace_atoms upper move 0.0 ${ystep1} 0.0 units lattice
        displace_atoms upper move 0.0 0.002 0.0 units lattice
        min_style ${style}
        min_style cg
        minimize ${etol} ${ftol} ${maxiter} ${maxeval}
        minimize 1e-12 ${ftol} ${maxiter} ${maxeval}
        minimize 1e-12 1e-08 ${maxiter} ${maxeval}
        minimize 1e-12 1e-08 10000 ${maxeval}
        minimize 1e-12 1e-08 10000 20000
WARNING: Resetting reneighboring criteria during minimization (../min.cpp:168)
Memory usage per processor = 3.35955 Mbytes
Step Temp PotEng Lx Ly Lz 
     496            0   -118.99996    1.0000002    36.366147    1.0000002 
     497            0   -118.99996    1.0000002    36.366147    1.0000002 
Loop time of 6.30304e-05 on 1 procs for 1 steps with 41 atoms

Minimization stats:
  Stopping criterion = search direction is not downhill
  Energy initial, next-to-last, final = 
        -118.999956633     -118.999956633     -118.999956633
  Force two-norm initial, final = 0 0
  Force max component initial, final = 0 0
  Final line search alpha, max atom move = 0.5 0
  Iterations, force evaluations = 1 0

Pair  time (%) = 1.49569e-05 (23.7297)
Neigh time (%) = 0 (0)
Comm  time (%) = 1.08606e-05 (17.2308)
Outpt time (%) = 0 (0)
Other time (%) = 3.72129e-05 (59.0395)

Nlocal:    41 ave 41 max 41 min
Histogram: 1 0 0 0 0 0 0 0 0 0
Nghost:    185 ave 185 max 185 min
Histogram: 1 0 0 0 0 0 0 0 0 0
Neighs:    349 ave 349 max 349 min
Histogram: 1 0 0 0 0 0 0 0 0 0

Total # of neighbors = 349
Ave neighs/atom = 8.5122
Neighbor list builds = 0
Dangerous builds = 0
	# write_dump all atom ${dumpfile}
        next i
jump SELF loop1
        displace_atoms upper move 0.0 ${ystep1} 0.0 units lattice
        displace_atoms upper move 0.0 0.002 0.0 units lattice
        min_style ${style}
        min_style cg
        minimize ${etol} ${ftol} ${maxiter} ${maxeval}
        minimize 1e-12 ${ftol} ${maxiter} ${maxeval}
        minimize 1e-12 1e-08 ${maxiter} ${maxeval}
        minimize 1e-12 1e-08 10000 ${maxeval}
        minimize 1e-12 1e-08 10000 20000
WARNING: Resetting reneighboring criteria during minimization (../min.cpp:168)
Memory usage per processor = 3.35955 Mbytes
Step Temp PotEng Lx Ly Lz 
     497            0   -118.99996    1.0000002    36.369611    1.0000002 
     498            0   -118.99996    1.0000002    36.369611    1.0000002 
Loop time of 1.80339e-05 on 1 procs for 1 steps with 41 atoms

Minimization stats:
  Stopping criterion = search direction is not downhill
  Energy initial, next-to-last, final = 
        -118.999956633     -118.999956633     -118.999956633
  Force two-norm initial, final = 0 0
  Force max component initial, final = 0 0
  Final line search alpha, max atom move = 0.5 0
  Iterations, force evaluations = 1 0

Pair  time (%) = 8.88808e-06 (49.2854)
Neigh time (%) = 0 (0)
Comm  time (%) = 2.14681e-06 (11.9043)
Outpt time (%) = 0 (0)
Other time (%) = 6.99901e-06 (38.8103)

Nlocal:    41 ave 41 max 41 min
Histogram: 1 0 0 0 0 0 0 0 0 0
Nghost:    185 ave 185 max 185 min
Histogram: 1 0 0 0 0 0 0 0 0 0
Neighs:    349 ave 349 max 349 min
Histogram: 1 0 0 0 0 0 0 0 0 0

Total # of neighbors = 349
Ave neighs/atom = 8.5122
Neighbor list builds = 0
Dangerous builds = 0
	# write_dump all atom ${dumpfile}
        next i
jump SELF loop1
        displace_atoms upper move 0.0 ${ystep1} 0.0 units lattice
        displace_atoms upper move 0.0 0.002 0.0 units lattice
        min_style ${style}
        min_style cg
        minimize ${etol} ${ftol} ${maxiter} ${maxeval}
        minimize 1e-12 ${ftol} ${maxiter} ${maxeval}
        minimize 1e-12 1e-08 ${maxiter} ${maxeval}
        minimize 1e-12 1e-08 10000 ${maxeval}
        minimize 1e-12 1e-08 10000 20000
WARNING: Resetting reneighboring criteria during minimization (../min.cpp:168)
Memory usage per processor = 3.35955 Mbytes
Step Temp PotEng Lx Ly Lz 
     498            0   -118.99996    1.0000002    36.373075    1.0000002 
     499            0   -118.99996    1.0000002    36.373075    1.0000002 
Loop time of 1.70162e-05 on 1 procs for 1 steps with 41 atoms

Minimization stats:
  Stopping criterion = search direction is not downhill
  Energy initial, next-to-last, final = 
        -118.999956633     -118.999956633     -118.999956633
  Force two-norm initial, final = 0 0
  Force max component initial, final = 0 0
  Final line search alpha, max atom move = 0.5 0
  Iterations, force evaluations = 1 0

Pair  time (%) = 9.10892e-06 (53.5309)
Neigh time (%) = 0 (0)
Comm  time (%) = 2.11154e-06 (12.409)
Outpt time (%) = 0 (0)
Other time (%) = 5.79574e-06 (34.0601)

Nlocal:    41 ave 41 max 41 min
Histogram: 1 0 0 0 0 0 0 0 0 0
Nghost:    185 ave 185 max 185 min
Histogram: 1 0 0 0 0 0 0 0 0 0
Neighs:    349 ave 349 max 349 min
Histogram: 1 0 0 0 0 0 0 0 0 0

Total # of neighbors = 349
Ave neighs/atom = 8.5122
Neighbor list builds = 0
Dangerous builds = 0
	# write_dump all atom ${dumpfile}
        next i
jump SELF loop1
        displace_atoms upper move 0.0 ${ystep1} 0.0 units lattice
        displace_atoms upper move 0.0 0.002 0.0 units lattice
        min_style ${style}
        min_style cg
        minimize ${etol} ${ftol} ${maxiter} ${maxeval}
        minimize 1e-12 ${ftol} ${maxiter} ${maxeval}
        minimize 1e-12 1e-08 ${maxiter} ${maxeval}
        minimize 1e-12 1e-08 10000 ${maxeval}
        minimize 1e-12 1e-08 10000 20000
WARNING: Resetting reneighboring criteria during minimization (../min.cpp:168)
Memory usage per processor = 3.35955 Mbytes
Step Temp PotEng Lx Ly Lz 
     499            0   -118.99996    1.0000002     36.37654    1.0000002 
     500            0   -118.99996    1.0000002     36.37654    1.0000002 
Loop time of 1.81048e-05 on 1 procs for 1 steps with 41 atoms

Minimization stats:
  Stopping criterion = search direction is not downhill
  Energy initial, next-to-last, final = 
        -118.999956633     -118.999956633     -118.999956633
  Force two-norm initial, final = 0 0
  Force max component initial, final = 0 0
  Final line search alpha, max atom move = 0.5 0
  Iterations, force evaluations = 1 0

Pair  time (%) = 9.00542e-06 (49.7405)
Neigh time (%) = 0 (0)
Comm  time (%) = 1.90444e-06 (10.519)
Outpt time (%) = 0 (0)
Other time (%) = 7.19493e-06 (39.7405)

Nlocal:    41 ave 41 max 41 min
Histogram: 1 0 0 0 0 0 0 0 0 0
Nghost:    185 ave 185 max 185 min
Histogram: 1 0 0 0 0 0 0 0 0 0
Neighs:    349 ave 349 max 349 min
Histogram: 1 0 0 0 0 0 0 0 0 0

Total # of neighbors = 349
Ave neighs/atom = 8.5122
Neighbor list builds = 0
Dangerous builds = 0
	# write_dump all atom ${dumpfile}
        next i
jump SELF loop1
        displace_atoms upper move 0.0 ${ystep1} 0.0 units lattice
        displace_atoms upper move 0.0 0.002 0.0 units lattice
        min_style ${style}
        min_style cg
        minimize ${etol} ${ftol} ${maxiter} ${maxeval}
        minimize 1e-12 ${ftol} ${maxiter} ${maxeval}
        minimize 1e-12 1e-08 ${maxiter} ${maxeval}
        minimize 1e-12 1e-08 10000 ${maxeval}
        minimize 1e-12 1e-08 10000 20000
WARNING: Resetting reneighboring criteria during minimization (../min.cpp:168)
Memory usage per processor = 3.35955 Mbytes
Step Temp PotEng Lx Ly Lz 
     500            0   -118.99996    1.0000002    36.380004    1.0000002 
     501            0   -118.99996    1.0000002    36.380004    1.0000002 
Loop time of 1.70995e-05 on 1 procs for 1 steps with 41 atoms

Minimization stats:
  Stopping criterion = search direction is not downhill
  Energy initial, next-to-last, final = 
        -118.999956633     -118.999956633     -118.999956633
  Force two-norm initial, final = 0 0
  Force max component initial, final = 0 0
  Final line search alpha, max atom move = 0.5 0
  Iterations, force evaluations = 1 0

Pair  time (%) = 8.95374e-06 (52.3624)
Neigh time (%) = 0 (0)
Comm  time (%) = 1.80129e-06 (10.5342)
Outpt time (%) = 0 (0)
Other time (%) = 6.34452e-06 (37.1034)

Nlocal:    41 ave 41 max 41 min
Histogram: 1 0 0 0 0 0 0 0 0 0
Nghost:    185 ave 185 max 185 min
Histogram: 1 0 0 0 0 0 0 0 0 0
Neighs:    349 ave 349 max 349 min
Histogram: 1 0 0 0 0 0 0 0 0 0

Total # of neighbors = 349
Ave neighs/atom = 8.5122
Neighbor list builds = 0
Dangerous builds = 0
	# write_dump all atom ${dumpfile}
        next i
jump SELF loop1

unfix 2
min_style ${style}
min_style cg
minimize ${etol} ${ftol} ${maxiter} ${maxeval}
minimize 1e-12 ${ftol} ${maxiter} ${maxeval}
minimize 1e-12 1e-08 ${maxiter} ${maxeval}
minimize 1e-12 1e-08 10000 ${maxeval}
minimize 1e-12 1e-08 10000 20000
WARNING: Resetting reneighboring criteria during minimization (../min.cpp:168)
Memory usage per processor = 3.35955 Mbytes
Step Temp PotEng Lx Ly Lz 
     501            0   -118.99996    1.0000002    36.380004    1.0000002 
     502            0   -118.99996    1.0000002    36.380004    1.0000002 
Loop time of 7.00967e-05 on 1 procs for 1 steps with 41 atoms

Minimization stats:
  Stopping criterion = linesearch alpha is zero
  Energy initial, next-to-last, final = 
        -118.999956633     -118.999956633     -118.999956633
  Force two-norm initial, final = 6.11446e-06 6.11446e-06
  Force max component initial, final = 3.05723e-06 3.05723e-06
  Final line search alpha, max atom move = 0.5 1.52862e-06
  Iterations, force evaluations = 1 2

Pair  time (%) = 2.49567e-05 (35.6032)
Neigh time (%) = 0 (0)
Comm  time (%) = 1.07402e-05 (15.322)
Outpt time (%) = 0 (0)
Other time (%) = 3.43998e-05 (49.0748)

Nlocal:    41 ave 41 max 41 min
Histogram: 1 0 0 0 0 0 0 0 0 0
Nghost:    185 ave 185 max 185 min
Histogram: 1 0 0 0 0 0 0 0 0 0
Neighs:    349 ave 349 max 349 min
Histogram: 1 0 0 0 0 0 0 0 0 0

Total # of neighbors = 349
Ave neighs/atom = 8.5122
Neighbor list builds = 0
Dangerous builds = 0

