LAMMPS (28 Jun 2014)
# attempt at getting surface energy

#file prefix
variable prefix string surf_V_brittlenewoffset
variable dumpfile string ${prefix}.*.dump
variable dumpfile string surf_V_brittlenewoffset.*.dump
variable restartfile string ${prefix}.*.equil
variable restartfile string surf_V_brittlenewoffset.*.equil

#Mass (g/mol)
variable m equal 1

# lattice constant (in Angstroms) and orientation of axes (given by lattice vectors)
variable rho equal 0.9165
variable x1 equal 1
variable x2 equal 0
variable x3 equal 0
variable y1 equal 0
variable y2 equal 1
variable y3 equal 0
# length of lattice in different directions (using orientation of lattice vectors)
variable ax equal sqrt(${x1}*${x1}+${x2}*${x2}+${x3}*${x3})
variable ax equal sqrt(1*${x1}+${x2}*${x2}+${x3}*${x3})
variable ax equal sqrt(1*1+${x2}*${x2}+${x3}*${x3})
variable ax equal sqrt(1*1+0*${x2}+${x3}*${x3})
variable ax equal sqrt(1*1+0*0+${x3}*${x3})
variable ax equal sqrt(1*1+0*0+0*${x3})
variable ax equal sqrt(1*1+0*0+0*0)
variable ay equal sqrt(${y1}*${y1}+${y2}*${y2}+${y3}*${y3})
variable ay equal sqrt(0*${y1}+${y2}*${y2}+${y3}*${y3})
variable ay equal sqrt(0*0+${y2}*${y2}+${y3}*${y3})
variable ay equal sqrt(0*0+1*${y2}+${y3}*${y3})
variable ay equal sqrt(0*0+1*1+${y3}*${y3})
variable ay equal sqrt(0*0+1*1+0*${y3})
variable ay equal sqrt(0*0+1*1+0*0)
variable az equal 1

# size of box in lattice units
variable lxpos equal 1
variable lxneg equal 0
variable lypos equal 10
variable lyneg equal -1*${lypos}
variable lyneg equal -1*10
variable lzpos equal 1
variable lzneg equal 0

# Define minimization parameters and damping
variable etol equal 1.0e-12
variable ftol equal 1.0e-8
variable maxiter equal 10000
variable maxeval equal 20000
variable style string cg

# boundary conditions
dimension	2
boundary	p s p
atom_style	atomic

# create geometry
units		lj
lattice         hex ${rho}
lattice         hex 0.9165
Lattice spacing in x,y,z = 1.12245 1.94415 1.12245
region		myregion block ${lxneg} ${lxpos} ${lyneg} ${lypos} ${lzneg} ${lzpos} units lattice
region		myregion block 0 ${lxpos} ${lyneg} ${lypos} ${lzneg} ${lzpos} units lattice
region		myregion block 0 1 ${lyneg} ${lypos} ${lzneg} ${lzpos} units lattice
region		myregion block 0 1 -10 ${lypos} ${lzneg} ${lzpos} units lattice
region		myregion block 0 1 -10 10 ${lzneg} ${lzpos} units lattice
region		myregion block 0 1 -10 10 0 ${lzpos} units lattice
region		myregion block 0 1 -10 10 0 1 units lattice
create_box	1 myregion
Created orthogonal box = (0 -19.4415 0) to (1.12245 19.4415 1.12245)
  1 by 1 by 1 MPI processor grid
create_atoms	1 box
Created 41 atoms

# define masses
mass * $m
mass * 1

# my fake/morse potential
pair_style      morse 2.5
pair_coeff      * * 1.0 3.5 1.12246
neighbor	0.3 bin
neigh_modify	delay 5

# define groups
region	    upper block INF INF 0.01 ${lypos} INF INF units lattice
region	    upper block INF INF 0.01 10 INF INF units lattice
group		upper region upper
20 atoms in group upper

# Setup output
thermo 1
thermo_style custom step temp pe lx ly lz
thermo_modify norm no

# Compute initial state by relaxing box
min_style ${style}
min_style cg
minimize ${etol} ${ftol} ${maxiter} ${maxeval}
minimize 1e-12 ${ftol} ${maxiter} ${maxeval}
minimize 1e-12 1e-08 ${maxiter} ${maxeval}
minimize 1e-12 1e-08 10000 ${maxeval}
minimize 1e-12 1e-08 10000 20000
WARNING: Resetting reneighboring criteria during minimization (../min.cpp:168)
Memory usage per processor = 3.35941 Mbytes
Step Temp PotEng Lx Ly Lz 
       0            0   -138.67269    1.1224537    38.890715    1.1224537 
       1            0   -138.76285    1.1224537    38.890715    1.1224537 
       2            0   -138.80555    1.1224537    38.890715    1.1224537 
       3            0   -138.88177    1.1224537    38.570092    1.1224537 
       4            0   -138.91369    1.1224537    38.570092    1.1224537 
       5            0   -138.94291    1.1224537    38.570092    1.1224537 
       6            0   -138.97352    1.1224537    38.570092    1.1224537 
       7            0   -139.00918    1.1224537    38.570092    1.1224537 
       8            0   -139.02131    1.1224537    38.570092    1.1224537 
       9            0   -139.04118    1.1224537    38.570092    1.1224537 
      10            0   -139.07733    1.1224537    38.570092    1.1224537 
      11            0   -139.18568    1.1224537    38.570092    1.1224537 
      12            0   -139.31727    1.1224537    38.113465    1.1224537 
      13            0   -139.45175    1.1224537    38.113465    1.1224537 
      14            0    -139.5146    1.1224537    37.792581    1.1224537 
      15            0   -139.54161    1.1224537    37.792581    1.1224537 
      16            0   -139.57419    1.1224537    37.792581    1.1224537 
      17            0   -139.60028    1.1224537    37.792581    1.1224537 
      18            0    -139.6207    1.1224537    37.792581    1.1224537 
      19            0   -139.63971    1.1224537    37.792581    1.1224537 
      20            0   -139.64999    1.1224537    37.792581    1.1224537 
      21            0   -139.66021    1.1224537    37.852281    1.1224537 
      22            0   -139.66886    1.1224537    37.852281    1.1224537 
      23            0   -139.70458    1.1224537    37.852281    1.1224537 
      24            0   -139.76754    1.1224537    37.852281    1.1224537 
      25            0   -139.81898    1.1224537    37.883043    1.1224537 
      26            0   -139.83134    1.1224537    37.883043    1.1224537 
      27            0   -139.83811    1.1224537    37.883043    1.1224537 
      28            0   -139.84195    1.1224537    37.883043    1.1224537 
      29            0    -139.8481    1.1224537    37.883043    1.1224537 
      30            0   -139.86582    1.1224537    37.883043    1.1224537 
      31            0   -139.89505    1.1224537    37.883043    1.1224537 
      32            0    -139.9161    1.1224537    37.548566    1.1224537 
      33            0   -139.92426    1.1224537    37.548566    1.1224537 
      34            0   -139.94154    1.1224537    37.548566    1.1224537 
      35            0   -139.95926    1.1224537    37.548566    1.1224537 
      36            0   -139.97855    1.1224537    37.548566    1.1224537 
      37            0   -140.00161    1.1224537    37.548566    1.1224537 
      38            0   -140.01489    1.1224537    37.548566    1.1224537 
      39            0   -140.02643    1.1224537    37.548566    1.1224537 
      40            0   -140.03276    1.1224537    37.406253    1.1224537 
      41            0   -140.04224    1.1224537    37.406253    1.1224537 
      42            0   -140.05759    1.1224537    37.406253    1.1224537 
      43            0   -140.06961    1.1224537    37.406253    1.1224537 
      44            0   -140.07659    1.1224537    37.406253    1.1224537 
      45            0    -140.0812    1.1224537    37.406253    1.1224537 
      46            0   -140.08539    1.1224537    37.406253    1.1224537 
      47            0   -140.08904    1.1224537    37.406253    1.1224537 
      48            0   -140.09163    1.1224537    37.406253    1.1224537 
      49            0   -140.09314    1.1224537    37.406253    1.1224537 
      50            0   -140.09487    1.1224537    37.406253    1.1224537 
      51            0   -140.09649    1.1224537    37.406253    1.1224537 
      52            0    -140.0981    1.1224537    37.406253    1.1224537 
      53            0   -140.09913    1.1224537    37.406253    1.1224537 
      54            0   -140.10061    1.1224537    37.406253    1.1224537 
      55            0     -140.103    1.1224537    37.406253    1.1224537 
      56            0   -140.10495    1.1224537    37.406253    1.1224537 
      57            0   -140.10601    1.1224537    37.281425    1.1224537 
      58            0   -140.10688    1.1224537    37.281425    1.1224537 
      59            0    -140.1082    1.1224537    37.281425    1.1224537 
      60            0   -140.10865    1.1224537    37.281425    1.1224537 
      61            0   -140.10897    1.1224537    37.281425    1.1224537 
      62            0   -140.10935    1.1224537    37.281425    1.1224537 
      63            0   -140.10974    1.1224537    37.281425    1.1224537 
      64            0   -140.11107    1.1224537    37.281425    1.1224537 
      65            0   -140.11312    1.1224537    37.281425    1.1224537 
      66            0   -140.11852    1.1224537    37.281425    1.1224537 
      67            0   -140.12068    1.1224537    37.281425    1.1224537 
      68            0   -140.12218    1.1224537    37.281425    1.1224537 
      69            0   -140.12391    1.1224537    37.281425    1.1224537 
      70            0   -140.12457    1.1224537    37.281425    1.1224537 
      71            0   -140.12498    1.1224537    37.281425    1.1224537 
      72            0   -140.12533    1.1224537    37.281425    1.1224537 
      73            0   -140.12569    1.1224537    37.281425    1.1224537 
      74            0   -140.12604    1.1224537    37.281425    1.1224537 
      75            0   -140.12625    1.1224537    37.281425    1.1224537 
      76            0   -140.12636    1.1224537    37.281425    1.1224537 
      77            0   -140.12665    1.1224537    37.281425    1.1224537 
      78            0   -140.12703    1.1224537    37.281425    1.1224537 
      79            0   -140.12732    1.1224537    37.281425    1.1224537 
      80            0   -140.12755    1.1224537    37.281425    1.1224537 
      81            0   -140.12791    1.1224537    37.281425    1.1224537 
      82            0   -140.12807    1.1224537    37.281425    1.1224537 
      83            0   -140.12818    1.1224537    37.281425    1.1224537 
      84            0   -140.12826    1.1224537    37.281425    1.1224537 
      85            0   -140.12856    1.1224537    37.281425    1.1224537 
      86            0   -140.12912    1.1224537    37.281425    1.1224537 
      87            0   -140.12929    1.1224537    37.281425    1.1224537 
      88            0   -140.12993    1.1224537    37.281425    1.1224537 
      89            0   -140.13114    1.1224537    37.281425    1.1224537 
      90            0   -140.13176    1.1224537    37.281425    1.1224537 
      91            0   -140.13201    1.1224537    37.281425    1.1224537 
      92            0   -140.13234    1.1224537    37.281425    1.1224537 
      93            0   -140.13248    1.1224537    37.281425    1.1224537 
      94            0   -140.13265    1.1224537    37.281425    1.1224537 
      95            0   -140.13276    1.1224537    37.281425    1.1224537 
      96            0   -140.13282    1.1224537    37.281425    1.1224537 
      97            0   -140.13289    1.1224537    37.281425    1.1224537 
      98            0   -140.13307    1.1224537    37.281425    1.1224537 
      99            0   -140.13343    1.1224537    37.281425    1.1224537 
     100            0   -140.13377    1.1224537    37.281425    1.1224537 
     101            0   -140.13424    1.1224537     36.97313    1.1224537 
     102            0   -140.13448    1.1224537     36.97313    1.1224537 
     103            0   -140.13462    1.1224537     36.97313    1.1224537 
     104            0   -140.13472    1.1224537     36.97313    1.1224537 
     105            0   -140.13478    1.1224537     36.97313    1.1224537 
     106            0   -140.13482    1.1224537     36.97313    1.1224537 
     107            0   -140.13483    1.1224537     36.97313    1.1224537 
     108            0   -140.13483    1.1224537     36.97313    1.1224537 
     109            0   -140.13484    1.1224537     36.97313    1.1224537 
     110            0   -140.13486    1.1224537     36.97313    1.1224537 
     111            0   -140.13488    1.1224537     36.97313    1.1224537 
     112            0   -140.13492    1.1224537     36.97313    1.1224537 
     113            0   -140.13496    1.1224537     36.97313    1.1224537 
     114            0   -140.13499    1.1224537     36.97313    1.1224537 
     115            0   -140.13502    1.1224537     36.97313    1.1224537 
     116            0   -140.13504    1.1224537     36.97313    1.1224537 
     117            0   -140.13505    1.1224537     36.97313    1.1224537 
     118            0   -140.13506    1.1224537     36.97313    1.1224537 
     119            0   -140.13507    1.1224537     36.97313    1.1224537 
     120            0   -140.13507    1.1224537     36.97313    1.1224537 
     121            0   -140.13507    1.1224537     36.97313    1.1224537 
     122            0   -140.13508    1.1224537     36.97313    1.1224537 
     123            0   -140.13508    1.1224537     36.97313    1.1224537 
     124            0   -140.13508    1.1224537     36.97313    1.1224537 
     125            0    -140.1351    1.1224537     36.97313    1.1224537 
     126            0   -140.13514    1.1224537     36.97313    1.1224537 
     127            0   -140.13519    1.1224537     36.97313    1.1224537 
     128            0   -140.13522    1.1224537     36.97313    1.1224537 
     129            0   -140.13524    1.1224537     36.97313    1.1224537 
     130            0   -140.13525    1.1224537     36.97313    1.1224537 
     131            0   -140.13525    1.1224537     36.97313    1.1224537 
     132            0   -140.13525    1.1224537     36.97313    1.1224537 
     133            0   -140.13526    1.1224537     36.97313    1.1224537 
     134            0   -140.13526    1.1224537     36.97313    1.1224537 
     135            0   -140.13526    1.1224537     36.97313    1.1224537 
     136            0   -140.13526    1.1224537     36.97313    1.1224537 
     137            0   -140.13526    1.1224537     36.97313    1.1224537 
     138            0   -140.13527    1.1224537     36.97313    1.1224537 
     139            0   -140.13527    1.1224537     36.97313    1.1224537 
     140            0   -140.13527    1.1224537     36.97313    1.1224537 
     141            0   -140.13527    1.1224537     36.97313    1.1224537 
     142            0   -140.13527    1.1224537     36.97313    1.1224537 
     143            0   -140.13527    1.1224537     36.97313    1.1224537 
     144            0   -140.13527    1.1224537     36.97313    1.1224537 
     145            0   -140.13527    1.1224537     36.97313    1.1224537 
     146            0   -140.13528    1.1224537     36.97313    1.1224537 
     147            0   -140.13528    1.1224537     36.97313    1.1224537 
     148            0   -140.13528    1.1224537     36.97313    1.1224537 
     149            0   -140.13528    1.1224537     36.97313    1.1224537 
     150            0   -140.13528    1.1224537     36.97313    1.1224537 
     151            0   -140.13528    1.1224537     36.97313    1.1224537 
     152            0   -140.13528    1.1224537     36.97313    1.1224537 
     153            0   -140.13529    1.1224537     36.97313    1.1224537 
     154            0   -140.13529    1.1224537     36.97313    1.1224537 
     155            0   -140.13529    1.1224537     36.97313    1.1224537 
     156            0   -140.13529    1.1224537     36.97313    1.1224537 
     157            0   -140.13529    1.1224537     36.97313    1.1224537 
     158            0   -140.13529    1.1224537     36.97313    1.1224537 
     159            0   -140.13529    1.1224537     36.97313    1.1224537 
     160            0   -140.13529    1.1224537     36.97313    1.1224537 
     161            0   -140.13529    1.1224537     36.97313    1.1224537 
     162            0   -140.13529    1.1224537     36.97313    1.1224537 
     163            0   -140.13529    1.1224537     36.97313    1.1224537 
     164            0   -140.13529    1.1224537     36.97313    1.1224537 
     165            0   -140.13529    1.1224537     36.97313    1.1224537 
     166            0   -140.13529    1.1224537     36.97313    1.1224537 
     167            0   -140.13529    1.1224537     36.97313    1.1224537 
     168            0   -140.13529    1.1224537     36.97313    1.1224537 
     169            0   -140.13529    1.1224537     36.97313    1.1224537 
     170            0   -140.13529    1.1224537     36.97313    1.1224537 
     171            0   -140.13529    1.1224537     36.97313    1.1224537 
     172            0   -140.13529    1.1224537     36.97313    1.1224537 
     173            0   -140.13529    1.1224537     36.97313    1.1224537 
     174            0   -140.13529    1.1224537     36.97313    1.1224537 
     175            0   -140.13529    1.1224537     36.97313    1.1224537 
     176            0   -140.13529    1.1224537     36.97313    1.1224537 
     177            0   -140.13529    1.1224537     36.97313    1.1224537 
     178            0   -140.13529    1.1224537     36.97313    1.1224537 
     179            0   -140.13529    1.1224537     36.97313    1.1224537 
     180            0   -140.13529    1.1224537     36.97313    1.1224537 
     181            0   -140.13529    1.1224537     36.97313    1.1224537 
     182            0   -140.13529    1.1224537     36.97313    1.1224537 
     183            0   -140.13529    1.1224537     36.97313    1.1224537 
     184            0   -140.13529    1.1224537     36.97313    1.1224537 
     185            0   -140.13529    1.1224537     36.97313    1.1224537 
     186            0   -140.13529    1.1224537     36.97313    1.1224537 
     187            0   -140.13529    1.1224537     36.97313    1.1224537 
     188            0   -140.13529    1.1224537     36.97313    1.1224537 
     189            0   -140.13529    1.1224537     36.97313    1.1224537 
     190            0   -140.13529    1.1224537     36.97313    1.1224537 
     191            0   -140.13529    1.1224537     36.97313    1.1224537 
     192            0   -140.13529    1.1224537     36.97313    1.1224537 
     193            0   -140.13529    1.1224537     36.97313    1.1224537 
     194            0   -140.13529    1.1224537     36.97313    1.1224537 
     195            0   -140.13529    1.1224537     36.97313    1.1224537 
     196            0   -140.13529    1.1224537     36.97313    1.1224537 
     197            0   -140.13529    1.1224537     36.97313    1.1224537 
     198            0   -140.13529    1.1224537     36.97313    1.1224537 
     199            0   -140.13529    1.1224537     36.97313    1.1224537 
     200            0   -140.13529    1.1224537     36.97313    1.1224537 
     201            0   -140.13529    1.1224537     36.97313    1.1224537 
     202            0   -140.13529    1.1224537     36.97313    1.1224537 
     203            0   -140.13529    1.1224537     36.97313    1.1224537 
     204            0   -140.13529    1.1224537     36.97313    1.1224537 
     205            0   -140.13529    1.1224537     36.97313    1.1224537 
     206            0   -140.13529    1.1224537     36.97313    1.1224537 
     207            0   -140.13529    1.1224537     36.97313    1.1224537 
     208            0   -140.13529    1.1224537     36.97313    1.1224537 
     209            0   -140.13529    1.1224537     36.97313    1.1224537 
Loop time of 0.0541569 on 1 procs for 209 steps with 41 atoms

Minimization stats:
  Stopping criterion = linesearch alpha is zero
  Energy initial, next-to-last, final = 
        -138.672691552     -140.135293113     -140.135293113
  Force two-norm initial, final = 1.62742 0.00123632
  Force max component initial, final = 0.978185 0.000345535
  Final line search alpha, max atom move = 0.0078125 2.69949e-06
  Iterations, force evaluations = 209 1247

Pair  time (%) = 0.0373253 (68.9206)
Neigh time (%) = 0.000104048 (0.192123)
Comm  time (%) = 0.00460028 (8.49435)
Outpt time (%) = 0.00952533 (17.5884)
Other time (%) = 0.00260201 (4.80458)

Nlocal:    41 ave 41 max 41 min
Histogram: 1 0 0 0 0 0 0 0 0 0
Nghost:    185 ave 185 max 185 min
Histogram: 1 0 0 0 0 0 0 0 0 0
Neighs:    367 ave 367 max 367 min
Histogram: 1 0 0 0 0 0 0 0 0 0

Total # of neighbors = 367
Ave neighs/atom = 8.95122
Neighbor list builds = 9
Dangerous builds = 0

# don't allow atoms to relax in y-direction
fix 2 all setforce NULL 0.0 NULL

# Energy curve will have nstep steps
variable nsteps equal 500
variable sstep1 equal 1.0
variable ystep1 equal ${sstep1}/(${ay}*${nsteps})
variable ystep1 equal 1/(${ay}*${nsteps})
variable ystep1 equal 1/(1*${nsteps})
variable ystep1 equal 1/(1*500)

variable i loop ${nsteps}
variable i loop 500
label loop1
        displace_atoms upper move 0.0 ${ystep1} 0.0 units lattice
        displace_atoms upper move 0.0 0.002 0.0 units lattice
        min_style ${style}
        min_style cg
        minimize ${etol} ${ftol} ${maxiter} ${maxeval}
        minimize 1e-12 ${ftol} ${maxiter} ${maxeval}
        minimize 1e-12 1e-08 ${maxiter} ${maxeval}
        minimize 1e-12 1e-08 10000 ${maxeval}
        minimize 1e-12 1e-08 10000 20000
WARNING: Resetting reneighboring criteria during minimization (../min.cpp:168)
Memory usage per processor = 3.35941 Mbytes
Step Temp PotEng Lx Ly Lz 
     209            0   -140.13494    1.1224537    37.136751    1.1224537 
     210            0   -140.13494    1.1224537    37.136751    1.1224537 
Loop time of 8.8901e-05 on 1 procs for 1 steps with 41 atoms

Minimization stats:
  Stopping criterion = energy tolerance
  Energy initial, next-to-last, final = 
        -140.134937741     -140.134937741     -140.134937741
  Force two-norm initial, final = 7.46031e-14 3.76459e-12
  Force max component initial, final = 2.38143e-14 1.42564e-12
  Final line search alpha, max atom move = 1 1.42564e-12
  Iterations, force evaluations = 1 1

Pair  time (%) = 7.20855e-05 (81.0852)
Neigh time (%) = 0 (0)
Comm  time (%) = 2.0758e-06 (2.33496)
Outpt time (%) = 0 (0)
Other time (%) = 1.47397e-05 (16.5799)

Nlocal:    41 ave 41 max 41 min
Histogram: 1 0 0 0 0 0 0 0 0 0
Nghost:    185 ave 185 max 185 min
Histogram: 1 0 0 0 0 0 0 0 0 0
Neighs:    359 ave 359 max 359 min
Histogram: 1 0 0 0 0 0 0 0 0 0

Total # of neighbors = 359
Ave neighs/atom = 8.7561
Neighbor list builds = 0
Dangerous builds = 0
	# write_dump all atom ${dumpfile}
        next i
jump SELF loop1
        displace_atoms upper move 0.0 ${ystep1} 0.0 units lattice
        displace_atoms upper move 0.0 0.002 0.0 units lattice
        min_style ${style}
        min_style cg
        minimize ${etol} ${ftol} ${maxiter} ${maxeval}
        minimize 1e-12 ${ftol} ${maxiter} ${maxeval}
        minimize 1e-12 1e-08 ${maxiter} ${maxeval}
        minimize 1e-12 1e-08 10000 ${maxeval}
        minimize 1e-12 1e-08 10000 20000
WARNING: Resetting reneighboring criteria during minimization (../min.cpp:168)
Memory usage per processor = 3.35941 Mbytes
Step Temp PotEng Lx Ly Lz 
     210            0   -140.13389    1.1224537     37.14064    1.1224537 
     211            0   -140.13389    1.1224537     37.14064    1.1224537 
Loop time of 6.59588e-05 on 1 procs for 1 steps with 41 atoms

Minimization stats:
  Stopping criterion = energy tolerance
  Energy initial, next-to-last, final = 
        -140.133890776     -140.133890776     -140.133890776
  Force two-norm initial, final = 3.75571e-12 2.15145e-10
  Force max component initial, final = 1.4253e-12 8.08075e-11
  Final line search alpha, max atom move = 1 8.08075e-11
  Iterations, force evaluations = 1 1

Pair  time (%) = 5.29627e-05 (80.2966)
Neigh time (%) = 0 (0)
Comm  time (%) = 3.09595e-06 (4.69376)
Outpt time (%) = 0 (0)
Other time (%) = 9.90019e-06 (15.0097)

Nlocal:    41 ave 41 max 41 min
Histogram: 1 0 0 0 0 0 0 0 0 0
Nghost:    185 ave 185 max 185 min
Histogram: 1 0 0 0 0 0 0 0 0 0
Neighs:    359 ave 359 max 359 min
Histogram: 1 0 0 0 0 0 0 0 0 0

Total # of neighbors = 359
Ave neighs/atom = 8.7561
Neighbor list builds = 0
Dangerous builds = 0
	# write_dump all atom ${dumpfile}
        next i
jump SELF loop1
        displace_atoms upper move 0.0 ${ystep1} 0.0 units lattice
        displace_atoms upper move 0.0 0.002 0.0 units lattice
        min_style ${style}
        min_style cg
        minimize ${etol} ${ftol} ${maxiter} ${maxeval}
        minimize 1e-12 ${ftol} ${maxiter} ${maxeval}
        minimize 1e-12 1e-08 ${maxiter} ${maxeval}
        minimize 1e-12 1e-08 10000 ${maxeval}
        minimize 1e-12 1e-08 10000 20000
WARNING: Resetting reneighboring criteria during minimization (../min.cpp:168)
Memory usage per processor = 3.35941 Mbytes
Step Temp PotEng Lx Ly Lz 
     211            0   -140.13217    1.1224537    37.144528    1.1224537 
     212            0   -140.13217    1.1224537    37.144528    1.1224537 
Loop time of 9.99116e-05 on 1 procs for 1 steps with 41 atoms

Minimization stats:
  Stopping criterion = linesearch alpha is zero
  Energy initial, next-to-last, final = 
        -140.132173865     -140.132173865     -140.132173865
  Force two-norm initial, final = 2.14772e-10 2.14772e-10
  Force max component initial, final = 8.08104e-11 8.08104e-11
  Final line search alpha, max atom move = 0.5 4.04052e-11
  Iterations, force evaluations = 1 2

Pair  time (%) = 7.01222e-05 (70.1842)
Neigh time (%) = 0 (0)
Comm  time (%) = 1.62022e-05 (16.2166)
Outpt time (%) = 0 (0)
Other time (%) = 1.35872e-05 (13.5992)

Nlocal:    41 ave 41 max 41 min
Histogram: 1 0 0 0 0 0 0 0 0 0
Nghost:    185 ave 185 max 185 min
Histogram: 1 0 0 0 0 0 0 0 0 0
Neighs:    359 ave 359 max 359 min
Histogram: 1 0 0 0 0 0 0 0 0 0

Total # of neighbors = 359
Ave neighs/atom = 8.7561
Neighbor list builds = 0
Dangerous builds = 0
	# write_dump all atom ${dumpfile}
        next i
jump SELF loop1
        displace_atoms upper move 0.0 ${ystep1} 0.0 units lattice
        displace_atoms upper move 0.0 0.002 0.0 units lattice
        min_style ${style}
        min_style cg
        minimize ${etol} ${ftol} ${maxiter} ${maxeval}
        minimize 1e-12 ${ftol} ${maxiter} ${maxeval}
        minimize 1e-12 1e-08 ${maxiter} ${maxeval}
        minimize 1e-12 1e-08 10000 ${maxeval}
        minimize 1e-12 1e-08 10000 20000
WARNING: Resetting reneighboring criteria during minimization (../min.cpp:168)
Memory usage per processor = 3.35941 Mbytes
Step Temp PotEng Lx Ly Lz 
     212            0   -140.12981    1.1224537    37.148416    1.1224537 
     213            0   -140.12981    1.1224537    37.148416    1.1224537 
Loop time of 0.00319412 on 1 procs for 1 steps with 41 atoms

Minimization stats:
  Stopping criterion = linesearch alpha is zero
  Energy initial, next-to-last, final = 
        -140.129808191     -140.129808191     -140.129808191
  Force two-norm initial, final = 2.14409e-10 2.14409e-10
  Force max component initial, final = 8.08099e-11 8.08099e-11
  Final line search alpha, max atom move = 0.5 4.04049e-11
  Iterations, force evaluations = 1 2

Pair  time (%) = 8.00664e-05 (2.50668)
Neigh time (%) = 0 (0)
Comm  time (%) = 3.83891e-06 (0.120187)
Outpt time (%) = 0 (0)
Other time (%) = 0.00311021 (97.3731)

Nlocal:    41 ave 41 max 41 min
Histogram: 1 0 0 0 0 0 0 0 0 0
Nghost:    185 ave 185 max 185 min
Histogram: 1 0 0 0 0 0 0 0 0 0
Neighs:    359 ave 359 max 359 min
Histogram: 1 0 0 0 0 0 0 0 0 0

Total # of neighbors = 359
Ave neighs/atom = 8.7561
Neighbor list builds = 0
Dangerous builds = 0
	# write_dump all atom ${dumpfile}
        next i
jump SELF loop1
        displace_atoms upper move 0.0 ${ystep1} 0.0 units lattice
        displace_atoms upper move 0.0 0.002 0.0 units lattice
        min_style ${style}
        min_style cg
        minimize ${etol} ${ftol} ${maxiter} ${maxeval}
        minimize 1e-12 ${ftol} ${maxiter} ${maxeval}
        minimize 1e-12 1e-08 ${maxiter} ${maxeval}
        minimize 1e-12 1e-08 10000 ${maxeval}
        minimize 1e-12 1e-08 10000 20000
WARNING: Resetting reneighboring criteria during minimization (../min.cpp:168)
Memory usage per processor = 3.35941 Mbytes
Step Temp PotEng Lx Ly Lz 
     213            0   -140.12681    1.1224537    37.152305    1.1224537 
     214            0   -140.12681    1.1224537    37.152305    1.1224537 
Loop time of 0.000102102 on 1 procs for 1 steps with 41 atoms

Minimization stats:
  Stopping criterion = linesearch alpha is zero
  Energy initial, next-to-last, final = 
        -140.126814486     -140.126814486     -140.126814486
  Force two-norm initial, final = 2.14067e-10 2.14067e-10
  Force max component initial, final = 8.08093e-11 8.08093e-11
  Final line search alpha, max atom move = 0.5 4.04047e-11
  Iterations, force evaluations = 1 2

Pair  time (%) = 8.61241e-05 (84.3509)
Neigh time (%) = 0 (0)
Comm  time (%) = 3.04019e-06 (2.9776)
Outpt time (%) = 0 (0)
Other time (%) = 1.29378e-05 (12.6715)

Nlocal:    41 ave 41 max 41 min
Histogram: 1 0 0 0 0 0 0 0 0 0
Nghost:    185 ave 185 max 185 min
Histogram: 1 0 0 0 0 0 0 0 0 0
Neighs:    359 ave 359 max 359 min
Histogram: 1 0 0 0 0 0 0 0 0 0

Total # of neighbors = 359
Ave neighs/atom = 8.7561
Neighbor list builds = 0
Dangerous builds = 0
	# write_dump all atom ${dumpfile}
        next i
jump SELF loop1
        displace_atoms upper move 0.0 ${ystep1} 0.0 units lattice
        displace_atoms upper move 0.0 0.002 0.0 units lattice
        min_style ${style}
        min_style cg
        minimize ${etol} ${ftol} ${maxiter} ${maxeval}
        minimize 1e-12 ${ftol} ${maxiter} ${maxeval}
        minimize 1e-12 1e-08 ${maxiter} ${maxeval}
        minimize 1e-12 1e-08 10000 ${maxeval}
        minimize 1e-12 1e-08 10000 20000
WARNING: Resetting reneighboring criteria during minimization (../min.cpp:168)
Memory usage per processor = 3.35941 Mbytes
Step Temp PotEng Lx Ly Lz 
     214            0   -140.12321    1.1224537    37.156193    1.1224537 
     215            0   -140.12321    1.1224537    37.156193    1.1224537 
Loop time of 0.00080006 on 1 procs for 1 steps with 41 atoms

Minimization stats:
  Stopping criterion = linesearch alpha is zero
  Energy initial, next-to-last, final = 
        -140.123213028     -140.123213028     -140.123213028
  Force two-norm initial, final = 2.13739e-10 2.13739e-10
  Force max component initial, final = 8.08084e-11 8.08084e-11
  Final line search alpha, max atom move = 0.5 4.04042e-11
  Iterations, force evaluations = 1 2

Pair  time (%) = 0.000590124 (73.76)
Neigh time (%) = 0 (0)
Comm  time (%) = 9.20589e-05 (11.5065)
Outpt time (%) = 0 (0)
Other time (%) = 0.000117877 (14.7335)

Nlocal:    41 ave 41 max 41 min
Histogram: 1 0 0 0 0 0 0 0 0 0
Nghost:    185 ave 185 max 185 min
Histogram: 1 0 0 0 0 0 0 0 0 0
Neighs:    359 ave 359 max 359 min
Histogram: 1 0 0 0 0 0 0 0 0 0

Total # of neighbors = 359
Ave neighs/atom = 8.7561
Neighbor list builds = 0
Dangerous builds = 0
	# write_dump all atom ${dumpfile}
        next i
jump SELF loop1
        displace_atoms upper move 0.0 ${ystep1} 0.0 units lattice
        displace_atoms upper move 0.0 0.002 0.0 units lattice
        min_style ${style}
        min_style cg
        minimize ${etol} ${ftol} ${maxiter} ${maxeval}
        minimize 1e-12 ${ftol} ${maxiter} ${maxeval}
        minimize 1e-12 1e-08 ${maxiter} ${maxeval}
        minimize 1e-12 1e-08 10000 ${maxeval}
        minimize 1e-12 1e-08 10000 20000
WARNING: Resetting reneighboring criteria during minimization (../min.cpp:168)
Memory usage per processor = 3.35941 Mbytes
Step Temp PotEng Lx Ly Lz 
     215            0   -140.11902    1.1224537    37.160081    1.1224537 
     216            0   -140.11902    1.1224537    37.160081    1.1224537 
Loop time of 9.4946e-05 on 1 procs for 1 steps with 41 atoms

Minimization stats:
  Stopping criterion = linesearch alpha is zero
  Energy initial, next-to-last, final = 
        -140.119023656     -140.119023656     -140.119023656
  Force two-norm initial, final = 2.13428e-10 2.13428e-10
  Force max component initial, final = 8.08079e-11 8.08079e-11
  Final line search alpha, max atom move = 0.5 4.04039e-11
  Iterations, force evaluations = 1 2

Pair  time (%) = 7.99936e-05 (84.2517)
Neigh time (%) = 0 (0)
Comm  time (%) = 4.97815e-06 (5.24314)
Outpt time (%) = 0 (0)
Other time (%) = 9.97423e-06 (10.5052)

Nlocal:    41 ave 41 max 41 min
Histogram: 1 0 0 0 0 0 0 0 0 0
Nghost:    185 ave 185 max 185 min
Histogram: 1 0 0 0 0 0 0 0 0 0
Neighs:    359 ave 359 max 359 min
Histogram: 1 0 0 0 0 0 0 0 0 0

Total # of neighbors = 359
Ave neighs/atom = 8.7561
Neighbor list builds = 0
Dangerous builds = 0
	# write_dump all atom ${dumpfile}
        next i
jump SELF loop1
        displace_atoms upper move 0.0 ${ystep1} 0.0 units lattice
        displace_atoms upper move 0.0 0.002 0.0 units lattice
        min_style ${style}
        min_style cg
        minimize ${etol} ${ftol} ${maxiter} ${maxeval}
        minimize 1e-12 ${ftol} ${maxiter} ${maxeval}
        minimize 1e-12 1e-08 ${maxiter} ${maxeval}
        minimize 1e-12 1e-08 10000 ${maxeval}
        minimize 1e-12 1e-08 10000 20000
WARNING: Resetting reneighboring criteria during minimization (../min.cpp:168)
Memory usage per processor = 3.35941 Mbytes
Step Temp PotEng Lx Ly Lz 
     216            0   -140.11427    1.1224537     37.16397    1.1224537 
     217            0   -140.11427    1.1224537     37.16397    1.1224537 
Loop time of 9.79044e-05 on 1 procs for 1 steps with 41 atoms

Minimization stats:
  Stopping criterion = linesearch alpha is zero
  Energy initial, next-to-last, final = 
        -140.114265772     -140.114265772     -140.114265772
  Force two-norm initial, final = 2.13132e-10 2.13132e-10
  Force max component initial, final = 8.08072e-11 8.08072e-11
  Final line search alpha, max atom move = 0.5 4.04036e-11
  Iterations, force evaluations = 1 2

Pair  time (%) = 8.10076e-05 (82.7416)
Neigh time (%) = 0 (0)
Comm  time (%) = 3.05241e-06 (3.11775)
Outpt time (%) = 0 (0)
Other time (%) = 1.38443e-05 (14.1407)

Nlocal:    41 ave 41 max 41 min
Histogram: 1 0 0 0 0 0 0 0 0 0
Nghost:    185 ave 185 max 185 min
Histogram: 1 0 0 0 0 0 0 0 0 0
Neighs:    359 ave 359 max 359 min
Histogram: 1 0 0 0 0 0 0 0 0 0

Total # of neighbors = 359
Ave neighs/atom = 8.7561
Neighbor list builds = 0
Dangerous builds = 0
	# write_dump all atom ${dumpfile}
        next i
jump SELF loop1
        displace_atoms upper move 0.0 ${ystep1} 0.0 units lattice
        displace_atoms upper move 0.0 0.002 0.0 units lattice
        min_style ${style}
        min_style cg
        minimize ${etol} ${ftol} ${maxiter} ${maxeval}
        minimize 1e-12 ${ftol} ${maxiter} ${maxeval}
        minimize 1e-12 1e-08 ${maxiter} ${maxeval}
        minimize 1e-12 1e-08 10000 ${maxeval}
        minimize 1e-12 1e-08 10000 20000
WARNING: Resetting reneighboring criteria during minimization (../min.cpp:168)
Memory usage per processor = 3.35941 Mbytes
Step Temp PotEng Lx Ly Lz 
     217            0   -140.10896    1.1224537    37.167858    1.1224537 
     218            0   -140.10896    1.1224537    37.167858    1.1224537 
Loop time of 9.49294e-05 on 1 procs for 1 steps with 41 atoms

Minimization stats:
  Stopping criterion = linesearch alpha is zero
  Energy initial, next-to-last, final = 
        -140.108958349     -140.108958349     -140.108958349
  Force two-norm initial, final = 2.12848e-10 2.12848e-10
  Force max component initial, final = 8.08065e-11 8.08065e-11
  Final line search alpha, max atom move = 0.5 4.04033e-11
  Iterations, force evaluations = 1 2

Pair  time (%) = 7.90367e-05 (83.2584)
Neigh time (%) = 0 (0)
Comm  time (%) = 3.01783e-06 (3.17903)
Outpt time (%) = 0 (0)
Other time (%) = 1.28748e-05 (13.5625)

Nlocal:    41 ave 41 max 41 min
Histogram: 1 0 0 0 0 0 0 0 0 0
Nghost:    185 ave 185 max 185 min
Histogram: 1 0 0 0 0 0 0 0 0 0
Neighs:    359 ave 359 max 359 min
Histogram: 1 0 0 0 0 0 0 0 0 0

Total # of neighbors = 359
Ave neighs/atom = 8.7561
Neighbor list builds = 0
Dangerous builds = 0
	# write_dump all atom ${dumpfile}
        next i
jump SELF loop1
        displace_atoms upper move 0.0 ${ystep1} 0.0 units lattice
        displace_atoms upper move 0.0 0.002 0.0 units lattice
        min_style ${style}
        min_style cg
        minimize ${etol} ${ftol} ${maxiter} ${maxeval}
        minimize 1e-12 ${ftol} ${maxiter} ${maxeval}
        minimize 1e-12 1e-08 ${maxiter} ${maxeval}
        minimize 1e-12 1e-08 10000 ${maxeval}
        minimize 1e-12 1e-08 10000 20000
WARNING: Resetting reneighboring criteria during minimization (../min.cpp:168)
Memory usage per processor = 3.35941 Mbytes
Step Temp PotEng Lx Ly Lz 
     218            0   -140.10312    1.1224537    37.171746    1.1224537 
     219            0   -140.10312    1.1224537    37.171746    1.1224537 
Loop time of 9.4968e-05 on 1 procs for 1 steps with 41 atoms

Minimization stats:
  Stopping criterion = linesearch alpha is zero
  Energy initial, next-to-last, final = 
        -140.103119939     -140.103119939     -140.103119939
  Force two-norm initial, final = 2.12576e-10 2.12576e-10
  Force max component initial, final = 8.08059e-11 8.08059e-11
  Final line search alpha, max atom move = 0.5 4.04029e-11
  Iterations, force evaluations = 1 2

Pair  time (%) = 7.89142e-05 (83.0956)
Neigh time (%) = 0 (0)
Comm  time (%) = 3.01132e-06 (3.17087)
Outpt time (%) = 0 (0)
Other time (%) = 1.30425e-05 (13.7335)

Nlocal:    41 ave 41 max 41 min
Histogram: 1 0 0 0 0 0 0 0 0 0
Nghost:    185 ave 185 max 185 min
Histogram: 1 0 0 0 0 0 0 0 0 0
Neighs:    359 ave 359 max 359 min
Histogram: 1 0 0 0 0 0 0 0 0 0

Total # of neighbors = 359
Ave neighs/atom = 8.7561
Neighbor list builds = 0
Dangerous builds = 0
	# write_dump all atom ${dumpfile}
        next i
jump SELF loop1
        displace_atoms upper move 0.0 ${ystep1} 0.0 units lattice
        displace_atoms upper move 0.0 0.002 0.0 units lattice
        min_style ${style}
        min_style cg
        minimize ${etol} ${ftol} ${maxiter} ${maxeval}
        minimize 1e-12 ${ftol} ${maxiter} ${maxeval}
        minimize 1e-12 1e-08 ${maxiter} ${maxeval}
        minimize 1e-12 1e-08 10000 ${maxeval}
        minimize 1e-12 1e-08 10000 20000
WARNING: Resetting reneighboring criteria during minimization (../min.cpp:168)
Memory usage per processor = 3.35941 Mbytes
Step Temp PotEng Lx Ly Lz 
     219            0   -140.09677    1.1224537    37.175634    1.1224537 
     220            0   -140.09677    1.1224537    37.175634    1.1224537 
Loop time of 9.39301e-05 on 1 procs for 1 steps with 41 atoms

Minimization stats:
  Stopping criterion = linesearch alpha is zero
  Energy initial, next-to-last, final = 
        -140.096768677     -140.096768677     -140.096768677
  Force two-norm initial, final = 2.12319e-10 2.12319e-10
  Force max component initial, final = 8.08052e-11 8.08052e-11
  Final line search alpha, max atom move = 0.5 4.04026e-11
  Iterations, force evaluations = 1 2

Pair  time (%) = 8.01379e-05 (85.3165)
Neigh time (%) = 0 (0)
Comm  time (%) = 4.0282e-06 (4.28851)
Outpt time (%) = 0 (0)
Other time (%) = 9.76399e-06 (10.395)

Nlocal:    41 ave 41 max 41 min
Histogram: 1 0 0 0 0 0 0 0 0 0
Nghost:    185 ave 185 max 185 min
Histogram: 1 0 0 0 0 0 0 0 0 0
Neighs:    359 ave 359 max 359 min
Histogram: 1 0 0 0 0 0 0 0 0 0

Total # of neighbors = 359
Ave neighs/atom = 8.7561
Neighbor list builds = 0
Dangerous builds = 0
	# write_dump all atom ${dumpfile}
        next i
jump SELF loop1
        displace_atoms upper move 0.0 ${ystep1} 0.0 units lattice
        displace_atoms upper move 0.0 0.002 0.0 units lattice
        min_style ${style}
        min_style cg
        minimize ${etol} ${ftol} ${maxiter} ${maxeval}
        minimize 1e-12 ${ftol} ${maxiter} ${maxeval}
        minimize 1e-12 1e-08 ${maxiter} ${maxeval}
        minimize 1e-12 1e-08 10000 ${maxeval}
        minimize 1e-12 1e-08 10000 20000
WARNING: Resetting reneighboring criteria during minimization (../min.cpp:168)
Memory usage per processor = 3.35941 Mbytes
Step Temp PotEng Lx Ly Lz 
     220            0   -140.08992    1.1224537    37.179523    1.1224537 
     221            0   -140.08992    1.1224537    37.179523    1.1224537 
Loop time of 0.000113969 on 1 procs for 1 steps with 41 atoms

Minimization stats:
  Stopping criterion = linesearch alpha is zero
  Energy initial, next-to-last, final = 
        -140.089922289     -140.089922289     -140.089922289
  Force two-norm initial, final = 2.12075e-10 2.12075e-10
  Force max component initial, final = 8.08045e-11 8.08045e-11
  Final line search alpha, max atom move = 0.5 4.04023e-11
  Iterations, force evaluations = 1 2

Pair  time (%) = 9.80617e-05 (86.0427)
Neigh time (%) = 0 (0)
Comm  time (%) = 3.99456e-06 (3.50496)
Outpt time (%) = 0 (0)
Other time (%) = 1.19124e-05 (10.4524)

Nlocal:    41 ave 41 max 41 min
Histogram: 1 0 0 0 0 0 0 0 0 0
Nghost:    185 ave 185 max 185 min
Histogram: 1 0 0 0 0 0 0 0 0 0
Neighs:    359 ave 359 max 359 min
Histogram: 1 0 0 0 0 0 0 0 0 0

Total # of neighbors = 359
Ave neighs/atom = 8.7561
Neighbor list builds = 0
Dangerous builds = 0
	# write_dump all atom ${dumpfile}
        next i
jump SELF loop1
        displace_atoms upper move 0.0 ${ystep1} 0.0 units lattice
        displace_atoms upper move 0.0 0.002 0.0 units lattice
        min_style ${style}
        min_style cg
        minimize ${etol} ${ftol} ${maxiter} ${maxeval}
        minimize 1e-12 ${ftol} ${maxiter} ${maxeval}
        minimize 1e-12 1e-08 ${maxiter} ${maxeval}
        minimize 1e-12 1e-08 10000 ${maxeval}
        minimize 1e-12 1e-08 10000 20000
WARNING: Resetting reneighboring criteria during minimization (../min.cpp:168)
Memory usage per processor = 3.35941 Mbytes
Step Temp PotEng Lx Ly Lz 
     221            0    -140.0826    1.1224537    37.183411    1.1224537 
     222            0    -140.0826    1.1224537    37.183411    1.1224537 
Loop time of 8.70827e-05 on 1 procs for 1 steps with 41 atoms

Minimization stats:
  Stopping criterion = linesearch alpha is zero
  Energy initial, next-to-last, final = 
        -140.082598101     -140.082598101     -140.082598101
  Force two-norm initial, final = 2.11841e-10 2.11841e-10
  Force max component initial, final = 8.08041e-11 8.08041e-11
  Final line search alpha, max atom move = 0.5 4.0402e-11
  Iterations, force evaluations = 1 2

Pair  time (%) = 6.90072e-05 (79.2432)
Neigh time (%) = 0 (0)
Comm  time (%) = 5.21087e-06 (5.98381)
Outpt time (%) = 0 (0)
Other time (%) = 1.28647e-05 (14.773)

Nlocal:    41 ave 41 max 41 min
Histogram: 1 0 0 0 0 0 0 0 0 0
Nghost:    185 ave 185 max 185 min
Histogram: 1 0 0 0 0 0 0 0 0 0
Neighs:    359 ave 359 max 359 min
Histogram: 1 0 0 0 0 0 0 0 0 0

Total # of neighbors = 359
Ave neighs/atom = 8.7561
Neighbor list builds = 0
Dangerous builds = 0
	# write_dump all atom ${dumpfile}
        next i
jump SELF loop1
        displace_atoms upper move 0.0 ${ystep1} 0.0 units lattice
        displace_atoms upper move 0.0 0.002 0.0 units lattice
        min_style ${style}
        min_style cg
        minimize ${etol} ${ftol} ${maxiter} ${maxeval}
        minimize 1e-12 ${ftol} ${maxiter} ${maxeval}
        minimize 1e-12 1e-08 ${maxiter} ${maxeval}
        minimize 1e-12 1e-08 10000 ${maxeval}
        minimize 1e-12 1e-08 10000 20000
WARNING: Resetting reneighboring criteria during minimization (../min.cpp:168)
Memory usage per processor = 3.35941 Mbytes
Step Temp PotEng Lx Ly Lz 
     222            0   -140.07481    1.1224537    37.187299    1.1224537 
     223            0   -140.07481    1.1224537    37.187299    1.1224537 
Loop time of 9.49089e-05 on 1 procs for 1 steps with 41 atoms

Minimization stats:
  Stopping criterion = linesearch alpha is zero
  Energy initial, next-to-last, final = 
         -140.07481304      -140.07481304      -140.07481304
  Force two-norm initial, final = 2.11617e-10 2.11617e-10
  Force max component initial, final = 8.08035e-11 8.08035e-11
  Final line search alpha, max atom move = 0.5 4.04018e-11
  Iterations, force evaluations = 1 2

Pair  time (%) = 8.01672e-05 (84.4676)
Neigh time (%) = 0 (0)
Comm  time (%) = 5.04032e-06 (5.31069)
Outpt time (%) = 0 (0)
Other time (%) = 9.70135e-06 (10.2218)

Nlocal:    41 ave 41 max 41 min
Histogram: 1 0 0 0 0 0 0 0 0 0
Nghost:    185 ave 185 max 185 min
Histogram: 1 0 0 0 0 0 0 0 0 0
Neighs:    359 ave 359 max 359 min
Histogram: 1 0 0 0 0 0 0 0 0 0

Total # of neighbors = 359
Ave neighs/atom = 8.7561
Neighbor list builds = 0
Dangerous builds = 0
	# write_dump all atom ${dumpfile}
        next i
jump SELF loop1
        displace_atoms upper move 0.0 ${ystep1} 0.0 units lattice
        displace_atoms upper move 0.0 0.002 0.0 units lattice
        min_style ${style}
        min_style cg
        minimize ${etol} ${ftol} ${maxiter} ${maxeval}
        minimize 1e-12 ${ftol} ${maxiter} ${maxeval}
        minimize 1e-12 1e-08 ${maxiter} ${maxeval}
        minimize 1e-12 1e-08 10000 ${maxeval}
        minimize 1e-12 1e-08 10000 20000
WARNING: Resetting reneighboring criteria during minimization (../min.cpp:168)
Memory usage per processor = 3.35941 Mbytes
Step Temp PotEng Lx Ly Lz 
     223            0   -140.06658    1.1224537    37.191188    1.1224537 
     224            0   -140.06658    1.1224537    37.191188    1.1224537 
Loop time of 6.99803e-05 on 1 procs for 1 steps with 41 atoms

Minimization stats:
  Stopping criterion = linesearch alpha is zero
  Energy initial, next-to-last, final = 
        -140.066583645     -140.066583645     -140.066583645
  Force two-norm initial, final = 2.11405e-10 2.11405e-10
  Force max component initial, final = 8.08028e-11 8.08028e-11
  Final line search alpha, max atom move = 0.5 4.04014e-11
  Iterations, force evaluations = 1 2

Pair  time (%) = 6.09509e-05 (87.0972)
Neigh time (%) = 0 (0)
Comm  time (%) = 2.96603e-06 (4.23838)
Outpt time (%) = 0 (0)
Other time (%) = 6.06338e-06 (8.66441)

Nlocal:    41 ave 41 max 41 min
Histogram: 1 0 0 0 0 0 0 0 0 0
Nghost:    185 ave 185 max 185 min
Histogram: 1 0 0 0 0 0 0 0 0 0
Neighs:    359 ave 359 max 359 min
Histogram: 1 0 0 0 0 0 0 0 0 0

Total # of neighbors = 359
Ave neighs/atom = 8.7561
Neighbor list builds = 0
Dangerous builds = 0
	# write_dump all atom ${dumpfile}
        next i
jump SELF loop1
        displace_atoms upper move 0.0 ${ystep1} 0.0 units lattice
        displace_atoms upper move 0.0 0.002 0.0 units lattice
        min_style ${style}
        min_style cg
        minimize ${etol} ${ftol} ${maxiter} ${maxeval}
        minimize 1e-12 ${ftol} ${maxiter} ${maxeval}
        minimize 1e-12 1e-08 ${maxiter} ${maxeval}
        minimize 1e-12 1e-08 10000 ${maxeval}
        minimize 1e-12 1e-08 10000 20000
WARNING: Resetting reneighboring criteria during minimization (../min.cpp:168)
Memory usage per processor = 3.35941 Mbytes
Step Temp PotEng Lx Ly Lz 
     224            0   -140.05793    1.1224537    37.195076    1.1224537 
     225            0   -140.05793    1.1224537    37.195076    1.1224537 
Loop time of 9.40529e-05 on 1 procs for 1 steps with 41 atoms

Minimization stats:
  Stopping criterion = linesearch alpha is zero
  Energy initial, next-to-last, final = 
        -140.057926073     -140.057926073     -140.057926073
  Force two-norm initial, final = 2.11202e-10 2.11202e-10
  Force max component initial, final = 8.08021e-11 8.08021e-11
  Final line search alpha, max atom move = 0.5 4.0401e-11
  Iterations, force evaluations = 1 2

Pair  time (%) = 8.0076e-05 (85.1394)
Neigh time (%) = 0 (0)
Comm  time (%) = 4.14252e-06 (4.40446)
Outpt time (%) = 0 (0)
Other time (%) = 9.8343e-06 (10.4561)

Nlocal:    41 ave 41 max 41 min
Histogram: 1 0 0 0 0 0 0 0 0 0
Nghost:    185 ave 185 max 185 min
Histogram: 1 0 0 0 0 0 0 0 0 0
Neighs:    359 ave 359 max 359 min
Histogram: 1 0 0 0 0 0 0 0 0 0

Total # of neighbors = 359
Ave neighs/atom = 8.7561
Neighbor list builds = 0
Dangerous builds = 0
	# write_dump all atom ${dumpfile}
        next i
jump SELF loop1
        displace_atoms upper move 0.0 ${ystep1} 0.0 units lattice
        displace_atoms upper move 0.0 0.002 0.0 units lattice
        min_style ${style}
        min_style cg
        minimize ${etol} ${ftol} ${maxiter} ${maxeval}
        minimize 1e-12 ${ftol} ${maxiter} ${maxeval}
        minimize 1e-12 1e-08 ${maxiter} ${maxeval}
        minimize 1e-12 1e-08 10000 ${maxeval}
        minimize 1e-12 1e-08 10000 20000
WARNING: Resetting reneighboring criteria during minimization (../min.cpp:168)
Memory usage per processor = 3.35941 Mbytes
Step Temp PotEng Lx Ly Lz 
     225            0   -140.04886    1.1224537    37.198964    1.1224537 
     226            0   -140.04886    1.1224537    37.198964    1.1224537 
Loop time of 9.49458e-05 on 1 procs for 1 steps with 41 atoms

Minimization stats:
  Stopping criterion = linesearch alpha is zero
  Energy initial, next-to-last, final = 
        -140.048856103     -140.048856103     -140.048856103
  Force two-norm initial, final = 2.11006e-10 2.11006e-10
  Force max component initial, final = 8.08015e-11 8.08015e-11
  Final line search alpha, max atom move = 0.5 4.04008e-11
  Iterations, force evaluations = 1 2

Pair  time (%) = 7.98472e-05 (84.0977)
Neigh time (%) = 0 (0)
Comm  time (%) = 3.16207e-06 (3.3304)
Outpt time (%) = 0 (0)
Other time (%) = 1.19365e-05 (12.5719)

Nlocal:    41 ave 41 max 41 min
Histogram: 1 0 0 0 0 0 0 0 0 0
Nghost:    185 ave 185 max 185 min
Histogram: 1 0 0 0 0 0 0 0 0 0
Neighs:    359 ave 359 max 359 min
Histogram: 1 0 0 0 0 0 0 0 0 0

Total # of neighbors = 359
Ave neighs/atom = 8.7561
Neighbor list builds = 0
Dangerous builds = 0
	# write_dump all atom ${dumpfile}
        next i
jump SELF loop1
        displace_atoms upper move 0.0 ${ystep1} 0.0 units lattice
        displace_atoms upper move 0.0 0.002 0.0 units lattice
        min_style ${style}
        min_style cg
        minimize ${etol} ${ftol} ${maxiter} ${maxeval}
        minimize 1e-12 ${ftol} ${maxiter} ${maxeval}
        minimize 1e-12 1e-08 ${maxiter} ${maxeval}
        minimize 1e-12 1e-08 10000 ${maxeval}
        minimize 1e-12 1e-08 10000 20000
WARNING: Resetting reneighboring criteria during minimization (../min.cpp:168)
Memory usage per processor = 3.35941 Mbytes
Step Temp PotEng Lx Ly Lz 
     226            0   -140.03939    1.1224537    37.202852    1.1224537 
     227            0   -140.03939    1.1224537    37.202852    1.1224537 
Loop time of 9.38911e-05 on 1 procs for 1 steps with 41 atoms

Minimization stats:
  Stopping criterion = linesearch alpha is zero
  Energy initial, next-to-last, final = 
        -140.039389144     -140.039389144     -140.039389144
  Force two-norm initial, final = 2.10822e-10 2.10822e-10
  Force max component initial, final = 8.0801e-11 8.0801e-11
  Final line search alpha, max atom move = 0.5 4.04005e-11
  Iterations, force evaluations = 1 2

Pair  time (%) = 8.00674e-05 (85.277)
Neigh time (%) = 0 (0)
Comm  time (%) = 3.88711e-06 (4.14002)
Outpt time (%) = 0 (0)
Other time (%) = 9.93651e-06 (10.583)

Nlocal:    41 ave 41 max 41 min
Histogram: 1 0 0 0 0 0 0 0 0 0
Nghost:    185 ave 185 max 185 min
Histogram: 1 0 0 0 0 0 0 0 0 0
Neighs:    359 ave 359 max 359 min
Histogram: 1 0 0 0 0 0 0 0 0 0

Total # of neighbors = 359
Ave neighs/atom = 8.7561
Neighbor list builds = 0
Dangerous builds = 0
	# write_dump all atom ${dumpfile}
        next i
jump SELF loop1
        displace_atoms upper move 0.0 ${ystep1} 0.0 units lattice
        displace_atoms upper move 0.0 0.002 0.0 units lattice
        min_style ${style}
        min_style cg
        minimize ${etol} ${ftol} ${maxiter} ${maxeval}
        minimize 1e-12 ${ftol} ${maxiter} ${maxeval}
        minimize 1e-12 1e-08 ${maxiter} ${maxeval}
        minimize 1e-12 1e-08 10000 ${maxeval}
        minimize 1e-12 1e-08 10000 20000
WARNING: Resetting reneighboring criteria during minimization (../min.cpp:168)
Memory usage per processor = 3.35941 Mbytes
Step Temp PotEng Lx Ly Lz 
     227            0   -140.02954    1.1224537    37.206741    1.1224537 
     228            0   -140.02954    1.1224537    37.206741    1.1224537 
Loop time of 9.50224e-05 on 1 procs for 1 steps with 41 atoms

Minimization stats:
  Stopping criterion = linesearch alpha is zero
  Energy initial, next-to-last, final = 
        -140.029540244     -140.029540244     -140.029540244
  Force two-norm initial, final = 2.10645e-10 2.10645e-10
  Force max component initial, final = 8.08005e-11 8.08005e-11
  Final line search alpha, max atom move = 0.5 4.04003e-11
  Iterations, force evaluations = 1 2

Pair  time (%) = 7.88387e-05 (82.9685)
Neigh time (%) = 0 (0)
Comm  time (%) = 3.8601e-06 (4.06231)
Outpt time (%) = 0 (0)
Other time (%) = 1.23236e-05 (12.9692)

Nlocal:    41 ave 41 max 41 min
Histogram: 1 0 0 0 0 0 0 0 0 0
Nghost:    185 ave 185 max 185 min
Histogram: 1 0 0 0 0 0 0 0 0 0
Neighs:    359 ave 359 max 359 min
Histogram: 1 0 0 0 0 0 0 0 0 0

Total # of neighbors = 359
Ave neighs/atom = 8.7561
Neighbor list builds = 0
Dangerous builds = 0
	# write_dump all atom ${dumpfile}
        next i
jump SELF loop1
        displace_atoms upper move 0.0 ${ystep1} 0.0 units lattice
        displace_atoms upper move 0.0 0.002 0.0 units lattice
        min_style ${style}
        min_style cg
        minimize ${etol} ${ftol} ${maxiter} ${maxeval}
        minimize 1e-12 ${ftol} ${maxiter} ${maxeval}
        minimize 1e-12 1e-08 ${maxiter} ${maxeval}
        minimize 1e-12 1e-08 10000 ${maxeval}
        minimize 1e-12 1e-08 10000 20000
WARNING: Resetting reneighboring criteria during minimization (../min.cpp:168)
Memory usage per processor = 3.35941 Mbytes
Step Temp PotEng Lx Ly Lz 
     228            0   -140.01932    1.1224537    37.210629    1.1224537 
     229            0   -140.01932    1.1224537    37.210629    1.1224537 
Loop time of 9.39401e-05 on 1 procs for 1 steps with 41 atoms

Minimization stats:
  Stopping criterion = linesearch alpha is zero
  Energy initial, next-to-last, final = 
         -140.01932409      -140.01932409      -140.01932409
  Force two-norm initial, final = 2.10476e-10 2.10476e-10
  Force max component initial, final = 8.07998e-11 8.07998e-11
  Final line search alpha, max atom move = 0.5 4.03999e-11
  Iterations, force evaluations = 1 2

Pair  time (%) = 7.99758e-05 (85.1349)
Neigh time (%) = 0 (0)
Comm  time (%) = 3.94252e-06 (4.19685)
Outpt time (%) = 0 (0)
Other time (%) = 1.00217e-05 (10.6682)

Nlocal:    41 ave 41 max 41 min
Histogram: 1 0 0 0 0 0 0 0 0 0
Nghost:    185 ave 185 max 185 min
Histogram: 1 0 0 0 0 0 0 0 0 0
Neighs:    359 ave 359 max 359 min
Histogram: 1 0 0 0 0 0 0 0 0 0

Total # of neighbors = 359
Ave neighs/atom = 8.7561
Neighbor list builds = 0
Dangerous builds = 0
	# write_dump all atom ${dumpfile}
        next i
jump SELF loop1
        displace_atoms upper move 0.0 ${ystep1} 0.0 units lattice
        displace_atoms upper move 0.0 0.002 0.0 units lattice
        min_style ${style}
        min_style cg
        minimize ${etol} ${ftol} ${maxiter} ${maxeval}
        minimize 1e-12 ${ftol} ${maxiter} ${maxeval}
        minimize 1e-12 1e-08 ${maxiter} ${maxeval}
        minimize 1e-12 1e-08 10000 ${maxeval}
        minimize 1e-12 1e-08 10000 20000
WARNING: Resetting reneighboring criteria during minimization (../min.cpp:168)
Memory usage per processor = 3.35941 Mbytes
Step Temp PotEng Lx Ly Lz 
     229            0   -140.00876    1.1224537    37.214517    1.1224537 
     230            0   -140.00876    1.1224537    37.214517    1.1224537 
Loop time of 9.39718e-05 on 1 procs for 1 steps with 41 atoms

Minimization stats:
  Stopping criterion = linesearch alpha is zero
  Energy initial, next-to-last, final = 
        -140.008755019     -140.008755019     -140.008755019
  Force two-norm initial, final = 2.10315e-10 2.10315e-10
  Force max component initial, final = 8.07992e-11 8.07992e-11
  Final line search alpha, max atom move = 0.5 4.03996e-11
  Iterations, force evaluations = 1 2

Pair  time (%) = 8.00252e-05 (85.1587)
Neigh time (%) = 0 (0)
Comm  time (%) = 5.0409e-06 (5.36427)
Outpt time (%) = 0 (0)
Other time (%) = 8.90577e-06 (9.47706)

Nlocal:    41 ave 41 max 41 min
Histogram: 1 0 0 0 0 0 0 0 0 0
Nghost:    185 ave 185 max 185 min
Histogram: 1 0 0 0 0 0 0 0 0 0
Neighs:    359 ave 359 max 359 min
Histogram: 1 0 0 0 0 0 0 0 0 0

Total # of neighbors = 359
Ave neighs/atom = 8.7561
Neighbor list builds = 0
Dangerous builds = 0
	# write_dump all atom ${dumpfile}
        next i
jump SELF loop1
        displace_atoms upper move 0.0 ${ystep1} 0.0 units lattice
        displace_atoms upper move 0.0 0.002 0.0 units lattice
        min_style ${style}
        min_style cg
        minimize ${etol} ${ftol} ${maxiter} ${maxeval}
        minimize 1e-12 ${ftol} ${maxiter} ${maxeval}
        minimize 1e-12 1e-08 ${maxiter} ${maxeval}
        minimize 1e-12 1e-08 10000 ${maxeval}
        minimize 1e-12 1e-08 10000 20000
WARNING: Resetting reneighboring criteria during minimization (../min.cpp:168)
Memory usage per processor = 3.35941 Mbytes
Step Temp PotEng Lx Ly Lz 
     230            0   -139.99785    1.1224537    37.218406    1.1224537 
     231            0   -139.99785    1.1224537    37.218406    1.1224537 
Loop time of 0.000627994 on 1 procs for 1 steps with 41 atoms

Minimization stats:
  Stopping criterion = linesearch alpha is zero
  Energy initial, next-to-last, final = 
        -139.997847025     -139.997847025     -139.997847025
  Force two-norm initial, final = 2.1016e-10 2.1016e-10
  Force max component initial, final = 8.07986e-11 8.07986e-11
  Final line search alpha, max atom move = 0.5 4.03993e-11
  Iterations, force evaluations = 1 2

Pair  time (%) = 0.000579121 (92.2176)
Neigh time (%) = 0 (0)
Comm  time (%) = 3.74555e-06 (0.59643)
Outpt time (%) = 0 (0)
Other time (%) = 4.51276e-05 (7.18599)

Nlocal:    41 ave 41 max 41 min
Histogram: 1 0 0 0 0 0 0 0 0 0
Nghost:    185 ave 185 max 185 min
Histogram: 1 0 0 0 0 0 0 0 0 0
Neighs:    359 ave 359 max 359 min
Histogram: 1 0 0 0 0 0 0 0 0 0

Total # of neighbors = 359
Ave neighs/atom = 8.7561
Neighbor list builds = 0
Dangerous builds = 0
	# write_dump all atom ${dumpfile}
        next i
jump SELF loop1
        displace_atoms upper move 0.0 ${ystep1} 0.0 units lattice
        displace_atoms upper move 0.0 0.002 0.0 units lattice
        min_style ${style}
        min_style cg
        minimize ${etol} ${ftol} ${maxiter} ${maxeval}
        minimize 1e-12 ${ftol} ${maxiter} ${maxeval}
        minimize 1e-12 1e-08 ${maxiter} ${maxeval}
        minimize 1e-12 1e-08 10000 ${maxeval}
        minimize 1e-12 1e-08 10000 20000
WARNING: Resetting reneighboring criteria during minimization (../min.cpp:168)
Memory usage per processor = 3.35941 Mbytes
Step Temp PotEng Lx Ly Lz 
     231            0   -139.98661    1.1224537    37.222294    1.1224537 
     232            0   -139.98661    1.1224537    37.222294    1.1224537 
Loop time of 9.50859e-05 on 1 procs for 1 steps with 41 atoms

Minimization stats:
  Stopping criterion = linesearch alpha is zero
  Energy initial, next-to-last, final = 
        -139.986613761     -139.986613761     -139.986613761
  Force two-norm initial, final = 2.10012e-10 2.10012e-10
  Force max component initial, final = 8.07982e-11 8.07982e-11
  Final line search alpha, max atom move = 0.5 4.03991e-11
  Iterations, force evaluations = 1 2

Pair  time (%) = 7.90294e-05 (83.1136)
Neigh time (%) = 0 (0)
Comm  time (%) = 3.95684e-06 (4.16133)
Outpt time (%) = 0 (0)
Other time (%) = 1.20997e-05 (12.7251)

Nlocal:    41 ave 41 max 41 min
Histogram: 1 0 0 0 0 0 0 0 0 0
Nghost:    185 ave 185 max 185 min
Histogram: 1 0 0 0 0 0 0 0 0 0
Neighs:    359 ave 359 max 359 min
Histogram: 1 0 0 0 0 0 0 0 0 0

Total # of neighbors = 359
Ave neighs/atom = 8.7561
Neighbor list builds = 0
Dangerous builds = 0
	# write_dump all atom ${dumpfile}
        next i
jump SELF loop1
        displace_atoms upper move 0.0 ${ystep1} 0.0 units lattice
        displace_atoms upper move 0.0 0.002 0.0 units lattice
        min_style ${style}
        min_style cg
        minimize ${etol} ${ftol} ${maxiter} ${maxeval}
        minimize 1e-12 ${ftol} ${maxiter} ${maxeval}
        minimize 1e-12 1e-08 ${maxiter} ${maxeval}
        minimize 1e-12 1e-08 10000 ${maxeval}
        minimize 1e-12 1e-08 10000 20000
WARNING: Resetting reneighboring criteria during minimization (../min.cpp:168)
Memory usage per processor = 3.35941 Mbytes
Step Temp PotEng Lx Ly Lz 
     232            0   -139.97507    1.1224537    37.226182    1.1224537 
     233            0   -139.97507    1.1224537    37.226182    1.1224537 
Loop time of 9.49189e-05 on 1 procs for 1 steps with 41 atoms

Minimization stats:
  Stopping criterion = linesearch alpha is zero
  Energy initial, next-to-last, final = 
        -139.975068547     -139.975068547     -139.975068547
  Force two-norm initial, final = 2.09872e-10 2.09872e-10
  Force max component initial, final = 8.07975e-11 8.07975e-11
  Final line search alpha, max atom move = 0.5 4.03988e-11
  Iterations, force evaluations = 1 2

Pair  time (%) = 8.00053e-05 (84.288)
Neigh time (%) = 0 (0)
Comm  time (%) = 3.23972e-06 (3.41315)
Outpt time (%) = 0 (0)
Other time (%) = 1.16739e-05 (12.2988)

Nlocal:    41 ave 41 max 41 min
Histogram: 1 0 0 0 0 0 0 0 0 0
Nghost:    185 ave 185 max 185 min
Histogram: 1 0 0 0 0 0 0 0 0 0
Neighs:    359 ave 359 max 359 min
Histogram: 1 0 0 0 0 0 0 0 0 0

Total # of neighbors = 359
Ave neighs/atom = 8.7561
Neighbor list builds = 0
Dangerous builds = 0
	# write_dump all atom ${dumpfile}
        next i
jump SELF loop1
        displace_atoms upper move 0.0 ${ystep1} 0.0 units lattice
        displace_atoms upper move 0.0 0.002 0.0 units lattice
        min_style ${style}
        min_style cg
        minimize ${etol} ${ftol} ${maxiter} ${maxeval}
        minimize 1e-12 ${ftol} ${maxiter} ${maxeval}
        minimize 1e-12 1e-08 ${maxiter} ${maxeval}
        minimize 1e-12 1e-08 10000 ${maxeval}
        minimize 1e-12 1e-08 10000 20000
WARNING: Resetting reneighboring criteria during minimization (../min.cpp:168)
Memory usage per processor = 3.35941 Mbytes
Step Temp PotEng Lx Ly Lz 
     233            0   -139.96322    1.1224537    37.230071    1.1224537 
     234            0   -139.96322    1.1224537    37.230071    1.1224537 
Loop time of 9.50343e-05 on 1 procs for 1 steps with 41 atoms

Minimization stats:
  Stopping criterion = linesearch alpha is zero
  Energy initial, next-to-last, final = 
        -139.963224378     -139.963224378     -139.963224378
  Force two-norm initial, final = 2.09738e-10 2.09738e-10
  Force max component initial, final = 8.07971e-11 8.07971e-11
  Final line search alpha, max atom move = 0.5 4.03985e-11
  Iterations, force evaluations = 1 2

Pair  time (%) = 8.00199e-05 (84.2012)
Neigh time (%) = 0 (0)
Comm  time (%) = 4.03076e-06 (4.24138)
Outpt time (%) = 0 (0)
Other time (%) = 1.09836e-05 (11.5575)

Nlocal:    41 ave 41 max 41 min
Histogram: 1 0 0 0 0 0 0 0 0 0
Nghost:    185 ave 185 max 185 min
Histogram: 1 0 0 0 0 0 0 0 0 0
Neighs:    359 ave 359 max 359 min
Histogram: 1 0 0 0 0 0 0 0 0 0

Total # of neighbors = 359
Ave neighs/atom = 8.7561
Neighbor list builds = 0
Dangerous builds = 0
	# write_dump all atom ${dumpfile}
        next i
jump SELF loop1
        displace_atoms upper move 0.0 ${ystep1} 0.0 units lattice
        displace_atoms upper move 0.0 0.002 0.0 units lattice
        min_style ${style}
        min_style cg
        minimize ${etol} ${ftol} ${maxiter} ${maxeval}
        minimize 1e-12 ${ftol} ${maxiter} ${maxeval}
        minimize 1e-12 1e-08 ${maxiter} ${maxeval}
        minimize 1e-12 1e-08 10000 ${maxeval}
        minimize 1e-12 1e-08 10000 20000
WARNING: Resetting reneighboring criteria during minimization (../min.cpp:168)
Memory usage per processor = 3.35941 Mbytes
Step Temp PotEng Lx Ly Lz 
     234            0   -139.95109    1.1224537    37.233959    1.1224537 
     235            0   -139.95109    1.1224537    37.233959    1.1224537 
Loop time of 9.51113e-07 on 1 procs for 1 steps with 41 atoms

Minimization stats:
  Stopping criterion = linesearch alpha is zero
  Energy initial, next-to-last, final = 
        -139.951093927     -139.951093927     -139.951093927
  Force two-norm initial, final = 2.09609e-10 2.09609e-10
  Force max component initial, final = 8.07964e-11 8.07964e-11
  Final line search alpha, max atom move = 0.5 4.03982e-11
  Iterations, force evaluations = 1 2

Pair  time (%) = -7.68341e-09 (-0.807834)
Neigh time (%) = 0 (0)
Comm  time (%) = -1.53668e-08 (-1.61567)
Outpt time (%) = 0 (0)
Other time (%) = 9.74163e-07 (102.424)

Nlocal:    41 ave 41 max 41 min
Histogram: 1 0 0 0 0 0 0 0 0 0
Nghost:    185 ave 185 max 185 min
Histogram: 1 0 0 0 0 0 0 0 0 0
Neighs:    359 ave 359 max 359 min
Histogram: 1 0 0 0 0 0 0 0 0 0

Total # of neighbors = 359
Ave neighs/atom = 8.7561
Neighbor list builds = 0
Dangerous builds = 0
	# write_dump all atom ${dumpfile}
        next i
jump SELF loop1
        displace_atoms upper move 0.0 ${ystep1} 0.0 units lattice
        displace_atoms upper move 0.0 0.002 0.0 units lattice
        min_style ${style}
        min_style cg
        minimize ${etol} ${ftol} ${maxiter} ${maxeval}
        minimize 1e-12 ${ftol} ${maxiter} ${maxeval}
        minimize 1e-12 1e-08 ${maxiter} ${maxeval}
        minimize 1e-12 1e-08 10000 ${maxeval}
        minimize 1e-12 1e-08 10000 20000
WARNING: Resetting reneighboring criteria during minimization (../min.cpp:168)
Memory usage per processor = 3.35941 Mbytes
Step Temp PotEng Lx Ly Lz 
     235            0   -139.93869    1.1224537    37.237847    1.1224537 
     236            0   -139.93869    1.1224537    37.237847    1.1224537 
Loop time of 9.50588e-05 on 1 procs for 1 steps with 41 atoms

Minimization stats:
  Stopping criterion = linesearch alpha is zero
  Energy initial, next-to-last, final = 
        -139.938689553     -139.938689553     -139.938689553
  Force two-norm initial, final = 2.09486e-10 2.09486e-10
  Force max component initial, final = 8.0796e-11 8.0796e-11
  Final line search alpha, max atom move = 0.5 4.0398e-11
  Iterations, force evaluations = 1 2

Pair  time (%) = 7.99482e-05 (84.104)
Neigh time (%) = 0 (0)
Comm  time (%) = 2.88722e-06 (3.03729)
Outpt time (%) = 0 (0)
Other time (%) = 1.22234e-05 (12.8588)

Nlocal:    41 ave 41 max 41 min
Histogram: 1 0 0 0 0 0 0 0 0 0
Nghost:    185 ave 185 max 185 min
Histogram: 1 0 0 0 0 0 0 0 0 0
Neighs:    359 ave 359 max 359 min
Histogram: 1 0 0 0 0 0 0 0 0 0

Total # of neighbors = 359
Ave neighs/atom = 8.7561
Neighbor list builds = 0
Dangerous builds = 0
	# write_dump all atom ${dumpfile}
        next i
jump SELF loop1
        displace_atoms upper move 0.0 ${ystep1} 0.0 units lattice
        displace_atoms upper move 0.0 0.002 0.0 units lattice
        min_style ${style}
        min_style cg
        minimize ${etol} ${ftol} ${maxiter} ${maxeval}
        minimize 1e-12 ${ftol} ${maxiter} ${maxeval}
        minimize 1e-12 1e-08 ${maxiter} ${maxeval}
        minimize 1e-12 1e-08 10000 ${maxeval}
        minimize 1e-12 1e-08 10000 20000
WARNING: Resetting reneighboring criteria during minimization (../min.cpp:168)
Memory usage per processor = 3.35941 Mbytes
Step Temp PotEng Lx Ly Lz 
     236            0   -139.92602    1.1224537    37.241735    1.1224537 
     237            0   -139.92602    1.1224537    37.241735    1.1224537 
Loop time of 9.3945e-05 on 1 procs for 1 steps with 41 atoms

Minimization stats:
  Stopping criterion = linesearch alpha is zero
  Energy initial, next-to-last, final = 
        -139.926023304     -139.926023304     -139.926023304
  Force two-norm initial, final = 2.09368e-10 2.09368e-10
  Force max component initial, final = 8.07955e-11 8.07955e-11
  Final line search alpha, max atom move = 0.5 4.03978e-11
  Iterations, force evaluations = 1 2

Pair  time (%) = 8.01826e-05 (85.3506)
Neigh time (%) = 0 (0)
Comm  time (%) = 4.11761e-06 (4.383)
Outpt time (%) = 0 (0)
Other time (%) = 9.64478e-06 (10.2664)

Nlocal:    41 ave 41 max 41 min
Histogram: 1 0 0 0 0 0 0 0 0 0
Nghost:    185 ave 185 max 185 min
Histogram: 1 0 0 0 0 0 0 0 0 0
Neighs:    359 ave 359 max 359 min
Histogram: 1 0 0 0 0 0 0 0 0 0

Total # of neighbors = 359
Ave neighs/atom = 8.7561
Neighbor list builds = 0
Dangerous builds = 0
	# write_dump all atom ${dumpfile}
        next i
jump SELF loop1
        displace_atoms upper move 0.0 ${ystep1} 0.0 units lattice
        displace_atoms upper move 0.0 0.002 0.0 units lattice
        min_style ${style}
        min_style cg
        minimize ${etol} ${ftol} ${maxiter} ${maxeval}
        minimize 1e-12 ${ftol} ${maxiter} ${maxeval}
        minimize 1e-12 1e-08 ${maxiter} ${maxeval}
        minimize 1e-12 1e-08 10000 ${maxeval}
        minimize 1e-12 1e-08 10000 20000
WARNING: Resetting reneighboring criteria during minimization (../min.cpp:168)
Memory usage per processor = 3.35941 Mbytes
Step Temp PotEng Lx Ly Lz 
     237            0   -139.91311    1.1224537    37.245624    1.1224537 
     238            0   -139.91311    1.1224537    37.245624    1.1224537 
Loop time of 0.000110033 on 1 procs for 1 steps with 41 atoms

Minimization stats:
  Stopping criterion = linesearch alpha is zero
  Energy initial, next-to-last, final = 
        -139.913106927     -139.913106927     -139.913106927
  Force two-norm initial, final = 2.09255e-10 2.09255e-10
  Force max component initial, final = 8.07951e-11 8.07951e-11
  Final line search alpha, max atom move = 0.5 4.03975e-11
  Iterations, force evaluations = 1 2

Pair  time (%) = 8.28698e-05 (75.3135)
Neigh time (%) = 0 (0)
Comm  time (%) = 3.86941e-06 (3.51659)
Outpt time (%) = 0 (0)
Other time (%) = 2.32939e-05 (21.1699)

Nlocal:    41 ave 41 max 41 min
Histogram: 1 0 0 0 0 0 0 0 0 0
Nghost:    185 ave 185 max 185 min
Histogram: 1 0 0 0 0 0 0 0 0 0
Neighs:    359 ave 359 max 359 min
Histogram: 1 0 0 0 0 0 0 0 0 0

Total # of neighbors = 359
Ave neighs/atom = 8.7561
Neighbor list builds = 0
Dangerous builds = 0
	# write_dump all atom ${dumpfile}
        next i
jump SELF loop1
        displace_atoms upper move 0.0 ${ystep1} 0.0 units lattice
        displace_atoms upper move 0.0 0.002 0.0 units lattice
        min_style ${style}
        min_style cg
        minimize ${etol} ${ftol} ${maxiter} ${maxeval}
        minimize 1e-12 ${ftol} ${maxiter} ${maxeval}
        minimize 1e-12 1e-08 ${maxiter} ${maxeval}
        minimize 1e-12 1e-08 10000 ${maxeval}
        minimize 1e-12 1e-08 10000 20000
WARNING: Resetting reneighboring criteria during minimization (../min.cpp:168)
Memory usage per processor = 3.35941 Mbytes
Step Temp PotEng Lx Ly Lz 
     238            0   -139.89995    1.1224537    37.249512    1.1224537 
     239            0   -139.89995    1.1224537    37.249512    1.1224537 
Loop time of 9.40287e-05 on 1 procs for 1 steps with 41 atoms

Minimization stats:
  Stopping criterion = linesearch alpha is zero
  Energy initial, next-to-last, final = 
         -139.89995187      -139.89995187      -139.89995187
  Force two-norm initial, final = 2.09147e-10 2.09147e-10
  Force max component initial, final = 8.07944e-11 8.07944e-11
  Final line search alpha, max atom move = 0.5 4.03972e-11
  Iterations, force evaluations = 1 2

Pair  time (%) = 8.00495e-05 (85.1331)
Neigh time (%) = 0 (0)
Comm  time (%) = 3.80515e-06 (4.0468)
Outpt time (%) = 0 (0)
Other time (%) = 1.0174e-05 (10.8201)

Nlocal:    41 ave 41 max 41 min
Histogram: 1 0 0 0 0 0 0 0 0 0
Nghost:    185 ave 185 max 185 min
Histogram: 1 0 0 0 0 0 0 0 0 0
Neighs:    359 ave 359 max 359 min
Histogram: 1 0 0 0 0 0 0 0 0 0

Total # of neighbors = 359
Ave neighs/atom = 8.7561
Neighbor list builds = 0
Dangerous builds = 0
	# write_dump all atom ${dumpfile}
        next i
jump SELF loop1
        displace_atoms upper move 0.0 ${ystep1} 0.0 units lattice
        displace_atoms upper move 0.0 0.002 0.0 units lattice
        min_style ${style}
        min_style cg
        minimize ${etol} ${ftol} ${maxiter} ${maxeval}
        minimize 1e-12 ${ftol} ${maxiter} ${maxeval}
        minimize 1e-12 1e-08 ${maxiter} ${maxeval}
        minimize 1e-12 1e-08 10000 ${maxeval}
        minimize 1e-12 1e-08 10000 20000
WARNING: Resetting reneighboring criteria during minimization (../min.cpp:168)
Memory usage per processor = 3.35941 Mbytes
Step Temp PotEng Lx Ly Lz 
     239            0   -139.88657    1.1224537      37.2534    1.1224537 
     240            0   -139.88657    1.1224537      37.2534    1.1224537 
Loop time of 9.6013e-05 on 1 procs for 1 steps with 41 atoms

Minimization stats:
  Stopping criterion = linesearch alpha is zero
  Energy initial, next-to-last, final = 
         -139.88656929      -139.88656929      -139.88656929
  Force two-norm initial, final = 2.09045e-10 2.09045e-10
  Force max component initial, final = 8.0794e-11 8.0794e-11
  Final line search alpha, max atom move = 0.5 4.0397e-11
  Iterations, force evaluations = 1 2

Pair  time (%) = 8.0095e-05 (83.4211)
Neigh time (%) = 0 (0)
Comm  time (%) = 3.94252e-06 (4.10624)
Outpt time (%) = 0 (0)
Other time (%) = 1.19754e-05 (12.4727)

Nlocal:    41 ave 41 max 41 min
Histogram: 1 0 0 0 0 0 0 0 0 0
Nghost:    185 ave 185 max 185 min
Histogram: 1 0 0 0 0 0 0 0 0 0
Neighs:    359 ave 359 max 359 min
Histogram: 1 0 0 0 0 0 0 0 0 0

Total # of neighbors = 359
Ave neighs/atom = 8.7561
Neighbor list builds = 0
Dangerous builds = 0
	# write_dump all atom ${dumpfile}
        next i
jump SELF loop1
        displace_atoms upper move 0.0 ${ystep1} 0.0 units lattice
        displace_atoms upper move 0.0 0.002 0.0 units lattice
        min_style ${style}
        min_style cg
        minimize ${etol} ${ftol} ${maxiter} ${maxeval}
        minimize 1e-12 ${ftol} ${maxiter} ${maxeval}
        minimize 1e-12 1e-08 ${maxiter} ${maxeval}
        minimize 1e-12 1e-08 10000 ${maxeval}
        minimize 1e-12 1e-08 10000 20000
WARNING: Resetting reneighboring criteria during minimization (../min.cpp:168)
Memory usage per processor = 3.35941 Mbytes
Step Temp PotEng Lx Ly Lz 
     240            0   -139.87297    1.1224537    37.257289    1.1224537 
     241            0   -139.87297    1.1224537    37.257289    1.1224537 
Loop time of 9.59673e-05 on 1 procs for 1 steps with 41 atoms

Minimization stats:
  Stopping criterion = linesearch alpha is zero
  Energy initial, next-to-last, final = 
        -139.872970058     -139.872970058     -139.872970058
  Force two-norm initial, final = 2.08947e-10 2.08947e-10
  Force max component initial, final = 8.07936e-11 8.07936e-11
  Final line search alpha, max atom move = 0.5 4.03968e-11
  Iterations, force evaluations = 1 2

Pair  time (%) = 7.89581e-05 (82.276)
Neigh time (%) = 0 (0)
Comm  time (%) = 5.09922e-06 (5.3135)
Outpt time (%) = 0 (0)
Other time (%) = 1.191e-05 (12.4105)

Nlocal:    41 ave 41 max 41 min
Histogram: 1 0 0 0 0 0 0 0 0 0
Nghost:    185 ave 185 max 185 min
Histogram: 1 0 0 0 0 0 0 0 0 0
Neighs:    359 ave 359 max 359 min
Histogram: 1 0 0 0 0 0 0 0 0 0

Total # of neighbors = 359
Ave neighs/atom = 8.7561
Neighbor list builds = 0
Dangerous builds = 0
	# write_dump all atom ${dumpfile}
        next i
jump SELF loop1
        displace_atoms upper move 0.0 ${ystep1} 0.0 units lattice
        displace_atoms upper move 0.0 0.002 0.0 units lattice
        min_style ${style}
        min_style cg
        minimize ${etol} ${ftol} ${maxiter} ${maxeval}
        minimize 1e-12 ${ftol} ${maxiter} ${maxeval}
        minimize 1e-12 1e-08 ${maxiter} ${maxeval}
        minimize 1e-12 1e-08 10000 ${maxeval}
        minimize 1e-12 1e-08 10000 20000
WARNING: Resetting reneighboring criteria during minimization (../min.cpp:168)
Memory usage per processor = 3.35941 Mbytes
Step Temp PotEng Lx Ly Lz 
     241            0   -139.85916    1.1224537    37.261177    1.1224537 
     242            0   -139.85916    1.1224537    37.261177    1.1224537 
Loop time of 9.51177e-05 on 1 procs for 1 steps with 41 atoms

Minimization stats:
  Stopping criterion = linesearch alpha is zero
  Energy initial, next-to-last, final = 
        -139.859164762     -139.859164762     -139.859164762
  Force two-norm initial, final = 2.08852e-10 2.08852e-10
  Force max component initial, final = 8.07929e-11 8.07929e-11
  Final line search alpha, max atom move = 0.5 4.03964e-11
  Iterations, force evaluations = 1 2

Pair  time (%) = 8.1032e-05 (85.1913)
Neigh time (%) = 0 (0)
Comm  time (%) = 4.86278e-06 (5.11239)
Outpt time (%) = 0 (0)
Other time (%) = 9.22289e-06 (9.69629)

Nlocal:    41 ave 41 max 41 min
Histogram: 1 0 0 0 0 0 0 0 0 0
Nghost:    185 ave 185 max 185 min
Histogram: 1 0 0 0 0 0 0 0 0 0
Neighs:    359 ave 359 max 359 min
Histogram: 1 0 0 0 0 0 0 0 0 0

Total # of neighbors = 359
Ave neighs/atom = 8.7561
Neighbor list builds = 0
Dangerous builds = 0
	# write_dump all atom ${dumpfile}
        next i
jump SELF loop1
        displace_atoms upper move 0.0 ${ystep1} 0.0 units lattice
        displace_atoms upper move 0.0 0.002 0.0 units lattice
        min_style ${style}
        min_style cg
        minimize ${etol} ${ftol} ${maxiter} ${maxeval}
        minimize 1e-12 ${ftol} ${maxiter} ${maxeval}
        minimize 1e-12 1e-08 ${maxiter} ${maxeval}
        minimize 1e-12 1e-08 10000 ${maxeval}
        minimize 1e-12 1e-08 10000 20000
WARNING: Resetting reneighboring criteria during minimization (../min.cpp:168)
Memory usage per processor = 3.35941 Mbytes
Step Temp PotEng Lx Ly Lz 
     242            0   -139.84516    1.1224537    37.265065    1.1224537 
     243            0   -139.84516    1.1224537    37.265065    1.1224537 
Loop time of 9.58976e-05 on 1 procs for 1 steps with 41 atoms

Minimization stats:
  Stopping criterion = linesearch alpha is zero
  Energy initial, next-to-last, final = 
        -139.845163718     -139.845163718     -139.845163718
  Force two-norm initial, final = 2.08762e-10 2.08762e-10
  Force max component initial, final = 8.07927e-11 8.07927e-11
  Final line search alpha, max atom move = 0.5 4.03963e-11
  Iterations, force evaluations = 1 2

Pair  time (%) = 8.09875e-05 (84.452)
Neigh time (%) = 0 (0)
Comm  time (%) = 5.01191e-06 (5.22632)
Outpt time (%) = 0 (0)
Other time (%) = 9.89821e-06 (10.3216)

Nlocal:    41 ave 41 max 41 min
Histogram: 1 0 0 0 0 0 0 0 0 0
Nghost:    185 ave 185 max 185 min
Histogram: 1 0 0 0 0 0 0 0 0 0
Neighs:    359 ave 359 max 359 min
Histogram: 1 0 0 0 0 0 0 0 0 0

Total # of neighbors = 359
Ave neighs/atom = 8.7561
Neighbor list builds = 0
Dangerous builds = 0
	# write_dump all atom ${dumpfile}
        next i
jump SELF loop1
        displace_atoms upper move 0.0 ${ystep1} 0.0 units lattice
        displace_atoms upper move 0.0 0.002 0.0 units lattice
        min_style ${style}
        min_style cg
        minimize ${etol} ${ftol} ${maxiter} ${maxeval}
        minimize 1e-12 ${ftol} ${maxiter} ${maxeval}
        minimize 1e-12 1e-08 ${maxiter} ${maxeval}
        minimize 1e-12 1e-08 10000 ${maxeval}
        minimize 1e-12 1e-08 10000 20000
WARNING: Resetting reneighboring criteria during minimization (../min.cpp:168)
Memory usage per processor = 3.35941 Mbytes
Step Temp PotEng Lx Ly Lz 
     243            0   -139.83098    1.1224537    37.268953    1.1224537 
     244            0   -139.83098    1.1224537    37.268953    1.1224537 
Loop time of 9.51079e-05 on 1 procs for 1 steps with 41 atoms

Minimization stats:
  Stopping criterion = linesearch alpha is zero
  Energy initial, next-to-last, final = 
        -139.830976968     -139.830976968     -139.830976968
  Force two-norm initial, final = 2.08676e-10 2.08676e-10
  Force max component initial, final = 8.0792e-11 8.0792e-11
  Final line search alpha, max atom move = 0.5 4.0396e-11
  Iterations, force evaluations = 1 2

Pair  time (%) = 8.00956e-05 (84.2155)
Neigh time (%) = 0 (0)
Comm  time (%) = 2.94321e-06 (3.0946)
Outpt time (%) = 0 (0)
Other time (%) = 1.20691e-05 (12.6899)

Nlocal:    41 ave 41 max 41 min
Histogram: 1 0 0 0 0 0 0 0 0 0
Nghost:    185 ave 185 max 185 min
Histogram: 1 0 0 0 0 0 0 0 0 0
Neighs:    359 ave 359 max 359 min
Histogram: 1 0 0 0 0 0 0 0 0 0

Total # of neighbors = 359
Ave neighs/atom = 8.7561
Neighbor list builds = 0
Dangerous builds = 0
	# write_dump all atom ${dumpfile}
        next i
jump SELF loop1
[...]
        minimize 1e-12 1e-08 ${maxiter} ${maxeval}
        minimize 1e-12 1e-08 10000 ${maxeval}
        minimize 1e-12 1e-08 10000 20000
WARNING: Resetting reneighboring criteria during minimization (../min.cpp:168)
Memory usage per processor = 3.35941 Mbytes
Step Temp PotEng Lx Ly Lz 
     700            0    -137.4408    1.1224537    39.045904    1.1224537 
     701            0    -137.4408    1.1224537    39.045904    1.1224537 
Loop time of 9.30019e-05 on 1 procs for 1 steps with 41 atoms

Minimization stats:
  Stopping criterion = linesearch alpha is zero
  Energy initial, next-to-last, final = 
        -137.440797358     -137.440797358     -137.440797358
  Force two-norm initial, final = 7.23308e-07 7.23308e-07
  Force max component initial, final = 2.61583e-07 2.61583e-07
  Final line search alpha, max atom move = 0.5 1.30791e-07
  Iterations, force evaluations = 1 2

Pair  time (%) = 7.59232e-05 (81.6362)
Neigh time (%) = 0 (0)
Comm  time (%) = 4.08222e-06 (4.3894)
Outpt time (%) = 0 (0)
Other time (%) = 1.29965e-05 (13.9744)

Nlocal:    41 ave 41 max 41 min
Histogram: 1 0 0 0 0 0 0 0 0 0
Nghost:    185 ave 185 max 185 min
Histogram: 1 0 0 0 0 0 0 0 0 0
Neighs:    349 ave 349 max 349 min
Histogram: 1 0 0 0 0 0 0 0 0 0

Total # of neighbors = 349
Ave neighs/atom = 8.5122
Neighbor list builds = 0
Dangerous builds = 0
	# write_dump all atom ${dumpfile}
        next i
jump SELF loop1
        displace_atoms upper move 0.0 ${ystep1} 0.0 units lattice
        displace_atoms upper move 0.0 0.002 0.0 units lattice
        min_style ${style}
        min_style cg
        minimize ${etol} ${ftol} ${maxiter} ${maxeval}
        minimize 1e-12 ${ftol} ${maxiter} ${maxeval}
        minimize 1e-12 1e-08 ${maxiter} ${maxeval}
        minimize 1e-12 1e-08 10000 ${maxeval}
        minimize 1e-12 1e-08 10000 20000
WARNING: Resetting reneighboring criteria during minimization (../min.cpp:168)
Memory usage per processor = 3.35941 Mbytes
Step Temp PotEng Lx Ly Lz 
     701            0    -137.4408    1.1224537    39.049792    1.1224537 
     702            0    -137.4408    1.1224537    39.049792    1.1224537 
Loop time of 9.20801e-05 on 1 procs for 1 steps with 41 atoms

Minimization stats:
  Stopping criterion = linesearch alpha is zero
  Energy initial, next-to-last, final = 
        -137.440797358     -137.440797358     -137.440797358
  Force two-norm initial, final = 7.23308e-07 7.23308e-07
  Force max component initial, final = 2.61583e-07 2.61583e-07
  Final line search alpha, max atom move = 0.5 1.30791e-07
  Iterations, force evaluations = 1 2

Pair  time (%) = 7.90186e-05 (85.8151)
Neigh time (%) = 0 (0)
Comm  time (%) = 2.98175e-06 (3.23821)
Outpt time (%) = 0 (0)
Other time (%) = 1.00797e-05 (10.9467)

Nlocal:    41 ave 41 max 41 min
Histogram: 1 0 0 0 0 0 0 0 0 0
Nghost:    185 ave 185 max 185 min
Histogram: 1 0 0 0 0 0 0 0 0 0
Neighs:    349 ave 349 max 349 min
Histogram: 1 0 0 0 0 0 0 0 0 0

Total # of neighbors = 349
Ave neighs/atom = 8.5122
Neighbor list builds = 0
Dangerous builds = 0
	# write_dump all atom ${dumpfile}
        next i
jump SELF loop1
        displace_atoms upper move 0.0 ${ystep1} 0.0 units lattice
        displace_atoms upper move 0.0 0.002 0.0 units lattice
        min_style ${style}
        min_style cg
        minimize ${etol} ${ftol} ${maxiter} ${maxeval}
        minimize 1e-12 ${ftol} ${maxiter} ${maxeval}
        minimize 1e-12 1e-08 ${maxiter} ${maxeval}
        minimize 1e-12 1e-08 10000 ${maxeval}
        minimize 1e-12 1e-08 10000 20000
WARNING: Resetting reneighboring criteria during minimization (../min.cpp:168)
Memory usage per processor = 3.35941 Mbytes
Step Temp PotEng Lx Ly Lz 
     702            0    -137.4408    1.1224537     39.05368    1.1224537 
     703            0    -137.4408    1.1224537     39.05368    1.1224537 
Loop time of 9.2913e-05 on 1 procs for 1 steps with 41 atoms

Minimization stats:
  Stopping criterion = linesearch alpha is zero
  Energy initial, next-to-last, final = 
        -137.440797358     -137.440797358     -137.440797358
  Force two-norm initial, final = 7.23308e-07 7.23308e-07
  Force max component initial, final = 2.61583e-07 2.61583e-07
  Final line search alpha, max atom move = 0.5 1.30791e-07
  Iterations, force evaluations = 1 2

Pair  time (%) = 7.91334e-05 (85.1693)
Neigh time (%) = 0 (0)
Comm  time (%) = 1.97277e-06 (2.12325)
Outpt time (%) = 0 (0)
Other time (%) = 1.18068e-05 (12.7074)

Nlocal:    41 ave 41 max 41 min
Histogram: 1 0 0 0 0 0 0 0 0 0
Nghost:    185 ave 185 max 185 min
Histogram: 1 0 0 0 0 0 0 0 0 0
Neighs:    349 ave 349 max 349 min
Histogram: 1 0 0 0 0 0 0 0 0 0

Total # of neighbors = 349
Ave neighs/atom = 8.5122
Neighbor list builds = 0
Dangerous builds = 0
	# write_dump all atom ${dumpfile}
        next i
jump SELF loop1
        displace_atoms upper move 0.0 ${ystep1} 0.0 units lattice
        displace_atoms upper move 0.0 0.002 0.0 units lattice
        min_style ${style}
        min_style cg
        minimize ${etol} ${ftol} ${maxiter} ${maxeval}
        minimize 1e-12 ${ftol} ${maxiter} ${maxeval}
        minimize 1e-12 1e-08 ${maxiter} ${maxeval}
        minimize 1e-12 1e-08 10000 ${maxeval}
        minimize 1e-12 1e-08 10000 20000
WARNING: Resetting reneighboring criteria during minimization (../min.cpp:168)
Memory usage per processor = 3.35941 Mbytes
Step Temp PotEng Lx Ly Lz 
     703            0    -137.4408    1.1224537    39.057569    1.1224537 
     704            0    -137.4408    1.1224537    39.057569    1.1224537 
Loop time of 4.10862e-05 on 1 procs for 1 steps with 41 atoms

Minimization stats:
  Stopping criterion = linesearch alpha is zero
  Energy initial, next-to-last, final = 
        -137.440797358     -137.440797358     -137.440797358
  Force two-norm initial, final = 7.23308e-07 7.23308e-07
  Force max component initial, final = 2.61583e-07 2.61583e-07
  Final line search alpha, max atom move = 0.5 1.30791e-07
  Iterations, force evaluations = 1 2

Pair  time (%) = 3.315e-05 (80.6839)
Neigh time (%) = 0 (0)
Comm  time (%) = 2.25916e-06 (5.49857)
Outpt time (%) = 0 (0)
Other time (%) = 5.67711e-06 (13.8175)

Nlocal:    41 ave 41 max 41 min
Histogram: 1 0 0 0 0 0 0 0 0 0
Nghost:    185 ave 185 max 185 min
Histogram: 1 0 0 0 0 0 0 0 0 0
Neighs:    349 ave 349 max 349 min
Histogram: 1 0 0 0 0 0 0 0 0 0

Total # of neighbors = 349
Ave neighs/atom = 8.5122
Neighbor list builds = 0
Dangerous builds = 0
	# write_dump all atom ${dumpfile}
        next i
jump SELF loop1
        displace_atoms upper move 0.0 ${ystep1} 0.0 units lattice
        displace_atoms upper move 0.0 0.002 0.0 units lattice
        min_style ${style}
        min_style cg
        minimize ${etol} ${ftol} ${maxiter} ${maxeval}
        minimize 1e-12 ${ftol} ${maxiter} ${maxeval}
        minimize 1e-12 1e-08 ${maxiter} ${maxeval}
        minimize 1e-12 1e-08 10000 ${maxeval}
        minimize 1e-12 1e-08 10000 20000
WARNING: Resetting reneighboring criteria during minimization (../min.cpp:168)
Memory usage per processor = 3.35941 Mbytes
Step Temp PotEng Lx Ly Lz 
     704            0    -137.4408    1.1224537    39.061457    1.1224537 
     705            0    -137.4408    1.1224537    39.061457    1.1224537 
Loop time of 9.29835e-05 on 1 procs for 1 steps with 41 atoms

Minimization stats:
  Stopping criterion = linesearch alpha is zero
  Energy initial, next-to-last, final = 
        -137.440797358     -137.440797358     -137.440797358
  Force two-norm initial, final = 7.23308e-07 7.23308e-07
  Force max component initial, final = 2.61583e-07 2.61583e-07
  Final line search alpha, max atom move = 0.5 1.30791e-07
  Iterations, force evaluations = 1 2

Pair  time (%) = 7.88677e-05 (84.819)
Neigh time (%) = 0 (0)
Comm  time (%) = 5.91832e-06 (6.36492)
Outpt time (%) = 0 (0)
Other time (%) = 8.1975e-06 (8.81608)

Nlocal:    41 ave 41 max 41 min
Histogram: 1 0 0 0 0 0 0 0 0 0
Nghost:    185 ave 185 max 185 min
Histogram: 1 0 0 0 0 0 0 0 0 0
Neighs:    349 ave 349 max 349 min
Histogram: 1 0 0 0 0 0 0 0 0 0

Total # of neighbors = 349
Ave neighs/atom = 8.5122
Neighbor list builds = 0
Dangerous builds = 0
	# write_dump all atom ${dumpfile}
        next i
jump SELF loop1
        displace_atoms upper move 0.0 ${ystep1} 0.0 units lattice
        displace_atoms upper move 0.0 0.002 0.0 units lattice
        min_style ${style}
        min_style cg
        minimize ${etol} ${ftol} ${maxiter} ${maxeval}
        minimize 1e-12 ${ftol} ${maxiter} ${maxeval}
        minimize 1e-12 1e-08 ${maxiter} ${maxeval}
        minimize 1e-12 1e-08 10000 ${maxeval}
        minimize 1e-12 1e-08 10000 20000
WARNING: Resetting reneighboring criteria during minimization (../min.cpp:168)
Memory usage per processor = 3.35941 Mbytes
Step Temp PotEng Lx Ly Lz 
     705            0    -137.4408    1.1224537    39.065345    1.1224537 
     706            0    -137.4408    1.1224537    39.065345    1.1224537 
Loop time of 0.000106962 on 1 procs for 1 steps with 41 atoms

Minimization stats:
  Stopping criterion = linesearch alpha is zero
  Energy initial, next-to-last, final = 
        -137.440797358     -137.440797358     -137.440797358
  Force two-norm initial, final = 7.23308e-07 7.23308e-07
  Force max component initial, final = 2.61583e-07 2.61583e-07
  Final line search alpha, max atom move = 0.5 1.30791e-07
  Iterations, force evaluations = 1 2

Pair  time (%) = 9.11417e-05 (85.2093)
Neigh time (%) = 0 (0)
Comm  time (%) = 6.0685e-06 (5.6735)
Outpt time (%) = 0 (0)
Other time (%) = 9.752e-06 (9.11724)

Nlocal:    41 ave 41 max 41 min
Histogram: 1 0 0 0 0 0 0 0 0 0
Nghost:    185 ave 185 max 185 min
Histogram: 1 0 0 0 0 0 0 0 0 0
Neighs:    349 ave 349 max 349 min
Histogram: 1 0 0 0 0 0 0 0 0 0

Total # of neighbors = 349
Ave neighs/atom = 8.5122
Neighbor list builds = 0
Dangerous builds = 0
	# write_dump all atom ${dumpfile}
        next i
jump SELF loop1
        displace_atoms upper move 0.0 ${ystep1} 0.0 units lattice
        displace_atoms upper move 0.0 0.002 0.0 units lattice
        min_style ${style}
        min_style cg
        minimize ${etol} ${ftol} ${maxiter} ${maxeval}
        minimize 1e-12 ${ftol} ${maxiter} ${maxeval}
        minimize 1e-12 1e-08 ${maxiter} ${maxeval}
        minimize 1e-12 1e-08 10000 ${maxeval}
        minimize 1e-12 1e-08 10000 20000
WARNING: Resetting reneighboring criteria during minimization (../min.cpp:168)
Memory usage per processor = 3.35941 Mbytes
Step Temp PotEng Lx Ly Lz 
     706            0    -137.4408    1.1224537    39.069233    1.1224537 
     707            0    -137.4408    1.1224537    39.069233    1.1224537 
Loop time of 9.302e-05 on 1 procs for 1 steps with 41 atoms

Minimization stats:
  Stopping criterion = linesearch alpha is zero
  Energy initial, next-to-last, final = 
        -137.440797358     -137.440797358     -137.440797358
  Force two-norm initial, final = 7.23308e-07 7.23308e-07
  Force max component initial, final = 2.61583e-07 2.61583e-07
  Final line search alpha, max atom move = 0.5 1.30791e-07
  Iterations, force evaluations = 1 2

Pair  time (%) = 7.59773e-05 (81.6784)
Neigh time (%) = 0 (0)
Comm  time (%) = 3.76021e-06 (4.04237)
Outpt time (%) = 0 (0)
Other time (%) = 1.32825e-05 (14.2792)

Nlocal:    41 ave 41 max 41 min
Histogram: 1 0 0 0 0 0 0 0 0 0
Nghost:    185 ave 185 max 185 min
Histogram: 1 0 0 0 0 0 0 0 0 0
Neighs:    349 ave 349 max 349 min
Histogram: 1 0 0 0 0 0 0 0 0 0

Total # of neighbors = 349
Ave neighs/atom = 8.5122
Neighbor list builds = 0
Dangerous builds = 0
	# write_dump all atom ${dumpfile}
        next i
jump SELF loop1
        displace_atoms upper move 0.0 ${ystep1} 0.0 units lattice
        displace_atoms upper move 0.0 0.002 0.0 units lattice
        min_style ${style}
        min_style cg
        minimize ${etol} ${ftol} ${maxiter} ${maxeval}
        minimize 1e-12 ${ftol} ${maxiter} ${maxeval}
        minimize 1e-12 1e-08 ${maxiter} ${maxeval}
        minimize 1e-12 1e-08 10000 ${maxeval}
        minimize 1e-12 1e-08 10000 20000
WARNING: Resetting reneighboring criteria during minimization (../min.cpp:168)
Memory usage per processor = 3.35941 Mbytes
Step Temp PotEng Lx Ly Lz 
     707            0    -137.4408    1.1224537    39.073122    1.1224537 
     708            0    -137.4408    1.1224537    39.073122    1.1224537 
Loop time of 9.29445e-05 on 1 procs for 1 steps with 41 atoms

Minimization stats:
  Stopping criterion = linesearch alpha is zero
  Energy initial, next-to-last, final = 
        -137.440797358     -137.440797358     -137.440797358
  Force two-norm initial, final = 7.23308e-07 7.23308e-07
  Force max component initial, final = 2.61583e-07 2.61583e-07
  Final line search alpha, max atom move = 0.5 1.30791e-07
  Iterations, force evaluations = 1 2

Pair  time (%) = 7.69891e-05 (82.8334)
Neigh time (%) = 0 (0)
Comm  time (%) = 3.30678e-06 (3.5578)
Outpt time (%) = 0 (0)
Other time (%) = 1.26486e-05 (13.6088)

Nlocal:    41 ave 41 max 41 min
Histogram: 1 0 0 0 0 0 0 0 0 0
Nghost:    185 ave 185 max 185 min
Histogram: 1 0 0 0 0 0 0 0 0 0
Neighs:    349 ave 349 max 349 min
Histogram: 1 0 0 0 0 0 0 0 0 0

Total # of neighbors = 349
Ave neighs/atom = 8.5122
Neighbor list builds = 0
Dangerous builds = 0
	# write_dump all atom ${dumpfile}
        next i
jump SELF loop1
        displace_atoms upper move 0.0 ${ystep1} 0.0 units lattice
        displace_atoms upper move 0.0 0.002 0.0 units lattice
        min_style ${style}
        min_style cg
        minimize ${etol} ${ftol} ${maxiter} ${maxeval}
        minimize 1e-12 ${ftol} ${maxiter} ${maxeval}
        minimize 1e-12 1e-08 ${maxiter} ${maxeval}
        minimize 1e-12 1e-08 10000 ${maxeval}
        minimize 1e-12 1e-08 10000 20000
WARNING: Resetting reneighboring criteria during minimization (../min.cpp:168)
Memory usage per processor = 3.35941 Mbytes
Step Temp PotEng Lx Ly Lz 
     708            0    -137.4408    1.1224537     39.07701    1.1224537 
     709            0    -137.4408    1.1224537     39.07701    1.1224537 
Loop time of 9.29547e-05 on 1 procs for 1 steps with 41 atoms

Minimization stats:
  Stopping criterion = linesearch alpha is zero
  Energy initial, next-to-last, final = 
        -137.440797358     -137.440797358     -137.440797358
  Force two-norm initial, final = 7.23308e-07 7.23308e-07
  Force max component initial, final = 2.61583e-07 2.61583e-07
  Final line search alpha, max atom move = 0.5 1.30791e-07
  Iterations, force evaluations = 1 2

Pair  time (%) = 7.90198e-05 (85.0089)
Neigh time (%) = 0 (0)
Comm  time (%) = 9.84175e-07 (1.05877)
Outpt time (%) = 0 (0)
Other time (%) = 1.29507e-05 (13.9323)

Nlocal:    41 ave 41 max 41 min
Histogram: 1 0 0 0 0 0 0 0 0 0
Nghost:    185 ave 185 max 185 min
Histogram: 1 0 0 0 0 0 0 0 0 0
Neighs:    349 ave 349 max 349 min
Histogram: 1 0 0 0 0 0 0 0 0 0

Total # of neighbors = 349
Ave neighs/atom = 8.5122
Neighbor list builds = 0
Dangerous builds = 0
	# write_dump all atom ${dumpfile}
        next i
jump SELF loop1

unfix 2
min_style ${style}
min_style cg
minimize ${etol} ${ftol} ${maxiter} ${maxeval}
minimize 1e-12 ${ftol} ${maxiter} ${maxeval}
minimize 1e-12 1e-08 ${maxiter} ${maxeval}
minimize 1e-12 1e-08 10000 ${maxeval}
minimize 1e-12 1e-08 10000 20000
WARNING: Resetting reneighboring criteria during minimization (../min.cpp:168)
Memory usage per processor = 3.35941 Mbytes
Step Temp PotEng Lx Ly Lz 
     709            0    -137.4408    1.1224537     39.07701    1.1224537 
     710            0   -137.45101    1.1224537     39.07701    1.1224537 
     711            0   -137.45293    1.1224537     39.07701    1.1224537 
     712            0    -137.4535    1.1224537     39.07701    1.1224537 
     713            0   -137.45381    1.1224537     39.07701    1.1224537 
     714            0   -137.45403    1.1224537     39.07701    1.1224537 
     715            0   -137.45411    1.1224537     39.07701    1.1224537 
     716            0   -137.45415    1.1224537     39.07701    1.1224537 
     717            0   -137.45419    1.1224537     39.07701    1.1224537 
     718            0   -137.45421    1.1224537     39.07701    1.1224537 
     719            0   -137.45422    1.1224537     39.07701    1.1224537 
     720            0   -137.45423    1.1224537     39.07701    1.1224537 
     721            0   -137.45424    1.1224537     39.07701    1.1224537 
     722            0   -137.45424    1.1224537     39.07701    1.1224537 
     723            0   -137.45424    1.1224537     39.07701    1.1224537 
     724            0   -137.45425    1.1224537     39.07701    1.1224537 
     725            0   -137.45425    1.1224537     39.07701    1.1224537 
     726            0   -137.45425    1.1224537     39.07701    1.1224537 
     727            0   -137.45425    1.1224537     39.07701    1.1224537 
     728            0   -137.45425    1.1224537     39.07701    1.1224537 
     729            0   -137.45425    1.1224537     39.07701    1.1224537 
     730            0   -137.45425    1.1224537     39.07701    1.1224537 
     731            0   -137.45426    1.1224537     39.07701    1.1224537 
     732            0   -137.45426    1.1224537     39.07701    1.1224537 
     733            0   -137.45426    1.1224537     39.07701    1.1224537 
     734            0   -137.45426    1.1224537     39.07701    1.1224537 
     735            0   -137.45426    1.1224537     39.07701    1.1224537 
     736            0   -137.45426    1.1224537     39.07701    1.1224537 
     737            0   -137.45426    1.1224537     39.07701    1.1224537 
     738            0   -137.45426    1.1224537     39.07701    1.1224537 
     739            0   -137.45426    1.1224537     39.07701    1.1224537 
     740            0   -137.45426    1.1224537     39.07701    1.1224537 
     741            0   -137.45426    1.1224537     39.07701    1.1224537 
     742            0   -137.45426    1.1224537     39.07701    1.1224537 
     743            0   -137.45426    1.1224537     39.07701    1.1224537 
     744            0   -137.45426    1.1224537     39.07701    1.1224537 
     745            0   -137.45426    1.1224537     39.07701    1.1224537 
     746            0   -137.45426    1.1224537     39.07701    1.1224537 
     747            0   -137.45426    1.1224537     39.07701    1.1224537 
     748            0   -137.45426    1.1224537     39.07701    1.1224537 
     749            0   -137.45426    1.1224537     39.07701    1.1224537 
     750            0   -137.45426    1.1224537     39.07701    1.1224537 
     751            0   -137.45426    1.1224537     39.07701    1.1224537 
     752            0   -137.45426    1.1224537     39.07701    1.1224537 
     753            0   -137.45426    1.1224537     39.07701    1.1224537 
     754            0   -137.45426    1.1224537     39.07701    1.1224537 
     755            0   -137.45426    1.1224537     39.07701    1.1224537 
     756            0   -137.45426    1.1224537     39.07701    1.1224537 
     757            0   -137.45426    1.1224537     39.07701    1.1224537 
Loop time of 0.0102939 on 1 procs for 48 steps with 41 atoms

Minimization stats:
  Stopping criterion = linesearch alpha is zero
  Energy initial, next-to-last, final = 
        -137.440797358     -137.454261028     -137.454261028
  Force two-norm initial, final = 1.59776 0.000806832
  Force max component initial, final = 0.799209 0.000253301
  Final line search alpha, max atom move = 0.015625 3.95783e-06
  Iterations, force evaluations = 48 329

Pair  time (%) = 0.00894065 (86.8538)
Neigh time (%) = 0 (0)
Comm  time (%) = 0.000531 (5.15838)
Outpt time (%) = 0.000279238 (2.71265)
Other time (%) = 0.000543023 (5.27518)

Nlocal:    41 ave 41 max 41 min
Histogram: 1 0 0 0 0 0 0 0 0 0
Nghost:    185 ave 185 max 185 min
Histogram: 1 0 0 0 0 0 0 0 0 0
Neighs:    349 ave 349 max 349 min
Histogram: 1 0 0 0 0 0 0 0 0 0

Total # of neighbors = 349
Ave neighs/atom = 8.5122
Neighbor list builds = 0
Dangerous builds = 0

