LAMMPS (28 Jun 2014)
# attempt at getting surface energy

#file prefix
variable prefix string surf_V_inter4_3d
variable dumpfile string ${prefix}.*.dump
variable dumpfile string surf_V_inter4_3d.*.dump
variable restartfile string ${prefix}.*.equil
variable restartfile string surf_V_inter4_3d.*.equil

#Mass (g/mol)
variable m equal 1.0

# lattice constant (in Angstroms) and orientation of axes (given by lattice vectors)
variable rho equal 1.414
variable x1 equal 1
variable x2 equal 1
variable x3 equal -2
variable y1 equal 1
variable y2 equal 1
variable y3 equal 1
variable z1 equal 1
variable z2 equal -1
variable z3 equal 0
# length of lattice in different directions (using orientation of lattice vectors)
variable ax equal sqrt(${x1}*${x1}+${x2}*${x2}+${x3}*${x3})
variable ax equal sqrt(1*${x1}+${x2}*${x2}+${x3}*${x3})
variable ax equal sqrt(1*1+${x2}*${x2}+${x3}*${x3})
variable ax equal sqrt(1*1+1*${x2}+${x3}*${x3})
variable ax equal sqrt(1*1+1*1+${x3}*${x3})
variable ax equal sqrt(1*1+1*1+-2*${x3})
variable ax equal sqrt(1*1+1*1+-2*-2)
variable ay equal sqrt(${y1}*${y1}+${y2}*${y2}+${y3}*${y3})
variable ay equal sqrt(1*${y1}+${y2}*${y2}+${y3}*${y3})
variable ay equal sqrt(1*1+${y2}*${y2}+${y3}*${y3})
variable ay equal sqrt(1*1+1*${y2}+${y3}*${y3})
variable ay equal sqrt(1*1+1*1+${y3}*${y3})
variable ay equal sqrt(1*1+1*1+1*${y3})
variable ay equal sqrt(1*1+1*1+1*1)
variable az equal sqrt(${z1}*${z1}+${z2}*${z2}+${z3}*${z3})
variable az equal sqrt(1*${z1}+${z2}*${z2}+${z3}*${z3})
variable az equal sqrt(1*1+${z2}*${z2}+${z3}*${z3})
variable az equal sqrt(1*1+-1*${z2}+${z3}*${z3})
variable az equal sqrt(1*1+-1*-1+${z3}*${z3})
variable az equal sqrt(1*1+-1*-1+0*${z3})
variable az equal sqrt(1*1+-1*-1+0*0)

# size of box in lattice units
variable lxpos equal 2
variable lxneg equal 0
variable lypos equal 15
variable lyneg equal -1*${lypos}
variable lyneg equal -1*15
variable lzpos equal 2
variable lzneg equal 0

# boundary conditions
dimension	3
boundary	p s p
atom_style	atomic

# Define minimization parameters and damping
variable etol equal 1.0e-12
variable ftol equal 1.0e-8
variable maxiter equal 10000
variable maxeval equal 20000
variable style string hftn

# create geometry
units		lj
lattice         fcc ${rho} orient x 1 1 -2 orient y 1 1 1 orient z 1 -1 0 spacing ${ax} ${ay} ${az}
lattice         fcc 1.414 orient x 1 1 -2 orient y 1 1 1 orient z 1 -1 0 spacing ${ax} ${ay} ${az}
lattice         fcc 1.414 orient x 1 1 -2 orient y 1 1 1 orient z 1 -1 0 spacing 2.44948974278318 ${ay} ${az}
lattice         fcc 1.414 orient x 1 1 -2 orient y 1 1 1 orient z 1 -1 0 spacing 2.44948974278318 1.73205080756888 ${az}
lattice         fcc 1.414 orient x 1 1 -2 orient y 1 1 1 orient z 1 -1 0 spacing 2.44948974278318 1.73205080756888 1.4142135623731
Lattice spacing in x,y,z = 3.46428 2.44961 2.0001
region		myregion block ${lxneg} ${lxpos} ${lyneg} ${lypos} ${lzneg} ${lzpos} units lattice
region		myregion block 0 ${lxpos} ${lyneg} ${lypos} ${lzneg} ${lzpos} units lattice
region		myregion block 0 2 ${lyneg} ${lypos} ${lzneg} ${lzpos} units lattice
region		myregion block 0 2 -15 ${lypos} ${lzneg} ${lzpos} units lattice
region		myregion block 0 2 -15 15 ${lzneg} ${lzpos} units lattice
region		myregion block 0 2 -15 15 0 ${lzpos} units lattice
region		myregion block 0 2 -15 15 0 2 units lattice
create_box	1 myregion
Created orthogonal box = (0 -36.7442 0) to (6.92855 36.7442 4.0002)
  1 by 1 by 1 MPI processor grid
create_atoms	1 box
Created 2912 atoms
write_dump all atom init.dump

# define masses
mass * $m
mass * 1

# my fake/morse potential
pair_style      table linear 3001
pair_coeff      * * vpotential_inter43dnorm dummy
neighbor	0.3 bin
neigh_modify	delay 5

# define groups. Nudge to separate planes cleanly
region	    upper block INF INF 0.01 ${lypos} INF INF units lattice
region	    upper block INF INF 0.01 15 INF INF units lattice
group		upper region upper
1440 atoms in group upper

# Setup output
thermo 1
thermo_style custom step temp pe lx ly lz
thermo_modify norm no

# Compute initial state by relaxing box
fix 3 all box/relax x 0.0
min_style ${style}
min_style hftn
minimize ${etol} ${ftol} ${maxiter} ${maxeval}
minimize 1e-12 ${ftol} ${maxiter} ${maxeval}
minimize 1e-12 1e-08 ${maxiter} ${maxeval}
minimize 1e-12 1e-08 10000 ${maxeval}
minimize 1e-12 1e-08 10000 20000
WARNING: Resetting reneighboring criteria during minimization (../min.cpp:168)
Memory usage per processor = 5.2861 Mbytes
Step Temp PotEng Lx Ly Lz 
       0            0    -17375.99     6.928552    73.503089    4.0002014 
       1            0    -17375.99     6.928552    73.503089    4.0002014 
       2            0    -17375.99     6.928552    73.503089    4.0002014 
       3            0    -17375.99     6.928552    73.503089    4.0002014 
       4            0    -17375.99     6.928552    73.503089    4.0002014 
       5            0    -17375.99     6.928552    73.503089    4.0002014 
       6            0    -17375.99     6.928552    73.503089    4.0002014 
       7            0    -17375.99     6.928552    73.503089    4.0002014 
       8            0    -17375.99     6.928552    73.503089    4.0002014 
       9            0    -17375.99     6.928552    73.503089    4.0002014 
      10            0    -17375.99     6.928552    73.503089    4.0002014 
      11            0    -17375.99     6.928552    73.503089    4.0002014 
      12            0    -17375.99     6.928552    73.503089    4.0002014 
      13            0    -17375.99     6.928552    73.503089    4.0002014 
      14            0    -17375.99     6.928552    73.503089    4.0002014 
      15            0    -17375.99     6.928552    73.503089    4.0002014 
      16            0    -17375.99     6.928552    73.503089    4.0002014 
Loop time of 0.383661 on 1 procs for 15 steps with 2912 atoms

Minimization stats:
  Stopping criterion = trust region too small
  Energy initial, next-to-last, final = 
        -17375.9899537     -17375.9899537     -17375.9899537
  Force two-norm initial, final = 31.0474 31.0474
  Force max component initial, final = 31.0472 31.0472
  Final line search alpha, max atom move = 0 0
  Iterations, force evaluations = 15 94

Pair  time (%) = 0.332478 (86.6594)
Neigh time (%) = 0 (0)
Comm  time (%) = 0.030451 (7.93696)
Outpt time (%) = 0.00491107 (1.28006)
Other time (%) = 0.0158206 (4.12358)

Nlocal:    2912 ave 2912 max 2912 min
Histogram: 1 0 0 0 0 0 0 0 0 0
Nghost:    7129 ave 7129 max 7129 min
Histogram: 1 0 0 0 0 0 0 0 0 0
Neighs:    112224 ave 112224 max 112224 min
Histogram: 1 0 0 0 0 0 0 0 0 0

Total # of neighbors = 112224
Ave neighs/atom = 38.5385
Neighbor list builds = 0
Dangerous builds = 0
unfix 3

# don't allow atoms to relax in y-direction
fix 2 all setforce NULL 0.0 NULL

# GSF energy curve will have 100*2 steps
variable nsteps equal 300
variable sstep1 equal 1.5
variable ystep1 equal ${sstep1}/(${ay}*${nsteps})
variable ystep1 equal 1.5/(${ay}*${nsteps})
variable ystep1 equal 1.5/(1.73205080756888*${nsteps})
variable ystep1 equal 1.5/(1.73205080756888*300)

variable i loop ${nsteps}
variable i loop 300
label loop1
        displace_atoms upper move 0.0 ${ystep1} 0.0 units lattice
        displace_atoms upper move 0.0 0.00288675134594812 0.0 units lattice
        min_style ${style}
        min_style hftn
        minimize ${etol} ${ftol} ${maxiter} ${maxeval}
        minimize 1e-12 ${ftol} ${maxiter} ${maxeval}
        minimize 1e-12 1e-08 ${maxiter} ${maxeval}
        minimize 1e-12 1e-08 10000 ${maxeval}
        minimize 1e-12 1e-08 10000 20000
WARNING: Resetting reneighboring criteria during minimization (../min.cpp:168)
Memory usage per processor = 5.2861 Mbytes
Step Temp PotEng Lx Ly Lz 
      16            0   -17375.823     6.928552    73.510161    4.0002014 
Loop time of 0.00453806 on 1 procs for 0 steps with 2912 atoms

Minimization stats:
  Stopping criterion = force tolerance
  Energy initial, next-to-last, final = 
        -17375.8229928     -17375.8229928     -17375.8229928
  Force two-norm initial, final = 9.88556e-11 9.88556e-11
  Force max component initial, final = 3.19188e-12 3.19188e-12
  Final line search alpha, max atom move = 0 0
  Iterations, force evaluations = 0 0

Pair  time (%) = 0.00446901 (98.4785)
Neigh time (%) = 0 (0)
Comm  time (%) = 3.59924e-05 (0.793122)
Outpt time (%) = 0 (0)
Other time (%) = 3.30552e-05 (0.7284)

Nlocal:    2912 ave 2912 max 2912 min
Histogram: 1 0 0 0 0 0 0 0 0 0
Nghost:    7129 ave 7129 max 7129 min
Histogram: 1 0 0 0 0 0 0 0 0 0
Neighs:    112224 ave 112224 max 112224 min
Histogram: 1 0 0 0 0 0 0 0 0 0

Total # of neighbors = 112224
Ave neighs/atom = 38.5385
Neighbor list builds = 0
Dangerous builds = 0
	# write_dump all atom ${dumpfile}
        next i
jump SELF loop1
        displace_atoms upper move 0.0 ${ystep1} 0.0 units lattice
        displace_atoms upper move 0.0 0.00288675134594812 0.0 units lattice
        min_style ${style}
        min_style hftn
        minimize ${etol} ${ftol} ${maxiter} ${maxeval}
        minimize 1e-12 ${ftol} ${maxiter} ${maxeval}
        minimize 1e-12 1e-08 ${maxiter} ${maxeval}
        minimize 1e-12 1e-08 10000 ${maxeval}
        minimize 1e-12 1e-08 10000 20000
WARNING: Resetting reneighboring criteria during minimization (../min.cpp:168)
Memory usage per processor = 5.2861 Mbytes
Step Temp PotEng Lx Ly Lz 
      16            0   -17375.354     6.928552    73.517232    4.0002014 
Loop time of 0.00293406 on 1 procs for 0 steps with 2912 atoms

Minimization stats:
  Stopping criterion = force tolerance
  Energy initial, next-to-last, final = 
        -17375.3541499     -17375.3541499     -17375.3541499
  Force two-norm initial, final = 9.88337e-11 9.88337e-11
  Force max component initial, final = 3.19188e-12 3.19188e-12
  Final line search alpha, max atom move = 0 0
  Iterations, force evaluations = 0 0

Pair  time (%) = 0.00286811 (97.7523)
Neigh time (%) = 0 (0)
Comm  time (%) = 3.59402e-05 (1.22493)
Outpt time (%) = 0 (0)
Other time (%) = 3.00079e-05 (1.02274)

Nlocal:    2912 ave 2912 max 2912 min
Histogram: 1 0 0 0 0 0 0 0 0 0
Nghost:    7129 ave 7129 max 7129 min
Histogram: 1 0 0 0 0 0 0 0 0 0
Neighs:    112224 ave 112224 max 112224 min
Histogram: 1 0 0 0 0 0 0 0 0 0

Total # of neighbors = 112224
Ave neighs/atom = 38.5385
Neighbor list builds = 0
Dangerous builds = 0
	# write_dump all atom ${dumpfile}
        next i
jump SELF loop1
        displace_atoms upper move 0.0 ${ystep1} 0.0 units lattice
        displace_atoms upper move 0.0 0.00288675134594812 0.0 units lattice
        min_style ${style}
        min_style hftn
        minimize ${etol} ${ftol} ${maxiter} ${maxeval}
        minimize 1e-12 ${ftol} ${maxiter} ${maxeval}
        minimize 1e-12 1e-08 ${maxiter} ${maxeval}
        minimize 1e-12 1e-08 10000 ${maxeval}
        minimize 1e-12 1e-08 10000 20000
WARNING: Resetting reneighboring criteria during minimization (../min.cpp:168)
Memory usage per processor = 5.2861 Mbytes
Step Temp PotEng Lx Ly Lz 
      16            0   -17374.618     6.928552    73.524304    4.0002014 
Loop time of 0.0032829 on 1 procs for 0 steps with 2912 atoms

Minimization stats:
  Stopping criterion = force tolerance
  Energy initial, next-to-last, final = 
        -17374.6184459     -17374.6184459     -17374.6184459
  Force two-norm initial, final = 9.88145e-11 9.88145e-11
  Force max component initial, final = 3.19188e-12 3.19188e-12
  Final line search alpha, max atom move = 0 0
  Iterations, force evaluations = 0 0

Pair  time (%) = 0.0031789 (96.8322)
Neigh time (%) = 0 (0)
Comm  time (%) = 5.71016e-05 (1.73936)
Outpt time (%) = 0 (0)
Other time (%) = 4.68929e-05 (1.4284)

Nlocal:    2912 ave 2912 max 2912 min
Histogram: 1 0 0 0 0 0 0 0 0 0
Nghost:    7129 ave 7129 max 7129 min
Histogram: 1 0 0 0 0 0 0 0 0 0
Neighs:    112224 ave 112224 max 112224 min
Histogram: 1 0 0 0 0 0 0 0 0 0

Total # of neighbors = 112224
Ave neighs/atom = 38.5385
Neighbor list builds = 0
Dangerous builds = 0
	# write_dump all atom ${dumpfile}
        next i
jump SELF loop1
        displace_atoms upper move 0.0 ${ystep1} 0.0 units lattice
        displace_atoms upper move 0.0 0.00288675134594812 0.0 units lattice
        min_style ${style}
        min_style hftn
        minimize ${etol} ${ftol} ${maxiter} ${maxeval}
        minimize 1e-12 ${ftol} ${maxiter} ${maxeval}
        minimize 1e-12 1e-08 ${maxiter} ${maxeval}
        minimize 1e-12 1e-08 10000 ${maxeval}
        minimize 1e-12 1e-08 10000 20000
WARNING: Resetting reneighboring criteria during minimization (../min.cpp:168)
Memory usage per processor = 5.2861 Mbytes
Step Temp PotEng Lx Ly Lz 
      16            0   -17373.648     6.928552    73.531375    4.0002014 
Loop time of 0.00216703 on 1 procs for 0 steps with 2912 atoms

Minimization stats:
  Stopping criterion = force tolerance
  Energy initial, next-to-last, final = 
        -17373.6480082     -17373.6480082     -17373.6480082
  Force two-norm initial, final = 9.87975e-11 9.87975e-11
  Force max component initial, final = 3.19188e-12 3.19188e-12
  Final line search alpha, max atom move = 0 0
  Iterations, force evaluations = 0 0

Pair  time (%) = 0.00210409 (97.0952)
Neigh time (%) = 0 (0)
Comm  time (%) = 3.50153e-05 (1.61582)
Outpt time (%) = 0 (0)
Other time (%) = 2.79328e-05 (1.28899)

Nlocal:    2912 ave 2912 max 2912 min
Histogram: 1 0 0 0 0 0 0 0 0 0
Nghost:    7129 ave 7129 max 7129 min
Histogram: 1 0 0 0 0 0 0 0 0 0
Neighs:    112224 ave 112224 max 112224 min
Histogram: 1 0 0 0 0 0 0 0 0 0

Total # of neighbors = 112224
Ave neighs/atom = 38.5385
Neighbor list builds = 0
Dangerous builds = 0
	# write_dump all atom ${dumpfile}
        next i
jump SELF loop1
        displace_atoms upper move 0.0 ${ystep1} 0.0 units lattice
        displace_atoms upper move 0.0 0.00288675134594812 0.0 units lattice
        min_style ${style}
        min_style hftn
        minimize ${etol} ${ftol} ${maxiter} ${maxeval}
        minimize 1e-12 ${ftol} ${maxiter} ${maxeval}
        minimize 1e-12 1e-08 ${maxiter} ${maxeval}
        minimize 1e-12 1e-08 10000 ${maxeval}
        minimize 1e-12 1e-08 10000 20000
WARNING: Resetting reneighboring criteria during minimization (../min.cpp:168)
Memory usage per processor = 5.2861 Mbytes
Step Temp PotEng Lx Ly Lz 
      16            0   -17372.472     6.928552    73.538446    4.0002014 
Loop time of 0.00203603 on 1 procs for 0 steps with 2912 atoms

Minimization stats:
  Stopping criterion = force tolerance
  Energy initial, next-to-last, final = 
        -17372.4723047     -17372.4723047     -17372.4723047
  Force two-norm initial, final = 9.8783e-11 9.8783e-11
  Force max component initial, final = 3.19188e-12 3.19188e-12
  Final line search alpha, max atom move = 0 0
  Iterations, force evaluations = 0 0

Pair  time (%) = 0.00197503 (97.0042)
Neigh time (%) = 0 (0)
Comm  time (%) = 3.38947e-05 (1.66475)
Outpt time (%) = 0 (0)
Other time (%) = 2.70997e-05 (1.33101)

Nlocal:    2912 ave 2912 max 2912 min
Histogram: 1 0 0 0 0 0 0 0 0 0
Nghost:    7129 ave 7129 max 7129 min
Histogram: 1 0 0 0 0 0 0 0 0 0
Neighs:    112224 ave 112224 max 112224 min
Histogram: 1 0 0 0 0 0 0 0 0 0

Total # of neighbors = 112224
Ave neighs/atom = 38.5385
Neighbor list builds = 0
Dangerous builds = 0
	# write_dump all atom ${dumpfile}
        next i
jump SELF loop1
        displace_atoms upper move 0.0 ${ystep1} 0.0 units lattice
        displace_atoms upper move 0.0 0.00288675134594812 0.0 units lattice
        min_style ${style}
        min_style hftn
        minimize ${etol} ${ftol} ${maxiter} ${maxeval}
        minimize 1e-12 ${ftol} ${maxiter} ${maxeval}
        minimize 1e-12 1e-08 ${maxiter} ${maxeval}
        minimize 1e-12 1e-08 10000 ${maxeval}
        minimize 1e-12 1e-08 10000 20000
WARNING: Resetting reneighboring criteria during minimization (../min.cpp:168)
Memory usage per processor = 5.2861 Mbytes
Step Temp PotEng Lx Ly Lz 
      16            0   -17371.118     6.928552    73.545518    4.0002014 
Loop time of 0.003066 on 1 procs for 0 steps with 2912 atoms

Minimization stats:
  Stopping criterion = force tolerance
  Energy initial, next-to-last, final = 
        -17371.1182941     -17371.1182941     -17371.1182941
  Force two-norm initial, final = 9.877e-11 9.877e-11
  Force max component initial, final = 3.19188e-12 3.19188e-12
  Final line search alpha, max atom move = 0 0
  Iterations, force evaluations = 0 0

Pair  time (%) = 0.003005 (98.0104)
Neigh time (%) = 0 (0)
Comm  time (%) = 3.49727e-05 (1.14066)
Outpt time (%) = 0 (0)
Other time (%) = 2.60273e-05 (0.848902)

Nlocal:    2912 ave 2912 max 2912 min
Histogram: 1 0 0 0 0 0 0 0 0 0
Nghost:    7129 ave 7129 max 7129 min
Histogram: 1 0 0 0 0 0 0 0 0 0
Neighs:    112224 ave 112224 max 112224 min
Histogram: 1 0 0 0 0 0 0 0 0 0

Total # of neighbors = 112224
Ave neighs/atom = 38.5385
Neighbor list builds = 0
Dangerous builds = 0
	# write_dump all atom ${dumpfile}
        next i
jump SELF loop1
        displace_atoms upper move 0.0 ${ystep1} 0.0 units lattice
        displace_atoms upper move 0.0 0.00288675134594812 0.0 units lattice
        min_style ${style}
        min_style hftn
        minimize ${etol} ${ftol} ${maxiter} ${maxeval}
        minimize 1e-12 ${ftol} ${maxiter} ${maxeval}
        minimize 1e-12 1e-08 ${maxiter} ${maxeval}
        minimize 1e-12 1e-08 10000 ${maxeval}
        minimize 1e-12 1e-08 10000 20000
WARNING: Resetting reneighboring criteria during minimization (../min.cpp:168)
Memory usage per processor = 5.2861 Mbytes
Step Temp PotEng Lx Ly Lz 
      16            0   -17369.611     6.928552    73.552589    4.0002014 
Loop time of 0.0024571 on 1 procs for 0 steps with 2912 atoms

Minimization stats:
  Stopping criterion = force tolerance
  Energy initial, next-to-last, final = 
        -17369.6105794     -17369.6105794     -17369.6105794
  Force two-norm initial, final = 9.87596e-11 9.87596e-11
  Force max component initial, final = 3.19188e-12 3.19188e-12
  Final line search alpha, max atom move = 0 0
  Iterations, force evaluations = 0 0

Pair  time (%) = 0.00239396 (97.4303)
Neigh time (%) = 0 (0)
Comm  time (%) = 3.50345e-05 (1.42585)
Outpt time (%) = 0 (0)
Other time (%) = 2.81057e-05 (1.14386)

Nlocal:    2912 ave 2912 max 2912 min
Histogram: 1 0 0 0 0 0 0 0 0 0
Nghost:    7129 ave 7129 max 7129 min
Histogram: 1 0 0 0 0 0 0 0 0 0
Neighs:    112224 ave 112224 max 112224 min
Histogram: 1 0 0 0 0 0 0 0 0 0

Total # of neighbors = 112224
Ave neighs/atom = 38.5385
Neighbor list builds = 0
Dangerous builds = 0
	# write_dump all atom ${dumpfile}
        next i
jump SELF loop1
        displace_atoms upper move 0.0 ${ystep1} 0.0 units lattice
        displace_atoms upper move 0.0 0.00288675134594812 0.0 units lattice
        min_style ${style}
        min_style hftn
        minimize ${etol} ${ftol} ${maxiter} ${maxeval}
        minimize 1e-12 ${ftol} ${maxiter} ${maxeval}
        minimize 1e-12 1e-08 ${maxiter} ${maxeval}
        minimize 1e-12 1e-08 10000 ${maxeval}
        minimize 1e-12 1e-08 10000 20000
WARNING: Resetting reneighboring criteria during minimization (../min.cpp:168)
Memory usage per processor = 5.2861 Mbytes
Step Temp PotEng Lx Ly Lz 
      16            0   -17367.972     6.928552    73.559661    4.0002014 
Loop time of 0.00274103 on 1 procs for 0 steps with 2912 atoms

Minimization stats:
  Stopping criterion = force tolerance
  Energy initial, next-to-last, final = 
        -17367.9715592     -17367.9715592     -17367.9715592
  Force two-norm initial, final = 9.87499e-11 9.87499e-11
  Force max component initial, final = 3.19188e-12 3.19188e-12
  Final line search alpha, max atom move = 0 0
  Iterations, force evaluations = 0 0

Pair  time (%) = 0.00267908 (97.74)
Neigh time (%) = 0 (0)
Comm  time (%) = 3.29466e-05 (1.20198)
Outpt time (%) = 0 (0)
Other time (%) = 2.90015e-05 (1.05805)

Nlocal:    2912 ave 2912 max 2912 min
Histogram: 1 0 0 0 0 0 0 0 0 0
Nghost:    7129 ave 7129 max 7129 min
Histogram: 1 0 0 0 0 0 0 0 0 0
Neighs:    112224 ave 112224 max 112224 min
Histogram: 1 0 0 0 0 0 0 0 0 0

Total # of neighbors = 112224
Ave neighs/atom = 38.5385
Neighbor list builds = 0
Dangerous builds = 0
	# write_dump all atom ${dumpfile}
        next i
jump SELF loop1
        displace_atoms upper move 0.0 ${ystep1} 0.0 units lattice
        displace_atoms upper move 0.0 0.00288675134594812 0.0 units lattice
        min_style ${style}
        min_style hftn
        minimize ${etol} ${ftol} ${maxiter} ${maxeval}
        minimize 1e-12 ${ftol} ${maxiter} ${maxeval}
        minimize 1e-12 1e-08 ${maxiter} ${maxeval}
        minimize 1e-12 1e-08 10000 ${maxeval}
        minimize 1e-12 1e-08 10000 20000
WARNING: Resetting reneighboring criteria during minimization (../min.cpp:168)
Memory usage per processor = 5.2861 Mbytes
Step Temp PotEng Lx Ly Lz 
      16            0   -17366.211     6.928552    73.566732    4.0002014 
Loop time of 0.00294999 on 1 procs for 0 steps with 2912 atoms

Minimization stats:
  Stopping criterion = force tolerance
  Energy initial, next-to-last, final = 
        -17366.2106416     -17366.2106416     -17366.2106416
  Force two-norm initial, final = 9.87949e-11 9.87949e-11
  Force max component initial, final = 3.19188e-12 3.19188e-12
  Final line search alpha, max atom move = 0 0
  Iterations, force evaluations = 0 0

Pair  time (%) = 0.002862 (97.0171)
Neigh time (%) = 0 (0)
Comm  time (%) = 4.89028e-05 (1.65773)
Outpt time (%) = 0 (0)
Other time (%) = 3.90916e-05 (1.32514)

Nlocal:    2912 ave 2912 max 2912 min
Histogram: 1 0 0 0 0 0 0 0 0 0
Nghost:    7129 ave 7129 max 7129 min
Histogram: 1 0 0 0 0 0 0 0 0 0
Neighs:    112224 ave 112224 max 112224 min
Histogram: 1 0 0 0 0 0 0 0 0 0

Total # of neighbors = 112224
Ave neighs/atom = 38.5385
Neighbor list builds = 0
Dangerous builds = 0
	# write_dump all atom ${dumpfile}
        next i
jump SELF loop1
        displace_atoms upper move 0.0 ${ystep1} 0.0 units lattice
        displace_atoms upper move 0.0 0.00288675134594812 0.0 units lattice
        min_style ${style}
        min_style hftn
        minimize ${etol} ${ftol} ${maxiter} ${maxeval}
        minimize 1e-12 ${ftol} ${maxiter} ${maxeval}
        minimize 1e-12 1e-08 ${maxiter} ${maxeval}
        minimize 1e-12 1e-08 10000 ${maxeval}
        minimize 1e-12 1e-08 10000 20000
WARNING: Resetting reneighboring criteria during minimization (../min.cpp:168)
Memory usage per processor = 5.2861 Mbytes
Step Temp PotEng Lx Ly Lz 
      16            0   -17364.263     6.928552    73.573804    4.0002014 
Loop time of 0.00279709 on 1 procs for 0 steps with 2912 atoms

Minimization stats:
  Stopping criterion = force tolerance
  Energy initial, next-to-last, final = 
        -17364.2634821     -17364.2634821     -17364.2634821
  Force two-norm initial, final = 9.87888e-11 9.87888e-11
  Force max component initial, final = 3.19188e-12 3.19188e-12
  Final line search alpha, max atom move = 0 0
  Iterations, force evaluations = 0 0

Pair  time (%) = 0.00268805 (96.1016)
Neigh time (%) = 0 (0)
Comm  time (%) = 6.00567e-05 (2.14711)
Outpt time (%) = 0 (0)
Other time (%) = 4.89841e-05 (1.75125)

Nlocal:    2912 ave 2912 max 2912 min
Histogram: 1 0 0 0 0 0 0 0 0 0
Nghost:    7129 ave 7129 max 7129 min
Histogram: 1 0 0 0 0 0 0 0 0 0
Neighs:    112224 ave 112224 max 112224 min
Histogram: 1 0 0 0 0 0 0 0 0 0

Total # of neighbors = 112224
Ave neighs/atom = 38.5385
Neighbor list builds = 0
Dangerous builds = 0
	# write_dump all atom ${dumpfile}
        next i
jump SELF loop1
        displace_atoms upper move 0.0 ${ystep1} 0.0 units lattice
        displace_atoms upper move 0.0 0.00288675134594812 0.0 units lattice
        min_style ${style}
        min_style hftn
        minimize ${etol} ${ftol} ${maxiter} ${maxeval}
        minimize 1e-12 ${ftol} ${maxiter} ${maxeval}
        minimize 1e-12 1e-08 ${maxiter} ${maxeval}
        minimize 1e-12 1e-08 10000 ${maxeval}
        minimize 1e-12 1e-08 10000 20000
WARNING: Resetting reneighboring criteria during minimization (../min.cpp:168)
Memory usage per processor = 5.2861 Mbytes
Step Temp PotEng Lx Ly Lz 
      16            0   -17362.128     6.928552    73.580875    4.0002014 
Loop time of 0.00185688 on 1 procs for 0 steps with 2912 atoms

Minimization stats:
  Stopping criterion = force tolerance
  Energy initial, next-to-last, final = 
        -17362.1276597     -17362.1276597     -17362.1276597
  Force two-norm initial, final = 9.87826e-11 9.87826e-11
  Force max component initial, final = 3.19188e-12 3.19188e-12
  Final line search alpha, max atom move = 0 0
  Iterations, force evaluations = 0 0

Pair  time (%) = 0.00179594 (96.7177)
Neigh time (%) = 0 (0)
Comm  time (%) = 3.29897e-05 (1.77661)
Outpt time (%) = 0 (0)
Other time (%) = 2.79585e-05 (1.50567)

Nlocal:    2912 ave 2912 max 2912 min
Histogram: 1 0 0 0 0 0 0 0 0 0
Nghost:    7129 ave 7129 max 7129 min
Histogram: 1 0 0 0 0 0 0 0 0 0
Neighs:    112224 ave 112224 max 112224 min
Histogram: 1 0 0 0 0 0 0 0 0 0

Total # of neighbors = 112224
Ave neighs/atom = 38.5385
Neighbor list builds = 0
Dangerous builds = 0
	# write_dump all atom ${dumpfile}
        next i
jump SELF loop1
        displace_atoms upper move 0.0 ${ystep1} 0.0 units lattice
        displace_atoms upper move 0.0 0.00288675134594812 0.0 units lattice
        min_style ${style}
        min_style hftn
        minimize ${etol} ${ftol} ${maxiter} ${maxeval}
        minimize 1e-12 ${ftol} ${maxiter} ${maxeval}
        minimize 1e-12 1e-08 ${maxiter} ${maxeval}
        minimize 1e-12 1e-08 10000 ${maxeval}
        minimize 1e-12 1e-08 10000 20000
WARNING: Resetting reneighboring criteria during minimization (../min.cpp:168)
Memory usage per processor = 5.2861 Mbytes
Step Temp PotEng Lx Ly Lz 
      16            0   -17359.816     6.928552    73.587946    4.0002014 
Loop time of 0.00280808 on 1 procs for 0 steps with 2912 atoms

Minimization stats:
  Stopping criterion = force tolerance
  Energy initial, next-to-last, final = 
        -17359.8159422     -17359.8159422     -17359.8159422
  Force two-norm initial, final = 9.87761e-11 9.87761e-11
  Force max component initial, final = 3.19188e-12 3.19188e-12
  Final line search alpha, max atom move = 0 0
  Iterations, force evaluations = 0 0

Pair  time (%) = 0.00269489 (95.9693)
Neigh time (%) = 0 (0)
Comm  time (%) = 6.10659e-05 (2.17465)
Outpt time (%) = 0 (0)
Other time (%) = 5.21207e-05 (1.8561)

Nlocal:    2912 ave 2912 max 2912 min
Histogram: 1 0 0 0 0 0 0 0 0 0
Nghost:    7129 ave 7129 max 7129 min
Histogram: 1 0 0 0 0 0 0 0 0 0
Neighs:    112224 ave 112224 max 112224 min
Histogram: 1 0 0 0 0 0 0 0 0 0

Total # of neighbors = 112224
Ave neighs/atom = 38.5385
Neighbor list builds = 0
Dangerous builds = 0
	# write_dump all atom ${dumpfile}
        next i
jump SELF loop1
        displace_atoms upper move 0.0 ${ystep1} 0.0 units lattice
        displace_atoms upper move 0.0 0.00288675134594812 0.0 units lattice
        min_style ${style}
        min_style hftn
        minimize ${etol} ${ftol} ${maxiter} ${maxeval}
        minimize 1e-12 ${ftol} ${maxiter} ${maxeval}
        minimize 1e-12 1e-08 ${maxiter} ${maxeval}
        minimize 1e-12 1e-08 10000 ${maxeval}
        minimize 1e-12 1e-08 10000 20000
WARNING: Resetting reneighboring criteria during minimization (../min.cpp:168)
Memory usage per processor = 5.2861 Mbytes
Step Temp PotEng Lx Ly Lz 
      16            0   -17357.342     6.928552    73.595018    4.0002014 
Loop time of 0.00279701 on 1 procs for 0 steps with 2912 atoms

Minimization stats:
  Stopping criterion = force tolerance
  Energy initial, next-to-last, final = 
        -17357.3421826     -17357.3421826     -17357.3421826
  Force two-norm initial, final = 9.87707e-11 9.87707e-11
  Force max component initial, final = 3.19188e-12 3.19188e-12
  Final line search alpha, max atom move = 0 0
  Iterations, force evaluations = 0 0

Pair  time (%) = 0.00270291 (96.6357)
Neigh time (%) = 0 (0)
Comm  time (%) = 4.69545e-05 (1.67874)
Outpt time (%) = 0 (0)
Other time (%) = 4.71462e-05 (1.68559)

Nlocal:    2912 ave 2912 max 2912 min
Histogram: 1 0 0 0 0 0 0 0 0 0
Nghost:    7129 ave 7129 max 7129 min
Histogram: 1 0 0 0 0 0 0 0 0 0
Neighs:    111840 ave 111840 max 111840 min
Histogram: 1 0 0 0 0 0 0 0 0 0

Total # of neighbors = 111840
Ave neighs/atom = 38.4066
Neighbor list builds = 0
Dangerous builds = 0
	# write_dump all atom ${dumpfile}
        next i
jump SELF loop1
        displace_atoms upper move 0.0 ${ystep1} 0.0 units lattice
        displace_atoms upper move 0.0 0.00288675134594812 0.0 units lattice
        min_style ${style}
        min_style hftn
        minimize ${etol} ${ftol} ${maxiter} ${maxeval}
        minimize 1e-12 ${ftol} ${maxiter} ${maxeval}
        minimize 1e-12 1e-08 ${maxiter} ${maxeval}
        minimize 1e-12 1e-08 10000 ${maxeval}
        minimize 1e-12 1e-08 10000 20000
WARNING: Resetting reneighboring criteria during minimization (../min.cpp:168)
Memory usage per processor = 5.28733 Mbytes
Step Temp PotEng Lx Ly Lz 
      16            0    -17354.72     6.928552    73.602089    4.0002014 
Loop time of 0.00219112 on 1 procs for 0 steps with 2912 atoms

Minimization stats:
  Stopping criterion = force tolerance
  Energy initial, next-to-last, final = 
        -17354.7196132     -17354.7196132     -17354.7196132
  Force two-norm initial, final = 9.87645e-11 9.87645e-11
  Force max component initial, final = 3.19188e-12 3.19188e-12
  Final line search alpha, max atom move = 0 0
  Iterations, force evaluations = 0 0

Pair  time (%) = 0.00212893 (97.1619)
Neigh time (%) = 0 (0)
Comm  time (%) = 3.31484e-05 (1.51286)
Outpt time (%) = 0 (0)
Other time (%) = 2.90381e-05 (1.32526)

Nlocal:    2912 ave 2912 max 2912 min
Histogram: 1 0 0 0 0 0 0 0 0 0
Nghost:    7129 ave 7129 max 7129 min
Histogram: 1 0 0 0 0 0 0 0 0 0
Neighs:    111840 ave 111840 max 111840 min
Histogram: 1 0 0 0 0 0 0 0 0 0

Total # of neighbors = 111840
Ave neighs/atom = 38.4066
Neighbor list builds = 0
Dangerous builds = 0
	# write_dump all atom ${dumpfile}
        next i
jump SELF loop1
        displace_atoms upper move 0.0 ${ystep1} 0.0 units lattice
        displace_atoms upper move 0.0 0.00288675134594812 0.0 units lattice
        min_style ${style}
        min_style hftn
        minimize ${etol} ${ftol} ${maxiter} ${maxeval}
        minimize 1e-12 ${ftol} ${maxiter} ${maxeval}
        minimize 1e-12 1e-08 ${maxiter} ${maxeval}
        minimize 1e-12 1e-08 10000 ${maxeval}
        minimize 1e-12 1e-08 10000 20000
WARNING: Resetting reneighboring criteria during minimization (../min.cpp:168)
Memory usage per processor = 5.28733 Mbytes
Step Temp PotEng Lx Ly Lz 
      16            0   -17351.963     6.928552    73.609161    4.0002014 
Loop time of 0.00279493 on 1 procs for 0 steps with 2912 atoms

Minimization stats:
  Stopping criterion = force tolerance
  Energy initial, next-to-last, final = 
        -17351.9625444     -17351.9625444     -17351.9625444
  Force two-norm initial, final = 9.87579e-11 9.87579e-11
  Force max component initial, final = 3.19188e-12 3.19188e-12
  Final line search alpha, max atom move = 0 0
  Iterations, force evaluations = 0 0

Pair  time (%) = 0.00273294 (97.7819)
Neigh time (%) = 0 (0)
Comm  time (%) = 3.40119e-05 (1.21691)
Outpt time (%) = 0 (0)
Other time (%) = 2.79825e-05 (1.00119)

Nlocal:    2912 ave 2912 max 2912 min
Histogram: 1 0 0 0 0 0 0 0 0 0
Nghost:    7129 ave 7129 max 7129 min
Histogram: 1 0 0 0 0 0 0 0 0 0
Neighs:    111840 ave 111840 max 111840 min
Histogram: 1 0 0 0 0 0 0 0 0 0

Total # of neighbors = 111840
Ave neighs/atom = 38.4066
Neighbor list builds = 0
Dangerous builds = 0
	# write_dump all atom ${dumpfile}
        next i
jump SELF loop1
        displace_atoms upper move 0.0 ${ystep1} 0.0 units lattice
        displace_atoms upper move 0.0 0.00288675134594812 0.0 units lattice
        min_style ${style}
        min_style hftn
        minimize ${etol} ${ftol} ${maxiter} ${maxeval}
        minimize 1e-12 ${ftol} ${maxiter} ${maxeval}
        minimize 1e-12 1e-08 ${maxiter} ${maxeval}
        minimize 1e-12 1e-08 10000 ${maxeval}
        minimize 1e-12 1e-08 10000 20000
WARNING: Resetting reneighboring criteria during minimization (../min.cpp:168)
Memory usage per processor = 5.28733 Mbytes
Step Temp PotEng Lx Ly Lz 
      16            0   -17349.085     6.928552    73.616232    4.0002014 
Loop time of 0.00286599 on 1 procs for 0 steps with 2912 atoms

Minimization stats:
  Stopping criterion = force tolerance
  Energy initial, next-to-last, final = 
        -17349.0850022     -17349.0850022     -17349.0850022
  Force two-norm initial, final = 9.87517e-11 9.87517e-11
  Force max component initial, final = 3.19188e-12 3.19188e-12
  Final line search alpha, max atom move = 0 0
  Iterations, force evaluations = 0 0

Pair  time (%) = 0.002764 (96.4412)
Neigh time (%) = 0 (0)
Comm  time (%) = 5.58977e-05 (1.95038)
Outpt time (%) = 0 (0)
Other time (%) = 4.60966e-05 (1.6084)

Nlocal:    2912 ave 2912 max 2912 min
Histogram: 1 0 0 0 0 0 0 0 0 0
Nghost:    7129 ave 7129 max 7129 min
Histogram: 1 0 0 0 0 0 0 0 0 0
Neighs:    111840 ave 111840 max 111840 min
Histogram: 1 0 0 0 0 0 0 0 0 0

Total # of neighbors = 111840
Ave neighs/atom = 38.4066
Neighbor list builds = 0
Dangerous builds = 0
	# write_dump all atom ${dumpfile}
        next i
jump SELF loop1
        displace_atoms upper move 0.0 ${ystep1} 0.0 units lattice
        displace_atoms upper move 0.0 0.00288675134594812 0.0 units lattice
        min_style ${style}
        min_style hftn
        minimize ${etol} ${ftol} ${maxiter} ${maxeval}
        minimize 1e-12 ${ftol} ${maxiter} ${maxeval}
        minimize 1e-12 1e-08 ${maxiter} ${maxeval}
        minimize 1e-12 1e-08 10000 ${maxeval}
        minimize 1e-12 1e-08 10000 20000
WARNING: Resetting reneighboring criteria during minimization (../min.cpp:168)
Memory usage per processor = 5.28733 Mbytes
Step Temp PotEng Lx Ly Lz 
      16            0   -17346.101     6.928552    73.623304    4.0002014 
Loop time of 0.00336306 on 1 procs for 0 steps with 2912 atoms

Minimization stats:
  Stopping criterion = force tolerance
  Energy initial, next-to-last, final = 
        -17346.1012734     -17346.1012734     -17346.1012734
  Force two-norm initial, final = 9.87454e-11 9.87454e-11
  Force max component initial, final = 3.19188e-12 3.19188e-12
  Final line search alpha, max atom move = 0 0
  Iterations, force evaluations = 0 0

Pair  time (%) = 0.00326406 (97.0564)
Neigh time (%) = 0 (0)
Comm  time (%) = 5.3063e-05 (1.57782)
Outpt time (%) = 0 (0)
Other time (%) = 4.59314e-05 (1.36576)

Nlocal:    2912 ave 2912 max 2912 min
Histogram: 1 0 0 0 0 0 0 0 0 0
Nghost:    7129 ave 7129 max 7129 min
Histogram: 1 0 0 0 0 0 0 0 0 0
Neighs:    111840 ave 111840 max 111840 min
Histogram: 1 0 0 0 0 0 0 0 0 0

Total # of neighbors = 111840
Ave neighs/atom = 38.4066
Neighbor list builds = 0
Dangerous builds = 0
	# write_dump all atom ${dumpfile}
        next i
jump SELF loop1
        displace_atoms upper move 0.0 ${ystep1} 0.0 units lattice
        displace_atoms upper move 0.0 0.00288675134594812 0.0 units lattice
        min_style ${style}
        min_style hftn
        minimize ${etol} ${ftol} ${maxiter} ${maxeval}
        minimize 1e-12 ${ftol} ${maxiter} ${maxeval}
        minimize 1e-12 1e-08 ${maxiter} ${maxeval}
        minimize 1e-12 1e-08 10000 ${maxeval}
        minimize 1e-12 1e-08 10000 20000
WARNING: Resetting reneighboring criteria during minimization (../min.cpp:168)
Memory usage per processor = 5.28733 Mbytes
Step Temp PotEng Lx Ly Lz 
      16            0   -17343.026     6.928552    73.630375    4.0002014 
Loop time of 0.00203601 on 1 procs for 0 steps with 2912 atoms

Minimization stats:
  Stopping criterion = force tolerance
  Energy initial, next-to-last, final = 
        -17343.0258735     -17343.0258735     -17343.0258735
  Force two-norm initial, final = 9.874e-11 9.874e-11
  Force max component initial, final = 3.19188e-12 3.19188e-12
  Final line search alpha, max atom move = 0 0
  Iterations, force evaluations = 0 0

Pair  time (%) = 0.00197506 (97.0065)
Neigh time (%) = 0 (0)
Comm  time (%) = 3.29443e-05 (1.61808)
Outpt time (%) = 0 (0)
Other time (%) = 2.80038e-05 (1.37543)

Nlocal:    2912 ave 2912 max 2912 min
Histogram: 1 0 0 0 0 0 0 0 0 0
Nghost:    7129 ave 7129 max 7129 min
Histogram: 1 0 0 0 0 0 0 0 0 0
Neighs:    111840 ave 111840 max 111840 min
Histogram: 1 0 0 0 0 0 0 0 0 0

Total # of neighbors = 111840
Ave neighs/atom = 38.4066
Neighbor list builds = 0
Dangerous builds = 0
	# write_dump all atom ${dumpfile}
        next i
jump SELF loop1
        displace_atoms upper move 0.0 ${ystep1} 0.0 units lattice
        displace_atoms upper move 0.0 0.00288675134594812 0.0 units lattice
        min_style ${style}
        min_style hftn
        minimize ${etol} ${ftol} ${maxiter} ${maxeval}
        minimize 1e-12 ${ftol} ${maxiter} ${maxeval}
        minimize 1e-12 1e-08 ${maxiter} ${maxeval}
        minimize 1e-12 1e-08 10000 ${maxeval}
        minimize 1e-12 1e-08 10000 20000
WARNING: Resetting reneighboring criteria during minimization (../min.cpp:168)
Memory usage per processor = 5.28733 Mbytes
Step Temp PotEng Lx Ly Lz 
      16            0   -17339.874     6.928552    73.637446    4.0002014 
Loop time of 0.002488 on 1 procs for 0 steps with 2912 atoms

Minimization stats:
  Stopping criterion = force tolerance
  Energy initial, next-to-last, final = 
        -17339.8735464     -17339.8735464     -17339.8735464
  Force two-norm initial, final = 9.87337e-11 9.87337e-11
  Force max component initial, final = 3.19188e-12 3.19188e-12
  Final line search alpha, max atom move = 0 0
  Iterations, force evaluations = 0 0

Pair  time (%) = 0.00241894 (97.2245)
Neigh time (%) = 0 (0)
Comm  time (%) = 3.29714e-05 (1.32522)
Outpt time (%) = 0 (0)
Other time (%) = 3.60829e-05 (1.45028)

Nlocal:    2912 ave 2912 max 2912 min
Histogram: 1 0 0 0 0 0 0 0 0 0
Nghost:    7129 ave 7129 max 7129 min
Histogram: 1 0 0 0 0 0 0 0 0 0
Neighs:    111840 ave 111840 max 111840 min
Histogram: 1 0 0 0 0 0 0 0 0 0

Total # of neighbors = 111840
Ave neighs/atom = 38.4066
Neighbor list builds = 0
Dangerous builds = 0
	# write_dump all atom ${dumpfile}
        next i
jump SELF loop1
        displace_atoms upper move 0.0 ${ystep1} 0.0 units lattice
        displace_atoms upper move 0.0 0.00288675134594812 0.0 units lattice
        min_style ${style}
        min_style hftn
        minimize ${etol} ${ftol} ${maxiter} ${maxeval}
        minimize 1e-12 ${ftol} ${maxiter} ${maxeval}
        minimize 1e-12 1e-08 ${maxiter} ${maxeval}
        minimize 1e-12 1e-08 10000 ${maxeval}
        minimize 1e-12 1e-08 10000 20000
WARNING: Resetting reneighboring criteria during minimization (../min.cpp:168)
Memory usage per processor = 5.28733 Mbytes
Step Temp PotEng Lx Ly Lz 
      16            0   -17336.659     6.928552    73.644518    4.0002014 
Loop time of 0.00557191 on 1 procs for 0 steps with 2912 atoms

Minimization stats:
  Stopping criterion = force tolerance
  Energy initial, next-to-last, final = 
        -17336.6592301     -17336.6592301     -17336.6592301
  Force two-norm initial, final = 9.8728e-11 9.8728e-11
  Force max component initial, final = 3.19188e-12 3.19188e-12
  Final line search alpha, max atom move = 0 0
  Iterations, force evaluations = 0 0

Pair  time (%) = 0.00551311 (98.9447)
Neigh time (%) = 0 (0)
Comm  time (%) = 3.29203e-05 (0.590825)
Outpt time (%) = 0 (0)
Other time (%) = 2.58822e-05 (0.464511)

Nlocal:    2912 ave 2912 max 2912 min
Histogram: 1 0 0 0 0 0 0 0 0 0
Nghost:    7129 ave 7129 max 7129 min
Histogram: 1 0 0 0 0 0 0 0 0 0
Neighs:    111840 ave 111840 max 111840 min
Histogram: 1 0 0 0 0 0 0 0 0 0

Total # of neighbors = 111840
Ave neighs/atom = 38.4066
Neighbor list builds = 0
Dangerous builds = 0
	# write_dump all atom ${dumpfile}
        next i
jump SELF loop1
        displace_atoms upper move 0.0 ${ystep1} 0.0 units lattice
        displace_atoms upper move 0.0 0.00288675134594812 0.0 units lattice
        min_style ${style}
        min_style hftn
        minimize ${etol} ${ftol} ${maxiter} ${maxeval}
        minimize 1e-12 ${ftol} ${maxiter} ${maxeval}
        minimize 1e-12 1e-08 ${maxiter} ${maxeval}
        minimize 1e-12 1e-08 10000 ${maxeval}
        minimize 1e-12 1e-08 10000 20000
WARNING: Resetting reneighboring criteria during minimization (../min.cpp:168)
Memory usage per processor = 5.28733 Mbytes
Step Temp PotEng Lx Ly Lz 
      16            0   -17333.398     6.928552    73.651589    4.0002014 
Loop time of 0.00217409 on 1 procs for 0 steps with 2912 atoms

Minimization stats:
  Stopping criterion = force tolerance
  Energy initial, next-to-last, final = 
         -17333.398035      -17333.398035      -17333.398035
  Force two-norm initial, final = 9.87216e-11 9.87216e-11
  Force max component initial, final = 3.19188e-12 3.19188e-12
  Final line search alpha, max atom move = 0 0
  Iterations, force evaluations = 0 0

Pair  time (%) = 0.00208997 (96.1304)
Neigh time (%) = 0 (0)
Comm  time (%) = 3.70539e-05 (1.70434)
Outpt time (%) = 0 (0)
Other time (%) = 4.70738e-05 (2.16522)

Nlocal:    2912 ave 2912 max 2912 min
Histogram: 1 0 0 0 0 0 0 0 0 0
Nghost:    7129 ave 7129 max 7129 min
Histogram: 1 0 0 0 0 0 0 0 0 0
Neighs:    111840 ave 111840 max 111840 min
Histogram: 1 0 0 0 0 0 0 0 0 0

Total # of neighbors = 111840
Ave neighs/atom = 38.4066
Neighbor list builds = 0
Dangerous builds = 0
	# write_dump all atom ${dumpfile}
        next i
jump SELF loop1
        displace_atoms upper move 0.0 ${ystep1} 0.0 units lattice
        displace_atoms upper move 0.0 0.00288675134594812 0.0 units lattice
        min_style ${style}
        min_style hftn
        minimize ${etol} ${ftol} ${maxiter} ${maxeval}
        minimize 1e-12 ${ftol} ${maxiter} ${maxeval}
        minimize 1e-12 1e-08 ${maxiter} ${maxeval}
        minimize 1e-12 1e-08 10000 ${maxeval}
        minimize 1e-12 1e-08 10000 20000
WARNING: Resetting reneighboring criteria during minimization (../min.cpp:168)
Memory usage per processor = 5.28733 Mbytes
Step Temp PotEng Lx Ly Lz 
      16            0   -17330.105     6.928552    73.658661    4.0002014 
Loop time of 0.00587212 on 1 procs for 0 steps with 2912 atoms

Minimization stats:
  Stopping criterion = force tolerance
  Energy initial, next-to-last, final = 
        -17330.1052508     -17330.1052508     -17330.1052508
  Force two-norm initial, final = 9.87158e-11 9.87158e-11
  Force max component initial, final = 3.19188e-12 3.19188e-12
  Final line search alpha, max atom move = 0 0
  Iterations, force evaluations = 0 0

Pair  time (%) = 0.00584088 (99.4681)
Neigh time (%) = 0 (0)
Comm  time (%) = 1.51132e-05 (0.257372)
Outpt time (%) = 0 (0)
Other time (%) = 1.61197e-05 (0.274512)

Nlocal:    2912 ave 2912 max 2912 min
Histogram: 1 0 0 0 0 0 0 0 0 0
Nghost:    7129 ave 7129 max 7129 min
Histogram: 1 0 0 0 0 0 0 0 0 0
Neighs:    111840 ave 111840 max 111840 min
Histogram: 1 0 0 0 0 0 0 0 0 0

Total # of neighbors = 111840
Ave neighs/atom = 38.4066
Neighbor list builds = 0
Dangerous builds = 0
	# write_dump all atom ${dumpfile}
        next i
jump SELF loop1
        displace_atoms upper move 0.0 ${ystep1} 0.0 units lattice
        displace_atoms upper move 0.0 0.00288675134594812 0.0 units lattice
        min_style ${style}
        min_style hftn
        minimize ${etol} ${ftol} ${maxiter} ${maxeval}
        minimize 1e-12 ${ftol} ${maxiter} ${maxeval}
        minimize 1e-12 1e-08 ${maxiter} ${maxeval}
        minimize 1e-12 1e-08 10000 ${maxeval}
        minimize 1e-12 1e-08 10000 20000
WARNING: Resetting reneighboring criteria during minimization (../min.cpp:168)
Memory usage per processor = 5.28733 Mbytes
Step Temp PotEng Lx Ly Lz 
      16            0   -17326.796     6.928552    73.665732    4.0002014 
Loop time of 0.00234799 on 1 procs for 0 steps with 2912 atoms

Minimization stats:
  Stopping criterion = force tolerance
  Energy initial, next-to-last, final = 
        -17326.7963253     -17326.7963253     -17326.7963253
  Force two-norm initial, final = 9.8709e-11 9.8709e-11
  Force max component initial, final = 3.19188e-12 3.19188e-12
  Final line search alpha, max atom move = 0 0
  Iterations, force evaluations = 0 0

Pair  time (%) = 0.0022849 (97.3129)
Neigh time (%) = 0 (0)
Comm  time (%) = 3.29155e-05 (1.40186)
Outpt time (%) = 0 (0)
Other time (%) = 3.01783e-05 (1.28528)

Nlocal:    2912 ave 2912 max 2912 min
Histogram: 1 0 0 0 0 0 0 0 0 0
Nghost:    7129 ave 7129 max 7129 min
Histogram: 1 0 0 0 0 0 0 0 0 0
Neighs:    111648 ave 111648 max 111648 min
Histogram: 1 0 0 0 0 0 0 0 0 0

Total # of neighbors = 111648
Ave neighs/atom = 38.3407
Neighbor list builds = 0
Dangerous builds = 0
	# write_dump all atom ${dumpfile}
        next i
jump SELF loop1
        displace_atoms upper move 0.0 ${ystep1} 0.0 units lattice
        displace_atoms upper move 0.0 0.00288675134594812 0.0 units lattice
        min_style ${style}
        min_style hftn
        minimize ${etol} ${ftol} ${maxiter} ${maxeval}
        minimize 1e-12 ${ftol} ${maxiter} ${maxeval}
        minimize 1e-12 1e-08 ${maxiter} ${maxeval}
        minimize 1e-12 1e-08 10000 ${maxeval}
        minimize 1e-12 1e-08 10000 20000
WARNING: Resetting reneighboring criteria during minimization (../min.cpp:168)
Memory usage per processor = 5.28733 Mbytes
Step Temp PotEng Lx Ly Lz 
      16            0   -17323.487     6.928552    73.672804    4.0002014 
Loop time of 0.00233991 on 1 procs for 0 steps with 2912 atoms

Minimization stats:
  Stopping criterion = force tolerance
  Energy initial, next-to-last, final = 
        -17323.4869595     -17323.4869595     -17323.4869595
  Force two-norm initial, final = 9.8704e-11 9.8704e-11
  Force max component initial, final = 3.19188e-12 3.19188e-12
  Final line search alpha, max atom move = 0 0
  Iterations, force evaluations = 0 0

Pair  time (%) = 0.00226489 (96.7941)
Neigh time (%) = 0 (0)
Comm  time (%) = 3.58473e-05 (1.532)
Outpt time (%) = 0 (0)
Other time (%) = 3.91675e-05 (1.67389)

Nlocal:    2912 ave 2912 max 2912 min
Histogram: 1 0 0 0 0 0 0 0 0 0
Nghost:    7129 ave 7129 max 7129 min
Histogram: 1 0 0 0 0 0 0 0 0 0
Neighs:    111648 ave 111648 max 111648 min
Histogram: 1 0 0 0 0 0 0 0 0 0

Total # of neighbors = 111648
Ave neighs/atom = 38.3407
Neighbor list builds = 0
Dangerous builds = 0
	# write_dump all atom ${dumpfile}
        next i
jump SELF loop1
        displace_atoms upper move 0.0 ${ystep1} 0.0 units lattice
        displace_atoms upper move 0.0 0.00288675134594812 0.0 units lattice
        min_style ${style}
        min_style hftn
        minimize ${etol} ${ftol} ${maxiter} ${maxeval}
        minimize 1e-12 ${ftol} ${maxiter} ${maxeval}
        minimize 1e-12 1e-08 ${maxiter} ${maxeval}
        minimize 1e-12 1e-08 10000 ${maxeval}
        minimize 1e-12 1e-08 10000 20000
WARNING: Resetting reneighboring criteria during minimization (../min.cpp:168)
Memory usage per processor = 5.28733 Mbytes
Step Temp PotEng Lx Ly Lz 
      16            0   -17320.193     6.928552    73.679875    4.0002014 
Loop time of 0.00248405 on 1 procs for 0 steps with 2912 atoms

Minimization stats:
  Stopping criterion = force tolerance
  Energy initial, next-to-last, final = 
        -17320.1928573     -17320.1928573     -17320.1928573
  Force two-norm initial, final = 9.86985e-11 9.86985e-11
  Force max component initial, final = 3.19188e-12 3.19188e-12
  Final line search alpha, max atom move = 0 0
  Iterations, force evaluations = 0 0

Pair  time (%) = 0.002415 (97.2201)
Neigh time (%) = 0 (0)
Comm  time (%) = 4.10448e-05 (1.65233)
Outpt time (%) = 0 (0)
Other time (%) = 2.80095e-05 (1.12757)

Nlocal:    2912 ave 2912 max 2912 min
Histogram: 1 0 0 0 0 0 0 0 0 0
Nghost:    7129 ave 7129 max 7129 min
Histogram: 1 0 0 0 0 0 0 0 0 0
Neighs:    111648 ave 111648 max 111648 min
Histogram: 1 0 0 0 0 0 0 0 0 0

Total # of neighbors = 111648
Ave neighs/atom = 38.3407
Neighbor list builds = 0
Dangerous builds = 0
	# write_dump all atom ${dumpfile}
        next i
jump SELF loop1
        displace_atoms upper move 0.0 ${ystep1} 0.0 units lattice
        displace_atoms upper move 0.0 0.00288675134594812 0.0 units lattice
        min_style ${style}
        min_style hftn
        minimize ${etol} ${ftol} ${maxiter} ${maxeval}
        minimize 1e-12 ${ftol} ${maxiter} ${maxeval}
        minimize 1e-12 1e-08 ${maxiter} ${maxeval}
        minimize 1e-12 1e-08 10000 ${maxeval}
        minimize 1e-12 1e-08 10000 20000
WARNING: Resetting reneighboring criteria during minimization (../min.cpp:168)
Memory usage per processor = 5.28733 Mbytes
Step Temp PotEng Lx Ly Lz 
      16            0    -17316.93     6.928552    73.686946    4.0002014 
Loop time of 0.00248203 on 1 procs for 0 steps with 2912 atoms

Minimization stats:
  Stopping criterion = force tolerance
  Energy initial, next-to-last, final = 
        -17316.9302006     -17316.9302006     -17316.9302006
  Force two-norm initial, final = 9.86918e-11 9.86918e-11
  Force max component initial, final = 3.19188e-12 3.19188e-12
  Final line search alpha, max atom move = 0 0
  Iterations, force evaluations = 0 0

Pair  time (%) = 0.00242089 (97.5367)
Neigh time (%) = 0 (0)
Comm  time (%) = 3.20019e-05 (1.28934)
Outpt time (%) = 0 (0)
Other time (%) = 2.91383e-05 (1.17397)

Nlocal:    2912 ave 2912 max 2912 min
Histogram: 1 0 0 0 0 0 0 0 0 0
Nghost:    7129 ave 7129 max 7129 min
Histogram: 1 0 0 0 0 0 0 0 0 0
Neighs:    111648 ave 111648 max 111648 min
Histogram: 1 0 0 0 0 0 0 0 0 0

Total # of neighbors = 111648
Ave neighs/atom = 38.3407
Neighbor list builds = 0
Dangerous builds = 0
	# write_dump all atom ${dumpfile}
        next i
jump SELF loop1
        displace_atoms upper move 0.0 ${ystep1} 0.0 units lattice
        displace_atoms upper move 0.0 0.00288675134594812 0.0 units lattice
        min_style ${style}
        min_style hftn
        minimize ${etol} ${ftol} ${maxiter} ${maxeval}
        minimize 1e-12 ${ftol} ${maxiter} ${maxeval}
        minimize 1e-12 1e-08 ${maxiter} ${maxeval}
        minimize 1e-12 1e-08 10000 ${maxeval}
        minimize 1e-12 1e-08 10000 20000
WARNING: Resetting reneighboring criteria during minimization (../min.cpp:168)
Memory usage per processor = 5.28733 Mbytes
Step Temp PotEng Lx Ly Lz 
      16            0   -17313.715     6.928552    73.694018    4.0002014 
Loop time of 0.00188602 on 1 procs for 0 steps with 2912 atoms

Minimization stats:
  Stopping criterion = force tolerance
  Energy initial, next-to-last, final = 
        -17313.7149358     -17313.7149358     -17313.7149358
  Force two-norm initial, final = 9.86857e-11 9.86857e-11
  Force max component initial, final = 3.19188e-12 3.19188e-12
  Final line search alpha, max atom move = 0 0
  Iterations, force evaluations = 0 0

Pair  time (%) = 0.00182288 (96.6522)
Neigh time (%) = 0 (0)
Comm  time (%) = 3.39417e-05 (1.79965)
Outpt time (%) = 0 (0)
Other time (%) = 2.91985e-05 (1.54815)

Nlocal:    2912 ave 2912 max 2912 min
Histogram: 1 0 0 0 0 0 0 0 0 0
Nghost:    7129 ave 7129 max 7129 min
Histogram: 1 0 0 0 0 0 0 0 0 0
Neighs:    111648 ave 111648 max 111648 min
Histogram: 1 0 0 0 0 0 0 0 0 0

Total # of neighbors = 111648
Ave neighs/atom = 38.3407
Neighbor list builds = 0
Dangerous builds = 0
	# write_dump all atom ${dumpfile}
        next i
jump SELF loop1
        displace_atoms upper move 0.0 ${ystep1} 0.0 units lattice
        displace_atoms upper move 0.0 0.00288675134594812 0.0 units lattice
        min_style ${style}
        min_style hftn
        minimize ${etol} ${ftol} ${maxiter} ${maxeval}
        minimize 1e-12 ${ftol} ${maxiter} ${maxeval}
        minimize 1e-12 1e-08 ${maxiter} ${maxeval}
        minimize 1e-12 1e-08 10000 ${maxeval}
        minimize 1e-12 1e-08 10000 20000
WARNING: Resetting reneighboring criteria during minimization (../min.cpp:168)
Memory usage per processor = 5.28733 Mbytes
Step Temp PotEng Lx Ly Lz 
      16            0   -17310.563     6.928552    73.701089    4.0002014 
Loop time of 0.00219405 on 1 procs for 0 steps with 2912 atoms

Minimization stats:
  Stopping criterion = force tolerance
  Energy initial, next-to-last, final = 
         -17310.563439      -17310.563439      -17310.563439
  Force two-norm initial, final = 9.868e-11 9.868e-11
  Force max component initial, final = 3.19188e-12 3.19188e-12
  Final line search alpha, max atom move = 0 0
  Iterations, force evaluations = 0 0

Pair  time (%) = 0.00213096 (97.1243)
Neigh time (%) = 0 (0)
Comm  time (%) = 3.40099e-05 (1.5501)
Outpt time (%) = 0 (0)
Other time (%) = 2.90839e-05 (1.32558)

Nlocal:    2912 ave 2912 max 2912 min
Histogram: 1 0 0 0 0 0 0 0 0 0
Nghost:    7129 ave 7129 max 7129 min
Histogram: 1 0 0 0 0 0 0 0 0 0
Neighs:    111648 ave 111648 max 111648 min
Histogram: 1 0 0 0 0 0 0 0 0 0

Total # of neighbors = 111648
Ave neighs/atom = 38.3407
Neighbor list builds = 0
Dangerous builds = 0
	# write_dump all atom ${dumpfile}
        next i
jump SELF loop1
        displace_atoms upper move 0.0 ${ystep1} 0.0 units lattice
        displace_atoms upper move 0.0 0.00288675134594812 0.0 units lattice
        min_style ${style}
        min_style hftn
        minimize ${etol} ${ftol} ${maxiter} ${maxeval}
        minimize 1e-12 ${ftol} ${maxiter} ${maxeval}
        minimize 1e-12 1e-08 ${maxiter} ${maxeval}
        minimize 1e-12 1e-08 10000 ${maxeval}
        minimize 1e-12 1e-08 10000 20000
WARNING: Resetting reneighboring criteria during minimization (../min.cpp:168)
Memory usage per processor = 5.28733 Mbytes
Step Temp PotEng Lx Ly Lz 
      16            0   -17307.492     6.928552    73.708161    4.0002014 
Loop time of 0.00257289 on 1 procs for 0 steps with 2912 atoms

Minimization stats:
  Stopping criterion = force tolerance
  Energy initial, next-to-last, final = 
        -17307.4923123     -17307.4923123     -17307.4923123
  Force two-norm initial, final = 9.8674e-11 9.8674e-11
  Force max component initial, final = 3.19188e-12 3.19188e-12
  Final line search alpha, max atom move = 0 0
  Iterations, force evaluations = 0 0

Pair  time (%) = 0.00251194 (97.6311)
Neigh time (%) = 0 (0)
Comm  time (%) = 3.20256e-05 (1.24474)
Outpt time (%) = 0 (0)
Other time (%) = 2.89225e-05 (1.12412)

Nlocal:    2912 ave 2912 max 2912 min
Histogram: 1 0 0 0 0 0 0 0 0 0
Nghost:    7129 ave 7129 max 7129 min
Histogram: 1 0 0 0 0 0 0 0 0 0
Neighs:    111648 ave 111648 max 111648 min
Histogram: 1 0 0 0 0 0 0 0 0 0

Total # of neighbors = 111648
Ave neighs/atom = 38.3407
Neighbor list builds = 0
Dangerous builds = 0
	# write_dump all atom ${dumpfile}
        next i
jump SELF loop1
        displace_atoms upper move 0.0 ${ystep1} 0.0 units lattice
        displace_atoms upper move 0.0 0.00288675134594812 0.0 units lattice
        min_style ${style}
        min_style hftn
        minimize ${etol} ${ftol} ${maxiter} ${maxeval}
        minimize 1e-12 ${ftol} ${maxiter} ${maxeval}
        minimize 1e-12 1e-08 ${maxiter} ${maxeval}
        minimize 1e-12 1e-08 10000 ${maxeval}
        minimize 1e-12 1e-08 10000 20000
WARNING: Resetting reneighboring criteria during minimization (../min.cpp:168)
Memory usage per processor = 5.28733 Mbytes
Step Temp PotEng Lx Ly Lz 
      16            0   -17304.518     6.928552    73.715232    4.0002014 
Loop time of 0.0022451 on 1 procs for 0 steps with 2912 atoms

Minimization stats:
  Stopping criterion = force tolerance
  Energy initial, next-to-last, final = 
        -17304.5180366     -17304.5180366     -17304.5180366
  Force two-norm initial, final = 9.86678e-11 9.86678e-11
  Force max component initial, final = 3.19188e-12 3.19188e-12
  Final line search alpha, max atom move = 0 0
  Iterations, force evaluations = 0 0

Pair  time (%) = 0.00218391 (97.2747)
Neigh time (%) = 0 (0)
Comm  time (%) = 3.3038e-05 (1.47156)
Outpt time (%) = 0 (0)
Other time (%) = 2.81485e-05 (1.25378)

Nlocal:    2912 ave 2912 max 2912 min
Histogram: 1 0 0 0 0 0 0 0 0 0
Nghost:    7129 ave 7129 max 7129 min
Histogram: 1 0 0 0 0 0 0 0 0 0
Neighs:    111648 ave 111648 max 111648 min
Histogram: 1 0 0 0 0 0 0 0 0 0

Total # of neighbors = 111648
Ave neighs/atom = 38.3407
Neighbor list builds = 0
Dangerous builds = 0
	# write_dump all atom ${dumpfile}
        next i
jump SELF loop1
        displace_atoms upper move 0.0 ${ystep1} 0.0 units lattice
        displace_atoms upper move 0.0 0.00288675134594812 0.0 units lattice
        min_style ${style}
        min_style hftn
        minimize ${etol} ${ftol} ${maxiter} ${maxeval}
        minimize 1e-12 ${ftol} ${maxiter} ${maxeval}
        minimize 1e-12 1e-08 ${maxiter} ${maxeval}
        minimize 1e-12 1e-08 10000 ${maxeval}
        minimize 1e-12 1e-08 10000 20000
WARNING: Resetting reneighboring criteria during minimization (../min.cpp:168)
Memory usage per processor = 5.28733 Mbytes
Step Temp PotEng Lx Ly Lz 
      16            0   -17301.657     6.928552    73.722303    4.0002014 
Loop time of 0.00249602 on 1 procs for 0 steps with 2912 atoms

Minimization stats:
  Stopping criterion = force tolerance
  Energy initial, next-to-last, final = 
         -17301.657404      -17301.657404      -17301.657404
  Force two-norm initial, final = 9.86618e-11 9.86618e-11
  Force max component initial, final = 3.19188e-12 3.19188e-12
  Final line search alpha, max atom move = 0 0
  Iterations, force evaluations = 0 0

Pair  time (%) = 0.00243507 (97.5582)
Neigh time (%) = 0 (0)
Comm  time (%) = 3.21151e-05 (1.28665)
Outpt time (%) = 0 (0)
Other time (%) = 2.88329e-05 (1.15515)

Nlocal:    2912 ave 2912 max 2912 min
Histogram: 1 0 0 0 0 0 0 0 0 0
Nghost:    7129 ave 7129 max 7129 min
Histogram: 1 0 0 0 0 0 0 0 0 0
Neighs:    111648 ave 111648 max 111648 min
Histogram: 1 0 0 0 0 0 0 0 0 0

Total # of neighbors = 111648
Ave neighs/atom = 38.3407
Neighbor list builds = 0
Dangerous builds = 0
	# write_dump all atom ${dumpfile}
        next i
jump SELF loop1
        displace_atoms upper move 0.0 ${ystep1} 0.0 units lattice
        displace_atoms upper move 0.0 0.00288675134594812 0.0 units lattice
        min_style ${style}
        min_style hftn
        minimize ${etol} ${ftol} ${maxiter} ${maxeval}
        minimize 1e-12 ${ftol} ${maxiter} ${maxeval}
        minimize 1e-12 1e-08 ${maxiter} ${maxeval}
        minimize 1e-12 1e-08 10000 ${maxeval}
        minimize 1e-12 1e-08 10000 20000
WARNING: Resetting reneighboring criteria during minimization (../min.cpp:168)
Memory usage per processor = 5.28733 Mbytes
Step Temp PotEng Lx Ly Lz 
      16            0   -17298.927     6.928552    73.729375    4.0002014 
Loop time of 0.00252404 on 1 procs for 0 steps with 2912 atoms

Minimization stats:
  Stopping criterion = force tolerance
  Energy initial, next-to-last, final = 
         -17298.927342      -17298.927342      -17298.927342
  Force two-norm initial, final = 9.86558e-11 9.86558e-11
  Force max component initial, final = 3.19188e-12 3.19188e-12
  Final line search alpha, max atom move = 0 0
  Iterations, force evaluations = 0 0

Pair  time (%) = 0.00246309 (97.5853)
Neigh time (%) = 0 (0)
Comm  time (%) = 3.29645e-05 (1.30602)
Outpt time (%) = 0 (0)
Other time (%) = 2.79836e-05 (1.10868)

Nlocal:    2912 ave 2912 max 2912 min
Histogram: 1 0 0 0 0 0 0 0 0 0
Nghost:    7129 ave 7129 max 7129 min
Histogram: 1 0 0 0 0 0 0 0 0 0
Neighs:    111648 ave 111648 max 111648 min
Histogram: 1 0 0 0 0 0 0 0 0 0

Total # of neighbors = 111648
Ave neighs/atom = 38.3407
Neighbor list builds = 0
Dangerous builds = 0
	# write_dump all atom ${dumpfile}
        next i
jump SELF loop1
        displace_atoms upper move 0.0 ${ystep1} 0.0 units lattice
        displace_atoms upper move 0.0 0.00288675134594812 0.0 units lattice
        min_style ${style}
        min_style hftn
        minimize ${etol} ${ftol} ${maxiter} ${maxeval}
        minimize 1e-12 ${ftol} ${maxiter} ${maxeval}
        minimize 1e-12 1e-08 ${maxiter} ${maxeval}
        minimize 1e-12 1e-08 10000 ${maxeval}
        minimize 1e-12 1e-08 10000 20000
WARNING: Resetting reneighboring criteria during minimization (../min.cpp:168)
Memory usage per processor = 5.28733 Mbytes
Step Temp PotEng Lx Ly Lz 
      16            0   -17296.345     6.928552    73.736446    4.0002014 
Loop time of 0.00261794 on 1 procs for 0 steps with 2912 atoms

Minimization stats:
  Stopping criterion = force tolerance
  Energy initial, next-to-last, final = 
        -17296.3449088     -17296.3449088     -17296.3449088
  Force two-norm initial, final = 9.86498e-11 9.86498e-11
  Force max component initial, final = 3.19188e-12 3.19188e-12
  Final line search alpha, max atom move = 0 0
  Iterations, force evaluations = 0 0

Pair  time (%) = 0.00247799 (94.6543)
Neigh time (%) = 0 (0)
Comm  time (%) = 8.62243e-05 (3.29359)
Outpt time (%) = 0 (0)
Other time (%) = 5.37238e-05 (2.05214)

Nlocal:    2912 ave 2912 max 2912 min
Histogram: 1 0 0 0 0 0 0 0 0 0
Nghost:    7129 ave 7129 max 7129 min
Histogram: 1 0 0 0 0 0 0 0 0 0
Neighs:    111648 ave 111648 max 111648 min
Histogram: 1 0 0 0 0 0 0 0 0 0

Total # of neighbors = 111648
Ave neighs/atom = 38.3407
Neighbor list builds = 0
Dangerous builds = 0
	# write_dump all atom ${dumpfile}
        next i
jump SELF loop1
        displace_atoms upper move 0.0 ${ystep1} 0.0 units lattice
        displace_atoms upper move 0.0 0.00288675134594812 0.0 units lattice
        min_style ${style}
        min_style hftn
        minimize ${etol} ${ftol} ${maxiter} ${maxeval}
        minimize 1e-12 ${ftol} ${maxiter} ${maxeval}
        minimize 1e-12 1e-08 ${maxiter} ${maxeval}
        minimize 1e-12 1e-08 10000 ${maxeval}
        minimize 1e-12 1e-08 10000 20000
WARNING: Resetting reneighboring criteria during minimization (../min.cpp:168)
Memory usage per processor = 5.28733 Mbytes
Step Temp PotEng Lx Ly Lz 
      16            0   -17293.927     6.928552    73.743518    4.0002014 
Loop time of 0.00239609 on 1 procs for 0 steps with 2912 atoms

Minimization stats:
  Stopping criterion = force tolerance
  Energy initial, next-to-last, final = 
        -17293.9272696     -17293.9272696     -17293.9272696
  Force two-norm initial, final = 9.86438e-11 9.86438e-11
  Force max component initial, final = 3.19188e-12 3.19188e-12
  Final line search alpha, max atom move = 0 0
  Iterations, force evaluations = 0 0

Pair  time (%) = 0.00233609 (97.4961)
Neigh time (%) = 0 (0)
Comm  time (%) = 3.30495e-05 (1.37931)
Outpt time (%) = 0 (0)
Other time (%) = 2.6945e-05 (1.12454)

Nlocal:    2912 ave 2912 max 2912 min
Histogram: 1 0 0 0 0 0 0 0 0 0
Nghost:    7129 ave 7129 max 7129 min
Histogram: 1 0 0 0 0 0 0 0 0 0
Neighs:    111648 ave 111648 max 111648 min
Histogram: 1 0 0 0 0 0 0 0 0 0

Total # of neighbors = 111648
Ave neighs/atom = 38.3407
Neighbor list builds = 0
Dangerous builds = 0
	# write_dump all atom ${dumpfile}
        next i
jump SELF loop1
        displace_atoms upper move 0.0 ${ystep1} 0.0 units lattice
        displace_atoms upper move 0.0 0.00288675134594812 0.0 units lattice
        min_style ${style}
        min_style hftn
        minimize ${etol} ${ftol} ${maxiter} ${maxeval}
        minimize 1e-12 ${ftol} ${maxiter} ${maxeval}
        minimize 1e-12 1e-08 ${maxiter} ${maxeval}
        minimize 1e-12 1e-08 10000 ${maxeval}
        minimize 1e-12 1e-08 10000 20000
WARNING: Resetting reneighboring criteria during minimization (../min.cpp:168)
Memory usage per processor = 5.28733 Mbytes
Step Temp PotEng Lx Ly Lz 
      16            0   -17291.692     6.928552    73.750589    4.0002014 
Loop time of 0.00241108 on 1 procs for 0 steps with 2912 atoms

Minimization stats:
  Stopping criterion = force tolerance
  Energy initial, next-to-last, final = 
        -17291.6918749     -17291.6918749     -17291.6918749
  Force two-norm initial, final = 9.86376e-11 9.86376e-11
  Force max component initial, final = 3.19188e-12 3.19188e-12
  Final line search alpha, max atom move = 0 0
  Iterations, force evaluations = 0 0

Pair  time (%) = 0.00234989 (97.4623)
Neigh time (%) = 0 (0)
Comm  time (%) = 3.30551e-05 (1.37097)
Outpt time (%) = 0 (0)
Other time (%) = 2.81314e-05 (1.16676)

Nlocal:    2912 ave 2912 max 2912 min
Histogram: 1 0 0 0 0 0 0 0 0 0
Nghost:    7129 ave 7129 max 7129 min
Histogram: 1 0 0 0 0 0 0 0 0 0
Neighs:    111648 ave 111648 max 111648 min
Histogram: 1 0 0 0 0 0 0 0 0 0

Total # of neighbors = 111648
Ave neighs/atom = 38.3407
Neighbor list builds = 0
Dangerous builds = 0
	# write_dump all atom ${dumpfile}
        next i
jump SELF loop1
        displace_atoms upper move 0.0 ${ystep1} 0.0 units lattice
        displace_atoms upper move 0.0 0.00288675134594812 0.0 units lattice
        min_style ${style}
        min_style hftn
        minimize ${etol} ${ftol} ${maxiter} ${maxeval}
        minimize 1e-12 ${ftol} ${maxiter} ${maxeval}
        minimize 1e-12 1e-08 ${maxiter} ${maxeval}
        minimize 1e-12 1e-08 10000 ${maxeval}
        minimize 1e-12 1e-08 10000 20000
WARNING: Resetting reneighboring criteria during minimization (../min.cpp:168)
Memory usage per processor = 5.28733 Mbytes
Step Temp PotEng Lx Ly Lz 
      16            0   -17289.656     6.928552    73.757661    4.0002014 
Loop time of 0.00227391 on 1 procs for 0 steps with 2912 atoms

Minimization stats:
  Stopping criterion = force tolerance
  Energy initial, next-to-last, final = 
        -17289.6563073     -17289.6563073     -17289.6563073
  Force two-norm initial, final = 9.86314e-11 9.86314e-11
  Force max component initial, final = 3.19188e-12 3.19188e-12
  Final line search alpha, max atom move = 0 0
  Iterations, force evaluations = 0 0

Pair  time (%) = 0.00221296 (97.3197)
Neigh time (%) = 0 (0)
Comm  time (%) = 3.30399e-05 (1.453)
Outpt time (%) = 0 (0)
Other time (%) = 2.79081e-05 (1.22732)

Nlocal:    2912 ave 2912 max 2912 min
Histogram: 1 0 0 0 0 0 0 0 0 0
Nghost:    7129 ave 7129 max 7129 min
Histogram: 1 0 0 0 0 0 0 0 0 0
Neighs:    111648 ave 111648 max 111648 min
Histogram: 1 0 0 0 0 0 0 0 0 0

Total # of neighbors = 111648
Ave neighs/atom = 38.3407
Neighbor list builds = 0
Dangerous builds = 0
	# write_dump all atom ${dumpfile}
        next i
jump SELF loop1
        displace_atoms upper move 0.0 ${ystep1} 0.0 units lattice
        displace_atoms upper move 0.0 0.00288675134594812 0.0 units lattice
        min_style ${style}
        min_style hftn
        minimize ${etol} ${ftol} ${maxiter} ${maxeval}
        minimize 1e-12 ${ftol} ${maxiter} ${maxeval}
        minimize 1e-12 1e-08 ${maxiter} ${maxeval}
        minimize 1e-12 1e-08 10000 ${maxeval}
        minimize 1e-12 1e-08 10000 20000
WARNING: Resetting reneighboring criteria during minimization (../min.cpp:168)
Memory usage per processor = 5.28733 Mbytes
Step Temp PotEng Lx Ly Lz 
      16            0   -17287.838     6.928552    73.764732    4.0002014 
Loop time of 0.00297209 on 1 procs for 0 steps with 2912 atoms

Minimization stats:
  Stopping criterion = force tolerance
  Energy initial, next-to-last, final = 
        -17287.8377954     -17287.8377954     -17287.8377954
  Force two-norm initial, final = 9.86257e-11 9.86257e-11
  Force max component initial, final = 3.19188e-12 3.19188e-12
  Final line search alpha, max atom move = 0 0
  Iterations, force evaluations = 0 0

Pair  time (%) = 0.0028519 (95.9562)
Neigh time (%) = 0 (0)
Comm  time (%) = 7.19667e-05 (2.42142)
Outpt time (%) = 0 (0)
Other time (%) = 4.82198e-05 (1.62242)

Nlocal:    2912 ave 2912 max 2912 min
Histogram: 1 0 0 0 0 0 0 0 0 0
Nghost:    7129 ave 7129 max 7129 min
Histogram: 1 0 0 0 0 0 0 0 0 0
Neighs:    111648 ave 111648 max 111648 min
Histogram: 1 0 0 0 0 0 0 0 0 0

Total # of neighbors = 111648
Ave neighs/atom = 38.3407
Neighbor list builds = 0
Dangerous builds = 0
	# write_dump all atom ${dumpfile}
        next i
jump SELF loop1
        displace_atoms upper move 0.0 ${ystep1} 0.0 units lattice
        displace_atoms upper move 0.0 0.00288675134594812 0.0 units lattice
        min_style ${style}
        min_style hftn
        minimize ${etol} ${ftol} ${maxiter} ${maxeval}
        minimize 1e-12 ${ftol} ${maxiter} ${maxeval}
        minimize 1e-12 1e-08 ${maxiter} ${maxeval}
        minimize 1e-12 1e-08 10000 ${maxeval}
        minimize 1e-12 1e-08 10000 20000
WARNING: Resetting reneighboring criteria during minimization (../min.cpp:168)
Memory usage per processor = 5.28733 Mbytes
Step Temp PotEng Lx Ly Lz 
      16            0   -17286.252     6.928552    73.771803    4.0002014 
Loop time of 0.00279193 on 1 procs for 0 steps with 2912 atoms

Minimization stats:
  Stopping criterion = force tolerance
  Energy initial, next-to-last, final = 
        -17286.2522335     -17286.2522335     -17286.2522335
  Force two-norm initial, final = 9.86266e-11 9.86266e-11
  Force max component initial, final = 3.19188e-12 3.19188e-12
  Final line search alpha, max atom move = 0 0
  Iterations, force evaluations = 0 0

Pair  time (%) = 0.00270099 (96.7425)
Neigh time (%) = 0 (0)
Comm  time (%) = 4.90529e-05 (1.75695)
Outpt time (%) = 0 (0)
Other time (%) = 4.18952e-05 (1.50058)

Nlocal:    2912 ave 2912 max 2912 min
Histogram: 1 0 0 0 0 0 0 0 0 0
Nghost:    7129 ave 7129 max 7129 min
Histogram: 1 0 0 0 0 0 0 0 0 0
Neighs:    111648 ave 111648 max 111648 min
Histogram: 1 0 0 0 0 0 0 0 0 0

Total # of neighbors = 111648
Ave neighs/atom = 38.3407
Neighbor list builds = 0
Dangerous builds = 0
	# write_dump all atom ${dumpfile}
        next i
jump SELF loop1
        displace_atoms upper move 0.0 ${ystep1} 0.0 units lattice
        displace_atoms upper move 0.0 0.00288675134594812 0.0 units lattice
        min_style ${style}
        min_style hftn
        minimize ${etol} ${ftol} ${maxiter} ${maxeval}
        minimize 1e-12 ${ftol} ${maxiter} ${maxeval}
        minimize 1e-12 1e-08 ${maxiter} ${maxeval}
        minimize 1e-12 1e-08 10000 ${maxeval}
        minimize 1e-12 1e-08 10000 20000
WARNING: Resetting reneighboring criteria during minimization (../min.cpp:168)
Memory usage per processor = 5.28733 Mbytes
Step Temp PotEng Lx Ly Lz 
      16            0   -17284.894     6.928552    73.778875    4.0002014 
Loop time of 0.00238789 on 1 procs for 0 steps with 2912 atoms

Minimization stats:
  Stopping criterion = force tolerance
  Energy initial, next-to-last, final = 
        -17284.8939893     -17284.8939893     -17284.8939893
  Force two-norm initial, final = 9.86302e-11 9.86302e-11
  Force max component initial, final = 3.19188e-12 3.19188e-12
  Final line search alpha, max atom move = 0 0
  Iterations, force evaluations = 0 0

Pair  time (%) = 0.00232809 (97.4956)
Neigh time (%) = 0 (0)
Comm  time (%) = 3.29511e-05 (1.37993)
Outpt time (%) = 0 (0)
Other time (%) = 2.68512e-05 (1.12447)

Nlocal:    2912 ave 2912 max 2912 min
Histogram: 1 0 0 0 0 0 0 0 0 0
Nghost:    7129 ave 7129 max 7129 min
Histogram: 1 0 0 0 0 0 0 0 0 0
Neighs:    111648 ave 111648 max 111648 min
Histogram: 1 0 0 0 0 0 0 0 0 0

Total # of neighbors = 111648
Ave neighs/atom = 38.3407
Neighbor list builds = 0
Dangerous builds = 0
	# write_dump all atom ${dumpfile}
        next i
jump SELF loop1
        displace_atoms upper move 0.0 ${ystep1} 0.0 units lattice
        displace_atoms upper move 0.0 0.00288675134594812 0.0 units lattice
        min_style ${style}
        min_style hftn
        minimize ${etol} ${ftol} ${maxiter} ${maxeval}
        minimize 1e-12 ${ftol} ${maxiter} ${maxeval}
        minimize 1e-12 1e-08 ${maxiter} ${maxeval}
        minimize 1e-12 1e-08 10000 ${maxeval}
        minimize 1e-12 1e-08 10000 20000
WARNING: Resetting reneighboring criteria during minimization (../min.cpp:168)
Memory usage per processor = 5.28733 Mbytes
Step Temp PotEng Lx Ly Lz 
      16            0   -17283.746     6.928552    73.785946    4.0002014 
Loop time of 0.00265701 on 1 procs for 0 steps with 2912 atoms

Minimization stats:
  Stopping criterion = force tolerance
  Energy initial, next-to-last, final = 
        -17283.7464895     -17283.7464895     -17283.7464895
  Force two-norm initial, final = 9.86344e-11 9.86344e-11
  Force max component initial, final = 3.19188e-12 3.19188e-12
  Final line search alpha, max atom move = 0 0
  Iterations, force evaluations = 0 0

Pair  time (%) = 0.00253706 (95.4856)
Neigh time (%) = 0 (0)
Comm  time (%) = 6.39975e-05 (2.40863)
Outpt time (%) = 0 (0)
Other time (%) = 5.59506e-05 (2.10577)

Nlocal:    2912 ave 2912 max 2912 min
Histogram: 1 0 0 0 0 0 0 0 0 0
Nghost:    7129 ave 7129 max 7129 min
Histogram: 1 0 0 0 0 0 0 0 0 0
Neighs:    111648 ave 111648 max 111648 min
Histogram: 1 0 0 0 0 0 0 0 0 0

Total # of neighbors = 111648
Ave neighs/atom = 38.3407
Neighbor list builds = 0
Dangerous builds = 0
	# write_dump all atom ${dumpfile}
        next i
jump SELF loop1
        displace_atoms upper move 0.0 ${ystep1} 0.0 units lattice
        displace_atoms upper move 0.0 0.00288675134594812 0.0 units lattice
        min_style ${style}
        min_style hftn
        minimize ${etol} ${ftol} ${maxiter} ${maxeval}
        minimize 1e-12 ${ftol} ${maxiter} ${maxeval}
        minimize 1e-12 1e-08 ${maxiter} ${maxeval}
        minimize 1e-12 1e-08 10000 ${maxeval}
        minimize 1e-12 1e-08 10000 20000
WARNING: Resetting reneighboring criteria during minimization (../min.cpp:168)
Memory usage per processor = 5.28733 Mbytes
Step Temp PotEng Lx Ly Lz 
      16            0   -17282.792     6.928552    73.793018    4.0002014 
Loop time of 0.00241998 on 1 procs for 0 steps with 2912 atoms

Minimization stats:
  Stopping criterion = force tolerance
  Energy initial, next-to-last, final = 
        -17282.7922018     -17282.7922018     -17282.7922018
  Force two-norm initial, final = 9.86382e-11 9.86382e-11
  Force max component initial, final = 3.19188e-12 3.19188e-12
  Final line search alpha, max atom move = 0 0
  Iterations, force evaluations = 0 0

Pair  time (%) = 0.00235807 (97.4421)
Neigh time (%) = 0 (0)
Comm  time (%) = 3.21226e-05 (1.32739)
Outpt time (%) = 0 (0)
Other time (%) = 2.97792e-05 (1.23056)

Nlocal:    2912 ave 2912 max 2912 min
Histogram: 1 0 0 0 0 0 0 0 0 0
Nghost:    7129 ave 7129 max 7129 min
Histogram: 1 0 0 0 0 0 0 0 0 0
Neighs:    111648 ave 111648 max 111648 min
Histogram: 1 0 0 0 0 0 0 0 0 0

Total # of neighbors = 111648
Ave neighs/atom = 38.3407
Neighbor list builds = 0
Dangerous builds = 0
	# write_dump all atom ${dumpfile}
        next i
jump SELF loop1
        displace_atoms upper move 0.0 ${ystep1} 0.0 units lattice
        displace_atoms upper move 0.0 0.00288675134594812 0.0 units lattice
        min_style ${style}
        min_style hftn
        minimize ${etol} ${ftol} ${maxiter} ${maxeval}
        minimize 1e-12 ${ftol} ${maxiter} ${maxeval}
        minimize 1e-12 1e-08 ${maxiter} ${maxeval}
        minimize 1e-12 1e-08 10000 ${maxeval}
        minimize 1e-12 1e-08 10000 20000
WARNING: Resetting reneighboring criteria during minimization (../min.cpp:168)
Memory usage per processor = 5.28733 Mbytes
Step Temp PotEng Lx Ly Lz 
      16            0   -17282.014     6.928552    73.800089    4.0002014 
Loop time of 0.00302103 on 1 procs for 0 steps with 2912 atoms

Minimization stats:
  Stopping criterion = force tolerance
  Energy initial, next-to-last, final = 
        -17282.0139586     -17282.0139586     -17282.0139586
  Force two-norm initial, final = 9.86419e-11 9.86419e-11
  Force max component initial, final = 3.19188e-12 3.19188e-12
  Final line search alpha, max atom move = 0 0
  Iterations, force evaluations = 0 0

Pair  time (%) = 0.00295694 (97.8784)
Neigh time (%) = 0 (0)
Comm  time (%) = 3.40895e-05 (1.12841)
Outpt time (%) = 0 (0)
Other time (%) = 3.00043e-05 (0.993181)

Nlocal:    2912 ave 2912 max 2912 min
Histogram: 1 0 0 0 0 0 0 0 0 0
Nghost:    7129 ave 7129 max 7129 min
Histogram: 1 0 0 0 0 0 0 0 0 0
Neighs:    111648 ave 111648 max 111648 min
Histogram: 1 0 0 0 0 0 0 0 0 0

Total # of neighbors = 111648
Ave neighs/atom = 38.3407
Neighbor list builds = 0
Dangerous builds = 0
	# write_dump all atom ${dumpfile}
        next i
jump SELF loop1
        displace_atoms upper move 0.0 ${ystep1} 0.0 units lattice
        displace_atoms upper move 0.0 0.00288675134594812 0.0 units lattice
        min_style ${style}
        min_style hftn
        minimize ${etol} ${ftol} ${maxiter} ${maxeval}
        minimize 1e-12 ${ftol} ${maxiter} ${maxeval}
        minimize 1e-12 1e-08 ${maxiter} ${maxeval}
        minimize 1e-12 1e-08 10000 ${maxeval}
        minimize 1e-12 1e-08 10000 20000
WARNING: Resetting reneighboring criteria during minimization (../min.cpp:168)
Memory usage per processor = 5.28733 Mbytes
Step Temp PotEng Lx Ly Lz 
      16            0   -17281.394     6.928552    73.807161    4.0002014 
Loop time of 0.00279596 on 1 procs for 0 steps with 2912 atoms

Minimization stats:
  Stopping criterion = force tolerance
  Energy initial, next-to-last, final = 
        -17281.3943517     -17281.3943517     -17281.3943517
  Force two-norm initial, final = 9.86461e-11 9.86461e-11
  Force max component initial, final = 3.19188e-12 3.19188e-12
  Final line search alpha, max atom move = 0 0
  Iterations, force evaluations = 0 0

Pair  time (%) = 0.00271796 (97.2105)
Neigh time (%) = 0 (0)
Comm  time (%) = 4.40329e-05 (1.57488)
Outpt time (%) = 0 (0)
Other time (%) = 3.39615e-05 (1.21466)

Nlocal:    2912 ave 2912 max 2912 min
Histogram: 1 0 0 0 0 0 0 0 0 0
Nghost:    7129 ave 7129 max 7129 min
Histogram: 1 0 0 0 0 0 0 0 0 0
Neighs:    111648 ave 111648 max 111648 min
Histogram: 1 0 0 0 0 0 0 0 0 0

Total # of neighbors = 111648
Ave neighs/atom = 38.3407
Neighbor list builds = 0
Dangerous builds = 0
	# write_dump all atom ${dumpfile}
        next i
jump SELF loop1
        displace_atoms upper move 0.0 ${ystep1} 0.0 units lattice
        displace_atoms upper move 0.0 0.00288675134594812 0.0 units lattice
        min_style ${style}
        min_style hftn
        minimize ${etol} ${ftol} ${maxiter} ${maxeval}
        minimize 1e-12 ${ftol} ${maxiter} ${maxeval}
        minimize 1e-12 1e-08 ${maxiter} ${maxeval}
        minimize 1e-12 1e-08 10000 ${maxeval}
        minimize 1e-12 1e-08 10000 20000
WARNING: Resetting reneighboring criteria during minimization (../min.cpp:168)
Memory usage per processor = 5.28733 Mbytes
Step Temp PotEng Lx Ly Lz 
      16            0   -17280.916     6.928552    73.814232    4.0002014 
Loop time of 0.00208208 on 1 procs for 0 steps with 2912 atoms

Minimization stats:
  Stopping criterion = force tolerance
  Energy initial, next-to-last, final = 
        -17280.9155295     -17280.9155295     -17280.9155295
  Force two-norm initial, final = 9.86503e-11 9.86503e-11
  Force max component initial, final = 3.19188e-12 3.19188e-12
  Final line search alpha, max atom move = 0 0
  Iterations, force evaluations = 0 0

Pair  time (%) = 0.00201989 (97.0132)
Neigh time (%) = 0 (0)
Comm  time (%) = 3.40245e-05 (1.63416)
Outpt time (%) = 0 (0)
Other time (%) = 2.8162e-05 (1.35259)

Nlocal:    2912 ave 2912 max 2912 min
Histogram: 1 0 0 0 0 0 0 0 0 0
Nghost:    7129 ave 7129 max 7129 min
Histogram: 1 0 0 0 0 0 0 0 0 0
Neighs:    111648 ave 111648 max 111648 min
Histogram: 1 0 0 0 0 0 0 0 0 0

Total # of neighbors = 111648
Ave neighs/atom = 38.3407
Neighbor list builds = 0
Dangerous builds = 0
	# write_dump all atom ${dumpfile}
        next i
jump SELF loop1
        displace_atoms upper move 0.0 ${ystep1} 0.0 units lattice
        displace_atoms upper move 0.0 0.00288675134594812 0.0 units lattice
        min_style ${style}
        min_style hftn
        minimize ${etol} ${ftol} ${maxiter} ${maxeval}
        minimize 1e-12 ${ftol} ${maxiter} ${maxeval}
        minimize 1e-12 1e-08 ${maxiter} ${maxeval}
        minimize 1e-12 1e-08 10000 ${maxeval}
        minimize 1e-12 1e-08 10000 20000
WARNING: Resetting reneighboring criteria during minimization (../min.cpp:168)
Memory usage per processor = 5.28733 Mbytes
Step Temp PotEng Lx Ly Lz 
      16            0    -17280.56     6.928552    73.821303    4.0002014 
Loop time of 0.00284696 on 1 procs for 0 steps with 2912 atoms

Minimization stats:
  Stopping criterion = force tolerance
[...]
  Force max component initial, final = 3.19188e-12 3.19188e-12
  Final line search alpha, max atom move = 0 0
  Iterations, force evaluations = 0 0

Pair  time (%) = 0.00185802 (96.5218)
Neigh time (%) = 0 (0)
Comm  time (%) = 3.39304e-05 (1.76264)
Outpt time (%) = 0 (0)
Other time (%) = 3.30245e-05 (1.71558)

Nlocal:    2912 ave 2912 max 2912 min
Histogram: 1 0 0 0 0 0 0 0 0 0
Nghost:    7129 ave 7129 max 7129 min
Histogram: 1 0 0 0 0 0 0 0 0 0
Neighs:    110880 ave 110880 max 110880 min
Histogram: 1 0 0 0 0 0 0 0 0 0

Total # of neighbors = 110880
Ave neighs/atom = 38.0769
Neighbor list builds = 0
Dangerous builds = 0
	# write_dump all atom ${dumpfile}
        next i
jump SELF loop1
        displace_atoms upper move 0.0 ${ystep1} 0.0 units lattice
        displace_atoms upper move 0.0 0.00288675134594812 0.0 units lattice
        min_style ${style}
        min_style hftn
        minimize ${etol} ${ftol} ${maxiter} ${maxeval}
        minimize 1e-12 ${ftol} ${maxiter} ${maxeval}
        minimize 1e-12 1e-08 ${maxiter} ${maxeval}
        minimize 1e-12 1e-08 10000 ${maxeval}
        minimize 1e-12 1e-08 10000 20000
WARNING: Resetting reneighboring criteria during minimization (../min.cpp:168)
Memory usage per processor = 5.28733 Mbytes
Step Temp PotEng Lx Ly Lz 
      16            0    -17279.99     6.928552    75.560874    4.0002014 
Loop time of 0.00222194 on 1 procs for 0 steps with 2912 atoms

Minimization stats:
  Stopping criterion = force tolerance
  Energy initial, next-to-last, final = 
        -17279.9900092     -17279.9900092     -17279.9900092
  Force two-norm initial, final = 9.86798e-11 9.86798e-11
  Force max component initial, final = 3.19188e-12 3.19188e-12
  Final line search alpha, max atom move = 0 0
  Iterations, force evaluations = 0 0

Pair  time (%) = 0.0021629 (97.3428)
Neigh time (%) = 0 (0)
Comm  time (%) = 3.20351e-05 (1.44176)
Outpt time (%) = 0 (0)
Other time (%) = 2.70057e-05 (1.21541)

Nlocal:    2912 ave 2912 max 2912 min
Histogram: 1 0 0 0 0 0 0 0 0 0
Nghost:    7129 ave 7129 max 7129 min
Histogram: 1 0 0 0 0 0 0 0 0 0
Neighs:    110880 ave 110880 max 110880 min
Histogram: 1 0 0 0 0 0 0 0 0 0

Total # of neighbors = 110880
Ave neighs/atom = 38.0769
Neighbor list builds = 0
Dangerous builds = 0
	# write_dump all atom ${dumpfile}
        next i
jump SELF loop1
        displace_atoms upper move 0.0 ${ystep1} 0.0 units lattice
        displace_atoms upper move 0.0 0.00288675134594812 0.0 units lattice
        min_style ${style}
        min_style hftn
        minimize ${etol} ${ftol} ${maxiter} ${maxeval}
        minimize 1e-12 ${ftol} ${maxiter} ${maxeval}
        minimize 1e-12 1e-08 ${maxiter} ${maxeval}
        minimize 1e-12 1e-08 10000 ${maxeval}
        minimize 1e-12 1e-08 10000 20000
WARNING: Resetting reneighboring criteria during minimization (../min.cpp:168)
Memory usage per processor = 5.28733 Mbytes
Step Temp PotEng Lx Ly Lz 
      16            0    -17279.99     6.928552    75.567945    4.0002014 
Loop time of 0.00310199 on 1 procs for 0 steps with 2912 atoms

Minimization stats:
  Stopping criterion = force tolerance
  Energy initial, next-to-last, final = 
        -17279.9900092     -17279.9900092     -17279.9900092
  Force two-norm initial, final = 9.86802e-11 9.86802e-11
  Force max component initial, final = 3.19188e-12 3.19188e-12
  Final line search alpha, max atom move = 0 0
  Iterations, force evaluations = 0 0

Pair  time (%) = 0.00300804 (96.9714)
Neigh time (%) = 0 (0)
Comm  time (%) = 5.3848e-05 (1.73592)
Outpt time (%) = 0 (0)
Other time (%) = 4.01001e-05 (1.29272)

Nlocal:    2912 ave 2912 max 2912 min
Histogram: 1 0 0 0 0 0 0 0 0 0
Nghost:    7129 ave 7129 max 7129 min
Histogram: 1 0 0 0 0 0 0 0 0 0
Neighs:    110880 ave 110880 max 110880 min
Histogram: 1 0 0 0 0 0 0 0 0 0

Total # of neighbors = 110880
Ave neighs/atom = 38.0769
Neighbor list builds = 0
Dangerous builds = 0
	# write_dump all atom ${dumpfile}
        next i
jump SELF loop1
        displace_atoms upper move 0.0 ${ystep1} 0.0 units lattice
        displace_atoms upper move 0.0 0.00288675134594812 0.0 units lattice
        min_style ${style}
        min_style hftn
        minimize ${etol} ${ftol} ${maxiter} ${maxeval}
        minimize 1e-12 ${ftol} ${maxiter} ${maxeval}
        minimize 1e-12 1e-08 ${maxiter} ${maxeval}
        minimize 1e-12 1e-08 10000 ${maxeval}
        minimize 1e-12 1e-08 10000 20000
WARNING: Resetting reneighboring criteria during minimization (../min.cpp:168)
Memory usage per processor = 5.28733 Mbytes
Step Temp PotEng Lx Ly Lz 
      16            0    -17279.99     6.928552    75.575017    4.0002014 
Loop time of 0.00225904 on 1 procs for 0 steps with 2912 atoms

Minimization stats:
  Stopping criterion = force tolerance
  Energy initial, next-to-last, final = 
        -17279.9900092     -17279.9900092     -17279.9900092
  Force two-norm initial, final = 9.86798e-11 9.86798e-11
  Force max component initial, final = 3.19188e-12 3.19188e-12
  Final line search alpha, max atom move = 0 0
  Iterations, force evaluations = 0 0

Pair  time (%) = 0.00219809 (97.302)
Neigh time (%) = 0 (0)
Comm  time (%) = 3.21402e-05 (1.42274)
Outpt time (%) = 0 (0)
Other time (%) = 2.8808e-05 (1.27523)

Nlocal:    2912 ave 2912 max 2912 min
Histogram: 1 0 0 0 0 0 0 0 0 0
Nghost:    7129 ave 7129 max 7129 min
Histogram: 1 0 0 0 0 0 0 0 0 0
Neighs:    110880 ave 110880 max 110880 min
Histogram: 1 0 0 0 0 0 0 0 0 0

Total # of neighbors = 110880
Ave neighs/atom = 38.0769
Neighbor list builds = 0
Dangerous builds = 0
	# write_dump all atom ${dumpfile}
        next i
jump SELF loop1
        displace_atoms upper move 0.0 ${ystep1} 0.0 units lattice
        displace_atoms upper move 0.0 0.00288675134594812 0.0 units lattice
        min_style ${style}
        min_style hftn
        minimize ${etol} ${ftol} ${maxiter} ${maxeval}
        minimize 1e-12 ${ftol} ${maxiter} ${maxeval}
        minimize 1e-12 1e-08 ${maxiter} ${maxeval}
        minimize 1e-12 1e-08 10000 ${maxeval}
        minimize 1e-12 1e-08 10000 20000
WARNING: Resetting reneighboring criteria during minimization (../min.cpp:168)
Memory usage per processor = 5.28733 Mbytes
Step Temp PotEng Lx Ly Lz 
      16            0    -17279.99     6.928552    75.582088    4.0002014 
Loop time of 0.00225603 on 1 procs for 0 steps with 2912 atoms

Minimization stats:
  Stopping criterion = force tolerance
  Energy initial, next-to-last, final = 
        -17279.9900092     -17279.9900092     -17279.9900092
  Force two-norm initial, final = 9.868e-11 9.868e-11
  Force max component initial, final = 3.19188e-12 3.19188e-12
  Final line search alpha, max atom move = 0 0
  Iterations, force evaluations = 0 0

Pair  time (%) = 0.00219389 (97.2456)
Neigh time (%) = 0 (0)
Comm  time (%) = 3.29766e-05 (1.46171)
Outpt time (%) = 0 (0)
Other time (%) = 2.91636e-05 (1.29269)

Nlocal:    2912 ave 2912 max 2912 min
Histogram: 1 0 0 0 0 0 0 0 0 0
Nghost:    7129 ave 7129 max 7129 min
Histogram: 1 0 0 0 0 0 0 0 0 0
Neighs:    110880 ave 110880 max 110880 min
Histogram: 1 0 0 0 0 0 0 0 0 0

Total # of neighbors = 110880
Ave neighs/atom = 38.0769
Neighbor list builds = 0
Dangerous builds = 0
	# write_dump all atom ${dumpfile}
        next i
jump SELF loop1
        displace_atoms upper move 0.0 ${ystep1} 0.0 units lattice
        displace_atoms upper move 0.0 0.00288675134594812 0.0 units lattice
        min_style ${style}
        min_style hftn
        minimize ${etol} ${ftol} ${maxiter} ${maxeval}
        minimize 1e-12 ${ftol} ${maxiter} ${maxeval}
        minimize 1e-12 1e-08 ${maxiter} ${maxeval}
        minimize 1e-12 1e-08 10000 ${maxeval}
        minimize 1e-12 1e-08 10000 20000
WARNING: Resetting reneighboring criteria during minimization (../min.cpp:168)
Memory usage per processor = 5.28733 Mbytes
Step Temp PotEng Lx Ly Lz 
      16            0    -17279.99     6.928552    75.589159    4.0002014 
Loop time of 0.00238599 on 1 procs for 0 steps with 2912 atoms

Minimization stats:
  Stopping criterion = force tolerance
  Energy initial, next-to-last, final = 
        -17279.9900092     -17279.9900092     -17279.9900092
  Force two-norm initial, final = 9.86798e-11 9.86798e-11
  Force max component initial, final = 3.19188e-12 3.19188e-12
  Final line search alpha, max atom move = 0 0
  Iterations, force evaluations = 0 0

Pair  time (%) = 0.00232695 (97.5255)
Neigh time (%) = 0 (0)
Comm  time (%) = 3.30675e-05 (1.3859)
Outpt time (%) = 0 (0)
Other time (%) = 2.59732e-05 (1.08857)

Nlocal:    2912 ave 2912 max 2912 min
Histogram: 1 0 0 0 0 0 0 0 0 0
Nghost:    7129 ave 7129 max 7129 min
Histogram: 1 0 0 0 0 0 0 0 0 0
Neighs:    110880 ave 110880 max 110880 min
Histogram: 1 0 0 0 0 0 0 0 0 0

Total # of neighbors = 110880
Ave neighs/atom = 38.0769
Neighbor list builds = 0
Dangerous builds = 0
	# write_dump all atom ${dumpfile}
        next i
jump SELF loop1
        displace_atoms upper move 0.0 ${ystep1} 0.0 units lattice
        displace_atoms upper move 0.0 0.00288675134594812 0.0 units lattice
        min_style ${style}
        min_style hftn
        minimize ${etol} ${ftol} ${maxiter} ${maxeval}
        minimize 1e-12 ${ftol} ${maxiter} ${maxeval}
        minimize 1e-12 1e-08 ${maxiter} ${maxeval}
        minimize 1e-12 1e-08 10000 ${maxeval}
        minimize 1e-12 1e-08 10000 20000
WARNING: Resetting reneighboring criteria during minimization (../min.cpp:168)
Memory usage per processor = 5.28733 Mbytes
Step Temp PotEng Lx Ly Lz 
      16            0    -17279.99     6.928552    75.596231    4.0002014 
Loop time of 0.00228804 on 1 procs for 0 steps with 2912 atoms

Minimization stats:
  Stopping criterion = force tolerance
  Energy initial, next-to-last, final = 
        -17279.9900092     -17279.9900092     -17279.9900092
  Force two-norm initial, final = 9.86801e-11 9.86801e-11
  Force max component initial, final = 3.19188e-12 3.19188e-12
  Final line search alpha, max atom move = 0 0
  Iterations, force evaluations = 0 0

Pair  time (%) = 0.00224704 (98.2083)
Neigh time (%) = 0 (0)
Comm  time (%) = 2.48747e-05 (1.08716)
Outpt time (%) = 0 (0)
Other time (%) = 1.61197e-05 (0.704521)

Nlocal:    2912 ave 2912 max 2912 min
Histogram: 1 0 0 0 0 0 0 0 0 0
Nghost:    7129 ave 7129 max 7129 min
Histogram: 1 0 0 0 0 0 0 0 0 0
Neighs:    110880 ave 110880 max 110880 min
Histogram: 1 0 0 0 0 0 0 0 0 0

Total # of neighbors = 110880
Ave neighs/atom = 38.0769
Neighbor list builds = 0
Dangerous builds = 0
	# write_dump all atom ${dumpfile}
        next i
jump SELF loop1
        displace_atoms upper move 0.0 ${ystep1} 0.0 units lattice
        displace_atoms upper move 0.0 0.00288675134594812 0.0 units lattice
        min_style ${style}
        min_style hftn
        minimize ${etol} ${ftol} ${maxiter} ${maxeval}
        minimize 1e-12 ${ftol} ${maxiter} ${maxeval}
        minimize 1e-12 1e-08 ${maxiter} ${maxeval}
        minimize 1e-12 1e-08 10000 ${maxeval}
        minimize 1e-12 1e-08 10000 20000
WARNING: Resetting reneighboring criteria during minimization (../min.cpp:168)
Memory usage per processor = 5.28733 Mbytes
Step Temp PotEng Lx Ly Lz 
      16            0    -17279.99     6.928552    75.603302    4.0002014 
Loop time of 0.00238411 on 1 procs for 0 steps with 2912 atoms

Minimization stats:
  Stopping criterion = force tolerance
  Energy initial, next-to-last, final = 
        -17279.9900092     -17279.9900092     -17279.9900092
  Force two-norm initial, final = 9.86797e-11 9.86797e-11
  Force max component initial, final = 3.19188e-12 3.19188e-12
  Final line search alpha, max atom move = 0 0
  Iterations, force evaluations = 0 0

Pair  time (%) = 0.00229307 (96.1816)
Neigh time (%) = 0 (0)
Comm  time (%) = 3.39219e-05 (1.42284)
Outpt time (%) = 0 (0)
Other time (%) = 5.71132e-05 (2.39558)

Nlocal:    2912 ave 2912 max 2912 min
Histogram: 1 0 0 0 0 0 0 0 0 0
Nghost:    7129 ave 7129 max 7129 min
Histogram: 1 0 0 0 0 0 0 0 0 0
Neighs:    110880 ave 110880 max 110880 min
Histogram: 1 0 0 0 0 0 0 0 0 0

Total # of neighbors = 110880
Ave neighs/atom = 38.0769
Neighbor list builds = 0
Dangerous builds = 0
	# write_dump all atom ${dumpfile}
        next i
jump SELF loop1
        displace_atoms upper move 0.0 ${ystep1} 0.0 units lattice
        displace_atoms upper move 0.0 0.00288675134594812 0.0 units lattice
        min_style ${style}
        min_style hftn
        minimize ${etol} ${ftol} ${maxiter} ${maxeval}
        minimize 1e-12 ${ftol} ${maxiter} ${maxeval}
        minimize 1e-12 1e-08 ${maxiter} ${maxeval}
        minimize 1e-12 1e-08 10000 ${maxeval}
        minimize 1e-12 1e-08 10000 20000
WARNING: Resetting reneighboring criteria during minimization (../min.cpp:168)
Memory usage per processor = 5.28733 Mbytes
Step Temp PotEng Lx Ly Lz 
      16            0    -17279.99     6.928552    75.610374    4.0002014 
Loop time of 0.00240905 on 1 procs for 0 steps with 2912 atoms

Minimization stats:
  Stopping criterion = force tolerance
  Energy initial, next-to-last, final = 
        -17279.9900092     -17279.9900092     -17279.9900092
  Force two-norm initial, final = 9.86801e-11 9.86801e-11
  Force max component initial, final = 3.19188e-12 3.19188e-12
  Final line search alpha, max atom move = 0 0
  Iterations, force evaluations = 0 0

Pair  time (%) = 0.00234691 (97.4206)
Neigh time (%) = 0 (0)
Comm  time (%) = 3.38659e-05 (1.40578)
Outpt time (%) = 0 (0)
Other time (%) = 2.82743e-05 (1.17367)

Nlocal:    2912 ave 2912 max 2912 min
Histogram: 1 0 0 0 0 0 0 0 0 0
Nghost:    7129 ave 7129 max 7129 min
Histogram: 1 0 0 0 0 0 0 0 0 0
Neighs:    110880 ave 110880 max 110880 min
Histogram: 1 0 0 0 0 0 0 0 0 0

Total # of neighbors = 110880
Ave neighs/atom = 38.0769
Neighbor list builds = 0
Dangerous builds = 0
	# write_dump all atom ${dumpfile}
        next i
jump SELF loop1
        displace_atoms upper move 0.0 ${ystep1} 0.0 units lattice
        displace_atoms upper move 0.0 0.00288675134594812 0.0 units lattice
        min_style ${style}
        min_style hftn
        minimize ${etol} ${ftol} ${maxiter} ${maxeval}
        minimize 1e-12 ${ftol} ${maxiter} ${maxeval}
        minimize 1e-12 1e-08 ${maxiter} ${maxeval}
        minimize 1e-12 1e-08 10000 ${maxeval}
        minimize 1e-12 1e-08 10000 20000
WARNING: Resetting reneighboring criteria during minimization (../min.cpp:168)
Memory usage per processor = 5.28733 Mbytes
Step Temp PotEng Lx Ly Lz 
      16            0    -17279.99     6.928552    75.617445    4.0002014 
Loop time of 0.00249603 on 1 procs for 0 steps with 2912 atoms

Minimization stats:
  Stopping criterion = force tolerance
  Energy initial, next-to-last, final = 
        -17279.9900092     -17279.9900092     -17279.9900092
  Force two-norm initial, final = 9.86797e-11 9.86797e-11
  Force max component initial, final = 3.19188e-12 3.19188e-12
  Final line search alpha, max atom move = 0 0
  Iterations, force evaluations = 0 0

Pair  time (%) = 0.00239903 (96.114)
Neigh time (%) = 0 (0)
Comm  time (%) = 4.41547e-05 (1.769)
Outpt time (%) = 0 (0)
Other time (%) = 5.28409e-05 (2.117)

Nlocal:    2912 ave 2912 max 2912 min
Histogram: 1 0 0 0 0 0 0 0 0 0
Nghost:    7129 ave 7129 max 7129 min
Histogram: 1 0 0 0 0 0 0 0 0 0
Neighs:    110880 ave 110880 max 110880 min
Histogram: 1 0 0 0 0 0 0 0 0 0

Total # of neighbors = 110880
Ave neighs/atom = 38.0769
Neighbor list builds = 0
Dangerous builds = 0
	# write_dump all atom ${dumpfile}
        next i
jump SELF loop1
        displace_atoms upper move 0.0 ${ystep1} 0.0 units lattice
        displace_atoms upper move 0.0 0.00288675134594812 0.0 units lattice
        min_style ${style}
        min_style hftn
        minimize ${etol} ${ftol} ${maxiter} ${maxeval}
        minimize 1e-12 ${ftol} ${maxiter} ${maxeval}
        minimize 1e-12 1e-08 ${maxiter} ${maxeval}
        minimize 1e-12 1e-08 10000 ${maxeval}
        minimize 1e-12 1e-08 10000 20000
WARNING: Resetting reneighboring criteria during minimization (../min.cpp:168)
Memory usage per processor = 5.28733 Mbytes
Step Temp PotEng Lx Ly Lz 
      16            0    -17279.99     6.928552    75.624516    4.0002014 
Loop time of 0.00213192 on 1 procs for 0 steps with 2912 atoms

Minimization stats:
  Stopping criterion = force tolerance
  Energy initial, next-to-last, final = 
        -17279.9900092     -17279.9900092     -17279.9900092
  Force two-norm initial, final = 9.868e-11 9.868e-11
  Force max component initial, final = 3.19188e-12 3.19188e-12
  Final line search alpha, max atom move = 0 0
  Iterations, force evaluations = 0 0

Pair  time (%) = 0.00206711 (96.9601)
Neigh time (%) = 0 (0)
Comm  time (%) = 3.39783e-05 (1.59379)
Outpt time (%) = 0 (0)
Other time (%) = 3.08309e-05 (1.44615)

Nlocal:    2912 ave 2912 max 2912 min
Histogram: 1 0 0 0 0 0 0 0 0 0
Nghost:    7129 ave 7129 max 7129 min
Histogram: 1 0 0 0 0 0 0 0 0 0
Neighs:    110880 ave 110880 max 110880 min
Histogram: 1 0 0 0 0 0 0 0 0 0

Total # of neighbors = 110880
Ave neighs/atom = 38.0769
Neighbor list builds = 0
Dangerous builds = 0
	# write_dump all atom ${dumpfile}
        next i
jump SELF loop1

# allow atoms to relax in y-direction, now that two halves have separated
unfix 2
min_style ${style}
min_style hftn
minimize ${etol} ${ftol} ${maxiter} ${maxeval}
minimize 1e-12 ${ftol} ${maxiter} ${maxeval}
minimize 1e-12 1e-08 ${maxiter} ${maxeval}
minimize 1e-12 1e-08 10000 ${maxeval}
minimize 1e-12 1e-08 10000 20000
WARNING: Resetting reneighboring criteria during minimization (../min.cpp:168)
Memory usage per processor = 5.28733 Mbytes
Step Temp PotEng Lx Ly Lz 
      16            0    -17279.99     6.928552    75.624516    4.0002014 
      17            0    -17279.99     6.928552    75.624516    4.0002014 
      18            0    -17279.99     6.928552    75.624516    4.0002014 
      19            0    -17279.99     6.928552    75.624516    4.0002014 
      20            0    -17279.99     6.928552    75.624516    4.0002014 
      21            0    -17279.99     6.928552    75.624516    4.0002014 
      22            0    -17279.99     6.928552    75.624516    4.0002014 
      23            0    -17279.99     6.928552    75.624516    4.0002014 
      24            0    -17279.99     6.928552    75.624516    4.0002014 
      25            0    -17279.99     6.928552    75.624516    4.0002014 
      26            0    -17279.99     6.928552    75.624516    4.0002014 
      27            0    -17279.99     6.928552    75.624516    4.0002014 
      28            0    -17279.99     6.928552    75.624516    4.0002014 
      29            0    -17279.99     6.928552    75.624516    4.0002014 
      30            0    -17279.99     6.928552    75.624516    4.0002014 
      31            0    -17279.99     6.928552    75.624516    4.0002014 
      32            0    -17279.99     6.928552    75.624516    4.0002014 
      33            0    -17279.99     6.928552    75.624516    4.0002014 
      34            0    -17279.99     6.928552    75.624516    4.0002014 
Loop time of 0.497948 on 1 procs for 17 steps with 2912 atoms

Minimization stats:
  Stopping criterion = energy tolerance
  Energy initial, next-to-last, final = 
        -17279.9900092     -17279.9902772     -17279.9903331
  Force two-norm initial, final = 0.148134 0.0651415
  Force max component initial, final = 0.0130933 0.00329485
  Final line search alpha, max atom move = 0 0
  Iterations, force evaluations = 17 180

Pair  time (%) = 0.466298 (93.6439)
Neigh time (%) = 0 (0)
Comm  time (%) = 0.00995409 (1.99902)
Outpt time (%) = 0.00180544 (0.362576)
Other time (%) = 0.0198907 (3.99454)

Nlocal:    2912 ave 2912 max 2912 min
Histogram: 1 0 0 0 0 0 0 0 0 0
Nghost:    7129 ave 7129 max 7129 min
Histogram: 1 0 0 0 0 0 0 0 0 0
Neighs:    110880 ave 110880 max 110880 min
Histogram: 1 0 0 0 0 0 0 0 0 0

Total # of neighbors = 110880
Ave neighs/atom = 38.0769
Neighbor list builds = 0
Dangerous builds = 0

write_dump all atom ${dumpfile}
write_dump all atom surf_V_inter4_3d.*.dump


