LAMMPS (28 Jun 2014)
# attempt at getting surface energy

#file prefix
variable prefix string surf_V_brittle_3d
variable dumpfile string ${prefix}.*.dump
variable dumpfile string surf_V_brittle_3d.*.dump
variable restartfile string ${prefix}.*.equil
variable restartfile string surf_V_brittle_3d.*.equil

#Mass (g/mol)
variable m equal 1.0

# lattice constant (in Angstroms) and orientation of axes (given by lattice vectors)
variable rho equal 1.0
variable x1 equal 1
variable x2 equal 1
variable x3 equal -2
variable y1 equal 1
variable y2 equal 1
variable y3 equal 1
variable z1 equal 1
variable z2 equal -1
variable z3 equal 0
# length of lattice in different directions (using orientation of lattice vectors)
variable ax equal sqrt(${x1}*${x1}+${x2}*${x2}+${x3}*${x3})
variable ax equal sqrt(1*${x1}+${x2}*${x2}+${x3}*${x3})
variable ax equal sqrt(1*1+${x2}*${x2}+${x3}*${x3})
variable ax equal sqrt(1*1+1*${x2}+${x3}*${x3})
variable ax equal sqrt(1*1+1*1+${x3}*${x3})
variable ax equal sqrt(1*1+1*1+-2*${x3})
variable ax equal sqrt(1*1+1*1+-2*-2)
variable ay equal sqrt(${y1}*${y1}+${y2}*${y2}+${y3}*${y3})
variable ay equal sqrt(1*${y1}+${y2}*${y2}+${y3}*${y3})
variable ay equal sqrt(1*1+${y2}*${y2}+${y3}*${y3})
variable ay equal sqrt(1*1+1*${y2}+${y3}*${y3})
variable ay equal sqrt(1*1+1*1+${y3}*${y3})
variable ay equal sqrt(1*1+1*1+1*${y3})
variable ay equal sqrt(1*1+1*1+1*1)
variable az equal sqrt(${z1}*${z1}+${z2}*${z2}+${z3}*${z3})
variable az equal sqrt(1*${z1}+${z2}*${z2}+${z3}*${z3})
variable az equal sqrt(1*1+${z2}*${z2}+${z3}*${z3})
variable az equal sqrt(1*1+-1*${z2}+${z3}*${z3})
variable az equal sqrt(1*1+-1*-1+${z3}*${z3})
variable az equal sqrt(1*1+-1*-1+0*${z3})
variable az equal sqrt(1*1+-1*-1+0*0)

# size of box in lattice units
variable lxpos equal 2
variable lxneg equal 0
variable lypos equal 15
variable lyneg equal -1*${lypos}
variable lyneg equal -1*15
variable lzpos equal 2
variable lzneg equal 0

# boundary conditions
dimension	3
boundary	p s p
atom_style	atomic

# Define minimization parameters and damping
variable etol equal 1.0e-12
variable ftol equal 1.0e-8
variable maxiter equal 10000
variable maxeval equal 20000
variable style string hftn

# create geometry
units		lj
lattice         fcc ${rho} orient x 1 1 -2 orient y 1 1 1 orient z 1 -1 0 spacing ${ax} ${ay} ${az}
lattice         fcc 1 orient x 1 1 -2 orient y 1 1 1 orient z 1 -1 0 spacing ${ax} ${ay} ${az}
lattice         fcc 1 orient x 1 1 -2 orient y 1 1 1 orient z 1 -1 0 spacing 2.44948974278318 ${ay} ${az}
lattice         fcc 1 orient x 1 1 -2 orient y 1 1 1 orient z 1 -1 0 spacing 2.44948974278318 1.73205080756888 ${az}
lattice         fcc 1 orient x 1 1 -2 orient y 1 1 1 orient z 1 -1 0 spacing 2.44948974278318 1.73205080756888 1.4142135623731
Lattice spacing in x,y,z = 3.88832 2.74946 2.24492
region		myregion block ${lxneg} ${lxpos} ${lyneg} ${lypos} ${lzneg} ${lzpos} units lattice
region		myregion block 0 ${lxpos} ${lyneg} ${lypos} ${lzneg} ${lzpos} units lattice
region		myregion block 0 2 ${lyneg} ${lypos} ${lzneg} ${lzpos} units lattice
region		myregion block 0 2 -15 ${lypos} ${lzneg} ${lzpos} units lattice
region		myregion block 0 2 -15 15 ${lzneg} ${lzpos} units lattice
region		myregion block 0 2 -15 15 0 ${lzpos} units lattice
region		myregion block 0 2 -15 15 0 2 units lattice
create_box	1 myregion
Created orthogonal box = (0 -41.2419 0) to (7.77665 41.2419 4.48985)
  1 by 1 by 1 MPI processor grid
create_atoms	1 box
Created 2912 atoms
write_dump all atom init.dump

# define masses
mass * $m
mass * 1

# my fake/morse potential
pair_style      table linear 3001
pair_coeff      * * vpotential_ductile3d dummy
neighbor	0.3 bin
neigh_modify	delay 5

# define groups. Nudge to separate planes cleanly
region	    upper block INF INF 0.01 ${lypos} INF INF units lattice
region	    upper block INF INF 0.01 15 INF INF units lattice
group		upper region upper
1440 atoms in group upper

# Setup output
thermo 1
thermo_style custom step temp pe lx ly lz
thermo_modify norm no

# Compute initial state by relaxing box
fix 3 all box/relax x 0.0
min_style ${style}
min_style hftn
minimize ${etol} ${ftol} ${maxiter} ${maxeval}
minimize 1e-12 ${ftol} ${maxiter} ${maxeval}
minimize 1e-12 1e-08 ${maxiter} ${maxeval}
minimize 1e-12 1e-08 10000 ${maxeval}
minimize 1e-12 1e-08 10000 20000
WARNING: Resetting reneighboring criteria during minimization (../min.cpp:168)
Memory usage per processor = 5.28939 Mbytes
Step Temp PotEng Lx Ly Lz 
       0            0   -17375.986    7.7766452    82.500275    4.4898482 
       1            0   -17375.986    7.7766452    82.500275    4.4898482 
       2            0   -17375.986    7.7766452    82.500275    4.4898482 
       3            0   -17375.986    7.7766452    82.500275    4.4898482 
       4            0   -17375.986    7.7766452    82.500275    4.4898482 
       5            0   -17375.986    7.7766452    82.500275    4.4898482 
       6            0   -17375.986    7.7766452    82.500275    4.4898482 
       7            0   -17375.986    7.7766452    82.500275    4.4898482 
       8            0   -17375.986    7.7766452    82.500275    4.4898482 
       9            0   -17375.986    7.7766452    82.500275    4.4898482 
      10            0   -17375.986    7.7766452    82.500275    4.4898482 
      11            0   -17375.986    7.7766452    82.500275    4.4898482 
      12            0   -17375.986    7.7766452    82.500275    4.4898482 
      13            0   -17375.986    7.7766452    82.500275    4.4898482 
      14            0   -17375.986    7.7766452    82.500275    4.4898482 
      15            0   -17375.986    7.7766452    82.500275    4.4898482 
Loop time of 0.232586 on 1 procs for 14 steps with 2912 atoms

Minimization stats:
  Stopping criterion = trust region too small
  Energy initial, next-to-last, final = 
        -17375.9855515     -17375.9855515     -17375.9855515
  Force two-norm initial, final = 0.840484 0.840484
  Force max component initial, final = 0.840481 0.840481
  Final line search alpha, max atom move = 0 0
  Iterations, force evaluations = 14 88

Pair  time (%) = 0.210356 (90.4421)
Neigh time (%) = 0 (0)
Comm  time (%) = 0.00734437 (3.1577)
Outpt time (%) = 0.00103389 (0.444518)
Other time (%) = 0.0138521 (5.95569)

Nlocal:    2912 ave 2912 max 2912 min
Histogram: 1 0 0 0 0 0 0 0 0 0
Nghost:    7129 ave 7129 max 7129 min
Histogram: 1 0 0 0 0 0 0 0 0 0
Neighs:    77856 ave 77856 max 77856 min
Histogram: 1 0 0 0 0 0 0 0 0 0

Total # of neighbors = 77856
Ave neighs/atom = 26.7363
Neighbor list builds = 0
Dangerous builds = 0
unfix 3

# don't allow atoms to relax in y-direction
fix 2 all setforce NULL 0.0 NULL

# GSF energy curve will have 100*2 steps
variable nsteps equal 300
variable sstep1 equal 1.5
variable ystep1 equal ${sstep1}/(${ay}*${nsteps})
variable ystep1 equal 1.5/(${ay}*${nsteps})
variable ystep1 equal 1.5/(1.73205080756888*${nsteps})
variable ystep1 equal 1.5/(1.73205080756888*300)

variable i loop ${nsteps}
variable i loop 300
label loop1
        displace_atoms upper move 0.0 ${ystep1} 0.0 units lattice
        displace_atoms upper move 0.0 0.00288675134594812 0.0 units lattice
        min_style ${style}
        min_style hftn
        minimize ${etol} ${ftol} ${maxiter} ${maxeval}
        minimize 1e-12 ${ftol} ${maxiter} ${maxeval}
        minimize 1e-12 1e-08 ${maxiter} ${maxeval}
        minimize 1e-12 1e-08 10000 ${maxeval}
        minimize 1e-12 1e-08 10000 20000
WARNING: Resetting reneighboring criteria during minimization (../min.cpp:168)
Memory usage per processor = 5.28939 Mbytes
Step Temp PotEng Lx Ly Lz 
      15            0   -17375.822    7.7766452    82.508212    4.4898482 
Loop time of 0.00197909 on 1 procs for 0 steps with 2912 atoms

Minimization stats:
  Stopping criterion = force tolerance
  Energy initial, next-to-last, final = 
        -17375.8217205     -17375.8217205     -17375.8217205
  Force two-norm initial, final = 8.51156e-11 8.51156e-11
  Force max component initial, final = 2.7994e-12 2.7994e-12
  Final line search alpha, max atom move = 0 0
  Iterations, force evaluations = 0 0

Pair  time (%) = 0.001897 (95.8519)
Neigh time (%) = 0 (0)
Comm  time (%) = 3.29772e-05 (1.66628)
Outpt time (%) = 0 (0)
Other time (%) = 4.91167e-05 (2.48178)

Nlocal:    2912 ave 2912 max 2912 min
Histogram: 1 0 0 0 0 0 0 0 0 0
Nghost:    7129 ave 7129 max 7129 min
Histogram: 1 0 0 0 0 0 0 0 0 0
Neighs:    77856 ave 77856 max 77856 min
Histogram: 1 0 0 0 0 0 0 0 0 0

Total # of neighbors = 77856
Ave neighs/atom = 26.7363
Neighbor list builds = 0
Dangerous builds = 0
	# write_dump all atom ${dumpfile}
        next i
jump SELF loop1
        displace_atoms upper move 0.0 ${ystep1} 0.0 units lattice
        displace_atoms upper move 0.0 0.00288675134594812 0.0 units lattice
        min_style ${style}
        min_style hftn
        minimize ${etol} ${ftol} ${maxiter} ${maxeval}
        minimize 1e-12 ${ftol} ${maxiter} ${maxeval}
        minimize 1e-12 1e-08 ${maxiter} ${maxeval}
        minimize 1e-12 1e-08 10000 ${maxeval}
        minimize 1e-12 1e-08 10000 20000
WARNING: Resetting reneighboring criteria during minimization (../min.cpp:168)
Memory usage per processor = 5.28939 Mbytes
Step Temp PotEng Lx Ly Lz 
      15            0   -17375.355    7.7766452    82.516149    4.4898482 
Loop time of 0.00528307 on 1 procs for 0 steps with 2912 atoms

Minimization stats:
  Stopping criterion = force tolerance
  Energy initial, next-to-last, final = 
        -17375.3554661     -17375.3554661     -17375.3554661
  Force two-norm initial, final = 8.50972e-11 8.50972e-11
  Force max component initial, final = 2.7994e-12 2.7994e-12
  Final line search alpha, max atom move = 0 0
  Iterations, force evaluations = 0 0

Pair  time (%) = 0.00521793 (98.767)
Neigh time (%) = 0 (0)
Comm  time (%) = 3.49082e-05 (0.660756)
Outpt time (%) = 0 (0)
Other time (%) = 3.0232e-05 (0.572243)

Nlocal:    2912 ave 2912 max 2912 min
Histogram: 1 0 0 0 0 0 0 0 0 0
Nghost:    7129 ave 7129 max 7129 min
Histogram: 1 0 0 0 0 0 0 0 0 0
Neighs:    77856 ave 77856 max 77856 min
Histogram: 1 0 0 0 0 0 0 0 0 0

Total # of neighbors = 77856
Ave neighs/atom = 26.7363
Neighbor list builds = 0
Dangerous builds = 0
	# write_dump all atom ${dumpfile}
        next i
jump SELF loop1
        displace_atoms upper move 0.0 ${ystep1} 0.0 units lattice
        displace_atoms upper move 0.0 0.00288675134594812 0.0 units lattice
        min_style ${style}
        min_style hftn
        minimize ${etol} ${ftol} ${maxiter} ${maxeval}
        minimize 1e-12 ${ftol} ${maxiter} ${maxeval}
        minimize 1e-12 1e-08 ${maxiter} ${maxeval}
        minimize 1e-12 1e-08 10000 ${maxeval}
        minimize 1e-12 1e-08 10000 20000
WARNING: Resetting reneighboring criteria during minimization (../min.cpp:168)
Memory usage per processor = 5.28939 Mbytes
Step Temp PotEng Lx Ly Lz 
      15            0   -17374.622    7.7766452    82.524086    4.4898482 
Loop time of 0.00237899 on 1 procs for 0 steps with 2912 atoms

Minimization stats:
  Stopping criterion = force tolerance
  Energy initial, next-to-last, final = 
        -17374.6218503     -17374.6218503     -17374.6218503
  Force two-norm initial, final = 8.50788e-11 8.50788e-11
  Force max component initial, final = 2.7994e-12 2.7994e-12
  Final line search alpha, max atom move = 0 0
  Iterations, force evaluations = 0 0

Pair  time (%) = 0.00230499 (96.8894)
Neigh time (%) = 0 (0)
Comm  time (%) = 3.79455e-05 (1.59503)
Outpt time (%) = 0 (0)
Other time (%) = 3.60546e-05 (1.51555)

Nlocal:    2912 ave 2912 max 2912 min
Histogram: 1 0 0 0 0 0 0 0 0 0
Nghost:    7129 ave 7129 max 7129 min
Histogram: 1 0 0 0 0 0 0 0 0 0
Neighs:    77856 ave 77856 max 77856 min
Histogram: 1 0 0 0 0 0 0 0 0 0

Total # of neighbors = 77856
Ave neighs/atom = 26.7363
Neighbor list builds = 0
Dangerous builds = 0
	# write_dump all atom ${dumpfile}
        next i
jump SELF loop1
        displace_atoms upper move 0.0 ${ystep1} 0.0 units lattice
        displace_atoms upper move 0.0 0.00288675134594812 0.0 units lattice
        min_style ${style}
        min_style hftn
        minimize ${etol} ${ftol} ${maxiter} ${maxeval}
        minimize 1e-12 ${ftol} ${maxiter} ${maxeval}
        minimize 1e-12 1e-08 ${maxiter} ${maxeval}
        minimize 1e-12 1e-08 10000 ${maxeval}
        minimize 1e-12 1e-08 10000 20000
WARNING: Resetting reneighboring criteria during minimization (../min.cpp:168)
Memory usage per processor = 5.28939 Mbytes
Step Temp PotEng Lx Ly Lz 
      15            0   -17373.653    7.7766452    82.532023    4.4898482 
Loop time of 0.00274998 on 1 procs for 0 steps with 2912 atoms

Minimization stats:
  Stopping criterion = force tolerance
  Energy initial, next-to-last, final = 
        -17373.6531956     -17373.6531956     -17373.6531956
  Force two-norm initial, final = 8.50672e-11 8.50672e-11
  Force max component initial, final = 2.7994e-12 2.7994e-12
  Final line search alpha, max atom move = 0 0
  Iterations, force evaluations = 0 0

Pair  time (%) = 0.00265693 (96.6162)
Neigh time (%) = 0 (0)
Comm  time (%) = 4.90554e-05 (1.78384)
Outpt time (%) = 0 (0)
Other time (%) = 4.39989e-05 (1.59997)

Nlocal:    2912 ave 2912 max 2912 min
Histogram: 1 0 0 0 0 0 0 0 0 0
Nghost:    7129 ave 7129 max 7129 min
Histogram: 1 0 0 0 0 0 0 0 0 0
Neighs:    77856 ave 77856 max 77856 min
Histogram: 1 0 0 0 0 0 0 0 0 0

Total # of neighbors = 77856
Ave neighs/atom = 26.7363
Neighbor list builds = 0
Dangerous builds = 0
	# write_dump all atom ${dumpfile}
        next i
jump SELF loop1
        displace_atoms upper move 0.0 ${ystep1} 0.0 units lattice
        displace_atoms upper move 0.0 0.00288675134594812 0.0 units lattice
        min_style ${style}
        min_style hftn
        minimize ${etol} ${ftol} ${maxiter} ${maxeval}
        minimize 1e-12 ${ftol} ${maxiter} ${maxeval}
        minimize 1e-12 1e-08 ${maxiter} ${maxeval}
        minimize 1e-12 1e-08 10000 ${maxeval}
        minimize 1e-12 1e-08 10000 20000
WARNING: Resetting reneighboring criteria during minimization (../min.cpp:168)
Memory usage per processor = 5.28939 Mbytes
Step Temp PotEng Lx Ly Lz 
      15            0   -17372.479    7.7766452     82.53996    4.4898482 
Loop time of 0.00249212 on 1 procs for 0 steps with 2912 atoms

Minimization stats:
  Stopping criterion = force tolerance
  Energy initial, next-to-last, final = 
        -17372.4792093     -17372.4792093     -17372.4792093
  Force two-norm initial, final = 8.50557e-11 8.50557e-11
  Force max component initial, final = 2.7994e-12 2.7994e-12
  Final line search alpha, max atom move = 0 0
  Iterations, force evaluations = 0 0

Pair  time (%) = 0.00240202 (96.3848)
Neigh time (%) = 0 (0)
Comm  time (%) = 4.8059e-05 (1.92844)
Outpt time (%) = 0 (0)
Other time (%) = 4.20349e-05 (1.68671)

Nlocal:    2912 ave 2912 max 2912 min
Histogram: 1 0 0 0 0 0 0 0 0 0
Nghost:    7129 ave 7129 max 7129 min
Histogram: 1 0 0 0 0 0 0 0 0 0
Neighs:    77856 ave 77856 max 77856 min
Histogram: 1 0 0 0 0 0 0 0 0 0

Total # of neighbors = 77856
Ave neighs/atom = 26.7363
Neighbor list builds = 0
Dangerous builds = 0
	# write_dump all atom ${dumpfile}
        next i
jump SELF loop1
        displace_atoms upper move 0.0 ${ystep1} 0.0 units lattice
        displace_atoms upper move 0.0 0.00288675134594812 0.0 units lattice
        min_style ${style}
        min_style hftn
        minimize ${etol} ${ftol} ${maxiter} ${maxeval}
        minimize 1e-12 ${ftol} ${maxiter} ${maxeval}
        minimize 1e-12 1e-08 ${maxiter} ${maxeval}
        minimize 1e-12 1e-08 10000 ${maxeval}
        minimize 1e-12 1e-08 10000 20000
WARNING: Resetting reneighboring criteria during minimization (../min.cpp:168)
Memory usage per processor = 5.28939 Mbytes
Step Temp PotEng Lx Ly Lz 
      15            0   -17371.127    7.7766452    82.547897    4.4898482 
Loop time of 0.00192391 on 1 procs for 0 steps with 2912 atoms

Minimization stats:
  Stopping criterion = force tolerance
  Energy initial, next-to-last, final = 
        -17371.1267864     -17371.1267864     -17371.1267864
  Force two-norm initial, final = 8.5043e-11 8.5043e-11
  Force max component initial, final = 2.7994e-12 2.7994e-12
  Final line search alpha, max atom move = 0 0
  Iterations, force evaluations = 0 0

Pair  time (%) = 0.00185791 (96.5694)
Neigh time (%) = 0 (0)
Comm  time (%) = 3.48618e-05 (1.81203)
Outpt time (%) = 0 (0)
Other time (%) = 3.11394e-05 (1.61854)

Nlocal:    2912 ave 2912 max 2912 min
Histogram: 1 0 0 0 0 0 0 0 0 0
Nghost:    7129 ave 7129 max 7129 min
Histogram: 1 0 0 0 0 0 0 0 0 0
Neighs:    77856 ave 77856 max 77856 min
Histogram: 1 0 0 0 0 0 0 0 0 0

Total # of neighbors = 77856
Ave neighs/atom = 26.7363
Neighbor list builds = 0
Dangerous builds = 0
	# write_dump all atom ${dumpfile}
        next i
jump SELF loop1
        displace_atoms upper move 0.0 ${ystep1} 0.0 units lattice
        displace_atoms upper move 0.0 0.00288675134594812 0.0 units lattice
        min_style ${style}
        min_style hftn
        minimize ${etol} ${ftol} ${maxiter} ${maxeval}
        minimize 1e-12 ${ftol} ${maxiter} ${maxeval}
        minimize 1e-12 1e-08 ${maxiter} ${maxeval}
        minimize 1e-12 1e-08 10000 ${maxeval}
        minimize 1e-12 1e-08 10000 20000
WARNING: Resetting reneighboring criteria during minimization (../min.cpp:168)
Memory usage per processor = 5.28939 Mbytes
Step Temp PotEng Lx Ly Lz 
      15            0    -17369.62    7.7766452    82.555834    4.4898482 
Loop time of 0.002018 on 1 procs for 0 steps with 2912 atoms

Minimization stats:
  Stopping criterion = force tolerance
  Energy initial, next-to-last, final = 
        -17369.6203127     -17369.6203127     -17369.6203127
  Force two-norm initial, final = 8.50351e-11 8.50351e-11
  Force max component initial, final = 2.7994e-12 2.7994e-12
  Final line search alpha, max atom move = 0 0
  Iterations, force evaluations = 0 0

Pair  time (%) = 0.001987 (98.4638)
Neigh time (%) = 0 (0)
Comm  time (%) = 1.90121e-05 (0.942129)
Outpt time (%) = 0 (0)
Other time (%) = 1.19879e-05 (0.594048)

Nlocal:    2912 ave 2912 max 2912 min
Histogram: 1 0 0 0 0 0 0 0 0 0
Nghost:    7129 ave 7129 max 7129 min
Histogram: 1 0 0 0 0 0 0 0 0 0
Neighs:    77856 ave 77856 max 77856 min
Histogram: 1 0 0 0 0 0 0 0 0 0

Total # of neighbors = 77856
Ave neighs/atom = 26.7363
Neighbor list builds = 0
Dangerous builds = 0
	# write_dump all atom ${dumpfile}
        next i
jump SELF loop1
        displace_atoms upper move 0.0 ${ystep1} 0.0 units lattice
        displace_atoms upper move 0.0 0.00288675134594812 0.0 units lattice
        min_style ${style}
        min_style hftn
        minimize ${etol} ${ftol} ${maxiter} ${maxeval}
        minimize 1e-12 ${ftol} ${maxiter} ${maxeval}
        minimize 1e-12 1e-08 ${maxiter} ${maxeval}
        minimize 1e-12 1e-08 10000 ${maxeval}
        minimize 1e-12 1e-08 10000 20000
WARNING: Resetting reneighboring criteria during minimization (../min.cpp:168)
Memory usage per processor = 5.28939 Mbytes
Step Temp PotEng Lx Ly Lz 
      15            0   -17367.982    7.7766452    82.563771    4.4898482 
Loop time of 0.00225491 on 1 procs for 0 steps with 2912 atoms

Minimization stats:
  Stopping criterion = force tolerance
  Energy initial, next-to-last, final = 
        -17367.9823934     -17367.9823934     -17367.9823934
  Force two-norm initial, final = 8.50252e-11 8.50252e-11
  Force max component initial, final = 2.7994e-12 2.7994e-12
  Final line search alpha, max atom move = 0 0
  Iterations, force evaluations = 0 0

Pair  time (%) = 0.0021819 (96.7623)
Neigh time (%) = 0 (0)
Comm  time (%) = 4.07955e-05 (1.80919)
Outpt time (%) = 0 (0)
Other time (%) = 3.22125e-05 (1.42855)

Nlocal:    2912 ave 2912 max 2912 min
Histogram: 1 0 0 0 0 0 0 0 0 0
Nghost:    7129 ave 7129 max 7129 min
Histogram: 1 0 0 0 0 0 0 0 0 0
Neighs:    77856 ave 77856 max 77856 min
Histogram: 1 0 0 0 0 0 0 0 0 0

Total # of neighbors = 77856
Ave neighs/atom = 26.7363
Neighbor list builds = 0
Dangerous builds = 0
	# write_dump all atom ${dumpfile}
        next i
jump SELF loop1
        displace_atoms upper move 0.0 ${ystep1} 0.0 units lattice
        displace_atoms upper move 0.0 0.00288675134594812 0.0 units lattice
        min_style ${style}
        min_style hftn
        minimize ${etol} ${ftol} ${maxiter} ${maxeval}
        minimize 1e-12 ${ftol} ${maxiter} ${maxeval}
        minimize 1e-12 1e-08 ${maxiter} ${maxeval}
        minimize 1e-12 1e-08 10000 ${maxeval}
        minimize 1e-12 1e-08 10000 20000
WARNING: Resetting reneighboring criteria during minimization (../min.cpp:168)
Memory usage per processor = 5.28939 Mbytes
Step Temp PotEng Lx Ly Lz 
      15            0   -17366.239    7.7766452    82.571708    4.4898482 
Loop time of 0.00184295 on 1 procs for 0 steps with 2912 atoms

Minimization stats:
  Stopping criterion = force tolerance
  Energy initial, next-to-last, final = 
        -17366.2388654     -17366.2388654     -17366.2388654
  Force two-norm initial, final = 8.49951e-11 8.49951e-11
  Force max component initial, final = 2.7994e-12 2.7994e-12
  Final line search alpha, max atom move = 0 0
  Iterations, force evaluations = 0 0

Pair  time (%) = 0.0017781 (96.4809)
Neigh time (%) = 0 (0)
Comm  time (%) = 3.3915e-05 (1.84025)
Outpt time (%) = 0 (0)
Other time (%) = 3.09404e-05 (1.67885)

Nlocal:    2912 ave 2912 max 2912 min
Histogram: 1 0 0 0 0 0 0 0 0 0
Nghost:    7129 ave 7129 max 7129 min
Histogram: 1 0 0 0 0 0 0 0 0 0
Neighs:    77664 ave 77664 max 77664 min
Histogram: 1 0 0 0 0 0 0 0 0 0

Total # of neighbors = 77664
Ave neighs/atom = 26.6703
Neighbor list builds = 0
Dangerous builds = 0
	# write_dump all atom ${dumpfile}
        next i
jump SELF loop1
        displace_atoms upper move 0.0 ${ystep1} 0.0 units lattice
        displace_atoms upper move 0.0 0.00288675134594812 0.0 units lattice
        min_style ${style}
        min_style hftn
        minimize ${etol} ${ftol} ${maxiter} ${maxeval}
        minimize 1e-12 ${ftol} ${maxiter} ${maxeval}
        minimize 1e-12 1e-08 ${maxiter} ${maxeval}
        minimize 1e-12 1e-08 10000 ${maxeval}
        minimize 1e-12 1e-08 10000 20000
WARNING: Resetting reneighboring criteria during minimization (../min.cpp:168)
Memory usage per processor = 5.28939 Mbytes
Step Temp PotEng Lx Ly Lz 
      15            0   -17364.446    7.7766452    82.579645    4.4898482 
Loop time of 0.0045081 on 1 procs for 0 steps with 2912 atoms

Minimization stats:
  Stopping criterion = force tolerance
  Energy initial, next-to-last, final = 
        -17364.4455161     -17364.4455161     -17364.4455161
  Force two-norm initial, final = 8.49953e-11 8.49953e-11
  Force max component initial, final = 2.7994e-12 2.7994e-12
  Final line search alpha, max atom move = 0 0
  Iterations, force evaluations = 0 0

Pair  time (%) = 0.00442896 (98.2445)
Neigh time (%) = 0 (0)
Comm  time (%) = 4.91398e-05 (1.09003)
Outpt time (%) = 0 (0)
Other time (%) = 3.00003e-05 (0.665476)

Nlocal:    2912 ave 2912 max 2912 min
Histogram: 1 0 0 0 0 0 0 0 0 0
Nghost:    7129 ave 7129 max 7129 min
Histogram: 1 0 0 0 0 0 0 0 0 0
Neighs:    77664 ave 77664 max 77664 min
Histogram: 1 0 0 0 0 0 0 0 0 0

Total # of neighbors = 77664
Ave neighs/atom = 26.6703
Neighbor list builds = 0
Dangerous builds = 0
	# write_dump all atom ${dumpfile}
        next i
jump SELF loop1
        displace_atoms upper move 0.0 ${ystep1} 0.0 units lattice
        displace_atoms upper move 0.0 0.00288675134594812 0.0 units lattice
        min_style ${style}
        min_style hftn
        minimize ${etol} ${ftol} ${maxiter} ${maxeval}
        minimize 1e-12 ${ftol} ${maxiter} ${maxeval}
        minimize 1e-12 1e-08 ${maxiter} ${maxeval}
        minimize 1e-12 1e-08 10000 ${maxeval}
        minimize 1e-12 1e-08 10000 20000
WARNING: Resetting reneighboring criteria during minimization (../min.cpp:168)
Memory usage per processor = 5.28939 Mbytes
Step Temp PotEng Lx Ly Lz 
      15            0   -17362.614    7.7766452    82.587582    4.4898482 
Loop time of 0.00213303 on 1 procs for 0 steps with 2912 atoms

Minimization stats:
  Stopping criterion = force tolerance
  Energy initial, next-to-last, final = 
        -17362.6144562     -17362.6144562     -17362.6144562
  Force two-norm initial, final = 8.49949e-11 8.49949e-11
  Force max component initial, final = 2.7994e-12 2.7994e-12
  Final line search alpha, max atom move = 0 0
  Iterations, force evaluations = 0 0

Pair  time (%) = 0.00206989 (97.0399)
Neigh time (%) = 0 (0)
Comm  time (%) = 3.29633e-05 (1.54537)
Outpt time (%) = 0 (0)
Other time (%) = 3.01768e-05 (1.41474)

Nlocal:    2912 ave 2912 max 2912 min
Histogram: 1 0 0 0 0 0 0 0 0 0
Nghost:    7129 ave 7129 max 7129 min
Histogram: 1 0 0 0 0 0 0 0 0 0
Neighs:    77664 ave 77664 max 77664 min
Histogram: 1 0 0 0 0 0 0 0 0 0

Total # of neighbors = 77664
Ave neighs/atom = 26.6703
Neighbor list builds = 0
Dangerous builds = 0
	# write_dump all atom ${dumpfile}
        next i
jump SELF loop1
        displace_atoms upper move 0.0 ${ystep1} 0.0 units lattice
        displace_atoms upper move 0.0 0.00288675134594812 0.0 units lattice
        min_style ${style}
        min_style hftn
        minimize ${etol} ${ftol} ${maxiter} ${maxeval}
        minimize 1e-12 ${ftol} ${maxiter} ${maxeval}
        minimize 1e-12 1e-08 ${maxiter} ${maxeval}
        minimize 1e-12 1e-08 10000 ${maxeval}
        minimize 1e-12 1e-08 10000 20000
WARNING: Resetting reneighboring criteria during minimization (../min.cpp:168)
Memory usage per processor = 5.28939 Mbytes
Step Temp PotEng Lx Ly Lz 
      15            0   -17360.748    7.7766452    82.595519    4.4898482 
Loop time of 0.0017379 on 1 procs for 0 steps with 2912 atoms

Minimization stats:
  Stopping criterion = force tolerance
  Energy initial, next-to-last, final = 
        -17360.7479384     -17360.7479384     -17360.7479384
  Force two-norm initial, final = 8.4993e-11 8.4993e-11
  Force max component initial, final = 2.7994e-12 2.7994e-12
  Final line search alpha, max atom move = 0 0
  Iterations, force evaluations = 0 0

Pair  time (%) = 0.00167695 (96.493)
Neigh time (%) = 0 (0)
Comm  time (%) = 3.39389e-05 (1.95287)
Outpt time (%) = 0 (0)
Other time (%) = 2.70092e-05 (1.55413)

Nlocal:    2912 ave 2912 max 2912 min
Histogram: 1 0 0 0 0 0 0 0 0 0
Nghost:    7129 ave 7129 max 7129 min
Histogram: 1 0 0 0 0 0 0 0 0 0
Neighs:    77664 ave 77664 max 77664 min
Histogram: 1 0 0 0 0 0 0 0 0 0

Total # of neighbors = 77664
Ave neighs/atom = 26.6703
Neighbor list builds = 0
Dangerous builds = 0
	# write_dump all atom ${dumpfile}
        next i
jump SELF loop1
        displace_atoms upper move 0.0 ${ystep1} 0.0 units lattice
        displace_atoms upper move 0.0 0.00288675134594812 0.0 units lattice
        min_style ${style}
        min_style hftn
        minimize ${etol} ${ftol} ${maxiter} ${maxeval}
        minimize 1e-12 ${ftol} ${maxiter} ${maxeval}
        minimize 1e-12 1e-08 ${maxiter} ${maxeval}
        minimize 1e-12 1e-08 10000 ${maxeval}
        minimize 1e-12 1e-08 10000 20000
WARNING: Resetting reneighboring criteria during minimization (../min.cpp:168)
Memory usage per processor = 5.28939 Mbytes
Step Temp PotEng Lx Ly Lz 
      15            0   -17358.848    7.7766452    82.603456    4.4898482 
Loop time of 0.00205504 on 1 procs for 0 steps with 2912 atoms

Minimization stats:
  Stopping criterion = force tolerance
  Energy initial, next-to-last, final = 
        -17358.8482528     -17358.8482528     -17358.8482528
  Force two-norm initial, final = 8.49927e-11 8.49927e-11
  Force max component initial, final = 2.7994e-12 2.7994e-12
  Final line search alpha, max atom move = 0 0
  Iterations, force evaluations = 0 0

Pair  time (%) = 0.00199 (96.8347)
Neigh time (%) = 0 (0)
Comm  time (%) = 3.49469e-05 (1.70055)
Outpt time (%) = 0 (0)
Other time (%) = 3.01006e-05 (1.46472)

Nlocal:    2912 ave 2912 max 2912 min
Histogram: 1 0 0 0 0 0 0 0 0 0
Nghost:    7129 ave 7129 max 7129 min
Histogram: 1 0 0 0 0 0 0 0 0 0
Neighs:    77664 ave 77664 max 77664 min
Histogram: 1 0 0 0 0 0 0 0 0 0

Total # of neighbors = 77664
Ave neighs/atom = 26.6703
Neighbor list builds = 0
Dangerous builds = 0
	# write_dump all atom ${dumpfile}
        next i
jump SELF loop1
        displace_atoms upper move 0.0 ${ystep1} 0.0 units lattice
        displace_atoms upper move 0.0 0.00288675134594812 0.0 units lattice
        min_style ${style}
        min_style hftn
        minimize ${etol} ${ftol} ${maxiter} ${maxeval}
        minimize 1e-12 ${ftol} ${maxiter} ${maxeval}
        minimize 1e-12 1e-08 ${maxiter} ${maxeval}
        minimize 1e-12 1e-08 10000 ${maxeval}
        minimize 1e-12 1e-08 10000 20000
WARNING: Resetting reneighboring criteria during minimization (../min.cpp:168)
Memory usage per processor = 5.28939 Mbytes
Step Temp PotEng Lx Ly Lz 
      15            0   -17356.918    7.7766452    82.611393    4.4898482 
Loop time of 0.00224196 on 1 procs for 0 steps with 2912 atoms

Minimization stats:
  Stopping criterion = force tolerance
  Energy initial, next-to-last, final = 
        -17356.9177303     -17356.9177303     -17356.9177303
  Force two-norm initial, final = 8.49924e-11 8.49924e-11
  Force max component initial, final = 2.7994e-12 2.7994e-12
  Final line search alpha, max atom move = 0 0
  Iterations, force evaluations = 0 0

Pair  time (%) = 0.00217691 (97.0986)
Neigh time (%) = 0 (0)
Comm  time (%) = 3.48634e-05 (1.55504)
Outpt time (%) = 0 (0)
Other time (%) = 3.01842e-05 (1.34633)

Nlocal:    2912 ave 2912 max 2912 min
Histogram: 1 0 0 0 0 0 0 0 0 0
Nghost:    7129 ave 7129 max 7129 min
Histogram: 1 0 0 0 0 0 0 0 0 0
Neighs:    77664 ave 77664 max 77664 min
Histogram: 1 0 0 0 0 0 0 0 0 0

Total # of neighbors = 77664
Ave neighs/atom = 26.6703
Neighbor list builds = 0
Dangerous builds = 0
	# write_dump all atom ${dumpfile}
        next i
jump SELF loop1
        displace_atoms upper move 0.0 ${ystep1} 0.0 units lattice
        displace_atoms upper move 0.0 0.00288675134594812 0.0 units lattice
        min_style ${style}
        min_style hftn
        minimize ${etol} ${ftol} ${maxiter} ${maxeval}
        minimize 1e-12 ${ftol} ${maxiter} ${maxeval}
        minimize 1e-12 1e-08 ${maxiter} ${maxeval}
        minimize 1e-12 1e-08 10000 ${maxeval}
        minimize 1e-12 1e-08 10000 20000
WARNING: Resetting reneighboring criteria during minimization (../min.cpp:168)
Memory usage per processor = 5.28939 Mbytes
Step Temp PotEng Lx Ly Lz 
      15            0   -17354.959    7.7766452     82.61933    4.4898482 
Loop time of 0.0035401 on 1 procs for 0 steps with 2912 atoms

Minimization stats:
  Stopping criterion = force tolerance
  Energy initial, next-to-last, final = 
        -17354.9587187     -17354.9587187     -17354.9587187
  Force two-norm initial, final = 8.49904e-11 8.49904e-11
  Force max component initial, final = 2.7994e-12 2.7994e-12
  Final line search alpha, max atom move = 0 0
  Iterations, force evaluations = 0 0

Pair  time (%) = 0.00346494 (97.8771)
Neigh time (%) = 0 (0)
Comm  time (%) = 3.50294e-05 (0.989503)
Outpt time (%) = 0 (0)
Other time (%) = 4.01244e-05 (1.13343)

Nlocal:    2912 ave 2912 max 2912 min
Histogram: 1 0 0 0 0 0 0 0 0 0
Nghost:    7129 ave 7129 max 7129 min
Histogram: 1 0 0 0 0 0 0 0 0 0
Neighs:    77664 ave 77664 max 77664 min
Histogram: 1 0 0 0 0 0 0 0 0 0

Total # of neighbors = 77664
Ave neighs/atom = 26.6703
Neighbor list builds = 0
Dangerous builds = 0
	# write_dump all atom ${dumpfile}
        next i
jump SELF loop1
        displace_atoms upper move 0.0 ${ystep1} 0.0 units lattice
        displace_atoms upper move 0.0 0.00288675134594812 0.0 units lattice
        min_style ${style}
        min_style hftn
        minimize ${etol} ${ftol} ${maxiter} ${maxeval}
        minimize 1e-12 ${ftol} ${maxiter} ${maxeval}
        minimize 1e-12 1e-08 ${maxiter} ${maxeval}
        minimize 1e-12 1e-08 10000 ${maxeval}
        minimize 1e-12 1e-08 10000 20000
WARNING: Resetting reneighboring criteria during minimization (../min.cpp:168)
Memory usage per processor = 5.28939 Mbytes
Step Temp PotEng Lx Ly Lz 
      15            0   -17352.974    7.7766452    82.627267    4.4898482 
Loop time of 0.0018601 on 1 procs for 0 steps with 2912 atoms

Minimization stats:
  Stopping criterion = force tolerance
  Energy initial, next-to-last, final = 
        -17352.9736362     -17352.9736362     -17352.9736362
  Force two-norm initial, final = 8.49902e-11 8.49902e-11
  Force max component initial, final = 2.7994e-12 2.7994e-12
  Final line search alpha, max atom move = 0 0
  Iterations, force evaluations = 0 0

Pair  time (%) = 0.001795 (96.5005)
Neigh time (%) = 0 (0)
Comm  time (%) = 3.40295e-05 (1.82945)
Outpt time (%) = 0 (0)
Other time (%) = 3.10644e-05 (1.67004)

Nlocal:    2912 ave 2912 max 2912 min
Histogram: 1 0 0 0 0 0 0 0 0 0
Nghost:    7129 ave 7129 max 7129 min
Histogram: 1 0 0 0 0 0 0 0 0 0
Neighs:    77664 ave 77664 max 77664 min
Histogram: 1 0 0 0 0 0 0 0 0 0

Total # of neighbors = 77664
Ave neighs/atom = 26.6703
Neighbor list builds = 0
Dangerous builds = 0
	# write_dump all atom ${dumpfile}
        next i
jump SELF loop1
        displace_atoms upper move 0.0 ${ystep1} 0.0 units lattice
        displace_atoms upper move 0.0 0.00288675134594812 0.0 units lattice
        min_style ${style}
        min_style hftn
        minimize ${etol} ${ftol} ${maxiter} ${maxeval}
        minimize 1e-12 ${ftol} ${maxiter} ${maxeval}
        minimize 1e-12 1e-08 ${maxiter} ${maxeval}
        minimize 1e-12 1e-08 10000 ${maxeval}
        minimize 1e-12 1e-08 10000 20000
WARNING: Resetting reneighboring criteria during minimization (../min.cpp:168)
Memory usage per processor = 5.28939 Mbytes
Step Temp PotEng Lx Ly Lz 
      15            0   -17350.965    7.7766452    82.635204    4.4898482 
Loop time of 0.00389398 on 1 procs for 0 steps with 2912 atoms

Minimization stats:
  Stopping criterion = force tolerance
  Energy initial, next-to-last, final = 
        -17350.9649144     -17350.9649144     -17350.9649144
  Force two-norm initial, final = 8.49898e-11 8.49898e-11
  Force max component initial, final = 2.7994e-12 2.7994e-12
  Final line search alpha, max atom move = 0 0
  Iterations, force evaluations = 0 0

Pair  time (%) = 0.00383508 (98.4874)
Neigh time (%) = 0 (0)
Comm  time (%) = 4.10368e-05 (1.05385)
Outpt time (%) = 0 (0)
Other time (%) = 1.7865e-05 (0.458784)

Nlocal:    2912 ave 2912 max 2912 min
Histogram: 1 0 0 0 0 0 0 0 0 0
Nghost:    7129 ave 7129 max 7129 min
Histogram: 1 0 0 0 0 0 0 0 0 0
Neighs:    77664 ave 77664 max 77664 min
Histogram: 1 0 0 0 0 0 0 0 0 0

Total # of neighbors = 77664
Ave neighs/atom = 26.6703
Neighbor list builds = 0
Dangerous builds = 0
	# write_dump all atom ${dumpfile}
        next i
jump SELF loop1
        displace_atoms upper move 0.0 ${ystep1} 0.0 units lattice
        displace_atoms upper move 0.0 0.00288675134594812 0.0 units lattice
        min_style ${style}
        min_style hftn
        minimize ${etol} ${ftol} ${maxiter} ${maxeval}
        minimize 1e-12 ${ftol} ${maxiter} ${maxeval}
        minimize 1e-12 1e-08 ${maxiter} ${maxeval}
        minimize 1e-12 1e-08 10000 ${maxeval}
        minimize 1e-12 1e-08 10000 20000
WARNING: Resetting reneighboring criteria during minimization (../min.cpp:168)
Memory usage per processor = 5.28939 Mbytes
Step Temp PotEng Lx Ly Lz 
      15            0   -17348.935    7.7766452    82.643141    4.4898482 
Loop time of 0.00203593 on 1 procs for 0 steps with 2912 atoms

Minimization stats:
  Stopping criterion = force tolerance
  Energy initial, next-to-last, final = 
        -17348.9350079     -17348.9350079     -17348.9350079
  Force two-norm initial, final = 8.49878e-11 8.49878e-11
  Force max component initial, final = 2.7994e-12 2.7994e-12
  Final line search alpha, max atom move = 0 0
  Iterations, force evaluations = 0 0

Pair  time (%) = 0.00197398 (96.9573)
Neigh time (%) = 0 (0)
Comm  time (%) = 3.41776e-05 (1.67872)
Outpt time (%) = 0 (0)
Other time (%) = 2.77705e-05 (1.36402)

Nlocal:    2912 ave 2912 max 2912 min
Histogram: 1 0 0 0 0 0 0 0 0 0
Nghost:    7129 ave 7129 max 7129 min
Histogram: 1 0 0 0 0 0 0 0 0 0
Neighs:    77664 ave 77664 max 77664 min
Histogram: 1 0 0 0 0 0 0 0 0 0

Total # of neighbors = 77664
Ave neighs/atom = 26.6703
Neighbor list builds = 0
Dangerous builds = 0
	# write_dump all atom ${dumpfile}
        next i
jump SELF loop1
        displace_atoms upper move 0.0 ${ystep1} 0.0 units lattice
        displace_atoms upper move 0.0 0.00288675134594812 0.0 units lattice
        min_style ${style}
        min_style hftn
        minimize ${etol} ${ftol} ${maxiter} ${maxeval}
        minimize 1e-12 ${ftol} ${maxiter} ${maxeval}
        minimize 1e-12 1e-08 ${maxiter} ${maxeval}
        minimize 1e-12 1e-08 10000 ${maxeval}
        minimize 1e-12 1e-08 10000 20000
WARNING: Resetting reneighboring criteria during minimization (../min.cpp:168)
Memory usage per processor = 5.28939 Mbytes
Step Temp PotEng Lx Ly Lz 
      15            0   -17346.886    7.7766452    82.651078    4.4898482 
Loop time of 0.00317006 on 1 procs for 0 steps with 2912 atoms

Minimization stats:
  Stopping criterion = force tolerance
  Energy initial, next-to-last, final = 
        -17346.8864223     -17346.8864223     -17346.8864223
  Force two-norm initial, final = 8.49876e-11 8.49876e-11
  Force max component initial, final = 2.7994e-12 2.7994e-12
  Final line search alpha, max atom move = 0 0
  Iterations, force evaluations = 0 0

Pair  time (%) = 0.00313692 (98.9546)
Neigh time (%) = 0 (0)
Comm  time (%) = 1.60441e-05 (0.506115)
Outpt time (%) = 0 (0)
Other time (%) = 1.70961e-05 (0.539298)

Nlocal:    2912 ave 2912 max 2912 min
Histogram: 1 0 0 0 0 0 0 0 0 0
Nghost:    7129 ave 7129 max 7129 min
Histogram: 1 0 0 0 0 0 0 0 0 0
Neighs:    77664 ave 77664 max 77664 min
Histogram: 1 0 0 0 0 0 0 0 0 0

Total # of neighbors = 77664
Ave neighs/atom = 26.6703
Neighbor list builds = 0
Dangerous builds = 0
	# write_dump all atom ${dumpfile}
        next i
jump SELF loop1
        displace_atoms upper move 0.0 ${ystep1} 0.0 units lattice
        displace_atoms upper move 0.0 0.00288675134594812 0.0 units lattice
        min_style ${style}
        min_style hftn
        minimize ${etol} ${ftol} ${maxiter} ${maxeval}
        minimize 1e-12 ${ftol} ${maxiter} ${maxeval}
        minimize 1e-12 1e-08 ${maxiter} ${maxeval}
        minimize 1e-12 1e-08 10000 ${maxeval}
        minimize 1e-12 1e-08 10000 20000
WARNING: Resetting reneighboring criteria during minimization (../min.cpp:168)
Memory usage per processor = 5.28939 Mbytes
Step Temp PotEng Lx Ly Lz 
      15            0   -17344.822    7.7766452    82.659015    4.4898482 
Loop time of 0.00293891 on 1 procs for 0 steps with 2912 atoms

Minimization stats:
  Stopping criterion = force tolerance
  Energy initial, next-to-last, final = 
        -17344.8216827     -17344.8216827     -17344.8216827
  Force two-norm initial, final = 8.49872e-11 8.49872e-11
  Force max component initial, final = 2.7994e-12 2.7994e-12
  Final line search alpha, max atom move = 0 0
  Iterations, force evaluations = 0 0

Pair  time (%) = 0.00280905 (95.5815)
Neigh time (%) = 0 (0)
Comm  time (%) = 7.2903e-05 (2.48061)
Outpt time (%) = 0 (0)
Other time (%) = 5.69524e-05 (1.93787)

Nlocal:    2912 ave 2912 max 2912 min
Histogram: 1 0 0 0 0 0 0 0 0 0
Nghost:    7129 ave 7129 max 7129 min
Histogram: 1 0 0 0 0 0 0 0 0 0
Neighs:    77664 ave 77664 max 77664 min
Histogram: 1 0 0 0 0 0 0 0 0 0

Total # of neighbors = 77664
Ave neighs/atom = 26.6703
Neighbor list builds = 0
Dangerous builds = 0
	# write_dump all atom ${dumpfile}
        next i
jump SELF loop1
        displace_atoms upper move 0.0 ${ystep1} 0.0 units lattice
        displace_atoms upper move 0.0 0.00288675134594812 0.0 units lattice
        min_style ${style}
        min_style hftn
        minimize ${etol} ${ftol} ${maxiter} ${maxeval}
        minimize 1e-12 ${ftol} ${maxiter} ${maxeval}
        minimize 1e-12 1e-08 ${maxiter} ${maxeval}
        minimize 1e-12 1e-08 10000 ${maxeval}
        minimize 1e-12 1e-08 10000 20000
WARNING: Resetting reneighboring criteria during minimization (../min.cpp:168)
Memory usage per processor = 5.28939 Mbytes
Step Temp PotEng Lx Ly Lz 
      15            0   -17342.743    7.7766452    82.666952    4.4898482 
Loop time of 0.00252911 on 1 procs for 0 steps with 2912 atoms

Minimization stats:
  Stopping criterion = force tolerance
  Energy initial, next-to-last, final = 
        -17342.7433485     -17342.7433485     -17342.7433485
  Force two-norm initial, final = 8.49853e-11 8.49853e-11
  Force max component initial, final = 2.7994e-12 2.7994e-12
  Final line search alpha, max atom move = 0 0
  Iterations, force evaluations = 0 0

Pair  time (%) = 0.00246297 (97.3848)
Neigh time (%) = 0 (0)
Comm  time (%) = 3.51482e-05 (1.38975)
Outpt time (%) = 0 (0)
Other time (%) = 3.0992e-05 (1.22541)

Nlocal:    2912 ave 2912 max 2912 min
Histogram: 1 0 0 0 0 0 0 0 0 0
Nghost:    7129 ave 7129 max 7129 min
Histogram: 1 0 0 0 0 0 0 0 0 0
Neighs:    77664 ave 77664 max 77664 min
Histogram: 1 0 0 0 0 0 0 0 0 0

Total # of neighbors = 77664
Ave neighs/atom = 26.6703
Neighbor list builds = 0
Dangerous builds = 0
	# write_dump all atom ${dumpfile}
        next i
jump SELF loop1
        displace_atoms upper move 0.0 ${ystep1} 0.0 units lattice
        displace_atoms upper move 0.0 0.00288675134594812 0.0 units lattice
        min_style ${style}
        min_style hftn
        minimize ${etol} ${ftol} ${maxiter} ${maxeval}
        minimize 1e-12 ${ftol} ${maxiter} ${maxeval}
        minimize 1e-12 1e-08 ${maxiter} ${maxeval}
        minimize 1e-12 1e-08 10000 ${maxeval}
        minimize 1e-12 1e-08 10000 20000
WARNING: Resetting reneighboring criteria during minimization (../min.cpp:168)
Memory usage per processor = 5.28939 Mbytes
Step Temp PotEng Lx Ly Lz 
      15            0   -17340.654    7.7766452    82.674889    4.4898482 
Loop time of 0.00222501 on 1 procs for 0 steps with 2912 atoms

Minimization stats:
  Stopping criterion = force tolerance
  Energy initial, next-to-last, final = 
         -17340.654014      -17340.654014      -17340.654014
  Force two-norm initial, final = 8.49846e-11 8.49846e-11
  Force max component initial, final = 2.7994e-12 2.7994e-12
  Final line search alpha, max atom move = 0 0
  Iterations, force evaluations = 0 0

Pair  time (%) = 0.00219211 (98.5213)
Neigh time (%) = 0 (0)
Comm  time (%) = 1.5043e-05 (0.676084)
Outpt time (%) = 0 (0)
Other time (%) = 1.78588e-05 (0.802639)

Nlocal:    2912 ave 2912 max 2912 min
Histogram: 1 0 0 0 0 0 0 0 0 0
Nghost:    7129 ave 7129 max 7129 min
Histogram: 1 0 0 0 0 0 0 0 0 0
Neighs:    77664 ave 77664 max 77664 min
Histogram: 1 0 0 0 0 0 0 0 0 0

Total # of neighbors = 77664
Ave neighs/atom = 26.6703
Neighbor list builds = 0
Dangerous builds = 0
	# write_dump all atom ${dumpfile}
        next i
jump SELF loop1
        displace_atoms upper move 0.0 ${ystep1} 0.0 units lattice
        displace_atoms upper move 0.0 0.00288675134594812 0.0 units lattice
        min_style ${style}
        min_style hftn
        minimize ${etol} ${ftol} ${maxiter} ${maxeval}
        minimize 1e-12 ${ftol} ${maxiter} ${maxeval}
        minimize 1e-12 1e-08 ${maxiter} ${maxeval}
        minimize 1e-12 1e-08 10000 ${maxeval}
        minimize 1e-12 1e-08 10000 20000
WARNING: Resetting reneighboring criteria during minimization (../min.cpp:168)
Memory usage per processor = 5.28939 Mbytes
Step Temp PotEng Lx Ly Lz 
      15            0   -17338.556    7.7766452    82.682826    4.4898482 
Loop time of 0.00342597 on 1 procs for 0 steps with 2912 atoms

Minimization stats:
  Stopping criterion = force tolerance
  Energy initial, next-to-last, final = 
        -17338.5562938     -17338.5562938     -17338.5562938
  Force two-norm initial, final = 8.49847e-11 8.49847e-11
  Force max component initial, final = 2.7994e-12 2.7994e-12
  Final line search alpha, max atom move = 0 0
  Iterations, force evaluations = 0 0

Pair  time (%) = 0.00335207 (97.8429)
Neigh time (%) = 0 (0)
Comm  time (%) = 4.48162e-05 (1.30813)
Outpt time (%) = 0 (0)
Other time (%) = 2.90856e-05 (0.848972)

Nlocal:    2912 ave 2912 max 2912 min
Histogram: 1 0 0 0 0 0 0 0 0 0
Nghost:    7129 ave 7129 max 7129 min
Histogram: 1 0 0 0 0 0 0 0 0 0
Neighs:    77664 ave 77664 max 77664 min
Histogram: 1 0 0 0 0 0 0 0 0 0

Total # of neighbors = 77664
Ave neighs/atom = 26.6703
Neighbor list builds = 0
Dangerous builds = 0
	# write_dump all atom ${dumpfile}
        next i
jump SELF loop1
        displace_atoms upper move 0.0 ${ystep1} 0.0 units lattice
        displace_atoms upper move 0.0 0.00288675134594812 0.0 units lattice
        min_style ${style}
        min_style hftn
        minimize ${etol} ${ftol} ${maxiter} ${maxeval}
        minimize 1e-12 ${ftol} ${maxiter} ${maxeval}
        minimize 1e-12 1e-08 ${maxiter} ${maxeval}
        minimize 1e-12 1e-08 10000 ${maxeval}
        minimize 1e-12 1e-08 10000 20000
WARNING: Resetting reneighboring criteria during minimization (../min.cpp:168)
Memory usage per processor = 5.28939 Mbytes
Step Temp PotEng Lx Ly Lz 
      15            0   -17336.453    7.7766452    82.690763    4.4898482 
Loop time of 0.00173388 on 1 procs for 0 steps with 2912 atoms

Minimization stats:
  Stopping criterion = force tolerance
  Energy initial, next-to-last, final = 
        -17336.4528358     -17336.4528358     -17336.4528358
  Force two-norm initial, final = 8.49826e-11 8.49826e-11
  Force max component initial, final = 2.7994e-12 2.7994e-12
  Final line search alpha, max atom move = 0 0
  Iterations, force evaluations = 0 0

Pair  time (%) = 0.00166712 (96.1495)
Neigh time (%) = 0 (0)
Comm  time (%) = 3.62021e-05 (2.08792)
Outpt time (%) = 0 (0)
Other time (%) = 3.05607e-05 (1.76256)

Nlocal:    2912 ave 2912 max 2912 min
Histogram: 1 0 0 0 0 0 0 0 0 0
Nghost:    7129 ave 7129 max 7129 min
Histogram: 1 0 0 0 0 0 0 0 0 0
Neighs:    77664 ave 77664 max 77664 min
Histogram: 1 0 0 0 0 0 0 0 0 0

Total # of neighbors = 77664
Ave neighs/atom = 26.6703
Neighbor list builds = 0
Dangerous builds = 0
	# write_dump all atom ${dumpfile}
        next i
jump SELF loop1
        displace_atoms upper move 0.0 ${ystep1} 0.0 units lattice
        displace_atoms upper move 0.0 0.00288675134594812 0.0 units lattice
        min_style ${style}
        min_style hftn
        minimize ${etol} ${ftol} ${maxiter} ${maxeval}
        minimize 1e-12 ${ftol} ${maxiter} ${maxeval}
        minimize 1e-12 1e-08 ${maxiter} ${maxeval}
        minimize 1e-12 1e-08 10000 ${maxeval}
        minimize 1e-12 1e-08 10000 20000
WARNING: Resetting reneighboring criteria during minimization (../min.cpp:168)
Memory usage per processor = 5.28939 Mbytes
Step Temp PotEng Lx Ly Lz 
      15            0   -17334.346    7.7766452      82.6987    4.4898482 
Loop time of 0.00258595 on 1 procs for 0 steps with 2912 atoms

Minimization stats:
  Stopping criterion = force tolerance
  Energy initial, next-to-last, final = 
        -17334.3463252     -17334.3463252     -17334.3463252
  Force two-norm initial, final = 8.49819e-11 8.49819e-11
  Force max component initial, final = 2.7994e-12 2.7994e-12
  Final line search alpha, max atom move = 0 0
  Iterations, force evaluations = 0 0

Pair  time (%) = 0.00251105 (97.1035)
Neigh time (%) = 0 (0)
Comm  time (%) = 3.99215e-05 (1.54378)
Outpt time (%) = 0 (0)
Other time (%) = 3.49802e-05 (1.3527)

Nlocal:    2912 ave 2912 max 2912 min
Histogram: 1 0 0 0 0 0 0 0 0 0
Nghost:    7129 ave 7129 max 7129 min
Histogram: 1 0 0 0 0 0 0 0 0 0
Neighs:    77664 ave 77664 max 77664 min
Histogram: 1 0 0 0 0 0 0 0 0 0

Total # of neighbors = 77664
Ave neighs/atom = 26.6703
Neighbor list builds = 0
Dangerous builds = 0
	# write_dump all atom ${dumpfile}
        next i
jump SELF loop1
        displace_atoms upper move 0.0 ${ystep1} 0.0 units lattice
        displace_atoms upper move 0.0 0.00288675134594812 0.0 units lattice
        min_style ${style}
        min_style hftn
        minimize ${etol} ${ftol} ${maxiter} ${maxeval}
        minimize 1e-12 ${ftol} ${maxiter} ${maxeval}
        minimize 1e-12 1e-08 ${maxiter} ${maxeval}
        minimize 1e-12 1e-08 10000 ${maxeval}
        minimize 1e-12 1e-08 10000 20000
WARNING: Resetting reneighboring criteria during minimization (../min.cpp:168)
Memory usage per processor = 5.28939 Mbytes
Step Temp PotEng Lx Ly Lz 
      15            0   -17332.239    7.7766452    82.706637    4.4898482 
Loop time of 0.00171694 on 1 procs for 0 steps with 2912 atoms

Minimization stats:
  Stopping criterion = force tolerance
  Energy initial, next-to-last, final = 
        -17332.2394561     -17332.2394561     -17332.2394561
  Force two-norm initial, final = 8.4982e-11 8.4982e-11
  Force max component initial, final = 2.7994e-12 2.7994e-12
  Final line search alpha, max atom move = 0 0
  Iterations, force evaluations = 0 0

Pair  time (%) = 0.00165404 (96.3364)
Neigh time (%) = 0 (0)
Comm  time (%) = 3.38259e-05 (1.97012)
Outpt time (%) = 0 (0)
Other time (%) = 2.90759e-05 (1.69347)

Nlocal:    2912 ave 2912 max 2912 min
Histogram: 1 0 0 0 0 0 0 0 0 0
Nghost:    7129 ave 7129 max 7129 min
Histogram: 1 0 0 0 0 0 0 0 0 0
Neighs:    77664 ave 77664 max 77664 min
Histogram: 1 0 0 0 0 0 0 0 0 0

Total # of neighbors = 77664
Ave neighs/atom = 26.6703
Neighbor list builds = 0
Dangerous builds = 0
	# write_dump all atom ${dumpfile}
        next i
jump SELF loop1
        displace_atoms upper move 0.0 ${ystep1} 0.0 units lattice
        displace_atoms upper move 0.0 0.00288675134594812 0.0 units lattice
        min_style ${style}
        min_style hftn
        minimize ${etol} ${ftol} ${maxiter} ${maxeval}
        minimize 1e-12 ${ftol} ${maxiter} ${maxeval}
        minimize 1e-12 1e-08 ${maxiter} ${maxeval}
        minimize 1e-12 1e-08 10000 ${maxeval}
        minimize 1e-12 1e-08 10000 20000
WARNING: Resetting reneighboring criteria during minimization (../min.cpp:168)
Memory usage per processor = 5.28939 Mbytes
Step Temp PotEng Lx Ly Lz 
      15            0   -17330.135    7.7766452    82.714574    4.4898482 
Loop time of 0.00195189 on 1 procs for 0 steps with 2912 atoms

Minimization stats:
  Stopping criterion = force tolerance
  Energy initial, next-to-last, final = 
        -17330.1349452     -17330.1349452     -17330.1349452
  Force two-norm initial, final = 8.498e-11 8.498e-11
  Force max component initial, final = 2.7994e-12 2.7994e-12
  Final line search alpha, max atom move = 0 0
  Iterations, force evaluations = 0 0

Pair  time (%) = 0.00188808 (96.7309)
Neigh time (%) = 0 (0)
Comm  time (%) = 3.29745e-05 (1.68936)
Outpt time (%) = 0 (0)
Other time (%) = 3.08346e-05 (1.57973)

Nlocal:    2912 ave 2912 max 2912 min
Histogram: 1 0 0 0 0 0 0 0 0 0
Nghost:    7129 ave 7129 max 7129 min
Histogram: 1 0 0 0 0 0 0 0 0 0
Neighs:    77664 ave 77664 max 77664 min
Histogram: 1 0 0 0 0 0 0 0 0 0

Total # of neighbors = 77664
Ave neighs/atom = 26.6703
Neighbor list builds = 0
Dangerous builds = 0
	# write_dump all atom ${dumpfile}
        next i
jump SELF loop1
        displace_atoms upper move 0.0 ${ystep1} 0.0 units lattice
        displace_atoms upper move 0.0 0.00288675134594812 0.0 units lattice
        min_style ${style}
        min_style hftn
        minimize ${etol} ${ftol} ${maxiter} ${maxeval}
        minimize 1e-12 ${ftol} ${maxiter} ${maxeval}
        minimize 1e-12 1e-08 ${maxiter} ${maxeval}
        minimize 1e-12 1e-08 10000 ${maxeval}
        minimize 1e-12 1e-08 10000 20000
WARNING: Resetting reneighboring criteria during minimization (../min.cpp:168)
Memory usage per processor = 5.28939 Mbytes
Step Temp PotEng Lx Ly Lz 
      15            0   -17328.036    7.7766452    82.722511    4.4898482 
Loop time of 0.0021889 on 1 procs for 0 steps with 2912 atoms

Minimization stats:
  Stopping criterion = force tolerance
  Energy initial, next-to-last, final = 
        -17328.0355912     -17328.0355912     -17328.0355912
  Force two-norm initial, final = 8.49793e-11 8.49793e-11
  Force max component initial, final = 2.7994e-12 2.7994e-12
  Final line search alpha, max atom move = 0 0
  Iterations, force evaluations = 0 0

Pair  time (%) = 0.00211904 (96.8083)
Neigh time (%) = 0 (0)
Comm  time (%) = 3.78585e-05 (1.72957)
Outpt time (%) = 0 (0)
Other time (%) = 3.20037e-05 (1.46209)

Nlocal:    2912 ave 2912 max 2912 min
Histogram: 1 0 0 0 0 0 0 0 0 0
Nghost:    7129 ave 7129 max 7129 min
Histogram: 1 0 0 0 0 0 0 0 0 0
Neighs:    77664 ave 77664 max 77664 min
Histogram: 1 0 0 0 0 0 0 0 0 0

Total # of neighbors = 77664
Ave neighs/atom = 26.6703
Neighbor list builds = 0
Dangerous builds = 0
	# write_dump all atom ${dumpfile}
        next i
jump SELF loop1
        displace_atoms upper move 0.0 ${ystep1} 0.0 units lattice
        displace_atoms upper move 0.0 0.00288675134594812 0.0 units lattice
        min_style ${style}
        min_style hftn
        minimize ${etol} ${ftol} ${maxiter} ${maxeval}
        minimize 1e-12 ${ftol} ${maxiter} ${maxeval}
        minimize 1e-12 1e-08 ${maxiter} ${maxeval}
        minimize 1e-12 1e-08 10000 ${maxeval}
        minimize 1e-12 1e-08 10000 20000
WARNING: Resetting reneighboring criteria during minimization (../min.cpp:168)
Memory usage per processor = 5.28939 Mbytes
Step Temp PotEng Lx Ly Lz 
      15            0   -17325.944    7.7766452    82.730448    4.4898482 
Loop time of 0.00207495 on 1 procs for 0 steps with 2912 atoms

Minimization stats:
  Stopping criterion = force tolerance
  Energy initial, next-to-last, final = 
         -17325.944127      -17325.944127      -17325.944127
  Force two-norm initial, final = 8.49793e-11 8.49793e-11
  Force max component initial, final = 2.7994e-12 2.7994e-12
  Final line search alpha, max atom move = 0 0
  Iterations, force evaluations = 0 0

Pair  time (%) = 0.00201205 (96.9685)
Neigh time (%) = 0 (0)
Comm  time (%) = 3.39284e-05 (1.63514)
Outpt time (%) = 0 (0)
Other time (%) = 2.89733e-05 (1.39634)

Nlocal:    2912 ave 2912 max 2912 min
Histogram: 1 0 0 0 0 0 0 0 0 0
Nghost:    7129 ave 7129 max 7129 min
Histogram: 1 0 0 0 0 0 0 0 0 0
Neighs:    77664 ave 77664 max 77664 min
Histogram: 1 0 0 0 0 0 0 0 0 0

Total # of neighbors = 77664
Ave neighs/atom = 26.6703
Neighbor list builds = 0
Dangerous builds = 0
	# write_dump all atom ${dumpfile}
        next i
jump SELF loop1
        displace_atoms upper move 0.0 ${ystep1} 0.0 units lattice
        displace_atoms upper move 0.0 0.00288675134594812 0.0 units lattice
        min_style ${style}
        min_style hftn
        minimize ${etol} ${ftol} ${maxiter} ${maxeval}
        minimize 1e-12 ${ftol} ${maxiter} ${maxeval}
        minimize 1e-12 1e-08 ${maxiter} ${maxeval}
        minimize 1e-12 1e-08 10000 ${maxeval}
        minimize 1e-12 1e-08 10000 20000
WARNING: Resetting reneighboring criteria during minimization (../min.cpp:168)
Memory usage per processor = 5.28939 Mbytes
Step Temp PotEng Lx Ly Lz 
      15            0   -17323.863    7.7766452    82.738385    4.4898482 
Loop time of 0.0017819 on 1 procs for 0 steps with 2912 atoms

Minimization stats:
  Stopping criterion = force tolerance
  Energy initial, next-to-last, final = 
         -17323.863398      -17323.863398      -17323.863398
  Force two-norm initial, final = 8.49772e-11 8.49772e-11
  Force max component initial, final = 2.7994e-12 2.7994e-12
  Final line search alpha, max atom move = 0 0
  Iterations, force evaluations = 0 0

Pair  time (%) = 0.00171704 (96.3603)
Neigh time (%) = 0 (0)
Comm  time (%) = 3.38373e-05 (1.89895)
Outpt time (%) = 0 (0)
Other time (%) = 3.10182e-05 (1.74074)

Nlocal:    2912 ave 2912 max 2912 min
Histogram: 1 0 0 0 0 0 0 0 0 0
Nghost:    7129 ave 7129 max 7129 min
Histogram: 1 0 0 0 0 0 0 0 0 0
Neighs:    77664 ave 77664 max 77664 min
Histogram: 1 0 0 0 0 0 0 0 0 0

Total # of neighbors = 77664
Ave neighs/atom = 26.6703
Neighbor list builds = 0
Dangerous builds = 0
	# write_dump all atom ${dumpfile}
        next i
jump SELF loop1
        displace_atoms upper move 0.0 ${ystep1} 0.0 units lattice
        displace_atoms upper move 0.0 0.00288675134594812 0.0 units lattice
        min_style ${style}
        min_style hftn
        minimize ${etol} ${ftol} ${maxiter} ${maxeval}
        minimize 1e-12 ${ftol} ${maxiter} ${maxeval}
        minimize 1e-12 1e-08 ${maxiter} ${maxeval}
        minimize 1e-12 1e-08 10000 ${maxeval}
        minimize 1e-12 1e-08 10000 20000
WARNING: Resetting reneighboring criteria during minimization (../min.cpp:168)
Memory usage per processor = 5.28939 Mbytes
Step Temp PotEng Lx Ly Lz 
      15            0   -17321.796    7.7766452    82.746322    4.4898482 
Loop time of 0.00179907 on 1 procs for 0 steps with 2912 atoms

Minimization stats:
  Stopping criterion = force tolerance
  Energy initial, next-to-last, final = 
        -17321.7962256     -17321.7962256     -17321.7962256
  Force two-norm initial, final = 8.49765e-11 8.49765e-11
  Force max component initial, final = 2.7994e-12 2.7994e-12
  Final line search alpha, max atom move = 0 0
  Iterations, force evaluations = 0 0

Pair  time (%) = 0.00173498 (96.4374)
Neigh time (%) = 0 (0)
Comm  time (%) = 3.30681e-05 (1.83806)
Outpt time (%) = 0 (0)
Other time (%) = 3.10257e-05 (1.72454)

Nlocal:    2912 ave 2912 max 2912 min
Histogram: 1 0 0 0 0 0 0 0 0 0
Nghost:    7129 ave 7129 max 7129 min
Histogram: 1 0 0 0 0 0 0 0 0 0
Neighs:    77664 ave 77664 max 77664 min
Histogram: 1 0 0 0 0 0 0 0 0 0

Total # of neighbors = 77664
Ave neighs/atom = 26.6703
Neighbor list builds = 0
Dangerous builds = 0
	# write_dump all atom ${dumpfile}
        next i
jump SELF loop1
        displace_atoms upper move 0.0 ${ystep1} 0.0 units lattice
        displace_atoms upper move 0.0 0.00288675134594812 0.0 units lattice
        min_style ${style}
        min_style hftn
        minimize ${etol} ${ftol} ${maxiter} ${maxeval}
        minimize 1e-12 ${ftol} ${maxiter} ${maxeval}
        minimize 1e-12 1e-08 ${maxiter} ${maxeval}
        minimize 1e-12 1e-08 10000 ${maxeval}
        minimize 1e-12 1e-08 10000 20000
WARNING: Resetting reneighboring criteria during minimization (../min.cpp:168)
Memory usage per processor = 5.28939 Mbytes
Step Temp PotEng Lx Ly Lz 
      15            0   -17319.745    7.7766452    82.754259    4.4898482 
Loop time of 0.0021131 on 1 procs for 0 steps with 2912 atoms

Minimization stats:
  Stopping criterion = force tolerance
  Energy initial, next-to-last, final = 
        -17319.7454564     -17319.7454564     -17319.7454564
  Force two-norm initial, final = 8.49766e-11 8.49766e-11
  Force max component initial, final = 2.7994e-12 2.7994e-12
  Final line search alpha, max atom move = 0 0
  Iterations, force evaluations = 0 0

Pair  time (%) = 0.00204805 (96.9217)
Neigh time (%) = 0 (0)
Comm  time (%) = 3.41192e-05 (1.61465)
Outpt time (%) = 0 (0)
Other time (%) = 3.09283e-05 (1.46365)

Nlocal:    2912 ave 2912 max 2912 min
Histogram: 1 0 0 0 0 0 0 0 0 0
Nghost:    7129 ave 7129 max 7129 min
Histogram: 1 0 0 0 0 0 0 0 0 0
Neighs:    77664 ave 77664 max 77664 min
Histogram: 1 0 0 0 0 0 0 0 0 0

Total # of neighbors = 77664
Ave neighs/atom = 26.6703
Neighbor list builds = 0
Dangerous builds = 0
	# write_dump all atom ${dumpfile}
        next i
jump SELF loop1
        displace_atoms upper move 0.0 ${ystep1} 0.0 units lattice
        displace_atoms upper move 0.0 0.00288675134594812 0.0 units lattice
        min_style ${style}
        min_style hftn
        minimize ${etol} ${ftol} ${maxiter} ${maxeval}
        minimize 1e-12 ${ftol} ${maxiter} ${maxeval}
        minimize 1e-12 1e-08 ${maxiter} ${maxeval}
        minimize 1e-12 1e-08 10000 ${maxeval}
        minimize 1e-12 1e-08 10000 20000
WARNING: Resetting reneighboring criteria during minimization (../min.cpp:168)
Memory usage per processor = 5.28939 Mbytes
Step Temp PotEng Lx Ly Lz 
      15            0   -17317.714    7.7766452    82.762196    4.4898482 
Loop time of 0.00232595 on 1 procs for 0 steps with 2912 atoms

Minimization stats:
  Stopping criterion = force tolerance
  Energy initial, next-to-last, final = 
        -17317.7139231     -17317.7139231     -17317.7139231
  Force two-norm initial, final = 8.49746e-11 8.49746e-11
  Force max component initial, final = 2.7994e-12 2.7994e-12
  Final line search alpha, max atom move = 0 0
  Iterations, force evaluations = 0 0

Pair  time (%) = 0.00227204 (97.6826)
Neigh time (%) = 0 (0)
Comm  time (%) = 3.38024e-05 (1.45327)
Outpt time (%) = 0 (0)
Other time (%) = 2.00993e-05 (0.864136)

Nlocal:    2912 ave 2912 max 2912 min
Histogram: 1 0 0 0 0 0 0 0 0 0
Nghost:    7129 ave 7129 max 7129 min
Histogram: 1 0 0 0 0 0 0 0 0 0
Neighs:    77664 ave 77664 max 77664 min
Histogram: 1 0 0 0 0 0 0 0 0 0

Total # of neighbors = 77664
Ave neighs/atom = 26.6703
Neighbor list builds = 0
Dangerous builds = 0
	# write_dump all atom ${dumpfile}
        next i
jump SELF loop1
        displace_atoms upper move 0.0 ${ystep1} 0.0 units lattice
        displace_atoms upper move 0.0 0.00288675134594812 0.0 units lattice
        min_style ${style}
        min_style hftn
        minimize ${etol} ${ftol} ${maxiter} ${maxeval}
        minimize 1e-12 ${ftol} ${maxiter} ${maxeval}
        minimize 1e-12 1e-08 ${maxiter} ${maxeval}
        minimize 1e-12 1e-08 10000 ${maxeval}
        minimize 1e-12 1e-08 10000 20000
WARNING: Resetting reneighboring criteria during minimization (../min.cpp:168)
Memory usage per processor = 5.28939 Mbytes
Step Temp PotEng Lx Ly Lz 
      15            0   -17315.704    7.7766452    82.770133    4.4898482 
Loop time of 0.00216793 on 1 procs for 0 steps with 2912 atoms

Minimization stats:
  Stopping criterion = force tolerance
  Energy initial, next-to-last, final = 
        -17315.7043781     -17315.7043781     -17315.7043781
  Force two-norm initial, final = 8.49739e-11 8.49739e-11
  Force max component initial, final = 2.7994e-12 2.7994e-12
  Final line search alpha, max atom move = 0 0
  Iterations, force evaluations = 0 0

Pair  time (%) = 0.00210408 (97.0545)
Neigh time (%) = 0 (0)
Comm  time (%) = 3.39543e-05 (1.5662)
Outpt time (%) = 0 (0)
Other time (%) = 2.99012e-05 (1.37925)

Nlocal:    2912 ave 2912 max 2912 min
Histogram: 1 0 0 0 0 0 0 0 0 0
Nghost:    7129 ave 7129 max 7129 min
Histogram: 1 0 0 0 0 0 0 0 0 0
Neighs:    77664 ave 77664 max 77664 min
Histogram: 1 0 0 0 0 0 0 0 0 0

Total # of neighbors = 77664
Ave neighs/atom = 26.6703
Neighbor list builds = 0
Dangerous builds = 0
	# write_dump all atom ${dumpfile}
        next i
jump SELF loop1
        displace_atoms upper move 0.0 ${ystep1} 0.0 units lattice
        displace_atoms upper move 0.0 0.00288675134594812 0.0 units lattice
        min_style ${style}
        min_style hftn
        minimize ${etol} ${ftol} ${maxiter} ${maxeval}
        minimize 1e-12 ${ftol} ${maxiter} ${maxeval}
        minimize 1e-12 1e-08 ${maxiter} ${maxeval}
        minimize 1e-12 1e-08 10000 ${maxeval}
        minimize 1e-12 1e-08 10000 20000
WARNING: Resetting reneighboring criteria during minimization (../min.cpp:168)
Memory usage per processor = 5.28939 Mbytes
Step Temp PotEng Lx Ly Lz 
      15            0    -17313.72    7.7766452     82.77807    4.4898482 
Loop time of 0.00209606 on 1 procs for 0 steps with 2912 atoms

Minimization stats:
  Stopping criterion = force tolerance
  Energy initial, next-to-last, final = 
        -17313.7195806     -17313.7195806     -17313.7195806
  Force two-norm initial, final = 8.49739e-11 8.49739e-11
  Force max component initial, final = 2.7994e-12 2.7994e-12
  Final line search alpha, max atom move = 0 0
  Iterations, force evaluations = 0 0

Pair  time (%) = 0.00203101 (96.8967)
Neigh time (%) = 0 (0)
Comm  time (%) = 3.49703e-05 (1.66839)
Outpt time (%) = 0 (0)
Other time (%) = 3.00772e-05 (1.43494)

Nlocal:    2912 ave 2912 max 2912 min
Histogram: 1 0 0 0 0 0 0 0 0 0
Nghost:    7129 ave 7129 max 7129 min
Histogram: 1 0 0 0 0 0 0 0 0 0
Neighs:    77664 ave 77664 max 77664 min
Histogram: 1 0 0 0 0 0 0 0 0 0

Total # of neighbors = 77664
Ave neighs/atom = 26.6703
Neighbor list builds = 0
Dangerous builds = 0
	# write_dump all atom ${dumpfile}
        next i
jump SELF loop1
        displace_atoms upper move 0.0 ${ystep1} 0.0 units lattice
        displace_atoms upper move 0.0 0.00288675134594812 0.0 units lattice
        min_style ${style}
        min_style hftn
        minimize ${etol} ${ftol} ${maxiter} ${maxeval}
        minimize 1e-12 ${ftol} ${maxiter} ${maxeval}
        minimize 1e-12 1e-08 ${maxiter} ${maxeval}
        minimize 1e-12 1e-08 10000 ${maxeval}
        minimize 1e-12 1e-08 10000 20000
WARNING: Resetting reneighboring criteria during minimization (../min.cpp:168)
Memory usage per processor = 5.28939 Mbytes
Step Temp PotEng Lx Ly Lz 
      15            0   -17311.762    7.7766452    82.786007    4.4898482 
Loop time of 0.00288099 on 1 procs for 0 steps with 2912 atoms

Minimization stats:
  Stopping criterion = force tolerance
  Energy initial, next-to-last, final = 
        -17311.7623033     -17311.7623033     -17311.7623033
  Force two-norm initial, final = 8.49719e-11 8.49719e-11
  Force max component initial, final = 2.7994e-12 2.7994e-12
  Final line search alpha, max atom move = 0 0
  Iterations, force evaluations = 0 0

Pair  time (%) = 0.00278509 (96.6712)
Neigh time (%) = 0 (0)
Comm  time (%) = 5.00461e-05 (1.73712)
Outpt time (%) = 0 (0)
Other time (%) = 4.58556e-05 (1.59166)

Nlocal:    2912 ave 2912 max 2912 min
Histogram: 1 0 0 0 0 0 0 0 0 0
Nghost:    7129 ave 7129 max 7129 min
Histogram: 1 0 0 0 0 0 0 0 0 0
Neighs:    77664 ave 77664 max 77664 min
Histogram: 1 0 0 0 0 0 0 0 0 0

Total # of neighbors = 77664
Ave neighs/atom = 26.6703
Neighbor list builds = 0
Dangerous builds = 0
	# write_dump all atom ${dumpfile}
        next i
jump SELF loop1
        displace_atoms upper move 0.0 ${ystep1} 0.0 units lattice
        displace_atoms upper move 0.0 0.00288675134594812 0.0 units lattice
        min_style ${style}
        min_style hftn
        minimize ${etol} ${ftol} ${maxiter} ${maxeval}
        minimize 1e-12 ${ftol} ${maxiter} ${maxeval}
        minimize 1e-12 1e-08 ${maxiter} ${maxeval}
        minimize 1e-12 1e-08 10000 ${maxeval}
        minimize 1e-12 1e-08 10000 20000
WARNING: Resetting reneighboring criteria during minimization (../min.cpp:168)
Memory usage per processor = 5.28939 Mbytes
Step Temp PotEng Lx Ly Lz 
      15            0   -17309.835    7.7766452    82.793944    4.4898482 
Loop time of 0.00453003 on 1 procs for 0 steps with 2912 atoms

Minimization stats:
  Stopping criterion = force tolerance
  Energy initial, next-to-last, final = 
         -17309.835407      -17309.835407      -17309.835407
  Force two-norm initial, final = 8.49712e-11 8.49712e-11
  Force max component initial, final = 2.7994e-12 2.7994e-12
  Final line search alpha, max atom move = 0 0
  Iterations, force evaluations = 0 0

Pair  time (%) = 0.00449903 (99.3157)
Neigh time (%) = 0 (0)
Comm  time (%) = 1.91057e-05 (0.421757)
Outpt time (%) = 0 (0)
Other time (%) = 1.18943e-05 (0.262565)

Nlocal:    2912 ave 2912 max 2912 min
Histogram: 1 0 0 0 0 0 0 0 0 0
Nghost:    7129 ave 7129 max 7129 min
Histogram: 1 0 0 0 0 0 0 0 0 0
Neighs:    77664 ave 77664 max 77664 min
Histogram: 1 0 0 0 0 0 0 0 0 0

Total # of neighbors = 77664
Ave neighs/atom = 26.6703
Neighbor list builds = 0
Dangerous builds = 0
	# write_dump all atom ${dumpfile}
        next i
jump SELF loop1
        displace_atoms upper move 0.0 ${ystep1} 0.0 units lattice
        displace_atoms upper move 0.0 0.00288675134594812 0.0 units lattice
        min_style ${style}
        min_style hftn
        minimize ${etol} ${ftol} ${maxiter} ${maxeval}
        minimize 1e-12 ${ftol} ${maxiter} ${maxeval}
        minimize 1e-12 1e-08 ${maxiter} ${maxeval}
        minimize 1e-12 1e-08 10000 ${maxeval}
        minimize 1e-12 1e-08 10000 20000
WARNING: Resetting reneighboring criteria during minimization (../min.cpp:168)
Memory usage per processor = 5.29063 Mbytes
Step Temp PotEng Lx Ly Lz 
      15            0   -17307.942    7.7766452    82.801881    4.4898482 
Loop time of 0.00252105 on 1 procs for 0 steps with 2912 atoms

Minimization stats:
  Stopping criterion = force tolerance
  Energy initial, next-to-last, final = 
        -17307.9416463     -17307.9416463     -17307.9416463
  Force two-norm initial, final = 8.49713e-11 8.49713e-11
  Force max component initial, final = 2.7994e-12 2.7994e-12
  Final line search alpha, max atom move = 0 0
  Iterations, force evaluations = 0 0

Pair  time (%) = 0.00245595 (97.418)
Neigh time (%) = 0 (0)
Comm  time (%) = 3.50402e-05 (1.38991)
Outpt time (%) = 0 (0)
Other time (%) = 3.00537e-05 (1.19211)

Nlocal:    2912 ave 2912 max 2912 min
Histogram: 1 0 0 0 0 0 0 0 0 0
Nghost:    7129 ave 7129 max 7129 min
Histogram: 1 0 0 0 0 0 0 0 0 0
Neighs:    77664 ave 77664 max 77664 min
Histogram: 1 0 0 0 0 0 0 0 0 0

Total # of neighbors = 77664
Ave neighs/atom = 26.6703
Neighbor list builds = 0
Dangerous builds = 0
	# write_dump all atom ${dumpfile}
        next i
jump SELF loop1
        displace_atoms upper move 0.0 ${ystep1} 0.0 units lattice
        displace_atoms upper move 0.0 0.00288675134594812 0.0 units lattice
        min_style ${style}
        min_style hftn
        minimize ${etol} ${ftol} ${maxiter} ${maxeval}
        minimize 1e-12 ${ftol} ${maxiter} ${maxeval}
        minimize 1e-12 1e-08 ${maxiter} ${maxeval}
        minimize 1e-12 1e-08 10000 ${maxeval}
        minimize 1e-12 1e-08 10000 20000
WARNING: Resetting reneighboring criteria during minimization (../min.cpp:168)
Memory usage per processor = 5.29063 Mbytes
Step Temp PotEng Lx Ly Lz 
      15            0   -17306.084    7.7766452    82.809818    4.4898482 
Loop time of 0.00487495 on 1 procs for 0 steps with 2912 atoms

Minimization stats:
  Stopping criterion = force tolerance
  Energy initial, next-to-last, final = 
         -17306.083906      -17306.083906      -17306.083906
  Force two-norm initial, final = 8.49691e-11 8.49691e-11
  Force max component initial, final = 2.7994e-12 2.7994e-12
  Final line search alpha, max atom move = 0 0
  Iterations, force evaluations = 0 0

Pair  time (%) = 0.00481105 (98.6892)
Neigh time (%) = 0 (0)
Comm  time (%) = 3.38878e-05 (0.695142)
Outpt time (%) = 0 (0)
Other time (%) = 3.0014e-05 (0.615678)

Nlocal:    2912 ave 2912 max 2912 min
Histogram: 1 0 0 0 0 0 0 0 0 0
Nghost:    7129 ave 7129 max 7129 min
Histogram: 1 0 0 0 0 0 0 0 0 0
Neighs:    77664 ave 77664 max 77664 min
Histogram: 1 0 0 0 0 0 0 0 0 0

Total # of neighbors = 77664
Ave neighs/atom = 26.6703
Neighbor list builds = 0
Dangerous builds = 0
	# write_dump all atom ${dumpfile}
        next i
jump SELF loop1
        displace_atoms upper move 0.0 ${ystep1} 0.0 units lattice
        displace_atoms upper move 0.0 0.00288675134594812 0.0 units lattice
        min_style ${style}
        min_style hftn
        minimize ${etol} ${ftol} ${maxiter} ${maxeval}
        minimize 1e-12 ${ftol} ${maxiter} ${maxeval}
        minimize 1e-12 1e-08 ${maxiter} ${maxeval}
        minimize 1e-12 1e-08 10000 ${maxeval}
        minimize 1e-12 1e-08 10000 20000
WARNING: Resetting reneighboring criteria during minimization (../min.cpp:168)
Memory usage per processor = 5.29063 Mbytes
Step Temp PotEng Lx Ly Lz 
      15            0   -17304.265    7.7766452    82.817755    4.4898482 
Loop time of 0.00273298 on 1 procs for 0 steps with 2912 atoms

Minimization stats:
  Stopping criterion = force tolerance
  Energy initial, next-to-last, final = 
        -17304.2650015     -17304.2650015     -17304.2650015
  Force two-norm initial, final = 8.49684e-11 8.49684e-11
  Force max component initial, final = 2.7994e-12 2.7994e-12
  Final line search alpha, max atom move = 0 0
  Iterations, force evaluations = 0 0

Pair  time (%) = 0.00266402 (97.4769)
Neigh time (%) = 0 (0)
Comm  time (%) = 3.69434e-05 (1.35176)
Outpt time (%) = 0 (0)
Other time (%) = 3.20115e-05 (1.17131)

Nlocal:    2912 ave 2912 max 2912 min
Histogram: 1 0 0 0 0 0 0 0 0 0
Nghost:    7129 ave 7129 max 7129 min
Histogram: 1 0 0 0 0 0 0 0 0 0
Neighs:    77664 ave 77664 max 77664 min
Histogram: 1 0 0 0 0 0 0 0 0 0

Total # of neighbors = 77664
Ave neighs/atom = 26.6703
Neighbor list builds = 0
Dangerous builds = 0
	# write_dump all atom ${dumpfile}
        next i
jump SELF loop1
        displace_atoms upper move 0.0 ${ystep1} 0.0 units lattice
        displace_atoms upper move 0.0 0.00288675134594812 0.0 units lattice
        min_style ${style}
        min_style hftn
        minimize ${etol} ${ftol} ${maxiter} ${maxeval}
        minimize 1e-12 ${ftol} ${maxiter} ${maxeval}
        minimize 1e-12 1e-08 ${maxiter} ${maxeval}
        minimize 1e-12 1e-08 10000 ${maxeval}
        minimize 1e-12 1e-08 10000 20000
WARNING: Resetting reneighboring criteria during minimization (../min.cpp:168)
Memory usage per processor = 5.29063 Mbytes
Step Temp PotEng Lx Ly Lz 
      15            0   -17302.488    7.7766452    82.825692    4.4898482 
Loop time of 0.00245198 on 1 procs for 0 steps with 2912 atoms

Minimization stats:
  Stopping criterion = force tolerance
  Energy initial, next-to-last, final = 
         -17302.487895      -17302.487895      -17302.487895
  Force two-norm initial, final = 8.49684e-11 8.49684e-11
  Force max component initial, final = 2.7994e-12 2.7994e-12
  Final line search alpha, max atom move = 0 0
  Iterations, force evaluations = 0 0

Pair  time (%) = 0.00236407 (96.4151)
Neigh time (%) = 0 (0)
Comm  time (%) = 4.68775e-05 (1.91183)
Outpt time (%) = 0 (0)
Other time (%) = 4.10242e-05 (1.67311)

Nlocal:    2912 ave 2912 max 2912 min
Histogram: 1 0 0 0 0 0 0 0 0 0
Nghost:    7129 ave 7129 max 7129 min
Histogram: 1 0 0 0 0 0 0 0 0 0
Neighs:    77664 ave 77664 max 77664 min
Histogram: 1 0 0 0 0 0 0 0 0 0

Total # of neighbors = 77664
Ave neighs/atom = 26.6703
Neighbor list builds = 0
Dangerous builds = 0
	# write_dump all atom ${dumpfile}
        next i
jump SELF loop1
        displace_atoms upper move 0.0 ${ystep1} 0.0 units lattice
        displace_atoms upper move 0.0 0.00288675134594812 0.0 units lattice
        min_style ${style}
        min_style hftn
        minimize ${etol} ${ftol} ${maxiter} ${maxeval}
        minimize 1e-12 ${ftol} ${maxiter} ${maxeval}
        minimize 1e-12 1e-08 ${maxiter} ${maxeval}
        minimize 1e-12 1e-08 10000 ${maxeval}
        minimize 1e-12 1e-08 10000 20000
WARNING: Resetting reneighboring criteria during minimization (../min.cpp:168)
Memory usage per processor = 5.29063 Mbytes
Step Temp PotEng Lx Ly Lz 
      15            0   -17300.755    7.7766452    82.833629    4.4898482 
Loop time of 0.00264102 on 1 procs for 0 steps with 2912 atoms

Minimization stats:
  Stopping criterion = force tolerance
  Energy initial, next-to-last, final = 
        -17300.7554203     -17300.7554203     -17300.7554203
  Force two-norm initial, final = 8.49663e-11 8.49663e-11
  Force max component initial, final = 2.7994e-12 2.7994e-12
  Final line search alpha, max atom move = 0 0
  Iterations, force evaluations = 0 0

Pair  time (%) = 0.00253301 (95.9106)
Neigh time (%) = 0 (0)
Comm  time (%) = 5.61029e-05 (2.12429)
Outpt time (%) = 0 (0)
Other time (%) = 5.18983e-05 (1.96509)

Nlocal:    2912 ave 2912 max 2912 min
Histogram: 1 0 0 0 0 0 0 0 0 0
Nghost:    7129 ave 7129 max 7129 min
Histogram: 1 0 0 0 0 0 0 0 0 0
Neighs:    77664 ave 77664 max 77664 min
Histogram: 1 0 0 0 0 0 0 0 0 0

Total # of neighbors = 77664
Ave neighs/atom = 26.6703
Neighbor list builds = 0
Dangerous builds = 0
	# write_dump all atom ${dumpfile}
        next i
jump SELF loop1
        displace_atoms upper move 0.0 ${ystep1} 0.0 units lattice
        displace_atoms upper move 0.0 0.00288675134594812 0.0 units lattice
        min_style ${style}
        min_style hftn
        minimize ${etol} ${ftol} ${maxiter} ${maxeval}
        minimize 1e-12 ${ftol} ${maxiter} ${maxeval}
        minimize 1e-12 1e-08 ${maxiter} ${maxeval}
        minimize 1e-12 1e-08 10000 ${maxeval}
        minimize 1e-12 1e-08 10000 20000
WARNING: Resetting reneighboring criteria during minimization (../min.cpp:168)
Memory usage per processor = 5.29063 Mbytes
Step Temp PotEng Lx Ly Lz 
      15            0   -17299.071    7.7766452    82.841566    4.4898482 
Loop time of 0.00253889 on 1 procs for 0 steps with 2912 atoms

Minimization stats:
  Stopping criterion = force tolerance
  Energy initial, next-to-last, final = 
        -17299.0705044     -17299.0705044     -17299.0705044
  Force two-norm initial, final = 8.49653e-11 8.49653e-11
  Force max component initial, final = 2.7994e-12 2.7994e-12
  Final line search alpha, max atom move = 0 0
  Iterations, force evaluations = 0 0

Pair  time (%) = 0.00247504 (97.4849)
Neigh time (%) = 0 (0)
Comm  time (%) = 3.50884e-05 (1.38203)
Outpt time (%) = 0 (0)
Other time (%) = 2.8767e-05 (1.13305)

Nlocal:    2912 ave 2912 max 2912 min
Histogram: 1 0 0 0 0 0 0 0 0 0
Nghost:    7129 ave 7129 max 7129 min
Histogram: 1 0 0 0 0 0 0 0 0 0
Neighs:    77664 ave 77664 max 77664 min
Histogram: 1 0 0 0 0 0 0 0 0 0

Total # of neighbors = 77664
Ave neighs/atom = 26.6703
Neighbor list builds = 0
Dangerous builds = 0
	# write_dump all atom ${dumpfile}
        next i
jump SELF loop1
        displace_atoms upper move 0.0 ${ystep1} 0.0 units lattice
        displace_atoms upper move 0.0 0.00288675134594812 0.0 units lattice
        min_style ${style}
        min_style hftn
        minimize ${etol} ${ftol} ${maxiter} ${maxeval}
        minimize 1e-12 ${ftol} ${maxiter} ${maxeval}
        minimize 1e-12 1e-08 ${maxiter} ${maxeval}
        minimize 1e-12 1e-08 10000 ${maxeval}
        minimize 1e-12 1e-08 10000 20000
WARNING: Resetting reneighboring criteria during minimization (../min.cpp:168)
Memory usage per processor = 5.29063 Mbytes
Step Temp PotEng Lx Ly Lz 
      15            0   -17297.436    7.7766452    82.849503    4.4898482 
Loop time of 0.00222503 on 1 procs for 0 steps with 2912 atoms

Minimization stats:
  Stopping criterion = force tolerance
  Energy initial, next-to-last, final = 
        -17297.4360853     -17297.4360853     -17297.4360853
  Force two-norm initial, final = 8.49645e-11 8.49645e-11
  Force max component initial, final = 2.7994e-12 2.7994e-12
  Final line search alpha, max atom move = 0 0
  Iterations, force evaluations = 0 0

Pair  time (%) = 0.00215998 (97.0765)
Neigh time (%) = 0 (0)
Comm  time (%) = 3.39182e-05 (1.5244)
Outpt time (%) = 0 (0)
Other time (%) = 3.11293e-05 (1.39906)

Nlocal:    2912 ave 2912 max 2912 min
Histogram: 1 0 0 0 0 0 0 0 0 0
Nghost:    7129 ave 7129 max 7129 min
Histogram: 1 0 0 0 0 0 0 0 0 0
Neighs:    77664 ave 77664 max 77664 min
Histogram: 1 0 0 0 0 0 0 0 0 0

Total # of neighbors = 77664
Ave neighs/atom = 26.6703
Neighbor list builds = 0
Dangerous builds = 0
	# write_dump all atom ${dumpfile}
        next i
jump SELF loop1
        displace_atoms upper move 0.0 ${ystep1} 0.0 units lattice
        displace_atoms upper move 0.0 0.00288675134594812 0.0 units lattice
        min_style ${style}
        min_style hftn
        minimize ${etol} ${ftol} ${maxiter} ${maxeval}
        minimize 1e-12 ${ftol} ${maxiter} ${maxeval}
        minimize 1e-12 1e-08 ${maxiter} ${maxeval}
        minimize 1e-12 1e-08 10000 ${maxeval}
        minimize 1e-12 1e-08 10000 20000
WARNING: Resetting reneighboring criteria during minimization (../min.cpp:168)
Memory usage per processor = 5.29063 Mbytes
Step Temp PotEng Lx Ly Lz 
      15            0   -17295.855    7.7766452     82.85744    4.4898482 
Loop time of 0.00213393 on 1 procs for 0 steps with 2912 atoms

Minimization stats:
  Stopping criterion = force tolerance
  Energy initial, next-to-last, final = 
        -17295.8551126     -17295.8551126     -17295.8551126
  Force two-norm initial, final = 8.49636e-11 8.49636e-11
  Force max component initial, final = 2.7994e-12 2.7994e-12
  Final line search alpha, max atom move = 0 0
  Iterations, force evaluations = 0 0

[...]
Nghost:    7129 ave 7129 max 7129 min
Histogram: 1 0 0 0 0 0 0 0 0 0
Neighs:    77088 ave 77088 max 77088 min
Histogram: 1 0 0 0 0 0 0 0 0 0

Total # of neighbors = 77088
Ave neighs/atom = 26.4725
Neighbor list builds = 0
Dangerous builds = 0
	# write_dump all atom ${dumpfile}
        next i
jump SELF loop1
        displace_atoms upper move 0.0 ${ystep1} 0.0 units lattice
        displace_atoms upper move 0.0 0.00288675134594812 0.0 units lattice
        min_style ${style}
        min_style hftn
        minimize ${etol} ${ftol} ${maxiter} ${maxeval}
        minimize 1e-12 ${ftol} ${maxiter} ${maxeval}
        minimize 1e-12 1e-08 ${maxiter} ${maxeval}
        minimize 1e-12 1e-08 10000 ${maxeval}
        minimize 1e-12 1e-08 10000 20000
WARNING: Resetting reneighboring criteria during minimization (../min.cpp:168)
Memory usage per processor = 5.29104 Mbytes
Step Temp PotEng Lx Ly Lz 
      15            0   -17279.986    7.7766452    84.802007    4.4898482 
Loop time of 0.00191908 on 1 procs for 0 steps with 2912 atoms

Minimization stats:
  Stopping criterion = force tolerance
  Energy initial, next-to-last, final = 
        -17279.9856313     -17279.9856313     -17279.9856313
  Force two-norm initial, final = 8.49663e-11 8.49663e-11
  Force max component initial, final = 2.7994e-12 2.7994e-12
  Final line search alpha, max atom move = 0 0
  Iterations, force evaluations = 0 0

Pair  time (%) = 0.00185498 (96.6602)
Neigh time (%) = 0 (0)
Comm  time (%) = 3.31515e-05 (1.72747)
Outpt time (%) = 0 (0)
Other time (%) = 3.09424e-05 (1.61236)

Nlocal:    2912 ave 2912 max 2912 min
Histogram: 1 0 0 0 0 0 0 0 0 0
Nghost:    7129 ave 7129 max 7129 min
Histogram: 1 0 0 0 0 0 0 0 0 0
Neighs:    77088 ave 77088 max 77088 min
Histogram: 1 0 0 0 0 0 0 0 0 0

Total # of neighbors = 77088
Ave neighs/atom = 26.4725
Neighbor list builds = 0
Dangerous builds = 0
	# write_dump all atom ${dumpfile}
        next i
jump SELF loop1
        displace_atoms upper move 0.0 ${ystep1} 0.0 units lattice
        displace_atoms upper move 0.0 0.00288675134594812 0.0 units lattice
        min_style ${style}
        min_style hftn
        minimize ${etol} ${ftol} ${maxiter} ${maxeval}
        minimize 1e-12 ${ftol} ${maxiter} ${maxeval}
        minimize 1e-12 1e-08 ${maxiter} ${maxeval}
        minimize 1e-12 1e-08 10000 ${maxeval}
        minimize 1e-12 1e-08 10000 20000
WARNING: Resetting reneighboring criteria during minimization (../min.cpp:168)
Memory usage per processor = 5.29104 Mbytes
Step Temp PotEng Lx Ly Lz 
      15            0   -17279.986    7.7766452    84.809944    4.4898482 
Loop time of 0.0026971 on 1 procs for 0 steps with 2912 atoms

Minimization stats:
  Stopping criterion = force tolerance
  Energy initial, next-to-last, final = 
        -17279.9856313     -17279.9856313     -17279.9856313
  Force two-norm initial, final = 8.49669e-11 8.49669e-11
  Force max component initial, final = 2.7994e-12 2.7994e-12
  Final line search alpha, max atom move = 0 0
  Iterations, force evaluations = 0 0

Pair  time (%) = 0.00198605 (73.6366)
Neigh time (%) = 0 (0)
Comm  time (%) = 3.19144e-05 (1.18329)
Outpt time (%) = 0 (0)
Other time (%) = 0.000679133 (25.1801)

Nlocal:    2912 ave 2912 max 2912 min
Histogram: 1 0 0 0 0 0 0 0 0 0
Nghost:    7129 ave 7129 max 7129 min
Histogram: 1 0 0 0 0 0 0 0 0 0
Neighs:    77088 ave 77088 max 77088 min
Histogram: 1 0 0 0 0 0 0 0 0 0

Total # of neighbors = 77088
Ave neighs/atom = 26.4725
Neighbor list builds = 0
Dangerous builds = 0
	# write_dump all atom ${dumpfile}
        next i
jump SELF loop1
        displace_atoms upper move 0.0 ${ystep1} 0.0 units lattice
        displace_atoms upper move 0.0 0.00288675134594812 0.0 units lattice
        min_style ${style}
        min_style hftn
        minimize ${etol} ${ftol} ${maxiter} ${maxeval}
        minimize 1e-12 ${ftol} ${maxiter} ${maxeval}
        minimize 1e-12 1e-08 ${maxiter} ${maxeval}
        minimize 1e-12 1e-08 10000 ${maxeval}
        minimize 1e-12 1e-08 10000 20000
WARNING: Resetting reneighboring criteria during minimization (../min.cpp:168)
Memory usage per processor = 5.29104 Mbytes
Step Temp PotEng Lx Ly Lz 
      15            0   -17279.986    7.7766452    84.817881    4.4898482 
Loop time of 0.00282694 on 1 procs for 0 steps with 2912 atoms

Minimization stats:
  Stopping criterion = force tolerance
  Energy initial, next-to-last, final = 
        -17279.9856313     -17279.9856313     -17279.9856313
  Force two-norm initial, final = 8.49674e-11 8.49674e-11
  Force max component initial, final = 2.7994e-12 2.7994e-12
  Final line search alpha, max atom move = 0 0
  Iterations, force evaluations = 0 0

Pair  time (%) = 0.00276189 (97.699)
Neigh time (%) = 0 (0)
Comm  time (%) = 3.39811e-05 (1.20204)
Outpt time (%) = 0 (0)
Other time (%) = 3.10665e-05 (1.09894)

Nlocal:    2912 ave 2912 max 2912 min
Histogram: 1 0 0 0 0 0 0 0 0 0
Nghost:    7129 ave 7129 max 7129 min
Histogram: 1 0 0 0 0 0 0 0 0 0
Neighs:    77088 ave 77088 max 77088 min
Histogram: 1 0 0 0 0 0 0 0 0 0

Total # of neighbors = 77088
Ave neighs/atom = 26.4725
Neighbor list builds = 0
Dangerous builds = 0
	# write_dump all atom ${dumpfile}
        next i
jump SELF loop1
        displace_atoms upper move 0.0 ${ystep1} 0.0 units lattice
        displace_atoms upper move 0.0 0.00288675134594812 0.0 units lattice
        min_style ${style}
        min_style hftn
        minimize ${etol} ${ftol} ${maxiter} ${maxeval}
        minimize 1e-12 ${ftol} ${maxiter} ${maxeval}
        minimize 1e-12 1e-08 ${maxiter} ${maxeval}
        minimize 1e-12 1e-08 10000 ${maxeval}
        minimize 1e-12 1e-08 10000 20000
WARNING: Resetting reneighboring criteria during minimization (../min.cpp:168)
Memory usage per processor = 5.29104 Mbytes
Step Temp PotEng Lx Ly Lz 
      15            0   -17279.986    7.7766452    84.825818    4.4898482 
Loop time of 0.002869 on 1 procs for 0 steps with 2912 atoms

Minimization stats:
  Stopping criterion = force tolerance
  Energy initial, next-to-last, final = 
        -17279.9856313     -17279.9856313     -17279.9856313
  Force two-norm initial, final = 8.49663e-11 8.49663e-11
  Force max component initial, final = 2.7994e-12 2.7994e-12
  Final line search alpha, max atom move = 0 0
  Iterations, force evaluations = 0 0

Pair  time (%) = 0.00280291 (97.6963)
Neigh time (%) = 0 (0)
Comm  time (%) = 3.60521e-05 (1.25661)
Outpt time (%) = 0 (0)
Other time (%) = 3.00418e-05 (1.04712)

Nlocal:    2912 ave 2912 max 2912 min
Histogram: 1 0 0 0 0 0 0 0 0 0
Nghost:    7129 ave 7129 max 7129 min
Histogram: 1 0 0 0 0 0 0 0 0 0
Neighs:    77088 ave 77088 max 77088 min
Histogram: 1 0 0 0 0 0 0 0 0 0

Total # of neighbors = 77088
Ave neighs/atom = 26.4725
Neighbor list builds = 0
Dangerous builds = 0
	# write_dump all atom ${dumpfile}
        next i
jump SELF loop1
        displace_atoms upper move 0.0 ${ystep1} 0.0 units lattice
        displace_atoms upper move 0.0 0.00288675134594812 0.0 units lattice
        min_style ${style}
        min_style hftn
        minimize ${etol} ${ftol} ${maxiter} ${maxeval}
        minimize 1e-12 ${ftol} ${maxiter} ${maxeval}
        minimize 1e-12 1e-08 ${maxiter} ${maxeval}
        minimize 1e-12 1e-08 10000 ${maxeval}
        minimize 1e-12 1e-08 10000 20000
WARNING: Resetting reneighboring criteria during minimization (../min.cpp:168)
Memory usage per processor = 5.29104 Mbytes
Step Temp PotEng Lx Ly Lz 
      15            0   -17279.986    7.7766452    84.833755    4.4898482 
Loop time of 0.00224308 on 1 procs for 0 steps with 2912 atoms

Minimization stats:
  Stopping criterion = force tolerance
  Energy initial, next-to-last, final = 
        -17279.9856313     -17279.9856313     -17279.9856313
  Force two-norm initial, final = 8.49669e-11 8.49669e-11
  Force max component initial, final = 2.7994e-12 2.7994e-12
  Final line search alpha, max atom move = 0 0
  Iterations, force evaluations = 0 0

Pair  time (%) = 0.00217803 (97.1001)
Neigh time (%) = 0 (0)
Comm  time (%) = 3.41818e-05 (1.52388)
Outpt time (%) = 0 (0)
Other time (%) = 3.08658e-05 (1.37605)

Nlocal:    2912 ave 2912 max 2912 min
Histogram: 1 0 0 0 0 0 0 0 0 0
Nghost:    7129 ave 7129 max 7129 min
Histogram: 1 0 0 0 0 0 0 0 0 0
Neighs:    77088 ave 77088 max 77088 min
Histogram: 1 0 0 0 0 0 0 0 0 0

Total # of neighbors = 77088
Ave neighs/atom = 26.4725
Neighbor list builds = 0
Dangerous builds = 0
	# write_dump all atom ${dumpfile}
        next i
jump SELF loop1
        displace_atoms upper move 0.0 ${ystep1} 0.0 units lattice
        displace_atoms upper move 0.0 0.00288675134594812 0.0 units lattice
        min_style ${style}
        min_style hftn
        minimize ${etol} ${ftol} ${maxiter} ${maxeval}
        minimize 1e-12 ${ftol} ${maxiter} ${maxeval}
        minimize 1e-12 1e-08 ${maxiter} ${maxeval}
        minimize 1e-12 1e-08 10000 ${maxeval}
        minimize 1e-12 1e-08 10000 20000
WARNING: Resetting reneighboring criteria during minimization (../min.cpp:168)
Memory usage per processor = 5.29104 Mbytes
Step Temp PotEng Lx Ly Lz 
      15            0   -17279.986    7.7766452    84.841692    4.4898482 
Loop time of 0.00210611 on 1 procs for 0 steps with 2912 atoms

Minimization stats:
  Stopping criterion = force tolerance
  Energy initial, next-to-last, final = 
        -17279.9856313     -17279.9856313     -17279.9856313
  Force two-norm initial, final = 8.49674e-11 8.49674e-11
  Force max component initial, final = 2.7994e-12 2.7994e-12
  Final line search alpha, max atom move = 0 0
  Iterations, force evaluations = 0 0

Pair  time (%) = 0.00200006 (94.9644)
Neigh time (%) = 0 (0)
Comm  time (%) = 3.50535e-05 (1.66437)
Outpt time (%) = 0 (0)
Other time (%) = 7.10021e-05 (3.37124)

Nlocal:    2912 ave 2912 max 2912 min
Histogram: 1 0 0 0 0 0 0 0 0 0
Nghost:    7129 ave 7129 max 7129 min
Histogram: 1 0 0 0 0 0 0 0 0 0
Neighs:    77088 ave 77088 max 77088 min
Histogram: 1 0 0 0 0 0 0 0 0 0

Total # of neighbors = 77088
Ave neighs/atom = 26.4725
Neighbor list builds = 0
Dangerous builds = 0
	# write_dump all atom ${dumpfile}
        next i
jump SELF loop1
        displace_atoms upper move 0.0 ${ystep1} 0.0 units lattice
        displace_atoms upper move 0.0 0.00288675134594812 0.0 units lattice
        min_style ${style}
        min_style hftn
        minimize ${etol} ${ftol} ${maxiter} ${maxeval}
        minimize 1e-12 ${ftol} ${maxiter} ${maxeval}
        minimize 1e-12 1e-08 ${maxiter} ${maxeval}
        minimize 1e-12 1e-08 10000 ${maxeval}
        minimize 1e-12 1e-08 10000 20000
WARNING: Resetting reneighboring criteria during minimization (../min.cpp:168)
Memory usage per processor = 5.29104 Mbytes
Step Temp PotEng Lx Ly Lz 
      15            0   -17279.986    7.7766452    84.849629    4.4898482 
Loop time of 0.00196897 on 1 procs for 0 steps with 2912 atoms

Minimization stats:
  Stopping criterion = force tolerance
  Energy initial, next-to-last, final = 
        -17279.9856313     -17279.9856313     -17279.9856313
  Force two-norm initial, final = 8.49663e-11 8.49663e-11
  Force max component initial, final = 2.7994e-12 2.7994e-12
  Final line search alpha, max atom move = 0 0
  Iterations, force evaluations = 0 0

Pair  time (%) = 0.00190006 (96.5003)
Neigh time (%) = 0 (0)
Comm  time (%) = 3.50985e-05 (1.78259)
Outpt time (%) = 0 (0)
Other time (%) = 3.381e-05 (1.71715)

Nlocal:    2912 ave 2912 max 2912 min
Histogram: 1 0 0 0 0 0 0 0 0 0
Nghost:    7129 ave 7129 max 7129 min
Histogram: 1 0 0 0 0 0 0 0 0 0
Neighs:    77088 ave 77088 max 77088 min
Histogram: 1 0 0 0 0 0 0 0 0 0

Total # of neighbors = 77088
Ave neighs/atom = 26.4725
Neighbor list builds = 0
Dangerous builds = 0
	# write_dump all atom ${dumpfile}
        next i
jump SELF loop1
        displace_atoms upper move 0.0 ${ystep1} 0.0 units lattice
        displace_atoms upper move 0.0 0.00288675134594812 0.0 units lattice
        min_style ${style}
        min_style hftn
        minimize ${etol} ${ftol} ${maxiter} ${maxeval}
        minimize 1e-12 ${ftol} ${maxiter} ${maxeval}
        minimize 1e-12 1e-08 ${maxiter} ${maxeval}
        minimize 1e-12 1e-08 10000 ${maxeval}
        minimize 1e-12 1e-08 10000 20000
WARNING: Resetting reneighboring criteria during minimization (../min.cpp:168)
Memory usage per processor = 5.29104 Mbytes
Step Temp PotEng Lx Ly Lz 
      15            0   -17279.986    7.7766452    84.857566    4.4898482 
Loop time of 0.00204711 on 1 procs for 0 steps with 2912 atoms

Minimization stats:
  Stopping criterion = force tolerance
  Energy initial, next-to-last, final = 
        -17279.9856313     -17279.9856313     -17279.9856313
  Force two-norm initial, final = 8.49665e-11 8.49665e-11
  Force max component initial, final = 2.7994e-12 2.7994e-12
  Final line search alpha, max atom move = 0 0
  Iterations, force evaluations = 0 0

Pair  time (%) = 0.00198302 (96.8691)
Neigh time (%) = 0 (0)
Comm  time (%) = 3.51946e-05 (1.71923)
Outpt time (%) = 0 (0)
Other time (%) = 2.88993e-05 (1.41171)

Nlocal:    2912 ave 2912 max 2912 min
Histogram: 1 0 0 0 0 0 0 0 0 0
Nghost:    7129 ave 7129 max 7129 min
Histogram: 1 0 0 0 0 0 0 0 0 0
Neighs:    77088 ave 77088 max 77088 min
Histogram: 1 0 0 0 0 0 0 0 0 0

Total # of neighbors = 77088
Ave neighs/atom = 26.4725
Neighbor list builds = 0
Dangerous builds = 0
	# write_dump all atom ${dumpfile}
        next i
jump SELF loop1
        displace_atoms upper move 0.0 ${ystep1} 0.0 units lattice
        displace_atoms upper move 0.0 0.00288675134594812 0.0 units lattice
        min_style ${style}
        min_style hftn
        minimize ${etol} ${ftol} ${maxiter} ${maxeval}
        minimize 1e-12 ${ftol} ${maxiter} ${maxeval}
        minimize 1e-12 1e-08 ${maxiter} ${maxeval}
        minimize 1e-12 1e-08 10000 ${maxeval}
        minimize 1e-12 1e-08 10000 20000
WARNING: Resetting reneighboring criteria during minimization (../min.cpp:168)
Memory usage per processor = 5.29104 Mbytes
Step Temp PotEng Lx Ly Lz 
      15            0   -17279.986    7.7766452    84.865503    4.4898482 
Loop time of 0.00437705 on 1 procs for 0 steps with 2912 atoms

Minimization stats:
  Stopping criterion = force tolerance
  Energy initial, next-to-last, final = 
        -17279.9856313     -17279.9856313     -17279.9856313
  Force two-norm initial, final = 8.49674e-11 8.49674e-11
  Force max component initial, final = 2.7994e-12 2.7994e-12
  Final line search alpha, max atom move = 0 0
  Iterations, force evaluations = 0 0

Pair  time (%) = 0.00431291 (98.5346)
Neigh time (%) = 0 (0)
Comm  time (%) = 3.39512e-05 (0.775665)
Outpt time (%) = 0 (0)
Other time (%) = 3.01889e-05 (0.68971)

Nlocal:    2912 ave 2912 max 2912 min
Histogram: 1 0 0 0 0 0 0 0 0 0
Nghost:    7129 ave 7129 max 7129 min
Histogram: 1 0 0 0 0 0 0 0 0 0
Neighs:    77088 ave 77088 max 77088 min
Histogram: 1 0 0 0 0 0 0 0 0 0

Total # of neighbors = 77088
Ave neighs/atom = 26.4725
Neighbor list builds = 0
Dangerous builds = 0
	# write_dump all atom ${dumpfile}
        next i
jump SELF loop1
        displace_atoms upper move 0.0 ${ystep1} 0.0 units lattice
        displace_atoms upper move 0.0 0.00288675134594812 0.0 units lattice
        min_style ${style}
        min_style hftn
        minimize ${etol} ${ftol} ${maxiter} ${maxeval}
        minimize 1e-12 ${ftol} ${maxiter} ${maxeval}
        minimize 1e-12 1e-08 ${maxiter} ${maxeval}
        minimize 1e-12 1e-08 10000 ${maxeval}
        minimize 1e-12 1e-08 10000 20000
WARNING: Resetting reneighboring criteria during minimization (../min.cpp:168)
Memory usage per processor = 5.29104 Mbytes
Step Temp PotEng Lx Ly Lz 
      15            0   -17279.986    7.7766452     84.87344    4.4898482 
Loop time of 0.00216295 on 1 procs for 0 steps with 2912 atoms

Minimization stats:
  Stopping criterion = force tolerance
  Energy initial, next-to-last, final = 
        -17279.9856313     -17279.9856313     -17279.9856313
  Force two-norm initial, final = 8.49663e-11 8.49663e-11
  Force max component initial, final = 2.7994e-12 2.7994e-12
  Final line search alpha, max atom move = 0 0
  Iterations, force evaluations = 0 0

Pair  time (%) = 0.00209695 (96.9486)
Neigh time (%) = 0 (0)
Comm  time (%) = 3.40475e-05 (1.57412)
Outpt time (%) = 0 (0)
Other time (%) = 3.19537e-05 (1.47732)

Nlocal:    2912 ave 2912 max 2912 min
Histogram: 1 0 0 0 0 0 0 0 0 0
Nghost:    7129 ave 7129 max 7129 min
Histogram: 1 0 0 0 0 0 0 0 0 0
Neighs:    77088 ave 77088 max 77088 min
Histogram: 1 0 0 0 0 0 0 0 0 0

Total # of neighbors = 77088
Ave neighs/atom = 26.4725
Neighbor list builds = 0
Dangerous builds = 0
	# write_dump all atom ${dumpfile}
        next i
jump SELF loop1
        displace_atoms upper move 0.0 ${ystep1} 0.0 units lattice
        displace_atoms upper move 0.0 0.00288675134594812 0.0 units lattice
        min_style ${style}
        min_style hftn
        minimize ${etol} ${ftol} ${maxiter} ${maxeval}
        minimize 1e-12 ${ftol} ${maxiter} ${maxeval}
        minimize 1e-12 1e-08 ${maxiter} ${maxeval}
        minimize 1e-12 1e-08 10000 ${maxeval}
        minimize 1e-12 1e-08 10000 20000
WARNING: Resetting reneighboring criteria during minimization (../min.cpp:168)
Memory usage per processor = 5.29104 Mbytes
Step Temp PotEng Lx Ly Lz 
      15            0   -17279.986    7.7766452    84.881377    4.4898482 
Loop time of 0.00213311 on 1 procs for 0 steps with 2912 atoms

Minimization stats:
  Stopping criterion = force tolerance
  Energy initial, next-to-last, final = 
        -17279.9856313     -17279.9856313     -17279.9856313
  Force two-norm initial, final = 8.49665e-11 8.49665e-11
  Force max component initial, final = 2.7994e-12 2.7994e-12
  Final line search alpha, max atom move = 0 0
  Iterations, force evaluations = 0 0

Pair  time (%) = 0.00206993 (97.0378)
Neigh time (%) = 0 (0)
Comm  time (%) = 3.49852e-05 (1.6401)
Outpt time (%) = 0 (0)
Other time (%) = 2.82013e-05 (1.32207)

Nlocal:    2912 ave 2912 max 2912 min
Histogram: 1 0 0 0 0 0 0 0 0 0
Nghost:    7129 ave 7129 max 7129 min
Histogram: 1 0 0 0 0 0 0 0 0 0
Neighs:    77088 ave 77088 max 77088 min
Histogram: 1 0 0 0 0 0 0 0 0 0

Total # of neighbors = 77088
Ave neighs/atom = 26.4725
Neighbor list builds = 0
Dangerous builds = 0
	# write_dump all atom ${dumpfile}
        next i
jump SELF loop1

# allow atoms to relax in y-direction, now that two halves have separated
unfix 2
min_style ${style}
min_style hftn
minimize ${etol} ${ftol} ${maxiter} ${maxeval}
minimize 1e-12 ${ftol} ${maxiter} ${maxeval}
minimize 1e-12 1e-08 ${maxiter} ${maxeval}
minimize 1e-12 1e-08 10000 ${maxeval}
minimize 1e-12 1e-08 10000 20000
WARNING: Resetting reneighboring criteria during minimization (../min.cpp:168)
Memory usage per processor = 5.29104 Mbytes
Step Temp PotEng Lx Ly Lz 
      15            0   -17279.986    7.7766452    84.881377    4.4898482 
      16            0   -17279.986    7.7766452    84.881377    4.4898482 
      17            0   -17279.986    7.7766452    84.881377    4.4898482 
Loop time of 1.16166 on 1 procs for 1 steps with 2912 atoms

Minimization stats:
  Stopping criterion = force tolerance
  Energy initial, next-to-last, final = 
        -17279.9856313     -17279.9856313     -17279.9859193
  Force two-norm initial, final = 0.00357281 6.1525e-12
  Force max component initial, final = 0.000315795 5.69712e-13
  Final line search alpha, max atom move = 0 0
  Iterations, force evaluations = 1 495

Pair  time (%) = 1.06147 (91.3747)
Neigh time (%) = 0 (0)
Comm  time (%) = 0.022715 (1.95539)
Outpt time (%) = 9.00259e-05 (0.00774975)
Other time (%) = 0.0773914 (6.66212)

Nlocal:    2912 ave 2912 max 2912 min
Histogram: 1 0 0 0 0 0 0 0 0 0
Nghost:    7129 ave 7129 max 7129 min
Histogram: 1 0 0 0 0 0 0 0 0 0
Neighs:    77088 ave 77088 max 77088 min
Histogram: 1 0 0 0 0 0 0 0 0 0

Total # of neighbors = 77088
Ave neighs/atom = 26.4725
Neighbor list builds = 0
Dangerous builds = 0

write_dump all atom ${dumpfile}
write_dump all atom surf_V_brittle_3d.*.dump


