LAMMPS (28 Jun 2014)
# attempt at getting surface energy

#file prefix
variable prefix string surf_V_inter1new
variable dumpfile string ${prefix}.*.dump
variable dumpfile string surf_V_inter1new.*.dump
variable restartfile string ${prefix}.*.equil
variable restartfile string surf_V_inter1new.*.equil

#Mass (g/mol)
variable m equal 1

# lattice constant (in Angstroms) and orientation of axes (given by lattice vectors)
variable rho equal 0.9165
variable x1 equal 1
variable x2 equal 0
variable x3 equal 0
variable y1 equal 0
variable y2 equal 1
variable y3 equal 0
# length of lattice in different directions (using orientation of lattice vectors)
variable ax equal sqrt(${x1}*${x1}+${x2}*${x2}+${x3}*${x3})
variable ax equal sqrt(1*${x1}+${x2}*${x2}+${x3}*${x3})
variable ax equal sqrt(1*1+${x2}*${x2}+${x3}*${x3})
variable ax equal sqrt(1*1+0*${x2}+${x3}*${x3})
variable ax equal sqrt(1*1+0*0+${x3}*${x3})
variable ax equal sqrt(1*1+0*0+0*${x3})
variable ax equal sqrt(1*1+0*0+0*0)
variable ay equal sqrt(${y1}*${y1}+${y2}*${y2}+${y3}*${y3})
variable ay equal sqrt(0*${y1}+${y2}*${y2}+${y3}*${y3})
variable ay equal sqrt(0*0+${y2}*${y2}+${y3}*${y3})
variable ay equal sqrt(0*0+1*${y2}+${y3}*${y3})
variable ay equal sqrt(0*0+1*1+${y3}*${y3})
variable ay equal sqrt(0*0+1*1+0*${y3})
variable ay equal sqrt(0*0+1*1+0*0)
variable az equal 1

# size of box in lattice units
variable lxpos equal 1
variable lxneg equal 0
variable lypos equal 10
variable lyneg equal -1*${lypos}
variable lyneg equal -1*10
variable lzpos equal 1
variable lzneg equal 0

# Define minimization parameters and damping
variable etol equal 1.0e-12
variable ftol equal 1.0e-8
variable maxiter equal 10000
variable maxeval equal 20000
variable style string cg

# boundary conditions
dimension	2
boundary	p s p
atom_style	atomic

# create geometry
units		lj
lattice         hex ${rho}
lattice         hex 0.9165
Lattice spacing in x,y,z = 1.12245 1.94415 1.12245
region		myregion block ${lxneg} ${lxpos} ${lyneg} ${lypos} ${lzneg} ${lzpos} units lattice
region		myregion block 0 ${lxpos} ${lyneg} ${lypos} ${lzneg} ${lzpos} units lattice
region		myregion block 0 1 ${lyneg} ${lypos} ${lzneg} ${lzpos} units lattice
region		myregion block 0 1 -10 ${lypos} ${lzneg} ${lzpos} units lattice
region		myregion block 0 1 -10 10 ${lzneg} ${lzpos} units lattice
region		myregion block 0 1 -10 10 0 ${lzpos} units lattice
region		myregion block 0 1 -10 10 0 1 units lattice
create_box	1 myregion
Created orthogonal box = (0 -19.4415 0) to (1.12245 19.4415 1.12245)
  1 by 1 by 1 MPI processor grid
create_atoms	1 box
Created 41 atoms

# define masses
mass * $m
mass * 1

# my fake/morse potential
pair_style      table linear 3001
pair_coeff      * * vpotential_inter1new dummy
neighbor	0.3 bin
neigh_modify	delay 5

# define groups
region	    upper block INF INF 0.01 ${lypos} INF INF units lattice
region	    upper block INF INF 0.01 10 INF INF units lattice
group		upper region upper
20 atoms in group upper

# Setup output
thermo 1
thermo_style custom step temp pe lx ly lz
thermo_modify norm no

# Compute initial state by relaxing box
min_style ${style}
min_style cg
minimize ${etol} ${ftol} ${maxiter} ${maxeval}
minimize 1e-12 ${ftol} ${maxiter} ${maxeval}
minimize 1e-12 1e-08 ${maxiter} ${maxeval}
minimize 1e-12 1e-08 10000 ${maxeval}
minimize 1e-12 1e-08 10000 20000
WARNING: Resetting reneighboring criteria during minimization (../min.cpp:168)
Memory usage per processor = 3.35962 Mbytes
Step Temp PotEng Lx Ly Lz 
       0            0   -120.99996    1.1224537    38.890715    1.1224537 
       1            0   -120.99996    1.1224537    38.890715    1.1224537 
       2            0   -120.99996    1.1224537    38.890715    1.1224537 
Loop time of 0.000182965 on 1 procs for 2 steps with 41 atoms

Minimization stats:
  Stopping criterion = linesearch alpha is zero
  Energy initial, next-to-last, final = 
        -120.999963848     -120.999964932     -120.999964932
  Force two-norm initial, final = 0.000550698 0.00322436
  Force max component initial, final = 0.000389403 0.00179508
  Final line search alpha, max atom move = 0.000976562 1.75301e-06
  Iterations, force evaluations = 2 15

Pair  time (%) = 0.000128629 (70.3027)
Neigh time (%) = 0 (0)
Comm  time (%) = 2.87709e-05 (15.7248)
Outpt time (%) = 8.95013e-06 (4.89172)
Other time (%) = 1.66147e-05 (9.0808)

Nlocal:    41 ave 41 max 41 min
Histogram: 1 0 0 0 0 0 0 0 0 0
Nghost:    185 ave 185 max 185 min
Histogram: 1 0 0 0 0 0 0 0 0 0
Neighs:    359 ave 359 max 359 min
Histogram: 1 0 0 0 0 0 0 0 0 0

Total # of neighbors = 359
Ave neighs/atom = 8.7561
Neighbor list builds = 0
Dangerous builds = 0

# don't allow atoms to relax in y-direction
fix 2 all setforce NULL 0.0 NULL

# Energy curve will have nstep steps
variable nsteps equal 500
variable sstep1 equal 1.0
variable ystep1 equal ${sstep1}/(${ay}*${nsteps})
variable ystep1 equal 1/(${ay}*${nsteps})
variable ystep1 equal 1/(1*${nsteps})
variable ystep1 equal 1/(1*500)

variable i loop ${nsteps}
variable i loop 500
label loop1
        displace_atoms upper move 0.0 ${ystep1} 0.0 units lattice
        displace_atoms upper move 0.0 0.002 0.0 units lattice
        min_style ${style}
        min_style cg
        minimize ${etol} ${ftol} ${maxiter} ${maxeval}
        minimize 1e-12 ${ftol} ${maxiter} ${maxeval}
        minimize 1e-12 1e-08 ${maxiter} ${maxeval}
        minimize 1e-12 1e-08 10000 ${maxeval}
        minimize 1e-12 1e-08 10000 20000
WARNING: Resetting reneighboring criteria during minimization (../min.cpp:168)
Memory usage per processor = 3.35962 Mbytes
Step Temp PotEng Lx Ly Lz 
       2            0   -120.99969    1.1224537      38.8947    1.1224537 
       3            0   -120.99969    1.1224537      38.8947    1.1224537 
Loop time of -7.47386e-08 on 1 procs for 1 steps with 41 atoms

Minimization stats:
  Stopping criterion = linesearch alpha is zero
  Energy initial, next-to-last, final = 
        -120.999690069     -120.999690069     -120.999690069
  Force two-norm initial, final = 1.80447e-18 1.80447e-18
  Force max component initial, final = 1.30104e-18 1.30104e-18
  Final line search alpha, max atom move = 0.5 6.50521e-19
  Iterations, force evaluations = 1 2

Pair  time (%) = -2.24216e-07 (300)
Neigh time (%) = 0 (-0)
Comm  time (%) = -4.48432e-07 (600)
Outpt time (%) = 0 (-0)
Other time (%) = 5.97909e-07 (-800)

Nlocal:    41 ave 41 max 41 min
Histogram: 1 0 0 0 0 0 0 0 0 0
Nghost:    185 ave 185 max 185 min
Histogram: 1 0 0 0 0 0 0 0 0 0
Neighs:    359 ave 359 max 359 min
Histogram: 1 0 0 0 0 0 0 0 0 0

Total # of neighbors = 359
Ave neighs/atom = 8.7561
Neighbor list builds = 0
Dangerous builds = 0
	# write_dump all atom ${dumpfile}
        next i
jump SELF loop1
        displace_atoms upper move 0.0 ${ystep1} 0.0 units lattice
        displace_atoms upper move 0.0 0.002 0.0 units lattice
        min_style ${style}
        min_style cg
        minimize ${etol} ${ftol} ${maxiter} ${maxeval}
        minimize 1e-12 ${ftol} ${maxiter} ${maxeval}
        minimize 1e-12 1e-08 ${maxiter} ${maxeval}
        minimize 1e-12 1e-08 10000 ${maxeval}
        minimize 1e-12 1e-08 10000 20000
WARNING: Resetting reneighboring criteria during minimization (../min.cpp:168)
Memory usage per processor = 3.35962 Mbytes
Step Temp PotEng Lx Ly Lz 
       3            0   -120.99888    1.1224537    38.898588    1.1224537 
       4            0   -120.99888    1.1224537    38.898588    1.1224537 
Loop time of 4.0023e-05 on 1 procs for 1 steps with 41 atoms

Minimization stats:
  Stopping criterion = linesearch alpha is zero
  Energy initial, next-to-last, final = 
        -120.998878952     -120.998878952     -120.998878952
  Force two-norm initial, final = 5.10231e-18 5.10231e-18
  Force max component initial, final = 4.93312e-18 4.93312e-18
  Final line search alpha, max atom move = 0.5 2.46656e-18
  Iterations, force evaluations = 1 2

Pair  time (%) = 2.39616e-05 (59.8697)
Neigh time (%) = 0 (0)
Comm  time (%) = 2.94251e-06 (7.35206)
Outpt time (%) = 0 (0)
Other time (%) = 1.31188e-05 (32.7783)

Nlocal:    41 ave 41 max 41 min
Histogram: 1 0 0 0 0 0 0 0 0 0
Nghost:    185 ave 185 max 185 min
Histogram: 1 0 0 0 0 0 0 0 0 0
Neighs:    359 ave 359 max 359 min
Histogram: 1 0 0 0 0 0 0 0 0 0

Total # of neighbors = 359
Ave neighs/atom = 8.7561
Neighbor list builds = 0
Dangerous builds = 0
	# write_dump all atom ${dumpfile}
        next i
jump SELF loop1
        displace_atoms upper move 0.0 ${ystep1} 0.0 units lattice
        displace_atoms upper move 0.0 0.002 0.0 units lattice
        min_style ${style}
        min_style cg
        minimize ${etol} ${ftol} ${maxiter} ${maxeval}
        minimize 1e-12 ${ftol} ${maxiter} ${maxeval}
        minimize 1e-12 1e-08 ${maxiter} ${maxeval}
        minimize 1e-12 1e-08 10000 ${maxeval}
        minimize 1e-12 1e-08 10000 20000
WARNING: Resetting reneighboring criteria during minimization (../min.cpp:168)
Memory usage per processor = 3.35962 Mbytes
Step Temp PotEng Lx Ly Lz 
       4            0   -120.99755    1.1224537    38.902477    1.1224537 
       5            0   -120.99755    1.1224537    38.902477    1.1224537 
Loop time of 4.00078e-05 on 1 procs for 1 steps with 41 atoms

Minimization stats:
  Stopping criterion = linesearch alpha is zero
  Energy initial, next-to-last, final = 
         -120.99754844      -120.99754844      -120.99754844
  Force two-norm initial, final = 3.05639e-18 3.05639e-18
  Force max component initial, final = 2.76472e-18 2.76472e-18
  Final line search alpha, max atom move = 0.5 1.38236e-18
  Iterations, force evaluations = 1 2

Pair  time (%) = 2.4777e-05 (61.9305)
Neigh time (%) = 0 (0)
Comm  time (%) = 4.09631e-06 (10.2388)
Outpt time (%) = 0 (0)
Other time (%) = 1.11344e-05 (27.8307)

Nlocal:    41 ave 41 max 41 min
Histogram: 1 0 0 0 0 0 0 0 0 0
Nghost:    185 ave 185 max 185 min
Histogram: 1 0 0 0 0 0 0 0 0 0
Neighs:    359 ave 359 max 359 min
Histogram: 1 0 0 0 0 0 0 0 0 0

Total # of neighbors = 359
Ave neighs/atom = 8.7561
Neighbor list builds = 0
Dangerous builds = 0
	# write_dump all atom ${dumpfile}
        next i
jump SELF loop1
        displace_atoms upper move 0.0 ${ystep1} 0.0 units lattice
        displace_atoms upper move 0.0 0.002 0.0 units lattice
        min_style ${style}
        min_style cg
        minimize ${etol} ${ftol} ${maxiter} ${maxeval}
        minimize 1e-12 ${ftol} ${maxiter} ${maxeval}
        minimize 1e-12 1e-08 ${maxiter} ${maxeval}
        minimize 1e-12 1e-08 10000 ${maxeval}
        minimize 1e-12 1e-08 10000 20000
WARNING: Resetting reneighboring criteria during minimization (../min.cpp:168)
Memory usage per processor = 3.35962 Mbytes
Step Temp PotEng Lx Ly Lz 
       5            0   -120.99571    1.1224537    38.906365    1.1224537 
       6            0   -120.99571    1.1224537    38.906365    1.1224537 
Loop time of 3.98895e-05 on 1 procs for 1 steps with 41 atoms

Minimization stats:
  Stopping criterion = linesearch alpha is zero
  Energy initial, next-to-last, final = 
        -120.995712014     -120.995712014     -120.995712014
  Force two-norm initial, final = 1.48313e-17 1.48313e-17
  Force max component initial, final = 1.25767e-17 1.25767e-17
  Final line search alpha, max atom move = 0.5 6.28837e-18
  Iterations, force evaluations = 1 2

Pair  time (%) = 2.61837e-05 (65.6405)
Neigh time (%) = 0 (0)
Comm  time (%) = 3.04868e-06 (7.64283)
Outpt time (%) = 0 (0)
Other time (%) = 1.06571e-05 (26.7166)

Nlocal:    41 ave 41 max 41 min
Histogram: 1 0 0 0 0 0 0 0 0 0
Nghost:    185 ave 185 max 185 min
Histogram: 1 0 0 0 0 0 0 0 0 0
Neighs:    359 ave 359 max 359 min
Histogram: 1 0 0 0 0 0 0 0 0 0

Total # of neighbors = 359
Ave neighs/atom = 8.7561
Neighbor list builds = 0
Dangerous builds = 0
	# write_dump all atom ${dumpfile}
        next i
jump SELF loop1
        displace_atoms upper move 0.0 ${ystep1} 0.0 units lattice
        displace_atoms upper move 0.0 0.002 0.0 units lattice
        min_style ${style}
        min_style cg
        minimize ${etol} ${ftol} ${maxiter} ${maxeval}
        minimize 1e-12 ${ftol} ${maxiter} ${maxeval}
        minimize 1e-12 1e-08 ${maxiter} ${maxeval}
        minimize 1e-12 1e-08 10000 ${maxeval}
        minimize 1e-12 1e-08 10000 20000
WARNING: Resetting reneighboring criteria during minimization (../min.cpp:168)
Memory usage per processor = 3.35962 Mbytes
Step Temp PotEng Lx Ly Lz 
       6            0   -120.99339    1.1224537    38.910253    1.1224537 
       7            0   -120.99339    1.1224537    38.910253    1.1224537 
Loop time of 5.8964e-05 on 1 procs for 1 steps with 41 atoms

Minimization stats:
  Stopping criterion = linesearch alpha is zero
  Energy initial, next-to-last, final = 
        -120.993389112     -120.993389112     -120.993389112
  Force two-norm initial, final = 1.70736e-17 1.70736e-17
  Force max component initial, final = 1.25767e-17 1.25767e-17
  Final line search alpha, max atom move = 0.5 6.28837e-18
  Iterations, force evaluations = 1 2

Pair  time (%) = 4.18839e-05 (71.033)
Neigh time (%) = 0 (0)
Comm  time (%) = 4.14404e-06 (7.02808)
Outpt time (%) = 0 (0)
Other time (%) = 1.29361e-05 (21.9389)

Nlocal:    41 ave 41 max 41 min
Histogram: 1 0 0 0 0 0 0 0 0 0
Nghost:    185 ave 185 max 185 min
Histogram: 1 0 0 0 0 0 0 0 0 0
Neighs:    359 ave 359 max 359 min
Histogram: 1 0 0 0 0 0 0 0 0 0

Total # of neighbors = 359
Ave neighs/atom = 8.7561
Neighbor list builds = 0
Dangerous builds = 0
	# write_dump all atom ${dumpfile}
        next i
jump SELF loop1
        displace_atoms upper move 0.0 ${ystep1} 0.0 units lattice
        displace_atoms upper move 0.0 0.002 0.0 units lattice
        min_style ${style}
        min_style cg
        minimize ${etol} ${ftol} ${maxiter} ${maxeval}
        minimize 1e-12 ${ftol} ${maxiter} ${maxeval}
        minimize 1e-12 1e-08 ${maxiter} ${maxeval}
        minimize 1e-12 1e-08 10000 ${maxeval}
        minimize 1e-12 1e-08 10000 20000
WARNING: Resetting reneighboring criteria during minimization (../min.cpp:168)
Memory usage per processor = 3.35962 Mbytes
Step Temp PotEng Lx Ly Lz 
       7            0    -120.9906    1.1224537    38.914142    1.1224537 
       8            0    -120.9906    1.1224537    38.914142    1.1224537 
Loop time of 4.01101e-05 on 1 procs for 1 steps with 41 atoms

Minimization stats:
  Stopping criterion = linesearch alpha is zero
  Energy initial, next-to-last, final = 
        -120.990596162     -120.990596162     -120.990596162
  Force two-norm initial, final = 1.56563e-17 1.56563e-17
  Force max component initial, final = 1.25767e-17 1.25767e-17
  Final line search alpha, max atom move = 0.5 6.28837e-18
  Iterations, force evaluations = 1 2

Pair  time (%) = 2.51301e-05 (62.6528)
Neigh time (%) = 0 (0)
Comm  time (%) = 4.80248e-06 (11.9733)
Outpt time (%) = 0 (0)
Other time (%) = 1.01775e-05 (25.3739)

Nlocal:    41 ave 41 max 41 min
Histogram: 1 0 0 0 0 0 0 0 0 0
Nghost:    185 ave 185 max 185 min
Histogram: 1 0 0 0 0 0 0 0 0 0
Neighs:    359 ave 359 max 359 min
Histogram: 1 0 0 0 0 0 0 0 0 0

Total # of neighbors = 359
Ave neighs/atom = 8.7561
Neighbor list builds = 0
Dangerous builds = 0
	# write_dump all atom ${dumpfile}
        next i
jump SELF loop1
        displace_atoms upper move 0.0 ${ystep1} 0.0 units lattice
        displace_atoms upper move 0.0 0.002 0.0 units lattice
        min_style ${style}
        min_style cg
        minimize ${etol} ${ftol} ${maxiter} ${maxeval}
        minimize 1e-12 ${ftol} ${maxiter} ${maxeval}
        minimize 1e-12 1e-08 ${maxiter} ${maxeval}
        minimize 1e-12 1e-08 10000 ${maxeval}
        minimize 1e-12 1e-08 10000 20000
WARNING: Resetting reneighboring criteria during minimization (../min.cpp:168)
Memory usage per processor = 3.35962 Mbytes
Step Temp PotEng Lx Ly Lz 
       8            0   -120.98735    1.1224537     38.91803    1.1224537 
       9            0   -120.98735    1.1224537     38.91803    1.1224537 
Loop time of 4.00053e-05 on 1 procs for 1 steps with 41 atoms

Minimization stats:
  Stopping criterion = linesearch alpha is zero
  Energy initial, next-to-last, final = 
         -120.98734878      -120.98734878      -120.98734878
  Force two-norm initial, final = 1.62112e-17 1.62112e-17
  Force max component initial, final = 1.51788e-17 1.51788e-17
  Final line search alpha, max atom move = 0.5 7.58942e-18
  Iterations, force evaluations = 1 2

Pair  time (%) = 2.48159e-05 (62.0315)
Neigh time (%) = 0 (0)
Comm  time (%) = 4.17419e-06 (10.4341)
Outpt time (%) = 0 (0)
Other time (%) = 1.10152e-05 (27.5344)

Nlocal:    41 ave 41 max 41 min
Histogram: 1 0 0 0 0 0 0 0 0 0
Nghost:    185 ave 185 max 185 min
Histogram: 1 0 0 0 0 0 0 0 0 0
Neighs:    359 ave 359 max 359 min
Histogram: 1 0 0 0 0 0 0 0 0 0

Total # of neighbors = 359
Ave neighs/atom = 8.7561
Neighbor list builds = 0
Dangerous builds = 0
	# write_dump all atom ${dumpfile}
        next i
jump SELF loop1
        displace_atoms upper move 0.0 ${ystep1} 0.0 units lattice
        displace_atoms upper move 0.0 0.002 0.0 units lattice
        min_style ${style}
        min_style cg
        minimize ${etol} ${ftol} ${maxiter} ${maxeval}
        minimize 1e-12 ${ftol} ${maxiter} ${maxeval}
        minimize 1e-12 1e-08 ${maxiter} ${maxeval}
        minimize 1e-12 1e-08 10000 ${maxeval}
        minimize 1e-12 1e-08 10000 20000
WARNING: Resetting reneighboring criteria during minimization (../min.cpp:168)
Memory usage per processor = 3.35962 Mbytes
Step Temp PotEng Lx Ly Lz 
       9            0   -120.98366    1.1224537    38.921918    1.1224537 
      10            0   -120.98366    1.1224537    38.921918    1.1224537 
Loop time of 3.89118e-05 on 1 procs for 1 steps with 41 atoms

Minimization stats:
  Stopping criterion = linesearch alpha is zero
  Energy initial, next-to-last, final = 
        -120.983662255     -120.983662255     -120.983662255
  Force two-norm initial, final = 2.94715e-17 2.94715e-17
  Force max component initial, final = 2.52619e-17 2.52619e-17
  Final line search alpha, max atom move = 0.5 1.2631e-17
  Iterations, force evaluations = 1 2

Pair  time (%) = 2.52043e-05 (64.7728)
Neigh time (%) = 0 (0)
Comm  time (%) = 4.99713e-06 (12.8422)
Outpt time (%) = 0 (0)
Other time (%) = 8.71043e-06 (22.385)

Nlocal:    41 ave 41 max 41 min
Histogram: 1 0 0 0 0 0 0 0 0 0
Nghost:    185 ave 185 max 185 min
Histogram: 1 0 0 0 0 0 0 0 0 0
Neighs:    359 ave 359 max 359 min
Histogram: 1 0 0 0 0 0 0 0 0 0

Total # of neighbors = 359
Ave neighs/atom = 8.7561
Neighbor list builds = 0
Dangerous builds = 0
	# write_dump all atom ${dumpfile}
        next i
jump SELF loop1
        displace_atoms upper move 0.0 ${ystep1} 0.0 units lattice
        displace_atoms upper move 0.0 0.002 0.0 units lattice
        min_style ${style}
        min_style cg
        minimize ${etol} ${ftol} ${maxiter} ${maxeval}
        minimize 1e-12 ${ftol} ${maxiter} ${maxeval}
        minimize 1e-12 1e-08 ${maxiter} ${maxeval}
        minimize 1e-12 1e-08 10000 ${maxeval}
        minimize 1e-12 1e-08 10000 20000
WARNING: Resetting reneighboring criteria during minimization (../min.cpp:168)
Memory usage per processor = 3.35962 Mbytes
Step Temp PotEng Lx Ly Lz 
      10            0   -120.97955    1.1224537    38.925807    1.1224537 
      11            0   -120.97955    1.1224537    38.925807    1.1224537 
Loop time of 3.90918e-05 on 1 procs for 1 steps with 41 atoms

Minimization stats:
  Stopping criterion = linesearch alpha is zero
  Energy initial, next-to-last, final = 
        -120.979550066     -120.979550066     -120.979550066
  Force two-norm initial, final = 3.11605e-17 3.11605e-17
  Force max component initial, final = 2.72135e-17 2.72135e-17
  Final line search alpha, max atom move = 0.5 1.36067e-17
  Iterations, force evaluations = 1 2

Pair  time (%) = 2.50291e-05 (64.0264)
Neigh time (%) = 0 (0)
Comm  time (%) = 1.64681e-06 (4.21268)
Outpt time (%) = 0 (0)
Other time (%) = 1.24159e-05 (31.761)

Nlocal:    41 ave 41 max 41 min
Histogram: 1 0 0 0 0 0 0 0 0 0
Nghost:    185 ave 185 max 185 min
Histogram: 1 0 0 0 0 0 0 0 0 0
Neighs:    359 ave 359 max 359 min
Histogram: 1 0 0 0 0 0 0 0 0 0

Total # of neighbors = 359
Ave neighs/atom = 8.7561
Neighbor list builds = 0
Dangerous builds = 0
	# write_dump all atom ${dumpfile}
        next i
jump SELF loop1
        displace_atoms upper move 0.0 ${ystep1} 0.0 units lattice
        displace_atoms upper move 0.0 0.002 0.0 units lattice
        min_style ${style}
        min_style cg
        minimize ${etol} ${ftol} ${maxiter} ${maxeval}
        minimize 1e-12 ${ftol} ${maxiter} ${maxeval}
        minimize 1e-12 1e-08 ${maxiter} ${maxeval}
        minimize 1e-12 1e-08 10000 ${maxeval}
        minimize 1e-12 1e-08 10000 20000
WARNING: Resetting reneighboring criteria during minimization (../min.cpp:168)
Memory usage per processor = 3.35962 Mbytes
Step Temp PotEng Lx Ly Lz 
      11            0   -120.97503    1.1224537    38.929695    1.1224537 
      12            0   -120.97503    1.1224537    38.929695    1.1224537 
Loop time of 4.09862e-05 on 1 procs for 1 steps with 41 atoms

Minimization stats:
  Stopping criterion = linesearch alpha is zero
  Energy initial, next-to-last, final = 
        -120.975028663     -120.975028663     -120.975028663
  Force two-norm initial, final = 2.85476e-17 2.85476e-17
  Force max component initial, final = 2.41777e-17 2.41777e-17
  Final line search alpha, max atom move = 0.5 1.20889e-17
  Iterations, force evaluations = 1 2

Pair  time (%) = 2.48512e-05 (60.633)
Neigh time (%) = 0 (0)
Comm  time (%) = 5.76791e-06 (14.0728)
Outpt time (%) = 0 (0)
Other time (%) = 1.03671e-05 (25.2942)

Nlocal:    41 ave 41 max 41 min
Histogram: 1 0 0 0 0 0 0 0 0 0
Nghost:    185 ave 185 max 185 min
Histogram: 1 0 0 0 0 0 0 0 0 0
Neighs:    359 ave 359 max 359 min
Histogram: 1 0 0 0 0 0 0 0 0 0

Total # of neighbors = 359
Ave neighs/atom = 8.7561
Neighbor list builds = 0
Dangerous builds = 0
	# write_dump all atom ${dumpfile}
        next i
jump SELF loop1
        displace_atoms upper move 0.0 ${ystep1} 0.0 units lattice
        displace_atoms upper move 0.0 0.002 0.0 units lattice
        min_style ${style}
        min_style cg
        minimize ${etol} ${ftol} ${maxiter} ${maxeval}
        minimize 1e-12 ${ftol} ${maxiter} ${maxeval}
        minimize 1e-12 1e-08 ${maxiter} ${maxeval}
        minimize 1e-12 1e-08 10000 ${maxeval}
        minimize 1e-12 1e-08 10000 20000
WARNING: Resetting reneighboring criteria during minimization (../min.cpp:168)
Memory usage per processor = 3.35962 Mbytes
Step Temp PotEng Lx Ly Lz 
      12            0   -120.97011    1.1224537    38.933583    1.1224537 
      13            0   -120.97011    1.1224537    38.933583    1.1224537 
Loop time of 1.01409e-06 on 1 procs for 1 steps with 41 atoms

Minimization stats:
  Stopping criterion = linesearch alpha is zero
  Energy initial, next-to-last, final = 
        -120.970112426     -120.970112426     -120.970112426
  Force two-norm initial, final = 2.25651e-17 2.25651e-17
  Force max component initial, final = 1.66967e-17 1.66967e-17
  Final line search alpha, max atom move = 0.5 8.34836e-18
  Iterations, force evaluations = 1 2

Pair  time (%) = 8.88249e-08 (8.75904)
Neigh time (%) = 0 (0)
Comm  time (%) = 1.13132e-06 (111.56)
Outpt time (%) = 0 (0)
Other time (%) = -2.06055e-07 (-20.3191)

Nlocal:    41 ave 41 max 41 min
Histogram: 1 0 0 0 0 0 0 0 0 0
Nghost:    185 ave 185 max 185 min
Histogram: 1 0 0 0 0 0 0 0 0 0
Neighs:    359 ave 359 max 359 min
Histogram: 1 0 0 0 0 0 0 0 0 0

Total # of neighbors = 359
Ave neighs/atom = 8.7561
Neighbor list builds = 0
Dangerous builds = 0
	# write_dump all atom ${dumpfile}
        next i
jump SELF loop1
        displace_atoms upper move 0.0 ${ystep1} 0.0 units lattice
        displace_atoms upper move 0.0 0.002 0.0 units lattice
        min_style ${style}
        min_style cg
        minimize ${etol} ${ftol} ${maxiter} ${maxeval}
        minimize 1e-12 ${ftol} ${maxiter} ${maxeval}
        minimize 1e-12 1e-08 ${maxiter} ${maxeval}
        minimize 1e-12 1e-08 10000 ${maxeval}
        minimize 1e-12 1e-08 10000 20000
WARNING: Resetting reneighboring criteria during minimization (../min.cpp:168)
Memory usage per processor = 3.35962 Mbytes
Step Temp PotEng Lx Ly Lz 
      13            0   -120.96482    1.1224537    38.937471    1.1224537 
      14            0   -120.96482    1.1224537    38.937471    1.1224537 
Loop time of 4.00372e-05 on 1 procs for 1 steps with 41 atoms

Minimization stats:
  Stopping criterion = linesearch alpha is zero
  Energy initial, next-to-last, final = 
        -120.964815371     -120.964815371     -120.964815371
  Force two-norm initial, final = 1.68277e-17 1.68277e-17
  Force max component initial, final = 1.51788e-17 1.51788e-17
  Final line search alpha, max atom move = 0.5 7.58942e-18
  Iterations, force evaluations = 1 2

Pair  time (%) = 2.4958e-05 (62.3371)
Neigh time (%) = 0 (0)
Comm  time (%) = 2.9814e-06 (7.44656)
Outpt time (%) = 0 (0)
Other time (%) = 1.20978e-05 (30.2163)

Nlocal:    41 ave 41 max 41 min
Histogram: 1 0 0 0 0 0 0 0 0 0
Nghost:    185 ave 185 max 185 min
Histogram: 1 0 0 0 0 0 0 0 0 0
Neighs:    359 ave 359 max 359 min
Histogram: 1 0 0 0 0 0 0 0 0 0

Total # of neighbors = 359
Ave neighs/atom = 8.7561
Neighbor list builds = 0
Dangerous builds = 0
	# write_dump all atom ${dumpfile}
        next i
jump SELF loop1
        displace_atoms upper move 0.0 ${ystep1} 0.0 units lattice
        displace_atoms upper move 0.0 0.002 0.0 units lattice
        min_style ${style}
        min_style cg
        minimize ${etol} ${ftol} ${maxiter} ${maxeval}
        minimize 1e-12 ${ftol} ${maxiter} ${maxeval}
        minimize 1e-12 1e-08 ${maxiter} ${maxeval}
        minimize 1e-12 1e-08 10000 ${maxeval}
        minimize 1e-12 1e-08 10000 20000
WARNING: Resetting reneighboring criteria during minimization (../min.cpp:168)
Memory usage per processor = 3.35962 Mbytes
Step Temp PotEng Lx Ly Lz 
      14            0   -120.95915    1.1224537     38.94136    1.1224537 
      15            0   -120.95915    1.1224537     38.94136    1.1224537 
Loop time of 3.90019e-05 on 1 procs for 1 steps with 41 atoms

Minimization stats:
  Stopping criterion = linesearch alpha is zero
  Energy initial, next-to-last, final = 
        -120.959151201     -120.959151201     -120.959151201
  Force two-norm initial, final = 2.62031e-17 2.62031e-17
  Force max component initial, final = 2.13588e-17 2.13588e-17
  Final line search alpha, max atom move = 0.5 1.06794e-17
  Iterations, force evaluations = 1 2

Pair  time (%) = 2.47594e-05 (63.4826)
Neigh time (%) = 0 (0)
Comm  time (%) = 2.29967e-06 (5.89629)
Outpt time (%) = 0 (0)
Other time (%) = 1.19428e-05 (30.6211)

Nlocal:    41 ave 41 max 41 min
Histogram: 1 0 0 0 0 0 0 0 0 0
Nghost:    185 ave 185 max 185 min
Histogram: 1 0 0 0 0 0 0 0 0 0
Neighs:    359 ave 359 max 359 min
Histogram: 1 0 0 0 0 0 0 0 0 0

Total # of neighbors = 359
Ave neighs/atom = 8.7561
Neighbor list builds = 0
Dangerous builds = 0
	# write_dump all atom ${dumpfile}
        next i
jump SELF loop1
        displace_atoms upper move 0.0 ${ystep1} 0.0 units lattice
        displace_atoms upper move 0.0 0.002 0.0 units lattice
        min_style ${style}
        min_style cg
        minimize ${etol} ${ftol} ${maxiter} ${maxeval}
        minimize 1e-12 ${ftol} ${maxiter} ${maxeval}
        minimize 1e-12 1e-08 ${maxiter} ${maxeval}
        minimize 1e-12 1e-08 10000 ${maxeval}
        minimize 1e-12 1e-08 10000 20000
WARNING: Resetting reneighboring criteria during minimization (../min.cpp:168)
Memory usage per processor = 3.35962 Mbytes
Step Temp PotEng Lx Ly Lz 
      15            0   -120.95313    1.1224537    38.945248    1.1224537 
      16            0   -120.95313    1.1224537    38.945248    1.1224537 
Loop time of 3.993e-05 on 1 procs for 1 steps with 41 atoms

Minimization stats:
  Stopping criterion = linesearch alpha is zero
  Energy initial, next-to-last, final = 
        -120.953133304     -120.953133304     -120.953133304
  Force two-norm initial, final = 2.97508e-17 2.97508e-17
  Force max component initial, final = 2.55872e-17 2.55872e-17
  Final line search alpha, max atom move = 0.5 1.27936e-17
  Iterations, force evaluations = 1 2

Pair  time (%) = 2.53052e-05 (63.3739)
Neigh time (%) = 0 (0)
Comm  time (%) = 4.15277e-06 (10.4001)
Outpt time (%) = 0 (0)
Other time (%) = 1.0472e-05 (26.226)

Nlocal:    41 ave 41 max 41 min
Histogram: 1 0 0 0 0 0 0 0 0 0
Nghost:    185 ave 185 max 185 min
Histogram: 1 0 0 0 0 0 0 0 0 0
Neighs:    359 ave 359 max 359 min
Histogram: 1 0 0 0 0 0 0 0 0 0

Total # of neighbors = 359
Ave neighs/atom = 8.7561
Neighbor list builds = 0
Dangerous builds = 0
	# write_dump all atom ${dumpfile}
        next i
jump SELF loop1
        displace_atoms upper move 0.0 ${ystep1} 0.0 units lattice
        displace_atoms upper move 0.0 0.002 0.0 units lattice
        min_style ${style}
        min_style cg
        minimize ${etol} ${ftol} ${maxiter} ${maxeval}
        minimize 1e-12 ${ftol} ${maxiter} ${maxeval}
        minimize 1e-12 1e-08 ${maxiter} ${maxeval}
        minimize 1e-12 1e-08 10000 ${maxeval}
        minimize 1e-12 1e-08 10000 20000
WARNING: Resetting reneighboring criteria during minimization (../min.cpp:168)
Memory usage per processor = 3.35962 Mbytes
Step Temp PotEng Lx Ly Lz 
      16            0   -120.94677    1.1224537    38.949136    1.1224537 
      17            0   -120.94677    1.1224537    38.949136    1.1224537 
Loop time of 3.89111e-05 on 1 procs for 1 steps with 41 atoms

Minimization stats:
  Stopping criterion = linesearch alpha is zero
  Energy initial, next-to-last, final = 
        -120.946774753     -120.946774753     -120.946774753
  Force two-norm initial, final = 1.74289e-17 1.74289e-17
  Force max component initial, final = 1.51788e-17 1.51788e-17
  Final line search alpha, max atom move = 0.5 7.58942e-18
  Iterations, force evaluations = 1 2

Pair  time (%) = 2.52023e-05 (64.7689)
Neigh time (%) = 0 (0)
Comm  time (%) = 2.99327e-06 (7.69258)
Outpt time (%) = 0 (0)
Other time (%) = 1.07156e-05 (27.5386)

Nlocal:    41 ave 41 max 41 min
Histogram: 1 0 0 0 0 0 0 0 0 0
Nghost:    185 ave 185 max 185 min
Histogram: 1 0 0 0 0 0 0 0 0 0
Neighs:    359 ave 359 max 359 min
Histogram: 1 0 0 0 0 0 0 0 0 0

Total # of neighbors = 359
Ave neighs/atom = 8.7561
Neighbor list builds = 0
Dangerous builds = 0
	# write_dump all atom ${dumpfile}
        next i
jump SELF loop1
        displace_atoms upper move 0.0 ${ystep1} 0.0 units lattice
        displace_atoms upper move 0.0 0.002 0.0 units lattice
        min_style ${style}
        min_style cg
        minimize ${etol} ${ftol} ${maxiter} ${maxeval}
        minimize 1e-12 ${ftol} ${maxiter} ${maxeval}
        minimize 1e-12 1e-08 ${maxiter} ${maxeval}
        minimize 1e-12 1e-08 10000 ${maxeval}
        minimize 1e-12 1e-08 10000 20000
WARNING: Resetting reneighboring criteria during minimization (../min.cpp:168)
Memory usage per processor = 3.35962 Mbytes
Step Temp PotEng Lx Ly Lz 
      17            0   -120.94009    1.1224537    38.953025    1.1224537 
      18            0   -120.94009    1.1224537    38.953025    1.1224537 
Loop time of 4.00122e-05 on 1 procs for 1 steps with 41 atoms

Minimization stats:
  Stopping criterion = linesearch alpha is zero
  Energy initial, next-to-last, final = 
        -120.940088362     -120.940088362     -120.940088362
  Force two-norm initial, final = 3.07825e-17 3.07825e-17
  Force max component initial, final = 2.67798e-17 2.67798e-17
  Final line search alpha, max atom move = 0.5 1.33899e-17
  Iterations, force evaluations = 1 2

Pair  time (%) = 2.58363e-05 (64.5711)
Neigh time (%) = 0 (0)
Comm  time (%) = 3.78443e-06 (9.45819)
Outpt time (%) = 0 (0)
Other time (%) = 1.03915e-05 (25.9708)

Nlocal:    41 ave 41 max 41 min
Histogram: 1 0 0 0 0 0 0 0 0 0
Nghost:    185 ave 185 max 185 min
Histogram: 1 0 0 0 0 0 0 0 0 0
Neighs:    359 ave 359 max 359 min
Histogram: 1 0 0 0 0 0 0 0 0 0

Total # of neighbors = 359
Ave neighs/atom = 8.7561
Neighbor list builds = 0
Dangerous builds = 0
	# write_dump all atom ${dumpfile}
        next i
jump SELF loop1
        displace_atoms upper move 0.0 ${ystep1} 0.0 units lattice
        displace_atoms upper move 0.0 0.002 0.0 units lattice
        min_style ${style}
        min_style cg
        minimize ${etol} ${ftol} ${maxiter} ${maxeval}
        minimize 1e-12 ${ftol} ${maxiter} ${maxeval}
        minimize 1e-12 1e-08 ${maxiter} ${maxeval}
        minimize 1e-12 1e-08 10000 ${maxeval}
        minimize 1e-12 1e-08 10000 20000
WARNING: Resetting reneighboring criteria during minimization (../min.cpp:168)
Memory usage per processor = 3.35962 Mbytes
Step Temp PotEng Lx Ly Lz 
      18            0   -120.93311    1.1224537    38.956913    1.1224537 
      19            0   -120.93311    1.1224537    38.956913    1.1224537 
Loop time of 3.99537e-05 on 1 procs for 1 steps with 41 atoms

Minimization stats:
  Stopping criterion = linesearch alpha is zero
  Energy initial, next-to-last, final = 
         -120.93310893      -120.93310893      -120.93310893
  Force two-norm initial, final = 2.41713e-17 2.41713e-17
  Force max component initial, final = 1.88109e-17 1.88109e-17
  Final line search alpha, max atom move = 0.5 9.40545e-18
  Iterations, force evaluations = 1 2

Pair  time (%) = 2.48996e-05 (62.3211)
Neigh time (%) = 0 (0)
Comm  time (%) = 4.34148e-06 (10.8663)
Outpt time (%) = 0 (0)
Other time (%) = 1.07127e-05 (26.8126)

Nlocal:    41 ave 41 max 41 min
Histogram: 1 0 0 0 0 0 0 0 0 0
Nghost:    185 ave 185 max 185 min
Histogram: 1 0 0 0 0 0 0 0 0 0
Neighs:    355 ave 355 max 355 min
Histogram: 1 0 0 0 0 0 0 0 0 0

Total # of neighbors = 355
Ave neighs/atom = 8.65854
Neighbor list builds = 0
Dangerous builds = 0
	# write_dump all atom ${dumpfile}
        next i
jump SELF loop1
        displace_atoms upper move 0.0 ${ystep1} 0.0 units lattice
        displace_atoms upper move 0.0 0.002 0.0 units lattice
        min_style ${style}
        min_style cg
        minimize ${etol} ${ftol} ${maxiter} ${maxeval}
        minimize 1e-12 ${ftol} ${maxiter} ${maxeval}
        minimize 1e-12 1e-08 ${maxiter} ${maxeval}
        minimize 1e-12 1e-08 10000 ${maxeval}
        minimize 1e-12 1e-08 10000 20000
WARNING: Resetting reneighboring criteria during minimization (../min.cpp:168)
Memory usage per processor = 3.35962 Mbytes
Step Temp PotEng Lx Ly Lz 
      19            0     -120.926    1.1224537    38.960801    1.1224537 
      20            0     -120.926    1.1224537    38.960801    1.1224537 
Loop time of 3.89756e-05 on 1 procs for 1 steps with 41 atoms

Minimization stats:
  Stopping criterion = linesearch alpha is zero
  Energy initial, next-to-last, final = 
        -120.925996066     -120.925996066     -120.925996066
  Force two-norm initial, final = 2.66468e-17 2.66468e-17
  Force max component initial, final = 2.19009e-17 2.19009e-17
  Final line search alpha, max atom move = 0.5 1.09504e-17
  Iterations, force evaluations = 1 2

Pair  time (%) = 2.39189e-05 (61.3689)
Neigh time (%) = 0 (0)
Comm  time (%) = 3.3339e-06 (8.55381)
Outpt time (%) = 0 (0)
Other time (%) = 1.17228e-05 (30.0772)

Nlocal:    41 ave 41 max 41 min
Histogram: 1 0 0 0 0 0 0 0 0 0
Nghost:    185 ave 185 max 185 min
Histogram: 1 0 0 0 0 0 0 0 0 0
Neighs:    355 ave 355 max 355 min
Histogram: 1 0 0 0 0 0 0 0 0 0

Total # of neighbors = 355
Ave neighs/atom = 8.65854
Neighbor list builds = 0
Dangerous builds = 0
	# write_dump all atom ${dumpfile}
        next i
jump SELF loop1
        displace_atoms upper move 0.0 ${ystep1} 0.0 units lattice
        displace_atoms upper move 0.0 0.002 0.0 units lattice
        min_style ${style}
        min_style cg
        minimize ${etol} ${ftol} ${maxiter} ${maxeval}
        minimize 1e-12 ${ftol} ${maxiter} ${maxeval}
        minimize 1e-12 1e-08 ${maxiter} ${maxeval}
        minimize 1e-12 1e-08 10000 ${maxeval}
        minimize 1e-12 1e-08 10000 20000
WARNING: Resetting reneighboring criteria during minimization (../min.cpp:168)
Memory usage per processor = 3.35962 Mbytes
Step Temp PotEng Lx Ly Lz 
      20            0   -120.91878    1.1224537    38.964689    1.1224537 
      21            0   -120.91878    1.1224537    38.964689    1.1224537 
Loop time of 3.91026e-05 on 1 procs for 1 steps with 41 atoms

Minimization stats:
  Stopping criterion = linesearch alpha is zero
  Energy initial, next-to-last, final = 
        -120.918781526     -120.918781526     -120.918781526
  Force two-norm initial, final = 5.98221e-17 5.98221e-17
  Force max component initial, final = 4.41812e-17 4.41812e-17
  Final line search alpha, max atom move = 0.5 2.20906e-17
  Iterations, force evaluations = 1 2

Pair  time (%) = 2.40613e-05 (61.5337)
Neigh time (%) = 0 (0)
Comm  time (%) = 2.66498e-06 (6.81535)
Outpt time (%) = 0 (0)
Other time (%) = 1.23763e-05 (31.6509)

Nlocal:    41 ave 41 max 41 min
Histogram: 1 0 0 0 0 0 0 0 0 0
Nghost:    185 ave 185 max 185 min
Histogram: 1 0 0 0 0 0 0 0 0 0
Neighs:    355 ave 355 max 355 min
Histogram: 1 0 0 0 0 0 0 0 0 0

Total # of neighbors = 355
Ave neighs/atom = 8.65854
Neighbor list builds = 0
Dangerous builds = 0
	# write_dump all atom ${dumpfile}
        next i
jump SELF loop1
        displace_atoms upper move 0.0 ${ystep1} 0.0 units lattice
        displace_atoms upper move 0.0 0.002 0.0 units lattice
        min_style ${style}
        min_style cg
        minimize ${etol} ${ftol} ${maxiter} ${maxeval}
        minimize 1e-12 ${ftol} ${maxiter} ${maxeval}
        minimize 1e-12 1e-08 ${maxiter} ${maxeval}
        minimize 1e-12 1e-08 10000 ${maxeval}
        minimize 1e-12 1e-08 10000 20000
WARNING: Resetting reneighboring criteria during minimization (../min.cpp:168)
Memory usage per processor = 3.35962 Mbytes
Step Temp PotEng Lx Ly Lz 
      21            0   -120.91147    1.1224537    38.968578    1.1224537 
      22            0   -120.91147    1.1224537    38.968578    1.1224537 
Loop time of 5.4897e-05 on 1 procs for 1 steps with 41 atoms

Minimization stats:
  Stopping criterion = linesearch alpha is zero
  Energy initial, next-to-last, final = 
        -120.911466111     -120.911466111     -120.911466111
  Force two-norm initial, final = 4.43669e-17 4.43669e-17
  Force max component initial, final = 4.03323e-17 4.03323e-17
  Final line search alpha, max atom move = 0.5 2.01662e-17
  Iterations, force evaluations = 1 2

Pair  time (%) = 2.8066e-05 (51.1248)
Neigh time (%) = 0 (0)
Comm  time (%) = 8.82009e-06 (16.0666)
Outpt time (%) = 0 (0)
Other time (%) = 1.8011e-05 (32.8086)

Nlocal:    41 ave 41 max 41 min
Histogram: 1 0 0 0 0 0 0 0 0 0
Nghost:    185 ave 185 max 185 min
Histogram: 1 0 0 0 0 0 0 0 0 0
Neighs:    355 ave 355 max 355 min
Histogram: 1 0 0 0 0 0 0 0 0 0

Total # of neighbors = 355
Ave neighs/atom = 8.65854
Neighbor list builds = 0
Dangerous builds = 0
	# write_dump all atom ${dumpfile}
        next i
jump SELF loop1
        displace_atoms upper move 0.0 ${ystep1} 0.0 units lattice
        displace_atoms upper move 0.0 0.002 0.0 units lattice
        min_style ${style}
        min_style cg
        minimize ${etol} ${ftol} ${maxiter} ${maxeval}
        minimize 1e-12 ${ftol} ${maxiter} ${maxeval}
        minimize 1e-12 1e-08 ${maxiter} ${maxeval}
        minimize 1e-12 1e-08 10000 ${maxeval}
        minimize 1e-12 1e-08 10000 20000
WARNING: Resetting reneighboring criteria during minimization (../min.cpp:168)
Memory usage per processor = 3.35962 Mbytes
Step Temp PotEng Lx Ly Lz 
      22            0   -120.90405    1.1224537    38.972466    1.1224537 
      23            0   -120.90405    1.1224537    38.972466    1.1224537 
Loop time of 3.90295e-05 on 1 procs for 1 steps with 41 atoms

Minimization stats:
  Stopping criterion = linesearch alpha is zero
  Energy initial, next-to-last, final = 
        -120.904050692     -120.904050692     -120.904050692
  Force two-norm initial, final = 5.53034e-17 5.53034e-17
  Force max component initial, final = 4.03323e-17 4.03323e-17
  Final line search alpha, max atom move = 0.5 2.01662e-17
  Iterations, force evaluations = 1 2

Pair  time (%) = 2.38884e-05 (61.206)
Neigh time (%) = 0 (0)
Comm  time (%) = 4.74963e-06 (12.1693)
Outpt time (%) = 0 (0)
Other time (%) = 1.03915e-05 (26.6246)

Nlocal:    41 ave 41 max 41 min
Histogram: 1 0 0 0 0 0 0 0 0 0
Nghost:    185 ave 185 max 185 min
Histogram: 1 0 0 0 0 0 0 0 0 0
Neighs:    355 ave 355 max 355 min
Histogram: 1 0 0 0 0 0 0 0 0 0

Total # of neighbors = 355
Ave neighs/atom = 8.65854
Neighbor list builds = 0
Dangerous builds = 0
	# write_dump all atom ${dumpfile}
        next i
jump SELF loop1
        displace_atoms upper move 0.0 ${ystep1} 0.0 units lattice
        displace_atoms upper move 0.0 0.002 0.0 units lattice
        min_style ${style}
        min_style cg
        minimize ${etol} ${ftol} ${maxiter} ${maxeval}
        minimize 1e-12 ${ftol} ${maxiter} ${maxeval}
        minimize 1e-12 1e-08 ${maxiter} ${maxeval}
        minimize 1e-12 1e-08 10000 ${maxeval}
        minimize 1e-12 1e-08 10000 20000
WARNING: Resetting reneighboring criteria during minimization (../min.cpp:168)
Memory usage per processor = 3.35962 Mbytes
Step Temp PotEng Lx Ly Lz 
      23            0   -120.89654    1.1224537    38.976354    1.1224537 
      24            0   -120.89654    1.1224537    38.976354    1.1224537 
Loop time of 3.99112e-05 on 1 procs for 1 steps with 41 atoms

Minimization stats:
  Stopping criterion = linesearch alpha is zero
  Energy initial, next-to-last, final = 
        -120.896535845     -120.896535845     -120.896535845
  Force two-norm initial, final = 5.39509e-17 5.39509e-17
  Force max component initial, final = 4.03323e-17 4.03323e-17
  Final line search alpha, max atom move = 0.5 2.01662e-17
  Iterations, force evaluations = 1 2

Pair  time (%) = 2.52489e-05 (63.2625)
Neigh time (%) = 0 (0)
Comm  time (%) = 5.08619e-06 (12.7437)
Outpt time (%) = 0 (0)
Other time (%) = 9.57621e-06 (23.9938)

Nlocal:    41 ave 41 max 41 min
Histogram: 1 0 0 0 0 0 0 0 0 0
Nghost:    185 ave 185 max 185 min
Histogram: 1 0 0 0 0 0 0 0 0 0
Neighs:    355 ave 355 max 355 min
Histogram: 1 0 0 0 0 0 0 0 0 0

Total # of neighbors = 355
Ave neighs/atom = 8.65854
Neighbor list builds = 0
Dangerous builds = 0
	# write_dump all atom ${dumpfile}
        next i
jump SELF loop1
        displace_atoms upper move 0.0 ${ystep1} 0.0 units lattice
        displace_atoms upper move 0.0 0.002 0.0 units lattice
        min_style ${style}
        min_style cg
        minimize ${etol} ${ftol} ${maxiter} ${maxeval}
        minimize 1e-12 ${ftol} ${maxiter} ${maxeval}
        minimize 1e-12 1e-08 ${maxiter} ${maxeval}
        minimize 1e-12 1e-08 10000 ${maxeval}
        minimize 1e-12 1e-08 10000 20000
WARNING: Resetting reneighboring criteria during minimization (../min.cpp:168)
Memory usage per processor = 3.35962 Mbytes
Step Temp PotEng Lx Ly Lz 
      24            0   -120.88892    1.1224537    38.980243    1.1224537 
      25            0   -120.88892    1.1224537    38.980243    1.1224537 
Loop time of 4.00381e-05 on 1 procs for 1 steps with 41 atoms

Minimization stats:
  Stopping criterion = linesearch alpha is zero
  Energy initial, next-to-last, final = 
        -120.888922668     -120.888922668     -120.888922668
  Force two-norm initial, final = 6.08705e-17 6.08705e-17
  Force max component initial, final = 4.55907e-17 4.55907e-17
  Final line search alpha, max atom move = 0.5 2.27954e-17
  Iterations, force evaluations = 1 2

Pair  time (%) = 2.49143e-05 (62.2264)
Neigh time (%) = 0 (0)
Comm  time (%) = 4.8941e-06 (12.2236)
Outpt time (%) = 0 (0)
Other time (%) = 1.02298e-05 (25.55)

Nlocal:    41 ave 41 max 41 min
Histogram: 1 0 0 0 0 0 0 0 0 0
Nghost:    185 ave 185 max 185 min
Histogram: 1 0 0 0 0 0 0 0 0 0
Neighs:    355 ave 355 max 355 min
Histogram: 1 0 0 0 0 0 0 0 0 0

Total # of neighbors = 355
Ave neighs/atom = 8.65854
Neighbor list builds = 0
Dangerous builds = 0
	# write_dump all atom ${dumpfile}
        next i
jump SELF loop1
        displace_atoms upper move 0.0 ${ystep1} 0.0 units lattice
        displace_atoms upper move 0.0 0.002 0.0 units lattice
        min_style ${style}
        min_style cg
        minimize ${etol} ${ftol} ${maxiter} ${maxeval}
        minimize 1e-12 ${ftol} ${maxiter} ${maxeval}
        minimize 1e-12 1e-08 ${maxiter} ${maxeval}
        minimize 1e-12 1e-08 10000 ${maxeval}
        minimize 1e-12 1e-08 10000 20000
WARNING: Resetting reneighboring criteria during minimization (../min.cpp:168)
Memory usage per processor = 3.35962 Mbytes
Step Temp PotEng Lx Ly Lz 
      25            0   -120.88121    1.1224537    38.984131    1.1224537 
      26            0   -120.88121    1.1224537    38.984131    1.1224537 
Loop time of 3.89798e-05 on 1 procs for 1 steps with 41 atoms

Minimization stats:
  Stopping criterion = linesearch alpha is zero
  Energy initial, next-to-last, final = 
         -120.88121203      -120.88121203      -120.88121203
  Force two-norm initial, final = 4.56642e-17 4.56642e-17
  Force max component initial, final = 4.03323e-17 4.03323e-17
  Final line search alpha, max atom move = 0.5 2.01662e-17
  Iterations, force evaluations = 1 2

Pair  time (%) = 2.53154e-05 (64.945)
Neigh time (%) = 0 (0)
Comm  time (%) = 5.26593e-06 (13.5094)
Outpt time (%) = 0 (0)
Other time (%) = 8.39843e-06 (21.5456)

Nlocal:    41 ave 41 max 41 min
Histogram: 1 0 0 0 0 0 0 0 0 0
Nghost:    185 ave 185 max 185 min
Histogram: 1 0 0 0 0 0 0 0 0 0
Neighs:    355 ave 355 max 355 min
Histogram: 1 0 0 0 0 0 0 0 0 0

Total # of neighbors = 355
Ave neighs/atom = 8.65854
Neighbor list builds = 0
Dangerous builds = 0
	# write_dump all atom ${dumpfile}
        next i
jump SELF loop1
        displace_atoms upper move 0.0 ${ystep1} 0.0 units lattice
        displace_atoms upper move 0.0 0.002 0.0 units lattice
        min_style ${style}
        min_style cg
        minimize ${etol} ${ftol} ${maxiter} ${maxeval}
        minimize 1e-12 ${ftol} ${maxiter} ${maxeval}
        minimize 1e-12 1e-08 ${maxiter} ${maxeval}
        minimize 1e-12 1e-08 10000 ${maxeval}
        minimize 1e-12 1e-08 10000 20000
WARNING: Resetting reneighboring criteria during minimization (../min.cpp:168)
Memory usage per processor = 3.35962 Mbytes
Step Temp PotEng Lx Ly Lz 
      26            0    -120.8734    1.1224537    38.988019    1.1224537 
      27            0    -120.8734    1.1224537    38.988019    1.1224537 
Loop time of 3.90412e-05 on 1 procs for 1 steps with 41 atoms

Minimization stats:
  Stopping criterion = linesearch alpha is zero
  Energy initial, next-to-last, final = 
        -120.873404835     -120.873404835     -120.873404835
  Force two-norm initial, final = 5.11066e-17 5.11066e-17
  Force max component initial, final = 4.03323e-17 4.03323e-17
  Final line search alpha, max atom move = 0.5 2.01662e-17
  Iterations, force evaluations = 1 2

Pair  time (%) = 2.38771e-05 (61.1589)
Neigh time (%) = 0 (0)
Comm  time (%) = 2.77348e-06 (7.10399)
Outpt time (%) = 0 (0)
Other time (%) = 1.23905e-05 (31.7371)

Nlocal:    41 ave 41 max 41 min
Histogram: 1 0 0 0 0 0 0 0 0 0
Nghost:    185 ave 185 max 185 min
Histogram: 1 0 0 0 0 0 0 0 0 0
Neighs:    355 ave 355 max 355 min
Histogram: 1 0 0 0 0 0 0 0 0 0

Total # of neighbors = 355
Ave neighs/atom = 8.65854
Neighbor list builds = 0
Dangerous builds = 0
	# write_dump all atom ${dumpfile}
        next i
jump SELF loop1
        displace_atoms upper move 0.0 ${ystep1} 0.0 units lattice
        displace_atoms upper move 0.0 0.002 0.0 units lattice
        min_style ${style}
        min_style cg
        minimize ${etol} ${ftol} ${maxiter} ${maxeval}
        minimize 1e-12 ${ftol} ${maxiter} ${maxeval}
        minimize 1e-12 1e-08 ${maxiter} ${maxeval}
        minimize 1e-12 1e-08 10000 ${maxeval}
        minimize 1e-12 1e-08 10000 20000
WARNING: Resetting reneighboring criteria during minimization (../min.cpp:168)
Memory usage per processor = 3.35962 Mbytes
Step Temp PotEng Lx Ly Lz 
      27            0    -120.8655    1.1224537    38.991908    1.1224537 
      28            0    -120.8655    1.1224537    38.991908    1.1224537 
Loop time of 4.00292e-05 on 1 procs for 1 steps with 41 atoms

Minimization stats:
  Stopping criterion = linesearch alpha is zero
  Energy initial, next-to-last, final = 
        -120.865501961     -120.865501961     -120.865501961
  Force two-norm initial, final = 5.62394e-17 5.62394e-17
  Force max component initial, final = 4.03323e-17 4.03323e-17
  Final line search alpha, max atom move = 0.5 2.01662e-17
  Iterations, force evaluations = 1 2

Pair  time (%) = 2.48873e-05 (62.1728)
Neigh time (%) = 0 (0)
Comm  time (%) = 4.84008e-06 (12.0914)
Outpt time (%) = 0 (0)
Other time (%) = 1.03018e-05 (25.7358)

Nlocal:    41 ave 41 max 41 min
Histogram: 1 0 0 0 0 0 0 0 0 0
Nghost:    185 ave 185 max 185 min
Histogram: 1 0 0 0 0 0 0 0 0 0
Neighs:    355 ave 355 max 355 min
Histogram: 1 0 0 0 0 0 0 0 0 0

Total # of neighbors = 355
Ave neighs/atom = 8.65854
Neighbor list builds = 0
Dangerous builds = 0
	# write_dump all atom ${dumpfile}
        next i
jump SELF loop1
        displace_atoms upper move 0.0 ${ystep1} 0.0 units lattice
        displace_atoms upper move 0.0 0.002 0.0 units lattice
        min_style ${style}
        min_style cg
        minimize ${etol} ${ftol} ${maxiter} ${maxeval}
        minimize 1e-12 ${ftol} ${maxiter} ${maxeval}
        minimize 1e-12 1e-08 ${maxiter} ${maxeval}
        minimize 1e-12 1e-08 10000 ${maxeval}
        minimize 1e-12 1e-08 10000 20000
WARNING: Resetting reneighboring criteria during minimization (../min.cpp:168)
Memory usage per processor = 3.35962 Mbytes
Step Temp PotEng Lx Ly Lz 
      28            0    -120.8575    1.1224537    38.995796    1.1224537 
      29            0    -120.8575    1.1224537    38.995796    1.1224537 
Loop time of 3.99707e-05 on 1 procs for 1 steps with 41 atoms

Minimization stats:
  Stopping criterion = linesearch alpha is zero
  Energy initial, next-to-last, final = 
        -120.857503857     -120.857503857     -120.857503857
  Force two-norm initial, final = 4.12546e-17 4.12546e-17
  Force max component initial, final = 4.03323e-17 4.03323e-17
  Final line search alpha, max atom move = 0.5 2.01662e-17
  Iterations, force evaluations = 1 2

Pair  time (%) = 2.47122e-05 (61.8257)
Neigh time (%) = 0 (0)
Comm  time (%) = 4.44357e-06 (11.1171)
Outpt time (%) = 0 (0)
Other time (%) = 1.0815e-05 (27.0573)

Nlocal:    41 ave 41 max 41 min
Histogram: 1 0 0 0 0 0 0 0 0 0
Nghost:    185 ave 185 max 185 min
Histogram: 1 0 0 0 0 0 0 0 0 0
Neighs:    355 ave 355 max 355 min
Histogram: 1 0 0 0 0 0 0 0 0 0

Total # of neighbors = 355
Ave neighs/atom = 8.65854
Neighbor list builds = 0
Dangerous builds = 0
	# write_dump all atom ${dumpfile}
        next i
jump SELF loop1
        displace_atoms upper move 0.0 ${ystep1} 0.0 units lattice
        displace_atoms upper move 0.0 0.002 0.0 units lattice
        min_style ${style}
        min_style cg
        minimize ${etol} ${ftol} ${maxiter} ${maxeval}
        minimize 1e-12 ${ftol} ${maxiter} ${maxeval}
        minimize 1e-12 1e-08 ${maxiter} ${maxeval}
        minimize 1e-12 1e-08 10000 ${maxeval}
        minimize 1e-12 1e-08 10000 20000
WARNING: Resetting reneighboring criteria during minimization (../min.cpp:168)
Memory usage per processor = 3.35962 Mbytes
Step Temp PotEng Lx Ly Lz 
      29            0   -120.84941    1.1224537    38.999684    1.1224537 
      30            0   -120.84941    1.1224537    38.999684    1.1224537 
Loop time of 3.98988e-05 on 1 procs for 1 steps with 41 atoms

Minimization stats:
  Stopping criterion = linesearch alpha is zero
  Energy initial, next-to-last, final = 
        -120.849411848     -120.849411848     -120.849411848
  Force two-norm initial, final = 6.69174e-17 6.69174e-17
  Force max component initial, final = 5.3397e-17 5.3397e-17
  Final line search alpha, max atom move = 0.5 2.66985e-17
  Iterations, force evaluations = 1 2

Pair  time (%) = 2.52115e-05 (63.1886)
Neigh time (%) = 0 (0)
Comm  time (%) = 5.01168e-06 (12.561)
Outpt time (%) = 0 (0)
Other time (%) = 9.67563e-06 (24.2504)

Nlocal:    41 ave 41 max 41 min
Histogram: 1 0 0 0 0 0 0 0 0 0
Nghost:    185 ave 185 max 185 min
Histogram: 1 0 0 0 0 0 0 0 0 0
Neighs:    355 ave 355 max 355 min
Histogram: 1 0 0 0 0 0 0 0 0 0

Total # of neighbors = 355
Ave neighs/atom = 8.65854
Neighbor list builds = 0
Dangerous builds = 0
	# write_dump all atom ${dumpfile}
        next i
jump SELF loop1
        displace_atoms upper move 0.0 ${ystep1} 0.0 units lattice
        displace_atoms upper move 0.0 0.002 0.0 units lattice
        min_style ${style}
        min_style cg
        minimize ${etol} ${ftol} ${maxiter} ${maxeval}
        minimize 1e-12 ${ftol} ${maxiter} ${maxeval}
        minimize 1e-12 1e-08 ${maxiter} ${maxeval}
        minimize 1e-12 1e-08 10000 ${maxeval}
        minimize 1e-12 1e-08 10000 20000
WARNING: Resetting reneighboring criteria during minimization (../min.cpp:168)
Memory usage per processor = 3.35962 Mbytes
Step Temp PotEng Lx Ly Lz 
      30            0   -120.84123    1.1224537    39.003572    1.1224537 
      31            0   -120.84123    1.1224537    39.003572    1.1224537 
Loop time of 6.8038e-05 on 1 procs for 1 steps with 41 atoms

Minimization stats:
  Stopping criterion = linesearch alpha is zero
  Energy initial, next-to-last, final = 
        -120.841226868     -120.841226868     -120.841226868
  Force two-norm initial, final = 5.93831e-17 5.93831e-17
  Force max component initial, final = 4.35849e-17 4.35849e-17
  Final line search alpha, max atom move = 0.5 2.17925e-17
  Iterations, force evaluations = 1 2

Pair  time (%) = 2.50993e-05 (36.8901)
Neigh time (%) = 0 (0)
Comm  time (%) = 2.74088e-06 (4.02846)
Outpt time (%) = 0 (0)
Other time (%) = 4.01979e-05 (59.0815)

Nlocal:    41 ave 41 max 41 min
Histogram: 1 0 0 0 0 0 0 0 0 0
Nghost:    185 ave 185 max 185 min
Histogram: 1 0 0 0 0 0 0 0 0 0
Neighs:    355 ave 355 max 355 min
Histogram: 1 0 0 0 0 0 0 0 0 0

Total # of neighbors = 355
Ave neighs/atom = 8.65854
Neighbor list builds = 0
Dangerous builds = 0
	# write_dump all atom ${dumpfile}
        next i
jump SELF loop1
        displace_atoms upper move 0.0 ${ystep1} 0.0 units lattice
        displace_atoms upper move 0.0 0.002 0.0 units lattice
        min_style ${style}
        min_style cg
        minimize ${etol} ${ftol} ${maxiter} ${maxeval}
        minimize 1e-12 ${ftol} ${maxiter} ${maxeval}
        minimize 1e-12 1e-08 ${maxiter} ${maxeval}
        minimize 1e-12 1e-08 10000 ${maxeval}
        minimize 1e-12 1e-08 10000 20000
WARNING: Resetting reneighboring criteria during minimization (../min.cpp:168)
Memory usage per processor = 3.35962 Mbytes
Step Temp PotEng Lx Ly Lz 
      31            0   -120.83295    1.1224537    39.007461    1.1224537 
      32            0   -120.83295    1.1224537    39.007461    1.1224537 
Loop time of 0.000199956 on 1 procs for 1 steps with 41 atoms

Minimization stats:
  Stopping criterion = linesearch alpha is zero
  Energy initial, next-to-last, final = 
        -120.832949476     -120.832949476     -120.832949476
  Force two-norm initial, final = 4.80862e-17 4.80862e-17
  Force max component initial, final = 4.03323e-17 4.03323e-17
  Final line search alpha, max atom move = 0.5 2.01662e-17
  Iterations, force evaluations = 1 2

Pair  time (%) = 0.000123868 (61.9474)
Neigh time (%) = 0 (0)
Comm  time (%) = 1.99698e-05 (9.98708)
Outpt time (%) = 0 (0)
Other time (%) = 5.61187e-05 (28.0655)

Nlocal:    41 ave 41 max 41 min
Histogram: 1 0 0 0 0 0 0 0 0 0
Nghost:    185 ave 185 max 185 min
Histogram: 1 0 0 0 0 0 0 0 0 0
Neighs:    355 ave 355 max 355 min
Histogram: 1 0 0 0 0 0 0 0 0 0

Total # of neighbors = 355
Ave neighs/atom = 8.65854
Neighbor list builds = 0
Dangerous builds = 0
	# write_dump all atom ${dumpfile}
        next i
jump SELF loop1
        displace_atoms upper move 0.0 ${ystep1} 0.0 units lattice
        displace_atoms upper move 0.0 0.002 0.0 units lattice
        min_style ${style}
        min_style cg
        minimize ${etol} ${ftol} ${maxiter} ${maxeval}
        minimize 1e-12 ${ftol} ${maxiter} ${maxeval}
        minimize 1e-12 1e-08 ${maxiter} ${maxeval}
        minimize 1e-12 1e-08 10000 ${maxeval}
        minimize 1e-12 1e-08 10000 20000
WARNING: Resetting reneighboring criteria during minimization (../min.cpp:168)
Memory usage per processor = 3.35962 Mbytes
Step Temp PotEng Lx Ly Lz 
      32            0   -120.82458    1.1224537    39.011349    1.1224537 
      33            0   -120.82458    1.1224537    39.011349    1.1224537 
Loop time of 0.000198112 on 1 procs for 1 steps with 41 atoms

Minimization stats:
  Stopping criterion = linesearch alpha is zero
  Energy initial, next-to-last, final = 
        -120.824580741     -120.824580741     -120.824580741
  Force two-norm initial, final = 4.08451e-17 4.08451e-17
  Force max component initial, final = 4.03323e-17 4.03323e-17
  Final line search alpha, max atom move = 0.5 2.01662e-17
  Iterations, force evaluations = 1 2

Pair  time (%) = 0.000121912 (61.5369)
Neigh time (%) = 0 (0)
Comm  time (%) = 2.00127e-05 (10.1017)
Outpt time (%) = 0 (0)
Other time (%) = 5.61873e-05 (28.3614)

Nlocal:    41 ave 41 max 41 min
Histogram: 1 0 0 0 0 0 0 0 0 0
Nghost:    185 ave 185 max 185 min
Histogram: 1 0 0 0 0 0 0 0 0 0
Neighs:    355 ave 355 max 355 min
Histogram: 1 0 0 0 0 0 0 0 0 0

Total # of neighbors = 355
Ave neighs/atom = 8.65854
Neighbor list builds = 0
Dangerous builds = 0
	# write_dump all atom ${dumpfile}
        next i
jump SELF loop1
        displace_atoms upper move 0.0 ${ystep1} 0.0 units lattice
        displace_atoms upper move 0.0 0.002 0.0 units lattice
        min_style ${style}
        min_style cg
        minimize ${etol} ${ftol} ${maxiter} ${maxeval}
        minimize 1e-12 ${ftol} ${maxiter} ${maxeval}
        minimize 1e-12 1e-08 ${maxiter} ${maxeval}
        minimize 1e-12 1e-08 10000 ${maxeval}
        minimize 1e-12 1e-08 10000 20000
WARNING: Resetting reneighboring criteria during minimization (../min.cpp:168)
Memory usage per processor = 3.35962 Mbytes
Step Temp PotEng Lx Ly Lz 
      33            0   -120.81612    1.1224537    39.015237    1.1224537 
      34            0   -120.81612    1.1224537    39.015237    1.1224537 
Loop time of 0.000223975 on 1 procs for 1 steps with 41 atoms

Minimization stats:
  Stopping criterion = linesearch alpha is zero
  Energy initial, next-to-last, final = 
        -120.816121761     -120.816121761     -120.816121761
  Force two-norm initial, final = 4.33672e-17 4.33672e-17
  Force max component initial, final = 4.03323e-17 4.03323e-17
  Final line search alpha, max atom move = 0.5 2.01662e-17
  Iterations, force evaluations = 1 2

Pair  time (%) = 0.000131262 (58.6055)
Neigh time (%) = 0 (0)
Comm  time (%) = 2.38901e-05 (10.6664)
Outpt time (%) = 0 (0)
Other time (%) = 6.88231e-05 (30.7281)

Nlocal:    41 ave 41 max 41 min
Histogram: 1 0 0 0 0 0 0 0 0 0
Nghost:    185 ave 185 max 185 min
Histogram: 1 0 0 0 0 0 0 0 0 0
Neighs:    355 ave 355 max 355 min
Histogram: 1 0 0 0 0 0 0 0 0 0

Total # of neighbors = 355
Ave neighs/atom = 8.65854
Neighbor list builds = 0
Dangerous builds = 0
	# write_dump all atom ${dumpfile}
        next i
jump SELF loop1
        displace_atoms upper move 0.0 ${ystep1} 0.0 units lattice
        displace_atoms upper move 0.0 0.002 0.0 units lattice
        min_style ${style}
        min_style cg
        minimize ${etol} ${ftol} ${maxiter} ${maxeval}
        minimize 1e-12 ${ftol} ${maxiter} ${maxeval}
        minimize 1e-12 1e-08 ${maxiter} ${maxeval}
        minimize 1e-12 1e-08 10000 ${maxeval}
        minimize 1e-12 1e-08 10000 20000
WARNING: Resetting reneighboring criteria during minimization (../min.cpp:168)
Memory usage per processor = 3.35962 Mbytes
Step Temp PotEng Lx Ly Lz 
      34            0   -120.80757    1.1224537    39.019126    1.1224537 
      35            0   -120.80757    1.1224537    39.019126    1.1224537 
Loop time of 0.000262066 on 1 procs for 1 steps with 41 atoms

Minimization stats:
  Stopping criterion = linesearch alpha is zero
  Energy initial, next-to-last, final = 
        -120.807572968     -120.807572968     -120.807572968
  Force two-norm initial, final = 6.04252e-17 6.04252e-17
  Force max component initial, final = 4.49944e-17 4.49944e-17
  Final line search alpha, max atom move = 0.5 2.24972e-17
  Iterations, force evaluations = 1 2

Pair  time (%) = 0.000124922 (47.6681)
Neigh time (%) = 0 (0)
Comm  time (%) = 2.37937e-05 (9.07927)
Outpt time (%) = 0 (0)
Other time (%) = 0.00011335 (43.2526)

Nlocal:    41 ave 41 max 41 min
Histogram: 1 0 0 0 0 0 0 0 0 0
Nghost:    185 ave 185 max 185 min
Histogram: 1 0 0 0 0 0 0 0 0 0
Neighs:    355 ave 355 max 355 min
Histogram: 1 0 0 0 0 0 0 0 0 0

Total # of neighbors = 355
Ave neighs/atom = 8.65854
Neighbor list builds = 0
Dangerous builds = 0
	# write_dump all atom ${dumpfile}
        next i
jump SELF loop1
        displace_atoms upper move 0.0 ${ystep1} 0.0 units lattice
        displace_atoms upper move 0.0 0.002 0.0 units lattice
        min_style ${style}
        min_style cg
        minimize ${etol} ${ftol} ${maxiter} ${maxeval}
        minimize 1e-12 ${ftol} ${maxiter} ${maxeval}
        minimize 1e-12 1e-08 ${maxiter} ${maxeval}
        minimize 1e-12 1e-08 10000 ${maxeval}
        minimize 1e-12 1e-08 10000 20000
WARNING: Resetting reneighboring criteria during minimization (../min.cpp:168)
Memory usage per processor = 3.35962 Mbytes
Step Temp PotEng Lx Ly Lz 
      35            0   -120.79894    1.1224537    39.023014    1.1224537 
      36            0   -120.79894    1.1224537    39.023014    1.1224537 
Loop time of 0.000237995 on 1 procs for 1 steps with 41 atoms

Minimization stats:
  Stopping criterion = linesearch alpha is zero
  Energy initial, next-to-last, final = 
        -120.798935753     -120.798935753     -120.798935753
  Force two-norm initial, final = 6.44364e-17 6.44364e-17
  Force max component initial, final = 5.02528e-17 5.02528e-17
  Final line search alpha, max atom move = 0.5 2.51264e-17
  Iterations, force evaluations = 1 2

Pair  time (%) = 0.000124155 (52.1671)
Neigh time (%) = 0 (0)
Comm  time (%) = 3.43268e-05 (14.4233)
Outpt time (%) = 0 (0)
Other time (%) = 7.95132e-05 (33.4096)

Nlocal:    41 ave 41 max 41 min
Histogram: 1 0 0 0 0 0 0 0 0 0
Nghost:    185 ave 185 max 185 min
Histogram: 1 0 0 0 0 0 0 0 0 0
Neighs:    355 ave 355 max 355 min
Histogram: 1 0 0 0 0 0 0 0 0 0

Total # of neighbors = 355
Ave neighs/atom = 8.65854
Neighbor list builds = 0
Dangerous builds = 0
	# write_dump all atom ${dumpfile}
        next i
jump SELF loop1
        displace_atoms upper move 0.0 ${ystep1} 0.0 units lattice
        displace_atoms upper move 0.0 0.002 0.0 units lattice
        min_style ${style}
        min_style cg
        minimize ${etol} ${ftol} ${maxiter} ${maxeval}
        minimize 1e-12 ${ftol} ${maxiter} ${maxeval}
        minimize 1e-12 1e-08 ${maxiter} ${maxeval}
        minimize 1e-12 1e-08 10000 ${maxeval}
        minimize 1e-12 1e-08 10000 20000
WARNING: Resetting reneighboring criteria during minimization (../min.cpp:168)
Memory usage per processor = 3.35962 Mbytes
Step Temp PotEng Lx Ly Lz 
      36            0   -120.79021    1.1224537    39.026902    1.1224537 
      37            0   -120.79021    1.1224537    39.026902    1.1224537 
Loop time of 0.000206077 on 1 procs for 1 steps with 41 atoms

Minimization stats:
  Stopping criterion = linesearch alpha is zero
  Energy initial, next-to-last, final = 
        -120.790210795     -120.790210795     -120.790210795
  Force two-norm initial, final = 5.18477e-17 5.18477e-17
  Force max component initial, final = 4.03323e-17 4.03323e-17
  Final line search alpha, max atom move = 0.5 2.01662e-17
  Iterations, force evaluations = 1 2

Pair  time (%) = 0.000126072 (61.177)
Neigh time (%) = 0 (0)
Comm  time (%) = 1.87092e-05 (9.07875)
Outpt time (%) = 0 (0)
Other time (%) = 6.12962e-05 (29.7443)

Nlocal:    41 ave 41 max 41 min
Histogram: 1 0 0 0 0 0 0 0 0 0
Nghost:    185 ave 185 max 185 min
Histogram: 1 0 0 0 0 0 0 0 0 0
Neighs:    355 ave 355 max 355 min
Histogram: 1 0 0 0 0 0 0 0 0 0

Total # of neighbors = 355
Ave neighs/atom = 8.65854
Neighbor list builds = 0
Dangerous builds = 0
	# write_dump all atom ${dumpfile}
        next i
jump SELF loop1
        displace_atoms upper move 0.0 ${ystep1} 0.0 units lattice
        displace_atoms upper move 0.0 0.002 0.0 units lattice
        min_style ${style}
        min_style cg
        minimize ${etol} ${ftol} ${maxiter} ${maxeval}
        minimize 1e-12 ${ftol} ${maxiter} ${maxeval}
        minimize 1e-12 1e-08 ${maxiter} ${maxeval}
        minimize 1e-12 1e-08 10000 ${maxeval}
        minimize 1e-12 1e-08 10000 20000
WARNING: Resetting reneighboring criteria during minimization (../min.cpp:168)
Memory usage per processor = 3.35962 Mbytes
Step Temp PotEng Lx Ly Lz 
      37            0    -120.7814    1.1224537     39.03079    1.1224537 
      38            0    -120.7814    1.1224537     39.03079    1.1224537 
Loop time of 0.000199993 on 1 procs for 1 steps with 41 atoms

Minimization stats:
  Stopping criterion = linesearch alpha is zero
  Energy initial, next-to-last, final = 
         -120.78139909      -120.78139909      -120.78139909
  Force two-norm initial, final = 4.53628e-17 4.53628e-17
  Force max component initial, final = 4.03323e-17 4.03323e-17
  Final line search alpha, max atom move = 0.5 2.01662e-17
  Iterations, force evaluations = 1 2

Pair  time (%) = 0.000123834 (61.9193)
Neigh time (%) = 0 (0)
Comm  time (%) = 2.01419e-05 (10.0713)
Outpt time (%) = 0 (0)
Other time (%) = 5.60171e-05 (28.0094)

Nlocal:    41 ave 41 max 41 min
Histogram: 1 0 0 0 0 0 0 0 0 0
Nghost:    185 ave 185 max 185 min
Histogram: 1 0 0 0 0 0 0 0 0 0
Neighs:    355 ave 355 max 355 min
Histogram: 1 0 0 0 0 0 0 0 0 0

Total # of neighbors = 355
Ave neighs/atom = 8.65854
Neighbor list builds = 0
Dangerous builds = 0
	# write_dump all atom ${dumpfile}
        next i
jump SELF loop1
        displace_atoms upper move 0.0 ${ystep1} 0.0 units lattice
        displace_atoms upper move 0.0 0.002 0.0 units lattice
        min_style ${style}
        min_style cg
        minimize ${etol} ${ftol} ${maxiter} ${maxeval}
        minimize 1e-12 ${ftol} ${maxiter} ${maxeval}
        minimize 1e-12 1e-08 ${maxiter} ${maxeval}
        minimize 1e-12 1e-08 10000 ${maxeval}
        minimize 1e-12 1e-08 10000 20000
WARNING: Resetting reneighboring criteria during minimization (../min.cpp:168)
Memory usage per processor = 3.35962 Mbytes
Step Temp PotEng Lx Ly Lz 
      38            0    -120.7725    1.1224537    39.034679    1.1224537 
      39            0    -120.7725    1.1224537    39.034679    1.1224537 
Loop time of 0.000198083 on 1 procs for 1 steps with 41 atoms

Minimization stats:
  Stopping criterion = linesearch alpha is zero
  Energy initial, next-to-last, final = 
        -120.772501585     -120.772501585     -120.772501585
  Force two-norm initial, final = 6.04655e-17 6.04655e-17
  Force max component initial, final = 4.50486e-17 4.50486e-17
  Final line search alpha, max atom move = 0.5 2.25243e-17
  Iterations, force evaluations = 1 2

Pair  time (%) = 0.000124871 (63.0398)
Neigh time (%) = 0 (0)
Comm  time (%) = 1.85928e-05 (9.38637)
Outpt time (%) = 0 (0)
Other time (%) = 5.4619e-05 (27.5738)

Nlocal:    41 ave 41 max 41 min
Histogram: 1 0 0 0 0 0 0 0 0 0
Nghost:    185 ave 185 max 185 min
Histogram: 1 0 0 0 0 0 0 0 0 0
Neighs:    355 ave 355 max 355 min
Histogram: 1 0 0 0 0 0 0 0 0 0

Total # of neighbors = 355
Ave neighs/atom = 8.65854
Neighbor list builds = 0
Dangerous builds = 0
	# write_dump all atom ${dumpfile}
        next i
jump SELF loop1
        displace_atoms upper move 0.0 ${ystep1} 0.0 units lattice
        displace_atoms upper move 0.0 0.002 0.0 units lattice
        min_style ${style}
        min_style cg
        minimize ${etol} ${ftol} ${maxiter} ${maxeval}
        minimize 1e-12 ${ftol} ${maxiter} ${maxeval}
        minimize 1e-12 1e-08 ${maxiter} ${maxeval}
        minimize 1e-12 1e-08 10000 ${maxeval}
        minimize 1e-12 1e-08 10000 20000
WARNING: Resetting reneighboring criteria during minimization (../min.cpp:168)
Memory usage per processor = 3.35962 Mbytes
Step Temp PotEng Lx Ly Lz 
      39            0   -120.76352    1.1224537    39.038567    1.1224537 
      40            0   -120.76352    1.1224537    39.038567    1.1224537 
Loop time of 0.000117917 on 1 procs for 1 steps with 41 atoms

Minimization stats:
  Stopping criterion = linesearch alpha is zero
  Energy initial, next-to-last, final = 
        -120.763519175     -120.763519175     -120.763519175
  Force two-norm initial, final = 4.49964e-17 4.49964e-17
  Force max component initial, final = 4.03323e-17 4.03323e-17
  Final line search alpha, max atom move = 0.5 2.01662e-17
  Iterations, force evaluations = 1 2

Pair  time (%) = 7.19588e-05 (61.0249)
Neigh time (%) = 0 (0)
Comm  time (%) = 1.00209e-05 (8.49828)
Outpt time (%) = 0 (0)
Other time (%) = 3.59373e-05 (30.4768)

Nlocal:    41 ave 41 max 41 min
Histogram: 1 0 0 0 0 0 0 0 0 0
Nghost:    185 ave 185 max 185 min
Histogram: 1 0 0 0 0 0 0 0 0 0
Neighs:    355 ave 355 max 355 min
Histogram: 1 0 0 0 0 0 0 0 0 0

Total # of neighbors = 355
Ave neighs/atom = 8.65854
Neighbor list builds = 0
Dangerous builds = 0
	# write_dump all atom ${dumpfile}
        next i
jump SELF loop1
        displace_atoms upper move 0.0 ${ystep1} 0.0 units lattice
        displace_atoms upper move 0.0 0.002 0.0 units lattice
        min_style ${style}
        min_style cg
        minimize ${etol} ${ftol} ${maxiter} ${maxeval}
        minimize 1e-12 ${ftol} ${maxiter} ${maxeval}
        minimize 1e-12 1e-08 ${maxiter} ${maxeval}
        minimize 1e-12 1e-08 10000 ${maxeval}
        minimize 1e-12 1e-08 10000 20000
WARNING: Resetting reneighboring criteria during minimization (../min.cpp:168)
Memory usage per processor = 3.35962 Mbytes
Step Temp PotEng Lx Ly Lz 
      40            0   -120.75445    1.1224537    39.042455    1.1224537 
      41            0   -120.75445    1.1224537    39.042455    1.1224537 
Loop time of 0.000206102 on 1 procs for 1 steps with 41 atoms

Minimization stats:
  Stopping criterion = linesearch alpha is zero
  Energy initial, next-to-last, final = 
        -120.754452836     -120.754452836     -120.754452836
  Force two-norm initial, final = 5.52663e-17 5.52663e-17
  Force max component initial, final = 4.03323e-17 4.03323e-17
  Final line search alpha, max atom move = 0.5 2.01662e-17
  Iterations, force evaluations = 1 2

Pair  time (%) = 9.20907e-05 (44.6822)
Neigh time (%) = 0 (0)
Comm  time (%) = 4.19677e-05 (20.3626)
Outpt time (%) = 0 (0)
Other time (%) = 7.20432e-05 (34.9552)

Nlocal:    41 ave 41 max 41 min
Histogram: 1 0 0 0 0 0 0 0 0 0
Nghost:    185 ave 185 max 185 min
Histogram: 1 0 0 0 0 0 0 0 0 0
Neighs:    355 ave 355 max 355 min
Histogram: 1 0 0 0 0 0 0 0 0 0

Total # of neighbors = 355
Ave neighs/atom = 8.65854
Neighbor list builds = 0
Dangerous builds = 0
	# write_dump all atom ${dumpfile}
        next i
jump SELF loop1
        displace_atoms upper move 0.0 ${ystep1} 0.0 units lattice
        displace_atoms upper move 0.0 0.002 0.0 units lattice
        min_style ${style}
        min_style cg
        minimize ${etol} ${ftol} ${maxiter} ${maxeval}
        minimize 1e-12 ${ftol} ${maxiter} ${maxeval}
        minimize 1e-12 1e-08 ${maxiter} ${maxeval}
        minimize 1e-12 1e-08 10000 ${maxeval}
        minimize 1e-12 1e-08 10000 20000
WARNING: Resetting reneighboring criteria during minimization (../min.cpp:168)
Memory usage per processor = 3.35962 Mbytes
Step Temp PotEng Lx Ly Lz 
      41            0    -120.7453    1.1224537    39.046344    1.1224537 
      42            0    -120.7453    1.1224537    39.046344    1.1224537 
Loop time of 0.00204694 on 1 procs for 1 steps with 41 atoms

Minimization stats:
  Stopping criterion = linesearch alpha is zero
  Energy initial, next-to-last, final = 
        -120.745303559     -120.745303559     -120.745303559
  Force two-norm initial, final = 5.14751e-17 5.14751e-17
  Force max component initial, final = 4.03323e-17 4.03323e-17
  Final line search alpha, max atom move = 0.5 2.01662e-17
  Iterations, force evaluations = 1 2

Pair  time (%) = 7.1857e-05 (3.51046)
Neigh time (%) = 0 (0)
Comm  time (%) = 1.32022e-05 (0.644972)
Outpt time (%) = 0 (0)
Other time (%) = 0.00196188 (95.8446)

Nlocal:    41 ave 41 max 41 min
Histogram: 1 0 0 0 0 0 0 0 0 0
Nghost:    185 ave 185 max 185 min
Histogram: 1 0 0 0 0 0 0 0 0 0
Neighs:    355 ave 355 max 355 min
Histogram: 1 0 0 0 0 0 0 0 0 0

Total # of neighbors = 355
Ave neighs/atom = 8.65854
Neighbor list builds = 0
Dangerous builds = 0
	# write_dump all atom ${dumpfile}
        next i
jump SELF loop1
        displace_atoms upper move 0.0 ${ystep1} 0.0 units lattice
        displace_atoms upper move 0.0 0.002 0.0 units lattice
        min_style ${style}
        min_style cg
        minimize ${etol} ${ftol} ${maxiter} ${maxeval}
        minimize 1e-12 ${ftol} ${maxiter} ${maxeval}
        minimize 1e-12 1e-08 ${maxiter} ${maxeval}
        minimize 1e-12 1e-08 10000 ${maxeval}
        minimize 1e-12 1e-08 10000 20000
WARNING: Resetting reneighboring criteria during minimization (../min.cpp:168)
Memory usage per processor = 3.35962 Mbytes
Step Temp PotEng Lx Ly Lz 
      42            0   -120.73607    1.1224537    39.050232    1.1224537 
      43            0   -120.73607    1.1224537    39.050232    1.1224537 
Loop time of 0.007327 on 1 procs for 1 steps with 41 atoms

Minimization stats:
  Stopping criterion = linesearch alpha is zero
  Energy initial, next-to-last, final = 
         -120.73607215      -120.73607215      -120.73607215
  Force two-norm initial, final = 4.49965e-17 4.49965e-17
  Force max component initial, final = 4.03323e-17 4.03323e-17
  Final line search alpha, max atom move = 0.5 2.01662e-17
  Iterations, force evaluations = 1 2

Pair  time (%) = 7.21161e-05 (0.984252)
Neigh time (%) = 0 (0)
Comm  time (%) = 1.20052e-05 (0.163849)
Outpt time (%) = 0 (0)
Other time (%) = 0.00724288 (98.8519)

Nlocal:    41 ave 41 max 41 min
Histogram: 1 0 0 0 0 0 0 0 0 0
Nghost:    185 ave 185 max 185 min
Histogram: 1 0 0 0 0 0 0 0 0 0
Neighs:    355 ave 355 max 355 min
Histogram: 1 0 0 0 0 0 0 0 0 0

Total # of neighbors = 355
Ave neighs/atom = 8.65854
Neighbor list builds = 0
Dangerous builds = 0
	# write_dump all atom ${dumpfile}
        next i
jump SELF loop1
        displace_atoms upper move 0.0 ${ystep1} 0.0 units lattice
        displace_atoms upper move 0.0 0.002 0.0 units lattice
        min_style ${style}
        min_style cg
        minimize ${etol} ${ftol} ${maxiter} ${maxeval}
        minimize 1e-12 ${ftol} ${maxiter} ${maxeval}
        minimize 1e-12 1e-08 ${maxiter} ${maxeval}
        minimize 1e-12 1e-08 10000 ${maxeval}
        minimize 1e-12 1e-08 10000 20000
WARNING: Resetting reneighboring criteria during minimization (../min.cpp:168)
Memory usage per processor = 3.35962 Mbytes
Step Temp PotEng Lx Ly Lz 
      43            0   -120.72676    1.1224537     39.05412    1.1224537 
      44            0   -120.72676    1.1224537     39.05412    1.1224537 
Loop time of 0.000107965 on 1 procs for 1 steps with 41 atoms

Minimization stats:
  Stopping criterion = linesearch alpha is zero
  Energy initial, next-to-last, final = 
        -120.726759869     -120.726759869     -120.726759869
  Force two-norm initial, final = 4.50446e-17 4.50446e-17
  Force max component initial, final = 4.03323e-17 4.03323e-17
  Final line search alpha, max atom move = 0.5 2.01662e-17
  Iterations, force evaluations = 1 2

Pair  time (%) = 7.00174e-05 (64.8518)
Neigh time (%) = 0 (0)
Comm  time (%) = 1.2238e-05 (11.3352)
Outpt time (%) = 0 (0)
Other time (%) = 2.57097e-05 (23.813)

Nlocal:    41 ave 41 max 41 min
Histogram: 1 0 0 0 0 0 0 0 0 0
Nghost:    185 ave 185 max 185 min
Histogram: 1 0 0 0 0 0 0 0 0 0
Neighs:    355 ave 355 max 355 min
Histogram: 1 0 0 0 0 0 0 0 0 0

Total # of neighbors = 355
Ave neighs/atom = 8.65854
Neighbor list builds = 0
Dangerous builds = 0
	# write_dump all atom ${dumpfile}
        next i
jump SELF loop1
        displace_atoms upper move 0.0 ${ystep1} 0.0 units lattice
        displace_atoms upper move 0.0 0.002 0.0 units lattice
        min_style ${style}
        min_style cg
        minimize ${etol} ${ftol} ${maxiter} ${maxeval}
        minimize 1e-12 ${ftol} ${maxiter} ${maxeval}
        minimize 1e-12 1e-08 ${maxiter} ${maxeval}
        minimize 1e-12 1e-08 10000 ${maxeval}
        minimize 1e-12 1e-08 10000 20000
WARNING: Resetting reneighboring criteria during minimization (../min.cpp:168)
Memory usage per processor = 3.35962 Mbytes
Step Temp PotEng Lx Ly Lz 
      44            0   -120.71737    1.1224537    39.058009    1.1224537 
      45            0   -120.71737    1.1224537    39.058009    1.1224537 
Loop time of 0.000111029 on 1 procs for 1 steps with 41 atoms

Minimization stats:
  Stopping criterion = linesearch alpha is zero
  Energy initial, next-to-last, final = 
        -120.717367293     -120.717367293     -120.717367293
  Force two-norm initial, final = 6.09924e-17 6.09924e-17
  Force max component initial, final = 4.57533e-17 4.57533e-17
  Final line search alpha, max atom move = 0.5 2.28767e-17
  Iterations, force evaluations = 1 2

Pair  time (%) = 7.11037e-05 (64.0404)
Neigh time (%) = 0 (0)
Comm  time (%) = 1.09801e-05 (9.88933)
Outpt time (%) = 0 (0)
Other time (%) = 2.89456e-05 (26.0702)

Nlocal:    41 ave 41 max 41 min
Histogram: 1 0 0 0 0 0 0 0 0 0
Nghost:    185 ave 185 max 185 min
Histogram: 1 0 0 0 0 0 0 0 0 0
Neighs:    355 ave 355 max 355 min
Histogram: 1 0 0 0 0 0 0 0 0 0

Total # of neighbors = 355
Ave neighs/atom = 8.65854
Neighbor list builds = 0
Dangerous builds = 0
	# write_dump all atom ${dumpfile}
        next i
jump SELF loop1
        displace_atoms upper move 0.0 ${ystep1} 0.0 units lattice
        displace_atoms upper move 0.0 0.002 0.0 units lattice
        min_style ${style}
        min_style cg
        minimize ${etol} ${ftol} ${maxiter} ${maxeval}
        minimize 1e-12 ${ftol} ${maxiter} ${maxeval}
        minimize 1e-12 1e-08 ${maxiter} ${maxeval}
        minimize 1e-12 1e-08 10000 ${maxeval}
        minimize 1e-12 1e-08 10000 20000
WARNING: Resetting reneighboring criteria during minimization (../min.cpp:168)
Memory usage per processor = 3.35962 Mbytes
Step Temp PotEng Lx Ly Lz 
      45            0    -120.7079    1.1224537    39.061897    1.1224537 
      46            0    -120.7079    1.1224537    39.061897    1.1224537 
Loop time of 0.000110882 on 1 procs for 1 steps with 41 atoms

Minimization stats:
  Stopping criterion = linesearch alpha is zero
  Energy initial, next-to-last, final = 
        -120.707895692     -120.707895692     -120.707895692
  Force two-norm initial, final = 4.18789e-17 4.18789e-17
  Force max component initial, final = 4.03323e-17 4.03323e-17
  Final line search alpha, max atom move = 0.5 2.01662e-17
  Iterations, force evaluations = 1 2

Pair  time (%) = 7.11841e-05 (64.1982)
Neigh time (%) = 0 (0)
Comm  time (%) = 9.0946e-06 (8.20206)
Outpt time (%) = 0 (0)
Other time (%) = 3.06031e-05 (27.5998)

Nlocal:    41 ave 41 max 41 min
Histogram: 1 0 0 0 0 0 0 0 0 0
Nghost:    185 ave 185 max 185 min
Histogram: 1 0 0 0 0 0 0 0 0 0
Neighs:    355 ave 355 max 355 min
Histogram: 1 0 0 0 0 0 0 0 0 0

Total # of neighbors = 355
Ave neighs/atom = 8.65854
Neighbor list builds = 0
Dangerous builds = 0
	# write_dump all atom ${dumpfile}
        next i
jump SELF loop1
        displace_atoms upper move 0.0 ${ystep1} 0.0 units lattice
        displace_atoms upper move 0.0 0.002 0.0 units lattice
        min_style ${style}
        min_style cg
        minimize ${etol} ${ftol} ${maxiter} ${maxeval}
[...]
        min_style cg
        minimize ${etol} ${ftol} ${maxiter} ${maxeval}
        minimize 1e-12 ${ftol} ${maxiter} ${maxeval}
        minimize 1e-12 1e-08 ${maxiter} ${maxeval}
        minimize 1e-12 1e-08 10000 ${maxeval}
        minimize 1e-12 1e-08 10000 20000
WARNING: Resetting reneighboring criteria during minimization (../min.cpp:168)
Memory usage per processor = 3.35969 Mbytes
Step Temp PotEng Lx Ly Lz 
     491            0   -118.99997    1.1224537    40.796076    1.1224537 
     492            0   -118.99997    1.1224537    40.796076    1.1224537 
Loop time of 3.99071e-05 on 1 procs for 1 steps with 41 atoms

Minimization stats:
  Stopping criterion = linesearch alpha is zero
  Energy initial, next-to-last, final = 
        -118.999965529     -118.999965529     -118.999965529
  Force two-norm initial, final = 4.69473e-20 4.69473e-20
  Force max component initial, final = 2.71051e-20 2.71051e-20
  Final line search alpha, max atom move = 0.5 1.35525e-20
  Iterations, force evaluations = 1 2

Pair  time (%) = 2.52364e-05 (63.2379)
Neigh time (%) = 0 (0)
Comm  time (%) = 3.06149e-06 (7.67155)
Outpt time (%) = 0 (0)
Other time (%) = 1.16092e-05 (29.0905)

Nlocal:    41 ave 41 max 41 min
Histogram: 1 0 0 0 0 0 0 0 0 0
Nghost:    185 ave 185 max 185 min
Histogram: 1 0 0 0 0 0 0 0 0 0
Neighs:    349 ave 349 max 349 min
Histogram: 1 0 0 0 0 0 0 0 0 0

Total # of neighbors = 349
Ave neighs/atom = 8.5122
Neighbor list builds = 0
Dangerous builds = 0
	# write_dump all atom ${dumpfile}
        next i
jump SELF loop1
        displace_atoms upper move 0.0 ${ystep1} 0.0 units lattice
        displace_atoms upper move 0.0 0.002 0.0 units lattice
        min_style ${style}
        min_style cg
        minimize ${etol} ${ftol} ${maxiter} ${maxeval}
        minimize 1e-12 ${ftol} ${maxiter} ${maxeval}
        minimize 1e-12 1e-08 ${maxiter} ${maxeval}
        minimize 1e-12 1e-08 10000 ${maxeval}
        minimize 1e-12 1e-08 10000 20000
WARNING: Resetting reneighboring criteria during minimization (../min.cpp:168)
Memory usage per processor = 3.35969 Mbytes
Step Temp PotEng Lx Ly Lz 
     492            0   -118.99997    1.1224537    40.799964    1.1224537 
     493            0   -118.99997    1.1224537    40.799964    1.1224537 
Loop time of 3.88814e-05 on 1 procs for 1 steps with 41 atoms

Minimization stats:
  Stopping criterion = linesearch alpha is zero
  Energy initial, next-to-last, final = 
        -118.999965529     -118.999965529     -118.999965529
  Force two-norm initial, final = 5.42101e-20 5.42101e-20
  Force max component initial, final = 2.71051e-20 2.71051e-20
  Final line search alpha, max atom move = 0.5 1.35525e-20
  Iterations, force evaluations = 1 2

Pair  time (%) = 2.50204e-05 (64.3506)
Neigh time (%) = 0 (0)
Comm  time (%) = 5.62961e-06 (14.4789)
Outpt time (%) = 0 (0)
Other time (%) = 8.23138e-06 (21.1705)

Nlocal:    41 ave 41 max 41 min
Histogram: 1 0 0 0 0 0 0 0 0 0
Nghost:    185 ave 185 max 185 min
Histogram: 1 0 0 0 0 0 0 0 0 0
Neighs:    349 ave 349 max 349 min
Histogram: 1 0 0 0 0 0 0 0 0 0

Total # of neighbors = 349
Ave neighs/atom = 8.5122
Neighbor list builds = 0
Dangerous builds = 0
	# write_dump all atom ${dumpfile}
        next i
jump SELF loop1
        displace_atoms upper move 0.0 ${ystep1} 0.0 units lattice
        displace_atoms upper move 0.0 0.002 0.0 units lattice
        min_style ${style}
        min_style cg
        minimize ${etol} ${ftol} ${maxiter} ${maxeval}
        minimize 1e-12 ${ftol} ${maxiter} ${maxeval}
        minimize 1e-12 1e-08 ${maxiter} ${maxeval}
        minimize 1e-12 1e-08 10000 ${maxeval}
        minimize 1e-12 1e-08 10000 20000
WARNING: Resetting reneighboring criteria during minimization (../min.cpp:168)
Memory usage per processor = 3.35969 Mbytes
Step Temp PotEng Lx Ly Lz 
     493            0   -118.99997    1.1224537    40.803852    1.1224537 
     494            0   -118.99997    1.1224537    40.803852    1.1224537 
Loop time of 3.89089e-05 on 1 procs for 1 steps with 41 atoms

Minimization stats:
  Stopping criterion = linesearch alpha is zero
  Energy initial, next-to-last, final = 
        -118.999965529     -118.999965529     -118.999965529
  Force two-norm initial, final = 5.42101e-20 5.42101e-20
  Force max component initial, final = 2.71051e-20 2.71051e-20
  Final line search alpha, max atom move = 0.5 1.35525e-20
  Iterations, force evaluations = 1 2

Pair  time (%) = 2.31956e-05 (59.6152)
Neigh time (%) = 0 (0)
Comm  time (%) = 3.88711e-06 (9.99028)
Outpt time (%) = 0 (0)
Other time (%) = 1.18262e-05 (30.3945)

Nlocal:    41 ave 41 max 41 min
Histogram: 1 0 0 0 0 0 0 0 0 0
Nghost:    185 ave 185 max 185 min
Histogram: 1 0 0 0 0 0 0 0 0 0
Neighs:    349 ave 349 max 349 min
Histogram: 1 0 0 0 0 0 0 0 0 0

Total # of neighbors = 349
Ave neighs/atom = 8.5122
Neighbor list builds = 0
Dangerous builds = 0
	# write_dump all atom ${dumpfile}
        next i
jump SELF loop1
        displace_atoms upper move 0.0 ${ystep1} 0.0 units lattice
        displace_atoms upper move 0.0 0.002 0.0 units lattice
        min_style ${style}
        min_style cg
        minimize ${etol} ${ftol} ${maxiter} ${maxeval}
        minimize 1e-12 ${ftol} ${maxiter} ${maxeval}
        minimize 1e-12 1e-08 ${maxiter} ${maxeval}
        minimize 1e-12 1e-08 10000 ${maxeval}
        minimize 1e-12 1e-08 10000 20000
WARNING: Resetting reneighboring criteria during minimization (../min.cpp:168)
Memory usage per processor = 3.35969 Mbytes
Step Temp PotEng Lx Ly Lz 
     494            0   -118.99997    1.1224537    40.807741    1.1224537 
     495            0   -118.99997    1.1224537    40.807741    1.1224537 
Loop time of 3.90358e-05 on 1 procs for 1 steps with 41 atoms

Minimization stats:
  Stopping criterion = linesearch alpha is zero
  Energy initial, next-to-last, final = 
        -118.999965529     -118.999965529     -118.999965529
  Force two-norm initial, final = 5.42101e-20 5.42101e-20
  Force max component initial, final = 2.71051e-20 2.71051e-20
  Final line search alpha, max atom move = 0.5 1.35525e-20
  Iterations, force evaluations = 1 2

Pair  time (%) = 2.39074e-05 (61.2448)
Neigh time (%) = 0 (0)
Comm  time (%) = 2.78768e-06 (7.14134)
Outpt time (%) = 0 (0)
Other time (%) = 1.23407e-05 (31.6139)

Nlocal:    41 ave 41 max 41 min
Histogram: 1 0 0 0 0 0 0 0 0 0
Nghost:    185 ave 185 max 185 min
Histogram: 1 0 0 0 0 0 0 0 0 0
Neighs:    349 ave 349 max 349 min
Histogram: 1 0 0 0 0 0 0 0 0 0

Total # of neighbors = 349
Ave neighs/atom = 8.5122
Neighbor list builds = 0
Dangerous builds = 0
	# write_dump all atom ${dumpfile}
        next i
jump SELF loop1
        displace_atoms upper move 0.0 ${ystep1} 0.0 units lattice
        displace_atoms upper move 0.0 0.002 0.0 units lattice
        min_style ${style}
        min_style cg
        minimize ${etol} ${ftol} ${maxiter} ${maxeval}
        minimize 1e-12 ${ftol} ${maxiter} ${maxeval}
        minimize 1e-12 1e-08 ${maxiter} ${maxeval}
        minimize 1e-12 1e-08 10000 ${maxeval}
        minimize 1e-12 1e-08 10000 20000
WARNING: Resetting reneighboring criteria during minimization (../min.cpp:168)
Memory usage per processor = 3.35969 Mbytes
Step Temp PotEng Lx Ly Lz 
     495            0   -118.99997    1.1224537    40.811629    1.1224537 
     496            0   -118.99997    1.1224537    40.811629    1.1224537 
Loop time of 3.90102e-05 on 1 procs for 1 steps with 41 atoms

Minimization stats:
  Stopping criterion = linesearch alpha is zero
  Energy initial, next-to-last, final = 
        -118.999965529     -118.999965529     -118.999965529
  Force two-norm initial, final = 5.42101e-20 5.42101e-20
  Force max component initial, final = 2.71051e-20 2.71051e-20
  Final line search alpha, max atom move = 0.5 1.35525e-20
  Iterations, force evaluations = 1 2

Pair  time (%) = 2.27842e-05 (58.4058)
Neigh time (%) = 0 (0)
Comm  time (%) = 4.01807e-06 (10.3001)
Outpt time (%) = 0 (0)
Other time (%) = 1.22079e-05 (31.2941)

Nlocal:    41 ave 41 max 41 min
Histogram: 1 0 0 0 0 0 0 0 0 0
Nghost:    185 ave 185 max 185 min
Histogram: 1 0 0 0 0 0 0 0 0 0
Neighs:    349 ave 349 max 349 min
Histogram: 1 0 0 0 0 0 0 0 0 0

Total # of neighbors = 349
Ave neighs/atom = 8.5122
Neighbor list builds = 0
Dangerous builds = 0
	# write_dump all atom ${dumpfile}
        next i
jump SELF loop1
        displace_atoms upper move 0.0 ${ystep1} 0.0 units lattice
        displace_atoms upper move 0.0 0.002 0.0 units lattice
        min_style ${style}
        min_style cg
        minimize ${etol} ${ftol} ${maxiter} ${maxeval}
        minimize 1e-12 ${ftol} ${maxiter} ${maxeval}
        minimize 1e-12 1e-08 ${maxiter} ${maxeval}
        minimize 1e-12 1e-08 10000 ${maxeval}
        minimize 1e-12 1e-08 10000 20000
WARNING: Resetting reneighboring criteria during minimization (../min.cpp:168)
Memory usage per processor = 3.35969 Mbytes
Step Temp PotEng Lx Ly Lz 
     496            0   -118.99997    1.1224537    40.815517    1.1224537 
     497            0   -118.99997    1.1224537    40.815517    1.1224537 
Loop time of 3.90976e-05 on 1 procs for 1 steps with 41 atoms

Minimization stats:
  Stopping criterion = linesearch alpha is zero
  Energy initial, next-to-last, final = 
        -118.999965529     -118.999965529     -118.999965529
  Force two-norm initial, final = 5.42101e-20 5.42101e-20
  Force max component initial, final = 2.71051e-20 2.71051e-20
  Final line search alpha, max atom move = 0.5 1.35525e-20
  Iterations, force evaluations = 1 2

Pair  time (%) = 2.50927e-05 (64.1797)
Neigh time (%) = 0 (0)
Comm  time (%) = 3.77407e-06 (9.65294)
Outpt time (%) = 0 (0)
Other time (%) = 1.02308e-05 (26.1674)

Nlocal:    41 ave 41 max 41 min
Histogram: 1 0 0 0 0 0 0 0 0 0
Nghost:    185 ave 185 max 185 min
Histogram: 1 0 0 0 0 0 0 0 0 0
Neighs:    349 ave 349 max 349 min
Histogram: 1 0 0 0 0 0 0 0 0 0

Total # of neighbors = 349
Ave neighs/atom = 8.5122
Neighbor list builds = 0
Dangerous builds = 0
	# write_dump all atom ${dumpfile}
        next i
jump SELF loop1
        displace_atoms upper move 0.0 ${ystep1} 0.0 units lattice
        displace_atoms upper move 0.0 0.002 0.0 units lattice
        min_style ${style}
        min_style cg
        minimize ${etol} ${ftol} ${maxiter} ${maxeval}
        minimize 1e-12 ${ftol} ${maxiter} ${maxeval}
        minimize 1e-12 1e-08 ${maxiter} ${maxeval}
        minimize 1e-12 1e-08 10000 ${maxeval}
        minimize 1e-12 1e-08 10000 20000
WARNING: Resetting reneighboring criteria during minimization (../min.cpp:168)
Memory usage per processor = 3.35969 Mbytes
Step Temp PotEng Lx Ly Lz 
     497            0   -118.99997    1.1224537    40.819406    1.1224537 
     498            0   -118.99997    1.1224537    40.819406    1.1224537 
Loop time of 3.78934e-05 on 1 procs for 1 steps with 41 atoms

Minimization stats:
  Stopping criterion = linesearch alpha is zero
  Energy initial, next-to-last, final = 
        -118.999965529     -118.999965529     -118.999965529
  Force two-norm initial, final = 4.69473e-20 4.69473e-20
  Force max component initial, final = 2.71051e-20 2.71051e-20
  Final line search alpha, max atom move = 0.5 1.35525e-20
  Iterations, force evaluations = 1 2

Pair  time (%) = 2.50565e-05 (66.1237)
Neigh time (%) = 0 (0)
Comm  time (%) = 5.70179e-06 (15.0469)
Outpt time (%) = 0 (0)
Other time (%) = 7.1351e-06 (18.8294)

Nlocal:    41 ave 41 max 41 min
Histogram: 1 0 0 0 0 0 0 0 0 0
Nghost:    185 ave 185 max 185 min
Histogram: 1 0 0 0 0 0 0 0 0 0
Neighs:    349 ave 349 max 349 min
Histogram: 1 0 0 0 0 0 0 0 0 0

Total # of neighbors = 349
Ave neighs/atom = 8.5122
Neighbor list builds = 0
Dangerous builds = 0
	# write_dump all atom ${dumpfile}
        next i
jump SELF loop1
        displace_atoms upper move 0.0 ${ystep1} 0.0 units lattice
        displace_atoms upper move 0.0 0.002 0.0 units lattice
        min_style ${style}
        min_style cg
        minimize ${etol} ${ftol} ${maxiter} ${maxeval}
        minimize 1e-12 ${ftol} ${maxiter} ${maxeval}
        minimize 1e-12 1e-08 ${maxiter} ${maxeval}
        minimize 1e-12 1e-08 10000 ${maxeval}
        minimize 1e-12 1e-08 10000 20000
WARNING: Resetting reneighboring criteria during minimization (../min.cpp:168)
Memory usage per processor = 3.35969 Mbytes
Step Temp PotEng Lx Ly Lz 
     498            0   -118.99997    1.1224537    40.823294    1.1224537 
     499            0   -118.99997    1.1224537    40.823294    1.1224537 
Loop time of 3.90395e-05 on 1 procs for 1 steps with 41 atoms

Minimization stats:
  Stopping criterion = linesearch alpha is zero
  Energy initial, next-to-last, final = 
        -118.999965529     -118.999965529     -118.999965529
  Force two-norm initial, final = 4.69473e-20 4.69473e-20
  Force max component initial, final = 2.71051e-20 2.71051e-20
  Final line search alpha, max atom move = 0.5 1.35525e-20
  Iterations, force evaluations = 1 2

Pair  time (%) = 2.49185e-05 (63.8288)
Neigh time (%) = 0 (0)
Comm  time (%) = 1.90246e-06 (4.87316)
Outpt time (%) = 0 (0)
Other time (%) = 1.22186e-05 (31.298)

Nlocal:    41 ave 41 max 41 min
Histogram: 1 0 0 0 0 0 0 0 0 0
Nghost:    185 ave 185 max 185 min
Histogram: 1 0 0 0 0 0 0 0 0 0
Neighs:    349 ave 349 max 349 min
Histogram: 1 0 0 0 0 0 0 0 0 0

Total # of neighbors = 349
Ave neighs/atom = 8.5122
Neighbor list builds = 0
Dangerous builds = 0
	# write_dump all atom ${dumpfile}
        next i
jump SELF loop1
        displace_atoms upper move 0.0 ${ystep1} 0.0 units lattice
        displace_atoms upper move 0.0 0.002 0.0 units lattice
        min_style ${style}
        min_style cg
        minimize ${etol} ${ftol} ${maxiter} ${maxeval}
        minimize 1e-12 ${ftol} ${maxiter} ${maxeval}
        minimize 1e-12 1e-08 ${maxiter} ${maxeval}
        minimize 1e-12 1e-08 10000 ${maxeval}
        minimize 1e-12 1e-08 10000 20000
WARNING: Resetting reneighboring criteria during minimization (../min.cpp:168)
Memory usage per processor = 3.35969 Mbytes
Step Temp PotEng Lx Ly Lz 
     499            0   -118.99997    1.1224537    40.827182    1.1224537 
     500            0   -118.99997    1.1224537    40.827182    1.1224537 
Loop time of 4.10835e-05 on 1 procs for 1 steps with 41 atoms

Minimization stats:
  Stopping criterion = linesearch alpha is zero
  Energy initial, next-to-last, final = 
        -118.999965529     -118.999965529     -118.999965529
  Force two-norm initial, final = 4.69473e-20 4.69473e-20
  Force max component initial, final = 2.71051e-20 2.71051e-20
  Final line search alpha, max atom move = 0.5 1.35525e-20
  Iterations, force evaluations = 1 2

Pair  time (%) = 2.51431e-05 (61.2)
Neigh time (%) = 0 (0)
Comm  time (%) = 3.875e-06 (9.432)
Outpt time (%) = 0 (0)
Other time (%) = 1.20654e-05 (29.368)

Nlocal:    41 ave 41 max 41 min
Histogram: 1 0 0 0 0 0 0 0 0 0
Nghost:    185 ave 185 max 185 min
Histogram: 1 0 0 0 0 0 0 0 0 0
Neighs:    349 ave 349 max 349 min
Histogram: 1 0 0 0 0 0 0 0 0 0

Total # of neighbors = 349
Ave neighs/atom = 8.5122
Neighbor list builds = 0
Dangerous builds = 0
	# write_dump all atom ${dumpfile}
        next i
jump SELF loop1
        displace_atoms upper move 0.0 ${ystep1} 0.0 units lattice
        displace_atoms upper move 0.0 0.002 0.0 units lattice
        min_style ${style}
        min_style cg
        minimize ${etol} ${ftol} ${maxiter} ${maxeval}
        minimize 1e-12 ${ftol} ${maxiter} ${maxeval}
        minimize 1e-12 1e-08 ${maxiter} ${maxeval}
        minimize 1e-12 1e-08 10000 ${maxeval}
        minimize 1e-12 1e-08 10000 20000
WARNING: Resetting reneighboring criteria during minimization (../min.cpp:168)
Memory usage per processor = 3.35969 Mbytes
Step Temp PotEng Lx Ly Lz 
     500            0   -118.99997    1.1224537    40.831071    1.1224537 
     501            0   -118.99997    1.1224537    40.831071    1.1224537 
Loop time of 3.98918e-05 on 1 procs for 1 steps with 41 atoms

Minimization stats:
  Stopping criterion = linesearch alpha is zero
  Energy initial, next-to-last, final = 
        -118.999965529     -118.999965529     -118.999965529
  Force two-norm initial, final = 5.42101e-20 5.42101e-20
  Force max component initial, final = 2.71051e-20 2.71051e-20
  Final line search alpha, max atom move = 0.5 1.35525e-20
  Iterations, force evaluations = 1 2

Pair  time (%) = 2.32832e-05 (58.3658)
Neigh time (%) = 0 (0)
Comm  time (%) = 4.0622e-06 (10.183)
Outpt time (%) = 0 (0)
Other time (%) = 1.25464e-05 (31.4511)

Nlocal:    41 ave 41 max 41 min
Histogram: 1 0 0 0 0 0 0 0 0 0
Nghost:    185 ave 185 max 185 min
Histogram: 1 0 0 0 0 0 0 0 0 0
Neighs:    349 ave 349 max 349 min
Histogram: 1 0 0 0 0 0 0 0 0 0

Total # of neighbors = 349
Ave neighs/atom = 8.5122
Neighbor list builds = 0
Dangerous builds = 0
	# write_dump all atom ${dumpfile}
        next i
jump SELF loop1
        displace_atoms upper move 0.0 ${ystep1} 0.0 units lattice
        displace_atoms upper move 0.0 0.002 0.0 units lattice
        min_style ${style}
        min_style cg
        minimize ${etol} ${ftol} ${maxiter} ${maxeval}
        minimize 1e-12 ${ftol} ${maxiter} ${maxeval}
        minimize 1e-12 1e-08 ${maxiter} ${maxeval}
        minimize 1e-12 1e-08 10000 ${maxeval}
        minimize 1e-12 1e-08 10000 20000
WARNING: Resetting reneighboring criteria during minimization (../min.cpp:168)
Memory usage per processor = 3.35969 Mbytes
Step Temp PotEng Lx Ly Lz 
     501            0   -118.99997    1.1224537    40.834959    1.1224537 
     502            0   -118.99997    1.1224537    40.834959    1.1224537 
Loop time of 3.90514e-05 on 1 procs for 1 steps with 41 atoms

Minimization stats:
  Stopping criterion = linesearch alpha is zero
  Energy initial, next-to-last, final = 
        -118.999965529     -118.999965529     -118.999965529
  Force two-norm initial, final = 5.42101e-20 5.42101e-20
  Force max component initial, final = 2.71051e-20 2.71051e-20
  Final line search alpha, max atom move = 0.5 1.35525e-20
  Iterations, force evaluations = 1 2

Pair  time (%) = 2.39542e-05 (61.3402)
Neigh time (%) = 0 (0)
Comm  time (%) = 2.88128e-06 (7.37817)
Outpt time (%) = 0 (0)
Other time (%) = 1.22159e-05 (31.2817)

Nlocal:    41 ave 41 max 41 min
Histogram: 1 0 0 0 0 0 0 0 0 0
Nghost:    185 ave 185 max 185 min
Histogram: 1 0 0 0 0 0 0 0 0 0
Neighs:    349 ave 349 max 349 min
Histogram: 1 0 0 0 0 0 0 0 0 0

Total # of neighbors = 349
Ave neighs/atom = 8.5122
Neighbor list builds = 0
Dangerous builds = 0
	# write_dump all atom ${dumpfile}
        next i
jump SELF loop1

unfix 2
min_style ${style}
min_style cg
minimize ${etol} ${ftol} ${maxiter} ${maxeval}
minimize 1e-12 ${ftol} ${maxiter} ${maxeval}
minimize 1e-12 1e-08 ${maxiter} ${maxeval}
minimize 1e-12 1e-08 10000 ${maxeval}
minimize 1e-12 1e-08 10000 20000
WARNING: Resetting reneighboring criteria during minimization (../min.cpp:168)
Memory usage per processor = 3.35969 Mbytes
Step Temp PotEng Lx Ly Lz 
     502            0   -118.99997    1.1224537    40.834959    1.1224537 
     503            0   -118.99997    1.1224537    40.834959    1.1224537 
Loop time of 0.000126902 on 1 procs for 1 steps with 41 atoms

Minimization stats:
  Stopping criterion = linesearch alpha is zero
  Energy initial, next-to-last, final = 
        -118.999965529     -118.999965529     -118.999965529
  Force two-norm initial, final = 0.00327105 0.00327105
  Force max component initial, final = 0.00179508 0.00179508
  Final line search alpha, max atom move = 0.000976562 1.75301e-06
  Iterations, force evaluations = 1 11

Pair  time (%) = 9.32066e-05 (73.4479)
Neigh time (%) = 0 (0)
Comm  time (%) = 1.31124e-05 (10.3328)
Outpt time (%) = 0 (0)
Other time (%) = 2.05826e-05 (16.2193)

Nlocal:    41 ave 41 max 41 min
Histogram: 1 0 0 0 0 0 0 0 0 0
Nghost:    185 ave 185 max 185 min
Histogram: 1 0 0 0 0 0 0 0 0 0
Neighs:    349 ave 349 max 349 min
Histogram: 1 0 0 0 0 0 0 0 0 0

Total # of neighbors = 349
Ave neighs/atom = 8.5122
Neighbor list builds = 0
Dangerous builds = 0

