LAMMPS (28 Jun 2014)
# attempt at getting surface energy

#file prefix
variable prefix string surf_V_inter3_3d
variable dumpfile string ${prefix}.*.dump
variable dumpfile string surf_V_inter3_3d.*.dump
variable restartfile string ${prefix}.*.equil
variable restartfile string surf_V_inter3_3d.*.equil

#Mass (g/mol)
variable m equal 1.0

# lattice constant (in Angstroms) and orientation of axes (given by lattice vectors)
variable rho equal 1.414
variable x1 equal 1
variable x2 equal 1
variable x3 equal -2
variable y1 equal 1
variable y2 equal 1
variable y3 equal 1
variable z1 equal 1
variable z2 equal -1
variable z3 equal 0
# length of lattice in different directions (using orientation of lattice vectors)
variable ax equal sqrt(${x1}*${x1}+${x2}*${x2}+${x3}*${x3})
variable ax equal sqrt(1*${x1}+${x2}*${x2}+${x3}*${x3})
variable ax equal sqrt(1*1+${x2}*${x2}+${x3}*${x3})
variable ax equal sqrt(1*1+1*${x2}+${x3}*${x3})
variable ax equal sqrt(1*1+1*1+${x3}*${x3})
variable ax equal sqrt(1*1+1*1+-2*${x3})
variable ax equal sqrt(1*1+1*1+-2*-2)
variable ay equal sqrt(${y1}*${y1}+${y2}*${y2}+${y3}*${y3})
variable ay equal sqrt(1*${y1}+${y2}*${y2}+${y3}*${y3})
variable ay equal sqrt(1*1+${y2}*${y2}+${y3}*${y3})
variable ay equal sqrt(1*1+1*${y2}+${y3}*${y3})
variable ay equal sqrt(1*1+1*1+${y3}*${y3})
variable ay equal sqrt(1*1+1*1+1*${y3})
variable ay equal sqrt(1*1+1*1+1*1)
variable az equal sqrt(${z1}*${z1}+${z2}*${z2}+${z3}*${z3})
variable az equal sqrt(1*${z1}+${z2}*${z2}+${z3}*${z3})
variable az equal sqrt(1*1+${z2}*${z2}+${z3}*${z3})
variable az equal sqrt(1*1+-1*${z2}+${z3}*${z3})
variable az equal sqrt(1*1+-1*-1+${z3}*${z3})
variable az equal sqrt(1*1+-1*-1+0*${z3})
variable az equal sqrt(1*1+-1*-1+0*0)

# size of box in lattice units
variable lxpos equal 2
variable lxneg equal 0
variable lypos equal 15
variable lyneg equal -1*${lypos}
variable lyneg equal -1*15
variable lzpos equal 2
variable lzneg equal 0

# boundary conditions
dimension	3
boundary	p s p
atom_style	atomic

# Define minimization parameters and damping
variable etol equal 1.0e-12
variable ftol equal 1.0e-8
variable maxiter equal 10000
variable maxeval equal 20000
variable style string hftn

# create geometry
units		lj
lattice         fcc ${rho} orient x 1 1 -2 orient y 1 1 1 orient z 1 -1 0 spacing ${ax} ${ay} ${az}
lattice         fcc 1.414 orient x 1 1 -2 orient y 1 1 1 orient z 1 -1 0 spacing ${ax} ${ay} ${az}
lattice         fcc 1.414 orient x 1 1 -2 orient y 1 1 1 orient z 1 -1 0 spacing 2.44948974278318 ${ay} ${az}
lattice         fcc 1.414 orient x 1 1 -2 orient y 1 1 1 orient z 1 -1 0 spacing 2.44948974278318 1.73205080756888 ${az}
lattice         fcc 1.414 orient x 1 1 -2 orient y 1 1 1 orient z 1 -1 0 spacing 2.44948974278318 1.73205080756888 1.4142135623731
Lattice spacing in x,y,z = 3.46428 2.44961 2.0001
region		myregion block ${lxneg} ${lxpos} ${lyneg} ${lypos} ${lzneg} ${lzpos} units lattice
region		myregion block 0 ${lxpos} ${lyneg} ${lypos} ${lzneg} ${lzpos} units lattice
region		myregion block 0 2 ${lyneg} ${lypos} ${lzneg} ${lzpos} units lattice
region		myregion block 0 2 -15 ${lypos} ${lzneg} ${lzpos} units lattice
region		myregion block 0 2 -15 15 ${lzneg} ${lzpos} units lattice
region		myregion block 0 2 -15 15 0 ${lzpos} units lattice
region		myregion block 0 2 -15 15 0 2 units lattice
create_box	1 myregion
Created orthogonal box = (0 -36.7442 0) to (6.92855 36.7442 4.0002)
  1 by 1 by 1 MPI processor grid
create_atoms	1 box
Created 2912 atoms
write_dump all atom init.dump

# define masses
mass * $m
mass * 1

# my fake/morse potential
pair_style      table linear 3001
pair_coeff      * * vpotential_inter33dnorm dummy
neighbor	0.3 bin
neigh_modify	delay 5

# define groups. Nudge to separate planes cleanly
region	    upper block INF INF 0.01 ${lypos} INF INF units lattice
region	    upper block INF INF 0.01 15 INF INF units lattice
group		upper region upper
1440 atoms in group upper

# Setup output
thermo 1
thermo_style custom step temp pe lx ly lz
thermo_modify norm no

# Compute initial state by relaxing box
fix 3 all box/relax x 0.0
min_style ${style}
min_style hftn
minimize ${etol} ${ftol} ${maxiter} ${maxeval}
minimize 1e-12 ${ftol} ${maxiter} ${maxeval}
minimize 1e-12 1e-08 ${maxiter} ${maxeval}
minimize 1e-12 1e-08 10000 ${maxeval}
minimize 1e-12 1e-08 10000 20000
WARNING: Resetting reneighboring criteria during minimization (../min.cpp:168)
Memory usage per processor = 5.2861 Mbytes
Step Temp PotEng Lx Ly Lz 
       0            0    -17375.99     6.928552    73.503089    4.0002014 
       1            0    -17375.99     6.928552    73.503089    4.0002014 
       2            0    -17375.99     6.928552    73.503089    4.0002014 
       3            0    -17375.99     6.928552    73.503089    4.0002014 
       4            0    -17375.99     6.928552    73.503089    4.0002014 
       5            0    -17375.99     6.928552    73.503089    4.0002014 
       6            0    -17375.99     6.928552    73.503089    4.0002014 
       7            0    -17375.99     6.928552    73.503089    4.0002014 
       8            0    -17375.99     6.928552    73.503089    4.0002014 
       9            0    -17375.99     6.928552    73.503089    4.0002014 
      10            0    -17375.99     6.928552    73.503089    4.0002014 
      11            0    -17375.99     6.928552    73.503089    4.0002014 
      12            0    -17375.99     6.928552    73.503089    4.0002014 
      13            0    -17375.99     6.928552    73.503089    4.0002014 
      14            0    -17375.99     6.928552    73.503089    4.0002014 
      15            0    -17375.99     6.928552    73.503089    4.0002014 
      16            0    -17375.99     6.928552    73.503089    4.0002014 
Loop time of 0.278078 on 1 procs for 15 steps with 2912 atoms

Minimization stats:
  Stopping criterion = trust region too small
  Energy initial, next-to-last, final = 
        -17375.9899537     -17375.9899537     -17375.9899537
  Force two-norm initial, final = 31.0474 31.0474
  Force max component initial, final = 31.0472 31.0472
  Final line search alpha, max atom move = 0 0
  Iterations, force evaluations = 15 94

Pair  time (%) = 0.243983 (87.7389)
Neigh time (%) = 0 (0)
Comm  time (%) = 0.0108523 (3.90259)
Outpt time (%) = 0.00139818 (0.502802)
Other time (%) = 0.021845 (7.85569)

Nlocal:    2912 ave 2912 max 2912 min
Histogram: 1 0 0 0 0 0 0 0 0 0
Nghost:    7129 ave 7129 max 7129 min
Histogram: 1 0 0 0 0 0 0 0 0 0
Neighs:    112224 ave 112224 max 112224 min
Histogram: 1 0 0 0 0 0 0 0 0 0

Total # of neighbors = 112224
Ave neighs/atom = 38.5385
Neighbor list builds = 0
Dangerous builds = 0
unfix 3

# don't allow atoms to relax in y-direction
fix 2 all setforce NULL 0.0 NULL

# GSF energy curve will have 100*2 steps
variable nsteps equal 300
variable sstep1 equal 1.5
variable ystep1 equal ${sstep1}/(${ay}*${nsteps})
variable ystep1 equal 1.5/(${ay}*${nsteps})
variable ystep1 equal 1.5/(1.73205080756888*${nsteps})
variable ystep1 equal 1.5/(1.73205080756888*300)

variable i loop ${nsteps}
variable i loop 300
label loop1
        displace_atoms upper move 0.0 ${ystep1} 0.0 units lattice
        displace_atoms upper move 0.0 0.00288675134594812 0.0 units lattice
        min_style ${style}
        min_style hftn
        minimize ${etol} ${ftol} ${maxiter} ${maxeval}
        minimize 1e-12 ${ftol} ${maxiter} ${maxeval}
        minimize 1e-12 1e-08 ${maxiter} ${maxeval}
        minimize 1e-12 1e-08 10000 ${maxeval}
        minimize 1e-12 1e-08 10000 20000
WARNING: Resetting reneighboring criteria during minimization (../min.cpp:168)
Memory usage per processor = 5.2861 Mbytes
Step Temp PotEng Lx Ly Lz 
      16            0   -17375.823     6.928552    73.510161    4.0002014 
Loop time of 0.00296007 on 1 procs for 0 steps with 2912 atoms

Minimization stats:
  Stopping criterion = force tolerance
  Energy initial, next-to-last, final = 
        -17375.8229928     -17375.8229928     -17375.8229928
  Force two-norm initial, final = 9.88556e-11 9.88556e-11
  Force max component initial, final = 3.19188e-12 3.19188e-12
  Final line search alpha, max atom move = 0 0
  Iterations, force evaluations = 0 0

Pair  time (%) = 0.00288592 (97.4949)
Neigh time (%) = 0 (0)
Comm  time (%) = 3.40972e-05 (1.15191)
Outpt time (%) = 0 (0)
Other time (%) = 4.00565e-05 (1.35323)

Nlocal:    2912 ave 2912 max 2912 min
Histogram: 1 0 0 0 0 0 0 0 0 0
Nghost:    7129 ave 7129 max 7129 min
Histogram: 1 0 0 0 0 0 0 0 0 0
Neighs:    112224 ave 112224 max 112224 min
Histogram: 1 0 0 0 0 0 0 0 0 0

Total # of neighbors = 112224
Ave neighs/atom = 38.5385
Neighbor list builds = 0
Dangerous builds = 0
	# write_dump all atom ${dumpfile}
        next i
jump SELF loop1
        displace_atoms upper move 0.0 ${ystep1} 0.0 units lattice
        displace_atoms upper move 0.0 0.00288675134594812 0.0 units lattice
        min_style ${style}
        min_style hftn
        minimize ${etol} ${ftol} ${maxiter} ${maxeval}
        minimize 1e-12 ${ftol} ${maxiter} ${maxeval}
        minimize 1e-12 1e-08 ${maxiter} ${maxeval}
        minimize 1e-12 1e-08 10000 ${maxeval}
        minimize 1e-12 1e-08 10000 20000
WARNING: Resetting reneighboring criteria during minimization (../min.cpp:168)
Memory usage per processor = 5.2861 Mbytes
Step Temp PotEng Lx Ly Lz 
      16            0   -17375.354     6.928552    73.517232    4.0002014 
Loop time of 0.00212693 on 1 procs for 0 steps with 2912 atoms

Minimization stats:
  Stopping criterion = force tolerance
  Energy initial, next-to-last, final = 
        -17375.3541499     -17375.3541499     -17375.3541499
  Force two-norm initial, final = 9.88337e-11 9.88337e-11
  Force max component initial, final = 3.19188e-12 3.19188e-12
  Final line search alpha, max atom move = 0 0
  Iterations, force evaluations = 0 0

Pair  time (%) = 0.00206789 (97.2241)
Neigh time (%) = 0 (0)
Comm  time (%) = 3.21494e-05 (1.51154)
Outpt time (%) = 0 (0)
Other time (%) = 2.68914e-05 (1.26433)

Nlocal:    2912 ave 2912 max 2912 min
Histogram: 1 0 0 0 0 0 0 0 0 0
Nghost:    7129 ave 7129 max 7129 min
Histogram: 1 0 0 0 0 0 0 0 0 0
Neighs:    112224 ave 112224 max 112224 min
Histogram: 1 0 0 0 0 0 0 0 0 0

Total # of neighbors = 112224
Ave neighs/atom = 38.5385
Neighbor list builds = 0
Dangerous builds = 0
	# write_dump all atom ${dumpfile}
        next i
jump SELF loop1
        displace_atoms upper move 0.0 ${ystep1} 0.0 units lattice
        displace_atoms upper move 0.0 0.00288675134594812 0.0 units lattice
        min_style ${style}
        min_style hftn
        minimize ${etol} ${ftol} ${maxiter} ${maxeval}
        minimize 1e-12 ${ftol} ${maxiter} ${maxeval}
        minimize 1e-12 1e-08 ${maxiter} ${maxeval}
        minimize 1e-12 1e-08 10000 ${maxeval}
        minimize 1e-12 1e-08 10000 20000
WARNING: Resetting reneighboring criteria during minimization (../min.cpp:168)
Memory usage per processor = 5.2861 Mbytes
Step Temp PotEng Lx Ly Lz 
      16            0   -17374.618     6.928552    73.524304    4.0002014 
Loop time of 0.00336192 on 1 procs for 0 steps with 2912 atoms

Minimization stats:
  Stopping criterion = force tolerance
  Energy initial, next-to-last, final = 
        -17374.6184459     -17374.6184459     -17374.6184459
  Force two-norm initial, final = 9.88145e-11 9.88145e-11
  Force max component initial, final = 3.19188e-12 3.19188e-12
  Final line search alpha, max atom move = 0 0
  Iterations, force evaluations = 0 0

Pair  time (%) = 0.00329888 (98.1249)
Neigh time (%) = 0 (0)
Comm  time (%) = 3.29386e-05 (0.979753)
Outpt time (%) = 0 (0)
Other time (%) = 3.01022e-05 (0.895387)

Nlocal:    2912 ave 2912 max 2912 min
Histogram: 1 0 0 0 0 0 0 0 0 0
Nghost:    7129 ave 7129 max 7129 min
Histogram: 1 0 0 0 0 0 0 0 0 0
Neighs:    112224 ave 112224 max 112224 min
Histogram: 1 0 0 0 0 0 0 0 0 0

Total # of neighbors = 112224
Ave neighs/atom = 38.5385
Neighbor list builds = 0
Dangerous builds = 0
	# write_dump all atom ${dumpfile}
        next i
jump SELF loop1
        displace_atoms upper move 0.0 ${ystep1} 0.0 units lattice
        displace_atoms upper move 0.0 0.00288675134594812 0.0 units lattice
        min_style ${style}
        min_style hftn
        minimize ${etol} ${ftol} ${maxiter} ${maxeval}
        minimize 1e-12 ${ftol} ${maxiter} ${maxeval}
        minimize 1e-12 1e-08 ${maxiter} ${maxeval}
        minimize 1e-12 1e-08 10000 ${maxeval}
        minimize 1e-12 1e-08 10000 20000
WARNING: Resetting reneighboring criteria during minimization (../min.cpp:168)
Memory usage per processor = 5.2861 Mbytes
Step Temp PotEng Lx Ly Lz 
      16            0   -17373.648     6.928552    73.531375    4.0002014 
Loop time of 0.00251209 on 1 procs for 0 steps with 2912 atoms

Minimization stats:
  Stopping criterion = force tolerance
  Energy initial, next-to-last, final = 
        -17373.6480082     -17373.6480082     -17373.6480082
  Force two-norm initial, final = 9.87975e-11 9.87975e-11
  Force max component initial, final = 3.19188e-12 3.19188e-12
  Final line search alpha, max atom move = 0 0
  Iterations, force evaluations = 0 0

Pair  time (%) = 0.0024519 (97.6041)
Neigh time (%) = 0 (0)
Comm  time (%) = 3.20273e-05 (1.27493)
Outpt time (%) = 0 (0)
Other time (%) = 2.81592e-05 (1.12095)

Nlocal:    2912 ave 2912 max 2912 min
Histogram: 1 0 0 0 0 0 0 0 0 0
Nghost:    7129 ave 7129 max 7129 min
Histogram: 1 0 0 0 0 0 0 0 0 0
Neighs:    112224 ave 112224 max 112224 min
Histogram: 1 0 0 0 0 0 0 0 0 0

Total # of neighbors = 112224
Ave neighs/atom = 38.5385
Neighbor list builds = 0
Dangerous builds = 0
	# write_dump all atom ${dumpfile}
        next i
jump SELF loop1
        displace_atoms upper move 0.0 ${ystep1} 0.0 units lattice
        displace_atoms upper move 0.0 0.00288675134594812 0.0 units lattice
        min_style ${style}
        min_style hftn
        minimize ${etol} ${ftol} ${maxiter} ${maxeval}
        minimize 1e-12 ${ftol} ${maxiter} ${maxeval}
        minimize 1e-12 1e-08 ${maxiter} ${maxeval}
        minimize 1e-12 1e-08 10000 ${maxeval}
        minimize 1e-12 1e-08 10000 20000
WARNING: Resetting reneighboring criteria during minimization (../min.cpp:168)
Memory usage per processor = 5.2861 Mbytes
Step Temp PotEng Lx Ly Lz 
      16            0   -17372.472     6.928552    73.538446    4.0002014 
Loop time of 0.00378707 on 1 procs for 0 steps with 2912 atoms

Minimization stats:
  Stopping criterion = force tolerance
  Energy initial, next-to-last, final = 
        -17372.4723047     -17372.4723047     -17372.4723047
  Force two-norm initial, final = 9.8783e-11 9.8783e-11
  Force max component initial, final = 3.19188e-12 3.19188e-12
  Final line search alpha, max atom move = 0 0
  Iterations, force evaluations = 0 0

Pair  time (%) = 0.00372489 (98.3579)
Neigh time (%) = 0 (0)
Comm  time (%) = 3.30881e-05 (0.873713)
Outpt time (%) = 0 (0)
Other time (%) = 2.90984e-05 (0.76836)

Nlocal:    2912 ave 2912 max 2912 min
Histogram: 1 0 0 0 0 0 0 0 0 0
Nghost:    7129 ave 7129 max 7129 min
Histogram: 1 0 0 0 0 0 0 0 0 0
Neighs:    112224 ave 112224 max 112224 min
Histogram: 1 0 0 0 0 0 0 0 0 0

Total # of neighbors = 112224
Ave neighs/atom = 38.5385
Neighbor list builds = 0
Dangerous builds = 0
	# write_dump all atom ${dumpfile}
        next i
jump SELF loop1
        displace_atoms upper move 0.0 ${ystep1} 0.0 units lattice
        displace_atoms upper move 0.0 0.00288675134594812 0.0 units lattice
        min_style ${style}
        min_style hftn
        minimize ${etol} ${ftol} ${maxiter} ${maxeval}
        minimize 1e-12 ${ftol} ${maxiter} ${maxeval}
        minimize 1e-12 1e-08 ${maxiter} ${maxeval}
        minimize 1e-12 1e-08 10000 ${maxeval}
        minimize 1e-12 1e-08 10000 20000
WARNING: Resetting reneighboring criteria during minimization (../min.cpp:168)
Memory usage per processor = 5.2861 Mbytes
Step Temp PotEng Lx Ly Lz 
      16            0   -17371.118     6.928552    73.545518    4.0002014 
Loop time of 0.00227911 on 1 procs for 0 steps with 2912 atoms

Minimization stats:
  Stopping criterion = force tolerance
  Energy initial, next-to-last, final = 
        -17371.1182941     -17371.1182941     -17371.1182941
  Force two-norm initial, final = 9.87701e-11 9.87701e-11
  Force max component initial, final = 3.19188e-12 3.19188e-12
  Final line search alpha, max atom move = 0 0
  Iterations, force evaluations = 0 0

Pair  time (%) = 0.00221911 (97.3676)
Neigh time (%) = 0 (0)
Comm  time (%) = 3.29179e-05 (1.44433)
Outpt time (%) = 0 (0)
Other time (%) = 2.70766e-05 (1.18803)

Nlocal:    2912 ave 2912 max 2912 min
Histogram: 1 0 0 0 0 0 0 0 0 0
Nghost:    7129 ave 7129 max 7129 min
Histogram: 1 0 0 0 0 0 0 0 0 0
Neighs:    112224 ave 112224 max 112224 min
Histogram: 1 0 0 0 0 0 0 0 0 0

Total # of neighbors = 112224
Ave neighs/atom = 38.5385
Neighbor list builds = 0
Dangerous builds = 0
	# write_dump all atom ${dumpfile}
        next i
jump SELF loop1
        displace_atoms upper move 0.0 ${ystep1} 0.0 units lattice
        displace_atoms upper move 0.0 0.00288675134594812 0.0 units lattice
        min_style ${style}
        min_style hftn
        minimize ${etol} ${ftol} ${maxiter} ${maxeval}
        minimize 1e-12 ${ftol} ${maxiter} ${maxeval}
        minimize 1e-12 1e-08 ${maxiter} ${maxeval}
        minimize 1e-12 1e-08 10000 ${maxeval}
        minimize 1e-12 1e-08 10000 20000
WARNING: Resetting reneighboring criteria during minimization (../min.cpp:168)
Memory usage per processor = 5.2861 Mbytes
Step Temp PotEng Lx Ly Lz 
      16            0   -17369.611     6.928552    73.552589    4.0002014 
Loop time of 0.00278095 on 1 procs for 0 steps with 2912 atoms

Minimization stats:
  Stopping criterion = force tolerance
  Energy initial, next-to-last, final = 
        -17369.6105794     -17369.6105794     -17369.6105794
  Force two-norm initial, final = 9.87596e-11 9.87596e-11
  Force max component initial, final = 3.19188e-12 3.19188e-12
  Final line search alpha, max atom move = 0 0
  Iterations, force evaluations = 0 0

Pair  time (%) = 0.00267901 (96.3341)
Neigh time (%) = 0 (0)
Comm  time (%) = 5.38358e-05 (1.93588)
Outpt time (%) = 0 (0)
Other time (%) = 4.81124e-05 (1.73007)

Nlocal:    2912 ave 2912 max 2912 min
Histogram: 1 0 0 0 0 0 0 0 0 0
Nghost:    7129 ave 7129 max 7129 min
Histogram: 1 0 0 0 0 0 0 0 0 0
Neighs:    112224 ave 112224 max 112224 min
Histogram: 1 0 0 0 0 0 0 0 0 0

Total # of neighbors = 112224
Ave neighs/atom = 38.5385
Neighbor list builds = 0
Dangerous builds = 0
	# write_dump all atom ${dumpfile}
        next i
jump SELF loop1
        displace_atoms upper move 0.0 ${ystep1} 0.0 units lattice
        displace_atoms upper move 0.0 0.00288675134594812 0.0 units lattice
        min_style ${style}
        min_style hftn
        minimize ${etol} ${ftol} ${maxiter} ${maxeval}
        minimize 1e-12 ${ftol} ${maxiter} ${maxeval}
        minimize 1e-12 1e-08 ${maxiter} ${maxeval}
        minimize 1e-12 1e-08 10000 ${maxeval}
        minimize 1e-12 1e-08 10000 20000
WARNING: Resetting reneighboring criteria during minimization (../min.cpp:168)
Memory usage per processor = 5.2861 Mbytes
Step Temp PotEng Lx Ly Lz 
      16            0   -17367.972     6.928552    73.559661    4.0002014 
Loop time of 0.0053781 on 1 procs for 0 steps with 2912 atoms

Minimization stats:
  Stopping criterion = force tolerance
  Energy initial, next-to-last, final = 
        -17367.9715592     -17367.9715592     -17367.9715592
  Force two-norm initial, final = 9.87499e-11 9.87499e-11
  Force max component initial, final = 3.19188e-12 3.19188e-12
  Final line search alpha, max atom move = 0 0
  Iterations, force evaluations = 0 0

Pair  time (%) = 0.00531806 (98.8836)
Neigh time (%) = 0 (0)
Comm  time (%) = 3.18827e-05 (0.592824)
Outpt time (%) = 0 (0)
Other time (%) = 2.81581e-05 (0.523569)

Nlocal:    2912 ave 2912 max 2912 min
Histogram: 1 0 0 0 0 0 0 0 0 0
Nghost:    7129 ave 7129 max 7129 min
Histogram: 1 0 0 0 0 0 0 0 0 0
Neighs:    112224 ave 112224 max 112224 min
Histogram: 1 0 0 0 0 0 0 0 0 0

Total # of neighbors = 112224
Ave neighs/atom = 38.5385
Neighbor list builds = 0
Dangerous builds = 0
	# write_dump all atom ${dumpfile}
        next i
jump SELF loop1
        displace_atoms upper move 0.0 ${ystep1} 0.0 units lattice
        displace_atoms upper move 0.0 0.00288675134594812 0.0 units lattice
        min_style ${style}
        min_style hftn
        minimize ${etol} ${ftol} ${maxiter} ${maxeval}
        minimize 1e-12 ${ftol} ${maxiter} ${maxeval}
        minimize 1e-12 1e-08 ${maxiter} ${maxeval}
        minimize 1e-12 1e-08 10000 ${maxeval}
        minimize 1e-12 1e-08 10000 20000
WARNING: Resetting reneighboring criteria during minimization (../min.cpp:168)
Memory usage per processor = 5.2861 Mbytes
Step Temp PotEng Lx Ly Lz 
      16            0   -17366.216     6.928552    73.566732    4.0002014 
Loop time of 0.0023011 on 1 procs for 0 steps with 2912 atoms

Minimization stats:
  Stopping criterion = force tolerance
  Energy initial, next-to-last, final = 
        -17366.2162864     -17366.2162864     -17366.2162864
  Force two-norm initial, final = 9.87675e-11 9.87675e-11
  Force max component initial, final = 3.19188e-12 3.19188e-12
  Final line search alpha, max atom move = 0 0
  Iterations, force evaluations = 0 0

Pair  time (%) = 0.00223896 (97.2995)
Neigh time (%) = 0 (0)
Comm  time (%) = 3.30582e-05 (1.43663)
Outpt time (%) = 0 (0)
Other time (%) = 2.90819e-05 (1.26383)

Nlocal:    2912 ave 2912 max 2912 min
Histogram: 1 0 0 0 0 0 0 0 0 0
Nghost:    7129 ave 7129 max 7129 min
Histogram: 1 0 0 0 0 0 0 0 0 0
Neighs:    112224 ave 112224 max 112224 min
Histogram: 1 0 0 0 0 0 0 0 0 0

Total # of neighbors = 112224
Ave neighs/atom = 38.5385
Neighbor list builds = 0
Dangerous builds = 0
	# write_dump all atom ${dumpfile}
        next i
jump SELF loop1
        displace_atoms upper move 0.0 ${ystep1} 0.0 units lattice
        displace_atoms upper move 0.0 0.00288675134594812 0.0 units lattice
        min_style ${style}
        min_style hftn
        minimize ${etol} ${ftol} ${maxiter} ${maxeval}
        minimize 1e-12 ${ftol} ${maxiter} ${maxeval}
        minimize 1e-12 1e-08 ${maxiter} ${maxeval}
        minimize 1e-12 1e-08 10000 ${maxeval}
        minimize 1e-12 1e-08 10000 20000
WARNING: Resetting reneighboring criteria during minimization (../min.cpp:168)
Memory usage per processor = 5.2861 Mbytes
Step Temp PotEng Lx Ly Lz 
      16            0   -17364.321     6.928552    73.573804    4.0002014 
Loop time of 0.00546301 on 1 procs for 0 steps with 2912 atoms

Minimization stats:
  Stopping criterion = force tolerance
  Energy initial, next-to-last, final = 
        -17364.3208717     -17364.3208717     -17364.3208717
  Force two-norm initial, final = 9.87632e-11 9.87632e-11
  Force max component initial, final = 3.19188e-12 3.19188e-12
  Final line search alpha, max atom move = 0 0
  Iterations, force evaluations = 0 0

Pair  time (%) = 0.00540197 (98.8827)
Neigh time (%) = 0 (0)
Comm  time (%) = 3.29836e-05 (0.603762)
Outpt time (%) = 0 (0)
Other time (%) = 2.80571e-05 (0.513584)

Nlocal:    2912 ave 2912 max 2912 min
Histogram: 1 0 0 0 0 0 0 0 0 0
Nghost:    7129 ave 7129 max 7129 min
Histogram: 1 0 0 0 0 0 0 0 0 0
Neighs:    112224 ave 112224 max 112224 min
Histogram: 1 0 0 0 0 0 0 0 0 0

Total # of neighbors = 112224
Ave neighs/atom = 38.5385
Neighbor list builds = 0
Dangerous builds = 0
	# write_dump all atom ${dumpfile}
        next i
jump SELF loop1
        displace_atoms upper move 0.0 ${ystep1} 0.0 units lattice
        displace_atoms upper move 0.0 0.00288675134594812 0.0 units lattice
        min_style ${style}
        min_style hftn
        minimize ${etol} ${ftol} ${maxiter} ${maxeval}
        minimize 1e-12 ${ftol} ${maxiter} ${maxeval}
        minimize 1e-12 1e-08 ${maxiter} ${maxeval}
        minimize 1e-12 1e-08 10000 ${maxeval}
        minimize 1e-12 1e-08 10000 20000
WARNING: Resetting reneighboring criteria during minimization (../min.cpp:168)
Memory usage per processor = 5.2861 Mbytes
Step Temp PotEng Lx Ly Lz 
      16            0   -17362.287     6.928552    73.580875    4.0002014 
Loop time of 0.00247794 on 1 procs for 0 steps with 2912 atoms

Minimization stats:
  Stopping criterion = force tolerance
  Energy initial, next-to-last, final = 
         -17362.287491      -17362.287491      -17362.287491
  Force two-norm initial, final = 9.87589e-11 9.87589e-11
  Force max component initial, final = 3.19188e-12 3.19188e-12
  Final line search alpha, max atom move = 0 0
  Iterations, force evaluations = 0 0

Pair  time (%) = 0.00241604 (97.5019)
Neigh time (%) = 0 (0)
Comm  time (%) = 3.28382e-05 (1.32522)
Outpt time (%) = 0 (0)
Other time (%) = 2.90637e-05 (1.17289)

Nlocal:    2912 ave 2912 max 2912 min
Histogram: 1 0 0 0 0 0 0 0 0 0
Nghost:    7129 ave 7129 max 7129 min
Histogram: 1 0 0 0 0 0 0 0 0 0
Neighs:    112224 ave 112224 max 112224 min
Histogram: 1 0 0 0 0 0 0 0 0 0

Total # of neighbors = 112224
Ave neighs/atom = 38.5385
Neighbor list builds = 0
Dangerous builds = 0
	# write_dump all atom ${dumpfile}
        next i
jump SELF loop1
        displace_atoms upper move 0.0 ${ystep1} 0.0 units lattice
        displace_atoms upper move 0.0 0.00288675134594812 0.0 units lattice
        min_style ${style}
        min_style hftn
        minimize ${etol} ${ftol} ${maxiter} ${maxeval}
        minimize 1e-12 ${ftol} ${maxiter} ${maxeval}
        minimize 1e-12 1e-08 ${maxiter} ${maxeval}
        minimize 1e-12 1e-08 10000 ${maxeval}
        minimize 1e-12 1e-08 10000 20000
WARNING: Resetting reneighboring criteria during minimization (../min.cpp:168)
Memory usage per processor = 5.2861 Mbytes
Step Temp PotEng Lx Ly Lz 
      16            0   -17360.125     6.928552    73.587946    4.0002014 
Loop time of 0.00465608 on 1 procs for 0 steps with 2912 atoms

Minimization stats:
  Stopping criterion = force tolerance
  Energy initial, next-to-last, final = 
        -17360.1250764     -17360.1250764     -17360.1250764
  Force two-norm initial, final = 9.87544e-11 9.87544e-11
  Force max component initial, final = 3.19188e-12 3.19188e-12
  Final line search alpha, max atom move = 0 0
  Iterations, force evaluations = 0 0

Pair  time (%) = 0.00462603 (99.3548)
Neigh time (%) = 0 (0)
Comm  time (%) = 1.39676e-05 (0.299987)
Outpt time (%) = 0 (0)
Other time (%) = 1.60731e-05 (0.345207)

Nlocal:    2912 ave 2912 max 2912 min
Histogram: 1 0 0 0 0 0 0 0 0 0
Nghost:    7129 ave 7129 max 7129 min
Histogram: 1 0 0 0 0 0 0 0 0 0
Neighs:    112224 ave 112224 max 112224 min
Histogram: 1 0 0 0 0 0 0 0 0 0

Total # of neighbors = 112224
Ave neighs/atom = 38.5385
Neighbor list builds = 0
Dangerous builds = 0
	# write_dump all atom ${dumpfile}
        next i
jump SELF loop1
        displace_atoms upper move 0.0 ${ystep1} 0.0 units lattice
        displace_atoms upper move 0.0 0.00288675134594812 0.0 units lattice
        min_style ${style}
        min_style hftn
        minimize ${etol} ${ftol} ${maxiter} ${maxeval}
        minimize 1e-12 ${ftol} ${maxiter} ${maxeval}
        minimize 1e-12 1e-08 ${maxiter} ${maxeval}
        minimize 1e-12 1e-08 10000 ${maxeval}
        minimize 1e-12 1e-08 10000 20000
WARNING: Resetting reneighboring criteria during minimization (../min.cpp:168)
Memory usage per processor = 5.2861 Mbytes
Step Temp PotEng Lx Ly Lz 
      16            0   -17357.843     6.928552    73.595018    4.0002014 
Loop time of 0.0035631 on 1 procs for 0 steps with 2912 atoms

Minimization stats:
  Stopping criterion = force tolerance
  Energy initial, next-to-last, final = 
        -17357.8433322     -17357.8433322     -17357.8433322
  Force two-norm initial, final = 9.87507e-11 9.87507e-11
  Force max component initial, final = 3.19188e-12 3.19188e-12
  Final line search alpha, max atom move = 0 0
  Iterations, force evaluations = 0 0

Pair  time (%) = 0.00346601 (97.275)
Neigh time (%) = 0 (0)
Comm  time (%) = 5.10153e-05 (1.43177)
Outpt time (%) = 0 (0)
Other time (%) = 4.60786e-05 (1.29321)

Nlocal:    2912 ave 2912 max 2912 min
Histogram: 1 0 0 0 0 0 0 0 0 0
Nghost:    7129 ave 7129 max 7129 min
Histogram: 1 0 0 0 0 0 0 0 0 0
Neighs:    111840 ave 111840 max 111840 min
Histogram: 1 0 0 0 0 0 0 0 0 0

Total # of neighbors = 111840
Ave neighs/atom = 38.4066
Neighbor list builds = 0
Dangerous builds = 0
	# write_dump all atom ${dumpfile}
        next i
jump SELF loop1
        displace_atoms upper move 0.0 ${ystep1} 0.0 units lattice
        displace_atoms upper move 0.0 0.00288675134594812 0.0 units lattice
        min_style ${style}
        min_style hftn
        minimize ${etol} ${ftol} ${maxiter} ${maxeval}
        minimize 1e-12 ${ftol} ${maxiter} ${maxeval}
        minimize 1e-12 1e-08 ${maxiter} ${maxeval}
        minimize 1e-12 1e-08 10000 ${maxeval}
        minimize 1e-12 1e-08 10000 20000
WARNING: Resetting reneighboring criteria during minimization (../min.cpp:168)
Memory usage per processor = 5.28733 Mbytes
Step Temp PotEng Lx Ly Lz 
      16            0   -17355.452     6.928552    73.602089    4.0002014 
Loop time of 0.00250999 on 1 procs for 0 steps with 2912 atoms

Minimization stats:
  Stopping criterion = force tolerance
  Energy initial, next-to-last, final = 
        -17355.4515157     -17355.4515157     -17355.4515157
  Force two-norm initial, final = 9.87466e-11 9.87466e-11
  Force max component initial, final = 3.19188e-12 3.19188e-12
  Final line search alpha, max atom move = 0 0
  Iterations, force evaluations = 0 0

Pair  time (%) = 0.00244298 (97.3304)
Neigh time (%) = 0 (0)
Comm  time (%) = 3.50233e-05 (1.39536)
Outpt time (%) = 0 (0)
Other time (%) = 3.19846e-05 (1.27429)

Nlocal:    2912 ave 2912 max 2912 min
Histogram: 1 0 0 0 0 0 0 0 0 0
Nghost:    7129 ave 7129 max 7129 min
Histogram: 1 0 0 0 0 0 0 0 0 0
Neighs:    111840 ave 111840 max 111840 min
Histogram: 1 0 0 0 0 0 0 0 0 0

Total # of neighbors = 111840
Ave neighs/atom = 38.4066
Neighbor list builds = 0
Dangerous builds = 0
	# write_dump all atom ${dumpfile}
        next i
jump SELF loop1
        displace_atoms upper move 0.0 ${ystep1} 0.0 units lattice
        displace_atoms upper move 0.0 0.00288675134594812 0.0 units lattice
        min_style ${style}
        min_style hftn
        minimize ${etol} ${ftol} ${maxiter} ${maxeval}
        minimize 1e-12 ${ftol} ${maxiter} ${maxeval}
        minimize 1e-12 1e-08 ${maxiter} ${maxeval}
        minimize 1e-12 1e-08 10000 ${maxeval}
        minimize 1e-12 1e-08 10000 20000
WARNING: Resetting reneighboring criteria during minimization (../min.cpp:168)
Memory usage per processor = 5.28733 Mbytes
Step Temp PotEng Lx Ly Lz 
      16            0    -17352.96     6.928552    73.609161    4.0002014 
Loop time of 0.00262193 on 1 procs for 0 steps with 2912 atoms

Minimization stats:
  Stopping criterion = force tolerance
  Energy initial, next-to-last, final = 
        -17352.9596525     -17352.9596525     -17352.9596525
  Force two-norm initial, final = 9.8742e-11 9.8742e-11
  Force max component initial, final = 3.19188e-12 3.19188e-12
  Final line search alpha, max atom move = 0 0
  Iterations, force evaluations = 0 0

Pair  time (%) = 0.00253098 (96.5313)
Neigh time (%) = 0 (0)
Comm  time (%) = 4.80384e-05 (1.83218)
Outpt time (%) = 0 (0)
Other time (%) = 4.29096e-05 (1.63657)

Nlocal:    2912 ave 2912 max 2912 min
Histogram: 1 0 0 0 0 0 0 0 0 0
Nghost:    7129 ave 7129 max 7129 min
Histogram: 1 0 0 0 0 0 0 0 0 0
Neighs:    111840 ave 111840 max 111840 min
Histogram: 1 0 0 0 0 0 0 0 0 0

Total # of neighbors = 111840
Ave neighs/atom = 38.4066
Neighbor list builds = 0
Dangerous builds = 0
	# write_dump all atom ${dumpfile}
        next i
jump SELF loop1
        displace_atoms upper move 0.0 ${ystep1} 0.0 units lattice
        displace_atoms upper move 0.0 0.00288675134594812 0.0 units lattice
        min_style ${style}
        min_style hftn
        minimize ${etol} ${ftol} ${maxiter} ${maxeval}
        minimize 1e-12 ${ftol} ${maxiter} ${maxeval}
        minimize 1e-12 1e-08 ${maxiter} ${maxeval}
        minimize 1e-12 1e-08 10000 ${maxeval}
        minimize 1e-12 1e-08 10000 20000
WARNING: Resetting reneighboring criteria during minimization (../min.cpp:168)
Memory usage per processor = 5.28733 Mbytes
Step Temp PotEng Lx Ly Lz 
      16            0   -17350.378     6.928552    73.616232    4.0002014 
Loop time of 0.00216901 on 1 procs for 0 steps with 2912 atoms

Minimization stats:
  Stopping criterion = force tolerance
  Energy initial, next-to-last, final = 
         -17350.377561      -17350.377561      -17350.377561
  Force two-norm initial, final = 9.87377e-11 9.87377e-11
  Force max component initial, final = 3.19188e-12 3.19188e-12
  Final line search alpha, max atom move = 0 0
  Iterations, force evaluations = 0 0

Pair  time (%) = 0.00210906 (97.2362)
Neigh time (%) = 0 (0)
Comm  time (%) = 3.19586e-05 (1.47342)
Outpt time (%) = 0 (0)
Other time (%) = 2.79895e-05 (1.29043)

Nlocal:    2912 ave 2912 max 2912 min
Histogram: 1 0 0 0 0 0 0 0 0 0
Nghost:    7129 ave 7129 max 7129 min
Histogram: 1 0 0 0 0 0 0 0 0 0
Neighs:    111840 ave 111840 max 111840 min
Histogram: 1 0 0 0 0 0 0 0 0 0

Total # of neighbors = 111840
Ave neighs/atom = 38.4066
Neighbor list builds = 0
Dangerous builds = 0
	# write_dump all atom ${dumpfile}
        next i
jump SELF loop1
        displace_atoms upper move 0.0 ${ystep1} 0.0 units lattice
        displace_atoms upper move 0.0 0.00288675134594812 0.0 units lattice
        min_style ${style}
        min_style hftn
        minimize ${etol} ${ftol} ${maxiter} ${maxeval}
        minimize 1e-12 ${ftol} ${maxiter} ${maxeval}
        minimize 1e-12 1e-08 ${maxiter} ${maxeval}
        minimize 1e-12 1e-08 10000 ${maxeval}
        minimize 1e-12 1e-08 10000 20000
WARNING: Resetting reneighboring criteria during minimization (../min.cpp:168)
Memory usage per processor = 5.28733 Mbytes
Step Temp PotEng Lx Ly Lz 
      16            0   -17347.715     6.928552    73.623304    4.0002014 
Loop time of 0.00233099 on 1 procs for 0 steps with 2912 atoms

Minimization stats:
  Stopping criterion = force tolerance
  Energy initial, next-to-last, final = 
         -17347.715245      -17347.715245      -17347.715245
  Force two-norm initial, final = 9.87333e-11 9.87333e-11
  Force max component initial, final = 3.19188e-12 3.19188e-12
  Final line search alpha, max atom move = 0 0
  Iterations, force evaluations = 0 0

Pair  time (%) = 0.0022659 (97.2075)
Neigh time (%) = 0 (0)
Comm  time (%) = 3.399e-05 (1.45818)
Outpt time (%) = 0 (0)
Other time (%) = 3.11038e-05 (1.33436)

Nlocal:    2912 ave 2912 max 2912 min
Histogram: 1 0 0 0 0 0 0 0 0 0
Nghost:    7129 ave 7129 max 7129 min
Histogram: 1 0 0 0 0 0 0 0 0 0
Neighs:    111840 ave 111840 max 111840 min
Histogram: 1 0 0 0 0 0 0 0 0 0

Total # of neighbors = 111840
Ave neighs/atom = 38.4066
Neighbor list builds = 0
Dangerous builds = 0
	# write_dump all atom ${dumpfile}
        next i
jump SELF loop1
        displace_atoms upper move 0.0 ${ystep1} 0.0 units lattice
        displace_atoms upper move 0.0 0.00288675134594812 0.0 units lattice
        min_style ${style}
        min_style hftn
        minimize ${etol} ${ftol} ${maxiter} ${maxeval}
        minimize 1e-12 ${ftol} ${maxiter} ${maxeval}
        minimize 1e-12 1e-08 ${maxiter} ${maxeval}
        minimize 1e-12 1e-08 10000 ${maxeval}
        minimize 1e-12 1e-08 10000 20000
WARNING: Resetting reneighboring criteria during minimization (../min.cpp:168)
Memory usage per processor = 5.28733 Mbytes
Step Temp PotEng Lx Ly Lz 
      16            0   -17344.983     6.928552    73.630375    4.0002014 
Loop time of 0.00295109 on 1 procs for 0 steps with 2912 atoms

Minimization stats:
  Stopping criterion = force tolerance
  Energy initial, next-to-last, final = 
        -17344.9828681     -17344.9828681     -17344.9828681
  Force two-norm initial, final = 9.87297e-11 9.87297e-11
  Force max component initial, final = 3.19188e-12 3.19188e-12
  Final line search alpha, max atom move = 0 0
  Iterations, force evaluations = 0 0

Pair  time (%) = 0.00225404 (76.38)
Neigh time (%) = 0 (0)
Comm  time (%) = 1.70795e-05 (0.578752)
Outpt time (%) = 0 (0)
Other time (%) = 0.000679969 (23.0413)

Nlocal:    2912 ave 2912 max 2912 min
Histogram: 1 0 0 0 0 0 0 0 0 0
Nghost:    7129 ave 7129 max 7129 min
Histogram: 1 0 0 0 0 0 0 0 0 0
Neighs:    111840 ave 111840 max 111840 min
Histogram: 1 0 0 0 0 0 0 0 0 0

Total # of neighbors = 111840
Ave neighs/atom = 38.4066
Neighbor list builds = 0
Dangerous builds = 0
	# write_dump all atom ${dumpfile}
        next i
jump SELF loop1
        displace_atoms upper move 0.0 ${ystep1} 0.0 units lattice
        displace_atoms upper move 0.0 0.00288675134594812 0.0 units lattice
        min_style ${style}
        min_style hftn
        minimize ${etol} ${ftol} ${maxiter} ${maxeval}
        minimize 1e-12 ${ftol} ${maxiter} ${maxeval}
        minimize 1e-12 1e-08 ${maxiter} ${maxeval}
        minimize 1e-12 1e-08 10000 ${maxeval}
        minimize 1e-12 1e-08 10000 20000
WARNING: Resetting reneighboring criteria during minimization (../min.cpp:168)
Memory usage per processor = 5.28733 Mbytes
Step Temp PotEng Lx Ly Lz 
      16            0   -17342.191     6.928552    73.637446    4.0002014 
Loop time of 0.00312491 on 1 procs for 0 steps with 2912 atoms

Minimization stats:
  Stopping criterion = force tolerance
  Energy initial, next-to-last, final = 
        -17342.1907535     -17342.1907535     -17342.1907535
  Force two-norm initial, final = 9.87253e-11 9.87253e-11
  Force max component initial, final = 3.19188e-12 3.19188e-12
  Final line search alpha, max atom move = 0 0
  Iterations, force evaluations = 0 0

Pair  time (%) = 0.00306297 (98.0176)
Neigh time (%) = 0 (0)
Comm  time (%) = 3.19018e-05 (1.02088)
Outpt time (%) = 0 (0)
Other time (%) = 3.00463e-05 (0.961509)

Nlocal:    2912 ave 2912 max 2912 min
Histogram: 1 0 0 0 0 0 0 0 0 0
Nghost:    7129 ave 7129 max 7129 min
Histogram: 1 0 0 0 0 0 0 0 0 0
Neighs:    111840 ave 111840 max 111840 min
Histogram: 1 0 0 0 0 0 0 0 0 0

Total # of neighbors = 111840
Ave neighs/atom = 38.4066
Neighbor list builds = 0
Dangerous builds = 0
	# write_dump all atom ${dumpfile}
        next i
jump SELF loop1
        displace_atoms upper move 0.0 ${ystep1} 0.0 units lattice
        displace_atoms upper move 0.0 0.00288675134594812 0.0 units lattice
        min_style ${style}
        min_style hftn
        minimize ${etol} ${ftol} ${maxiter} ${maxeval}
        minimize 1e-12 ${ftol} ${maxiter} ${maxeval}
        minimize 1e-12 1e-08 ${maxiter} ${maxeval}
        minimize 1e-12 1e-08 10000 ${maxeval}
        minimize 1e-12 1e-08 10000 20000
WARNING: Resetting reneighboring criteria during minimization (../min.cpp:168)
Memory usage per processor = 5.28733 Mbytes
Step Temp PotEng Lx Ly Lz 
      16            0   -17339.349     6.928552    73.644518    4.0002014 
Loop time of 0.00234603 on 1 procs for 0 steps with 2912 atoms

Minimization stats:
  Stopping criterion = force tolerance
  Energy initial, next-to-last, final = 
        -17339.3493648     -17339.3493648     -17339.3493648
  Force two-norm initial, final = 9.87213e-11 9.87213e-11
  Force max component initial, final = 3.19188e-12 3.19188e-12
  Final line search alpha, max atom move = 0 0
  Iterations, force evaluations = 0 0

Pair  time (%) = 0.00224294 (95.6056)
Neigh time (%) = 0 (0)
Comm  time (%) = 5.29601e-05 (2.25743)
Outpt time (%) = 0 (0)
Other time (%) = 5.01338e-05 (2.13696)

Nlocal:    2912 ave 2912 max 2912 min
Histogram: 1 0 0 0 0 0 0 0 0 0
Nghost:    7129 ave 7129 max 7129 min
Histogram: 1 0 0 0 0 0 0 0 0 0
Neighs:    111840 ave 111840 max 111840 min
Histogram: 1 0 0 0 0 0 0 0 0 0

Total # of neighbors = 111840
Ave neighs/atom = 38.4066
Neighbor list builds = 0
Dangerous builds = 0
	# write_dump all atom ${dumpfile}
        next i
jump SELF loop1
        displace_atoms upper move 0.0 ${ystep1} 0.0 units lattice
        displace_atoms upper move 0.0 0.00288675134594812 0.0 units lattice
        min_style ${style}
        min_style hftn
        minimize ${etol} ${ftol} ${maxiter} ${maxeval}
        minimize 1e-12 ${ftol} ${maxiter} ${maxeval}
        minimize 1e-12 1e-08 ${maxiter} ${maxeval}
        minimize 1e-12 1e-08 10000 ${maxeval}
        minimize 1e-12 1e-08 10000 20000
WARNING: Resetting reneighboring criteria during minimization (../min.cpp:168)
Memory usage per processor = 5.28733 Mbytes
Step Temp PotEng Lx Ly Lz 
      16            0   -17336.469     6.928552    73.651589    4.0002014 
Loop time of 0.00478194 on 1 procs for 0 steps with 2912 atoms

Minimization stats:
  Stopping criterion = force tolerance
  Energy initial, next-to-last, final = 
        -17336.4692809     -17336.4692809     -17336.4692809
  Force two-norm initial, final = 9.87168e-11 9.87168e-11
  Force max component initial, final = 3.19188e-12 3.19188e-12
  Final line search alpha, max atom move = 0 0
  Iterations, force evaluations = 0 0

Pair  time (%) = 0.0047209 (98.7235)
Neigh time (%) = 0 (0)
Comm  time (%) = 3.20544e-05 (0.670321)
Outpt time (%) = 0 (0)
Other time (%) = 2.89864e-05 (0.606163)

Nlocal:    2912 ave 2912 max 2912 min
Histogram: 1 0 0 0 0 0 0 0 0 0
Nghost:    7129 ave 7129 max 7129 min
Histogram: 1 0 0 0 0 0 0 0 0 0
Neighs:    111840 ave 111840 max 111840 min
Histogram: 1 0 0 0 0 0 0 0 0 0

Total # of neighbors = 111840
Ave neighs/atom = 38.4066
Neighbor list builds = 0
Dangerous builds = 0
	# write_dump all atom ${dumpfile}
        next i
jump SELF loop1
        displace_atoms upper move 0.0 ${ystep1} 0.0 units lattice
        displace_atoms upper move 0.0 0.00288675134594812 0.0 units lattice
        min_style ${style}
        min_style hftn
        minimize ${etol} ${ftol} ${maxiter} ${maxeval}
        minimize 1e-12 ${ftol} ${maxiter} ${maxeval}
        minimize 1e-12 1e-08 ${maxiter} ${maxeval}
        minimize 1e-12 1e-08 10000 ${maxeval}
        minimize 1e-12 1e-08 10000 20000
WARNING: Resetting reneighboring criteria during minimization (../min.cpp:168)
Memory usage per processor = 5.28733 Mbytes
Step Temp PotEng Lx Ly Lz 
      16            0   -17333.561     6.928552    73.658661    4.0002014 
Loop time of 0.00275889 on 1 procs for 0 steps with 2912 atoms

Minimization stats:
  Stopping criterion = force tolerance
  Energy initial, next-to-last, final = 
        -17333.5612106     -17333.5612106     -17333.5612106
  Force two-norm initial, final = 9.87127e-11 9.87127e-11
  Force max component initial, final = 3.19188e-12 3.19188e-12
  Final line search alpha, max atom move = 0 0
  Iterations, force evaluations = 0 0

Pair  time (%) = 0.00264894 (96.0148)
Neigh time (%) = 0 (0)
Comm  time (%) = 5.72267e-05 (2.07427)
Outpt time (%) = 0 (0)
Other time (%) = 5.27214e-05 (1.91096)

Nlocal:    2912 ave 2912 max 2912 min
Histogram: 1 0 0 0 0 0 0 0 0 0
Nghost:    7129 ave 7129 max 7129 min
Histogram: 1 0 0 0 0 0 0 0 0 0
Neighs:    111840 ave 111840 max 111840 min
Histogram: 1 0 0 0 0 0 0 0 0 0

Total # of neighbors = 111840
Ave neighs/atom = 38.4066
Neighbor list builds = 0
Dangerous builds = 0
	# write_dump all atom ${dumpfile}
        next i
jump SELF loop1
        displace_atoms upper move 0.0 ${ystep1} 0.0 units lattice
        displace_atoms upper move 0.0 0.00288675134594812 0.0 units lattice
        min_style ${style}
        min_style hftn
        minimize ${etol} ${ftol} ${maxiter} ${maxeval}
        minimize 1e-12 ${ftol} ${maxiter} ${maxeval}
        minimize 1e-12 1e-08 ${maxiter} ${maxeval}
        minimize 1e-12 1e-08 10000 ${maxeval}
        minimize 1e-12 1e-08 10000 20000
WARNING: Resetting reneighboring criteria during minimization (../min.cpp:168)
Memory usage per processor = 5.28733 Mbytes
Step Temp PotEng Lx Ly Lz 
      16            0   -17330.636     6.928552    73.665732    4.0002014 
Loop time of 0.00566801 on 1 procs for 0 steps with 2912 atoms

Minimization stats:
  Stopping criterion = force tolerance
  Energy initial, next-to-last, final = 
        -17330.6359723     -17330.6359723     -17330.6359723
  Force two-norm initial, final = 9.87078e-11 9.87078e-11
  Force max component initial, final = 3.19188e-12 3.19188e-12
  Final line search alpha, max atom move = 0 0
  Iterations, force evaluations = 0 0

Pair  time (%) = 0.00560701 (98.9239)
Neigh time (%) = 0 (0)
Comm  time (%) = 3.27893e-05 (0.578498)
Outpt time (%) = 0 (0)
Other time (%) = 2.82051e-05 (0.497619)

Nlocal:    2912 ave 2912 max 2912 min
Histogram: 1 0 0 0 0 0 0 0 0 0
Nghost:    7129 ave 7129 max 7129 min
Histogram: 1 0 0 0 0 0 0 0 0 0
Neighs:    111648 ave 111648 max 111648 min
Histogram: 1 0 0 0 0 0 0 0 0 0

Total # of neighbors = 111648
Ave neighs/atom = 38.3407
Neighbor list builds = 0
Dangerous builds = 0
	# write_dump all atom ${dumpfile}
        next i
jump SELF loop1
        displace_atoms upper move 0.0 ${ystep1} 0.0 units lattice
        displace_atoms upper move 0.0 0.00288675134594812 0.0 units lattice
        min_style ${style}
        min_style hftn
        minimize ${etol} ${ftol} ${maxiter} ${maxeval}
        minimize 1e-12 ${ftol} ${maxiter} ${maxeval}
        minimize 1e-12 1e-08 ${maxiter} ${maxeval}
        minimize 1e-12 1e-08 10000 ${maxeval}
        minimize 1e-12 1e-08 10000 20000
WARNING: Resetting reneighboring criteria during minimization (../min.cpp:168)
Memory usage per processor = 5.28733 Mbytes
Step Temp PotEng Lx Ly Lz 
      16            0   -17327.705     6.928552    73.672804    4.0002014 
Loop time of 0.00210492 on 1 procs for 0 steps with 2912 atoms

Minimization stats:
  Stopping criterion = force tolerance
  Energy initial, next-to-last, final = 
        -17327.7045594     -17327.7045594     -17327.7045594
  Force two-norm initial, final = 9.87046e-11 9.87046e-11
  Force max component initial, final = 3.19188e-12 3.19188e-12
  Final line search alpha, max atom move = 0 0
  Iterations, force evaluations = 0 0

Pair  time (%) = 0.00204202 (97.0117)
Neigh time (%) = 0 (0)
Comm  time (%) = 3.19119e-05 (1.51606)
Outpt time (%) = 0 (0)
Other time (%) = 3.09899e-05 (1.47226)

Nlocal:    2912 ave 2912 max 2912 min
Histogram: 1 0 0 0 0 0 0 0 0 0
Nghost:    7129 ave 7129 max 7129 min
Histogram: 1 0 0 0 0 0 0 0 0 0
Neighs:    111648 ave 111648 max 111648 min
Histogram: 1 0 0 0 0 0 0 0 0 0

Total # of neighbors = 111648
Ave neighs/atom = 38.3407
Neighbor list builds = 0
Dangerous builds = 0
	# write_dump all atom ${dumpfile}
        next i
jump SELF loop1
        displace_atoms upper move 0.0 ${ystep1} 0.0 units lattice
        displace_atoms upper move 0.0 0.00288675134594812 0.0 units lattice
        min_style ${style}
        min_style hftn
        minimize ${etol} ${ftol} ${maxiter} ${maxeval}
        minimize 1e-12 ${ftol} ${maxiter} ${maxeval}
        minimize 1e-12 1e-08 ${maxiter} ${maxeval}
        minimize 1e-12 1e-08 10000 ${maxeval}
        minimize 1e-12 1e-08 10000 20000
WARNING: Resetting reneighboring criteria during minimization (../min.cpp:168)
Memory usage per processor = 5.28733 Mbytes
Step Temp PotEng Lx Ly Lz 
      16            0   -17324.778     6.928552    73.679875    4.0002014 
Loop time of 0.00569592 on 1 procs for 0 steps with 2912 atoms

Minimization stats:
  Stopping criterion = force tolerance
  Energy initial, next-to-last, final = 
        -17324.7779752     -17324.7779752     -17324.7779752
  Force two-norm initial, final = 9.87008e-11 9.87008e-11
  Force max component initial, final = 3.19188e-12 3.19188e-12
  Final line search alpha, max atom move = 0 0
  Iterations, force evaluations = 0 0

Pair  time (%) = 0.00566592 (99.4733)
Neigh time (%) = 0 (0)
Comm  time (%) = 1.7832e-05 (0.313067)
Outpt time (%) = 0 (0)
Other time (%) = 1.2168e-05 (0.213626)

Nlocal:    2912 ave 2912 max 2912 min
Histogram: 1 0 0 0 0 0 0 0 0 0
Nghost:    7129 ave 7129 max 7129 min
Histogram: 1 0 0 0 0 0 0 0 0 0
Neighs:    111648 ave 111648 max 111648 min
Histogram: 1 0 0 0 0 0 0 0 0 0

Total # of neighbors = 111648
Ave neighs/atom = 38.3407
Neighbor list builds = 0
Dangerous builds = 0
	# write_dump all atom ${dumpfile}
        next i
jump SELF loop1
        displace_atoms upper move 0.0 ${ystep1} 0.0 units lattice
        displace_atoms upper move 0.0 0.00288675134594812 0.0 units lattice
        min_style ${style}
        min_style hftn
        minimize ${etol} ${ftol} ${maxiter} ${maxeval}
        minimize 1e-12 ${ftol} ${maxiter} ${maxeval}
        minimize 1e-12 1e-08 ${maxiter} ${maxeval}
        minimize 1e-12 1e-08 10000 ${maxeval}
        minimize 1e-12 1e-08 10000 20000
WARNING: Resetting reneighboring criteria during minimization (../min.cpp:168)
Memory usage per processor = 5.28733 Mbytes
Step Temp PotEng Lx Ly Lz 
      16            0   -17321.868     6.928552    73.686946    4.0002014 
Loop time of 0.00205191 on 1 procs for 0 steps with 2912 atoms

Minimization stats:
  Stopping criterion = force tolerance
  Energy initial, next-to-last, final = 
        -17321.8675459     -17321.8675459     -17321.8675459
  Force two-norm initial, final = 9.86959e-11 9.86959e-11
  Force max component initial, final = 3.19188e-12 3.19188e-12
  Final line search alpha, max atom move = 0 0
  Iterations, force evaluations = 0 0

Pair  time (%) = 0.00199001 (96.9832)
Neigh time (%) = 0 (0)
Comm  time (%) = 3.08303e-05 (1.50251)
Outpt time (%) = 0 (0)
Other time (%) = 3.10715e-05 (1.51427)

Nlocal:    2912 ave 2912 max 2912 min
Histogram: 1 0 0 0 0 0 0 0 0 0
Nghost:    7129 ave 7129 max 7129 min
Histogram: 1 0 0 0 0 0 0 0 0 0
Neighs:    111648 ave 111648 max 111648 min
Histogram: 1 0 0 0 0 0 0 0 0 0

Total # of neighbors = 111648
Ave neighs/atom = 38.3407
Neighbor list builds = 0
Dangerous builds = 0
	# write_dump all atom ${dumpfile}
        next i
jump SELF loop1
        displace_atoms upper move 0.0 ${ystep1} 0.0 units lattice
        displace_atoms upper move 0.0 0.00288675134594812 0.0 units lattice
        min_style ${style}
        min_style hftn
        minimize ${etol} ${ftol} ${maxiter} ${maxeval}
        minimize 1e-12 ${ftol} ${maxiter} ${maxeval}
        minimize 1e-12 1e-08 ${maxiter} ${maxeval}
        minimize 1e-12 1e-08 10000 ${maxeval}
        minimize 1e-12 1e-08 10000 20000
WARNING: Resetting reneighboring criteria during minimization (../min.cpp:168)
Memory usage per processor = 5.28733 Mbytes
Step Temp PotEng Lx Ly Lz 
      16            0   -17318.984     6.928552    73.694018    4.0002014 
Loop time of 0.00318104 on 1 procs for 0 steps with 2912 atoms

Minimization stats:
  Stopping criterion = force tolerance
  Energy initial, next-to-last, final = 
        -17318.9844471     -17318.9844471     -17318.9844471
  Force two-norm initial, final = 9.86917e-11 9.86917e-11
  Force max component initial, final = 3.19188e-12 3.19188e-12
  Final line search alpha, max atom move = 0 0
  Iterations, force evaluations = 0 0

Pair  time (%) = 0.00306789 (96.443)
Neigh time (%) = 0 (0)
Comm  time (%) = 4.28933e-05 (1.34841)
Outpt time (%) = 0 (0)
Other time (%) = 7.02548e-05 (2.20855)

Nlocal:    2912 ave 2912 max 2912 min
Histogram: 1 0 0 0 0 0 0 0 0 0
Nghost:    7129 ave 7129 max 7129 min
Histogram: 1 0 0 0 0 0 0 0 0 0
Neighs:    111648 ave 111648 max 111648 min
Histogram: 1 0 0 0 0 0 0 0 0 0

Total # of neighbors = 111648
Ave neighs/atom = 38.3407
Neighbor list builds = 0
Dangerous builds = 0
	# write_dump all atom ${dumpfile}
        next i
jump SELF loop1
        displace_atoms upper move 0.0 ${ystep1} 0.0 units lattice
        displace_atoms upper move 0.0 0.00288675134594812 0.0 units lattice
        min_style ${style}
        min_style hftn
        minimize ${etol} ${ftol} ${maxiter} ${maxeval}
        minimize 1e-12 ${ftol} ${maxiter} ${maxeval}
        minimize 1e-12 1e-08 ${maxiter} ${maxeval}
        minimize 1e-12 1e-08 10000 ${maxeval}
        minimize 1e-12 1e-08 10000 20000
WARNING: Resetting reneighboring criteria during minimization (../min.cpp:168)
Memory usage per processor = 5.28733 Mbytes
Step Temp PotEng Lx Ly Lz 
      16            0    -17316.14     6.928552    73.701089    4.0002014 
Loop time of 0.00218907 on 1 procs for 0 steps with 2912 atoms

Minimization stats:
  Stopping criterion = force tolerance
  Energy initial, next-to-last, final = 
         -17316.140145      -17316.140145      -17316.140145
  Force two-norm initial, final = 9.86876e-11 9.86876e-11
  Force max component initial, final = 3.19188e-12 3.19188e-12
  Final line search alpha, max atom move = 0 0
  Iterations, force evaluations = 0 0

Pair  time (%) = 0.00212693 (97.1613)
Neigh time (%) = 0 (0)
Comm  time (%) = 3.11049e-05 (1.42092)
Outpt time (%) = 0 (0)
Other time (%) = 3.10354e-05 (1.41774)

Nlocal:    2912 ave 2912 max 2912 min
Histogram: 1 0 0 0 0 0 0 0 0 0
Nghost:    7129 ave 7129 max 7129 min
Histogram: 1 0 0 0 0 0 0 0 0 0
Neighs:    111648 ave 111648 max 111648 min
Histogram: 1 0 0 0 0 0 0 0 0 0

Total # of neighbors = 111648
Ave neighs/atom = 38.3407
Neighbor list builds = 0
Dangerous builds = 0
	# write_dump all atom ${dumpfile}
        next i
jump SELF loop1
        displace_atoms upper move 0.0 ${ystep1} 0.0 units lattice
        displace_atoms upper move 0.0 0.00288675134594812 0.0 units lattice
        min_style ${style}
        min_style hftn
        minimize ${etol} ${ftol} ${maxiter} ${maxeval}
        minimize 1e-12 ${ftol} ${maxiter} ${maxeval}
        minimize 1e-12 1e-08 ${maxiter} ${maxeval}
        minimize 1e-12 1e-08 10000 ${maxeval}
        minimize 1e-12 1e-08 10000 20000
WARNING: Resetting reneighboring criteria during minimization (../min.cpp:168)
Memory usage per processor = 5.28733 Mbytes
Step Temp PotEng Lx Ly Lz 
      16            0   -17313.346     6.928552    73.708161    4.0002014 
Loop time of 0.00231389 on 1 procs for 0 steps with 2912 atoms

Minimization stats:
  Stopping criterion = force tolerance
  Energy initial, next-to-last, final = 
        -17313.3462675     -17313.3462675     -17313.3462675
  Force two-norm initial, final = 9.86833e-11 9.86833e-11
  Force max component initial, final = 3.19188e-12 3.19188e-12
  Final line search alpha, max atom move = 0 0
  Iterations, force evaluations = 0 0

Pair  time (%) = 0.00225294 (97.366)
Neigh time (%) = 0 (0)
Comm  time (%) = 3.10017e-05 (1.33981)
Outpt time (%) = 0 (0)
Other time (%) = 2.99463e-05 (1.2942)

Nlocal:    2912 ave 2912 max 2912 min
Histogram: 1 0 0 0 0 0 0 0 0 0
Nghost:    7129 ave 7129 max 7129 min
Histogram: 1 0 0 0 0 0 0 0 0 0
Neighs:    111648 ave 111648 max 111648 min
Histogram: 1 0 0 0 0 0 0 0 0 0

Total # of neighbors = 111648
Ave neighs/atom = 38.3407
Neighbor list builds = 0
Dangerous builds = 0
	# write_dump all atom ${dumpfile}
        next i
jump SELF loop1
        displace_atoms upper move 0.0 ${ystep1} 0.0 units lattice
        displace_atoms upper move 0.0 0.00288675134594812 0.0 units lattice
        min_style ${style}
        min_style hftn
        minimize ${etol} ${ftol} ${maxiter} ${maxeval}
        minimize 1e-12 ${ftol} ${maxiter} ${maxeval}
        minimize 1e-12 1e-08 ${maxiter} ${maxeval}
        minimize 1e-12 1e-08 10000 ${maxeval}
        minimize 1e-12 1e-08 10000 20000
WARNING: Resetting reneighboring criteria during minimization (../min.cpp:168)
Memory usage per processor = 5.28733 Mbytes
Step Temp PotEng Lx Ly Lz 
      16            0   -17310.614     6.928552    73.715232    4.0002014 
Loop time of 0.00209096 on 1 procs for 0 steps with 2912 atoms

Minimization stats:
  Stopping criterion = force tolerance
  Energy initial, next-to-last, final = 
        -17310.6143589     -17310.6143589     -17310.6143589
  Force two-norm initial, final = 9.8679e-11 9.8679e-11
  Force max component initial, final = 3.19188e-12 3.19188e-12
  Final line search alpha, max atom move = 0 0
  Iterations, force evaluations = 0 0

Pair  time (%) = 0.00202701 (96.9417)
Neigh time (%) = 0 (0)
Comm  time (%) = 3.39205e-05 (1.62225)
Outpt time (%) = 0 (0)
Other time (%) = 3.00276e-05 (1.43607)

Nlocal:    2912 ave 2912 max 2912 min
Histogram: 1 0 0 0 0 0 0 0 0 0
Nghost:    7129 ave 7129 max 7129 min
Histogram: 1 0 0 0 0 0 0 0 0 0
Neighs:    111648 ave 111648 max 111648 min
Histogram: 1 0 0 0 0 0 0 0 0 0

Total # of neighbors = 111648
Ave neighs/atom = 38.3407
Neighbor list builds = 0
Dangerous builds = 0
	# write_dump all atom ${dumpfile}
        next i
jump SELF loop1
        displace_atoms upper move 0.0 ${ystep1} 0.0 units lattice
        displace_atoms upper move 0.0 0.00288675134594812 0.0 units lattice
        min_style ${style}
        min_style hftn
        minimize ${etol} ${ftol} ${maxiter} ${maxeval}
        minimize 1e-12 ${ftol} ${maxiter} ${maxeval}
        minimize 1e-12 1e-08 ${maxiter} ${maxeval}
        minimize 1e-12 1e-08 10000 ${maxeval}
        minimize 1e-12 1e-08 10000 20000
WARNING: Resetting reneighboring criteria during minimization (../min.cpp:168)
Memory usage per processor = 5.28733 Mbytes
Step Temp PotEng Lx Ly Lz 
      16            0   -17307.956     6.928552    73.722303    4.0002014 
Loop time of 0.00213296 on 1 procs for 0 steps with 2912 atoms

Minimization stats:
  Stopping criterion = force tolerance
  Energy initial, next-to-last, final = 
        -17307.9561805     -17307.9561805     -17307.9561805
  Force two-norm initial, final = 9.86747e-11 9.86747e-11
  Force max component initial, final = 3.19188e-12 3.19188e-12
  Final line search alpha, max atom move = 0 0
  Iterations, force evaluations = 0 0

Pair  time (%) = 0.00207196 (97.1404)
Neigh time (%) = 0 (0)
Comm  time (%) = 3.20016e-05 (1.50034)
Outpt time (%) = 0 (0)
Other time (%) = 2.89928e-05 (1.35928)

Nlocal:    2912 ave 2912 max 2912 min
Histogram: 1 0 0 0 0 0 0 0 0 0
Nghost:    7129 ave 7129 max 7129 min
Histogram: 1 0 0 0 0 0 0 0 0 0
Neighs:    111648 ave 111648 max 111648 min
Histogram: 1 0 0 0 0 0 0 0 0 0

Total # of neighbors = 111648
Ave neighs/atom = 38.3407
Neighbor list builds = 0
Dangerous builds = 0
	# write_dump all atom ${dumpfile}
        next i
jump SELF loop1
        displace_atoms upper move 0.0 ${ystep1} 0.0 units lattice
        displace_atoms upper move 0.0 0.00288675134594812 0.0 units lattice
        min_style ${style}
        min_style hftn
        minimize ${etol} ${ftol} ${maxiter} ${maxeval}
        minimize 1e-12 ${ftol} ${maxiter} ${maxeval}
        minimize 1e-12 1e-08 ${maxiter} ${maxeval}
        minimize 1e-12 1e-08 10000 ${maxeval}
        minimize 1e-12 1e-08 10000 20000
WARNING: Resetting reneighboring criteria during minimization (../min.cpp:168)
Memory usage per processor = 5.28733 Mbytes
Step Temp PotEng Lx Ly Lz 
      16            0   -17305.384     6.928552    73.729375    4.0002014 
Loop time of 0.00228197 on 1 procs for 0 steps with 2912 atoms

Minimization stats:
  Stopping criterion = force tolerance
  Energy initial, next-to-last, final = 
        -17305.3835901     -17305.3835901     -17305.3835901
  Force two-norm initial, final = 9.86705e-11 9.86705e-11
  Force max component initial, final = 3.19188e-12 3.19188e-12
  Final line search alpha, max atom move = 0 0
  Iterations, force evaluations = 0 0

Pair  time (%) = 0.00222107 (97.3312)
Neigh time (%) = 0 (0)
Comm  time (%) = 3.09678e-05 (1.35706)
Outpt time (%) = 0 (0)
Other time (%) = 2.9934e-05 (1.31176)

Nlocal:    2912 ave 2912 max 2912 min
Histogram: 1 0 0 0 0 0 0 0 0 0
Nghost:    7129 ave 7129 max 7129 min
Histogram: 1 0 0 0 0 0 0 0 0 0
Neighs:    111648 ave 111648 max 111648 min
Histogram: 1 0 0 0 0 0 0 0 0 0

Total # of neighbors = 111648
Ave neighs/atom = 38.3407
Neighbor list builds = 0
Dangerous builds = 0
	# write_dump all atom ${dumpfile}
        next i
jump SELF loop1
        displace_atoms upper move 0.0 ${ystep1} 0.0 units lattice
        displace_atoms upper move 0.0 0.00288675134594812 0.0 units lattice
        min_style ${style}
        min_style hftn
        minimize ${etol} ${ftol} ${maxiter} ${maxeval}
        minimize 1e-12 ${ftol} ${maxiter} ${maxeval}
        minimize 1e-12 1e-08 ${maxiter} ${maxeval}
        minimize 1e-12 1e-08 10000 ${maxeval}
        minimize 1e-12 1e-08 10000 20000
WARNING: Resetting reneighboring criteria during minimization (../min.cpp:168)
Memory usage per processor = 5.28733 Mbytes
Step Temp PotEng Lx Ly Lz 
      16            0   -17302.909     6.928552    73.736446    4.0002014 
Loop time of 0.00208109 on 1 procs for 0 steps with 2912 atoms

Minimization stats:
  Stopping criterion = force tolerance
  Energy initial, next-to-last, final = 
        -17302.9085356     -17302.9085356     -17302.9085356
  Force two-norm initial, final = 9.86662e-11 9.86662e-11
  Force max component initial, final = 3.19188e-12 3.19188e-12
  Final line search alpha, max atom move = 0 0
  Iterations, force evaluations = 0 0

Pair  time (%) = 0.00203288 (97.6836)
Neigh time (%) = 0 (0)
Comm  time (%) = 2.47741e-05 (1.19044)
Outpt time (%) = 0 (0)
Other time (%) = 2.34316e-05 (1.12593)

Nlocal:    2912 ave 2912 max 2912 min
Histogram: 1 0 0 0 0 0 0 0 0 0
Nghost:    7129 ave 7129 max 7129 min
Histogram: 1 0 0 0 0 0 0 0 0 0
Neighs:    111648 ave 111648 max 111648 min
Histogram: 1 0 0 0 0 0 0 0 0 0

Total # of neighbors = 111648
Ave neighs/atom = 38.3407
Neighbor list builds = 0
Dangerous builds = 0
	# write_dump all atom ${dumpfile}
        next i
jump SELF loop1
        displace_atoms upper move 0.0 ${ystep1} 0.0 units lattice
        displace_atoms upper move 0.0 0.00288675134594812 0.0 units lattice
        min_style ${style}
        min_style hftn
        minimize ${etol} ${ftol} ${maxiter} ${maxeval}
        minimize 1e-12 ${ftol} ${maxiter} ${maxeval}
        minimize 1e-12 1e-08 ${maxiter} ${maxeval}
        minimize 1e-12 1e-08 10000 ${maxeval}
        minimize 1e-12 1e-08 10000 20000
WARNING: Resetting reneighboring criteria during minimization (../min.cpp:168)
Memory usage per processor = 5.28733 Mbytes
Step Temp PotEng Lx Ly Lz 
      16            0   -17300.543     6.928552    73.743518    4.0002014 
Loop time of 0.00269991 on 1 procs for 0 steps with 2912 atoms

Minimization stats:
  Stopping criterion = force tolerance
  Energy initial, next-to-last, final = 
        -17300.5430412     -17300.5430412     -17300.5430412
  Force two-norm initial, final = 9.86619e-11 9.86619e-11
  Force max component initial, final = 3.19188e-12 3.19188e-12
  Final line search alpha, max atom move = 0 0
  Iterations, force evaluations = 0 0

Pair  time (%) = 0.00262001 (97.0406)
Neigh time (%) = 0 (0)
Comm  time (%) = 4.09267e-05 (1.51585)
Outpt time (%) = 0 (0)
Other time (%) = 3.8975e-05 (1.44357)

Nlocal:    2912 ave 2912 max 2912 min
Histogram: 1 0 0 0 0 0 0 0 0 0
Nghost:    7129 ave 7129 max 7129 min
Histogram: 1 0 0 0 0 0 0 0 0 0
Neighs:    111648 ave 111648 max 111648 min
Histogram: 1 0 0 0 0 0 0 0 0 0

Total # of neighbors = 111648
Ave neighs/atom = 38.3407
Neighbor list builds = 0
Dangerous builds = 0
	# write_dump all atom ${dumpfile}
        next i
jump SELF loop1
        displace_atoms upper move 0.0 ${ystep1} 0.0 units lattice
        displace_atoms upper move 0.0 0.00288675134594812 0.0 units lattice
        min_style ${style}
        min_style hftn
        minimize ${etol} ${ftol} ${maxiter} ${maxeval}
        minimize 1e-12 ${ftol} ${maxiter} ${maxeval}
        minimize 1e-12 1e-08 ${maxiter} ${maxeval}
        minimize 1e-12 1e-08 10000 ${maxeval}
        minimize 1e-12 1e-08 10000 20000
WARNING: Resetting reneighboring criteria during minimization (../min.cpp:168)
Memory usage per processor = 5.28733 Mbytes
Step Temp PotEng Lx Ly Lz 
      16            0   -17298.299     6.928552    73.750589    4.0002014 
Loop time of 0.00305298 on 1 procs for 0 steps with 2912 atoms

Minimization stats:
  Stopping criterion = force tolerance
  Energy initial, next-to-last, final = 
        -17298.2993298     -17298.2993298     -17298.2993298
  Force two-norm initial, final = 9.86575e-11 9.86575e-11
  Force max component initial, final = 3.19188e-12 3.19188e-12
  Final line search alpha, max atom move = 0 0
  Iterations, force evaluations = 0 0

Pair  time (%) = 0.00297607 (97.4806)
Neigh time (%) = 0 (0)
Comm  time (%) = 3.89925e-05 (1.27719)
Outpt time (%) = 0 (0)
Other time (%) = 3.79229e-05 (1.24216)

Nlocal:    2912 ave 2912 max 2912 min
Histogram: 1 0 0 0 0 0 0 0 0 0
Nghost:    7129 ave 7129 max 7129 min
Histogram: 1 0 0 0 0 0 0 0 0 0
Neighs:    111648 ave 111648 max 111648 min
Histogram: 1 0 0 0 0 0 0 0 0 0

Total # of neighbors = 111648
Ave neighs/atom = 38.3407
Neighbor list builds = 0
Dangerous builds = 0
	# write_dump all atom ${dumpfile}
        next i
jump SELF loop1
        displace_atoms upper move 0.0 ${ystep1} 0.0 units lattice
        displace_atoms upper move 0.0 0.00288675134594812 0.0 units lattice
        min_style ${style}
        min_style hftn
        minimize ${etol} ${ftol} ${maxiter} ${maxeval}
        minimize 1e-12 ${ftol} ${maxiter} ${maxeval}
        minimize 1e-12 1e-08 ${maxiter} ${maxeval}
        minimize 1e-12 1e-08 10000 ${maxeval}
        minimize 1e-12 1e-08 10000 20000
WARNING: Resetting reneighboring criteria during minimization (../min.cpp:168)
Memory usage per processor = 5.28733 Mbytes
Step Temp PotEng Lx Ly Lz 
      16            0    -17296.19     6.928552    73.757661    4.0002014 
Loop time of 0.00254894 on 1 procs for 0 steps with 2912 atoms

Minimization stats:
  Stopping criterion = force tolerance
  Energy initial, next-to-last, final = 
        -17296.1897169     -17296.1897169     -17296.1897169
  Force two-norm initial, final = 9.8653e-11 9.8653e-11
  Force max component initial, final = 3.19188e-12 3.19188e-12
  Final line search alpha, max atom move = 0 0
  Iterations, force evaluations = 0 0

Pair  time (%) = 0.00247903 (97.2573)
Neigh time (%) = 0 (0)
Comm  time (%) = 3.80217e-05 (1.49167)
Outpt time (%) = 0 (0)
Other time (%) = 3.18869e-05 (1.25098)

Nlocal:    2912 ave 2912 max 2912 min
Histogram: 1 0 0 0 0 0 0 0 0 0
Nghost:    7129 ave 7129 max 7129 min
Histogram: 1 0 0 0 0 0 0 0 0 0
Neighs:    111648 ave 111648 max 111648 min
Histogram: 1 0 0 0 0 0 0 0 0 0

Total # of neighbors = 111648
Ave neighs/atom = 38.3407
Neighbor list builds = 0
Dangerous builds = 0
	# write_dump all atom ${dumpfile}
        next i
jump SELF loop1
        displace_atoms upper move 0.0 ${ystep1} 0.0 units lattice
        displace_atoms upper move 0.0 0.00288675134594812 0.0 units lattice
        min_style ${style}
        min_style hftn
        minimize ${etol} ${ftol} ${maxiter} ${maxeval}
        minimize 1e-12 ${ftol} ${maxiter} ${maxeval}
        minimize 1e-12 1e-08 ${maxiter} ${maxeval}
        minimize 1e-12 1e-08 10000 ${maxeval}
        minimize 1e-12 1e-08 10000 20000
WARNING: Resetting reneighboring criteria during minimization (../min.cpp:168)
Memory usage per processor = 5.28733 Mbytes
Step Temp PotEng Lx Ly Lz 
      16            0   -17294.226     6.928552    73.764732    4.0002014 
Loop time of 0.00245088 on 1 procs for 0 steps with 2912 atoms

Minimization stats:
  Stopping criterion = force tolerance
  Energy initial, next-to-last, final = 
        -17294.2262728     -17294.2262728     -17294.2262728
  Force two-norm initial, final = 9.8649e-11 9.8649e-11
  Force max component initial, final = 3.19188e-12 3.19188e-12
  Final line search alpha, max atom move = 0 0
  Iterations, force evaluations = 0 0

Pair  time (%) = 0.00238288 (97.2254)
Neigh time (%) = 0 (0)
Comm  time (%) = 3.78031e-05 (1.54243)
Outpt time (%) = 0 (0)
Other time (%) = 3.01981e-05 (1.23213)

Nlocal:    2912 ave 2912 max 2912 min
Histogram: 1 0 0 0 0 0 0 0 0 0
Nghost:    7129 ave 7129 max 7129 min
Histogram: 1 0 0 0 0 0 0 0 0 0
Neighs:    111648 ave 111648 max 111648 min
Histogram: 1 0 0 0 0 0 0 0 0 0

Total # of neighbors = 111648
Ave neighs/atom = 38.3407
Neighbor list builds = 0
Dangerous builds = 0
	# write_dump all atom ${dumpfile}
        next i
jump SELF loop1
        displace_atoms upper move 0.0 ${ystep1} 0.0 units lattice
        displace_atoms upper move 0.0 0.00288675134594812 0.0 units lattice
        min_style ${style}
        min_style hftn
        minimize ${etol} ${ftol} ${maxiter} ${maxeval}
        minimize 1e-12 ${ftol} ${maxiter} ${maxeval}
        minimize 1e-12 1e-08 ${maxiter} ${maxeval}
        minimize 1e-12 1e-08 10000 ${maxeval}
        minimize 1e-12 1e-08 10000 20000
WARNING: Resetting reneighboring criteria during minimization (../min.cpp:168)
Memory usage per processor = 5.28733 Mbytes
Step Temp PotEng Lx Ly Lz 
      16            0    -17292.42     6.928552    73.771803    4.0002014 
Loop time of 0.00283412 on 1 procs for 0 steps with 2912 atoms

Minimization stats:
  Stopping criterion = force tolerance
  Energy initial, next-to-last, final = 
        -17292.4204653     -17292.4204653     -17292.4204653
  Force two-norm initial, final = 9.86485e-11 9.86485e-11
  Force max component initial, final = 3.19188e-12 3.19188e-12
  Final line search alpha, max atom move = 0 0
  Iterations, force evaluations = 0 0

Pair  time (%) = 0.00274198 (96.7489)
Neigh time (%) = 0 (0)
Comm  time (%) = 4.90267e-05 (1.72988)
Outpt time (%) = 0 (0)
Other time (%) = 4.31135e-05 (1.52123)

Nlocal:    2912 ave 2912 max 2912 min
Histogram: 1 0 0 0 0 0 0 0 0 0
Nghost:    7129 ave 7129 max 7129 min
Histogram: 1 0 0 0 0 0 0 0 0 0
Neighs:    111648 ave 111648 max 111648 min
Histogram: 1 0 0 0 0 0 0 0 0 0

Total # of neighbors = 111648
Ave neighs/atom = 38.3407
Neighbor list builds = 0
Dangerous builds = 0
	# write_dump all atom ${dumpfile}
        next i
jump SELF loop1
        displace_atoms upper move 0.0 ${ystep1} 0.0 units lattice
        displace_atoms upper move 0.0 0.00288675134594812 0.0 units lattice
        min_style ${style}
        min_style hftn
        minimize ${etol} ${ftol} ${maxiter} ${maxeval}
        minimize 1e-12 ${ftol} ${maxiter} ${maxeval}
        minimize 1e-12 1e-08 ${maxiter} ${maxeval}
        minimize 1e-12 1e-08 10000 ${maxeval}
        minimize 1e-12 1e-08 10000 20000
WARNING: Resetting reneighboring criteria during minimization (../min.cpp:168)
Memory usage per processor = 5.28733 Mbytes
Step Temp PotEng Lx Ly Lz 
      16            0   -17290.772     6.928552    73.778875    4.0002014 
Loop time of 0.002385 on 1 procs for 0 steps with 2912 atoms

Minimization stats:
  Stopping criterion = force tolerance
  Energy initial, next-to-last, final = 
        -17290.7717983     -17290.7717983     -17290.7717983
  Force two-norm initial, final = 9.86497e-11 9.86497e-11
  Force max component initial, final = 3.19188e-12 3.19188e-12
  Final line search alpha, max atom move = 0 0
  Iterations, force evaluations = 0 0

Pair  time (%) = 0.002333 (97.8197)
Neigh time (%) = 0 (0)
Comm  time (%) = 4.10702e-05 (1.72202)
Outpt time (%) = 0 (0)
Other time (%) = 1.09299e-05 (0.458276)

Nlocal:    2912 ave 2912 max 2912 min
Histogram: 1 0 0 0 0 0 0 0 0 0
Nghost:    7129 ave 7129 max 7129 min
Histogram: 1 0 0 0 0 0 0 0 0 0
Neighs:    111648 ave 111648 max 111648 min
Histogram: 1 0 0 0 0 0 0 0 0 0

Total # of neighbors = 111648
Ave neighs/atom = 38.3407
Neighbor list builds = 0
Dangerous builds = 0
	# write_dump all atom ${dumpfile}
        next i
jump SELF loop1
        displace_atoms upper move 0.0 ${ystep1} 0.0 units lattice
        displace_atoms upper move 0.0 0.00288675134594812 0.0 units lattice
        min_style ${style}
        min_style hftn
        minimize ${etol} ${ftol} ${maxiter} ${maxeval}
        minimize 1e-12 ${ftol} ${maxiter} ${maxeval}
        minimize 1e-12 1e-08 ${maxiter} ${maxeval}
        minimize 1e-12 1e-08 10000 ${maxeval}
        minimize 1e-12 1e-08 10000 20000
WARNING: Resetting reneighboring criteria during minimization (../min.cpp:168)
Memory usage per processor = 5.28733 Mbytes
Step Temp PotEng Lx Ly Lz 
      16            0   -17289.274     6.928552    73.785946    4.0002014 
Loop time of 0.00270302 on 1 procs for 0 steps with 2912 atoms

Minimization stats:
  Stopping criterion = force tolerance
  Energy initial, next-to-last, final = 
        -17289.2738645     -17289.2738645     -17289.2738645
  Force two-norm initial, final = 9.86511e-11 9.86511e-11
  Force max component initial, final = 3.19188e-12 3.19188e-12
  Final line search alpha, max atom move = 0 0
  Iterations, force evaluations = 0 0

Pair  time (%) = 0.00263893 (97.6288)
Neigh time (%) = 0 (0)
Comm  time (%) = 3.21709e-05 (1.19018)
Outpt time (%) = 0 (0)
Other time (%) = 3.19229e-05 (1.18101)

Nlocal:    2912 ave 2912 max 2912 min
Histogram: 1 0 0 0 0 0 0 0 0 0
Nghost:    7129 ave 7129 max 7129 min
Histogram: 1 0 0 0 0 0 0 0 0 0
Neighs:    111648 ave 111648 max 111648 min
Histogram: 1 0 0 0 0 0 0 0 0 0

Total # of neighbors = 111648
Ave neighs/atom = 38.3407
Neighbor list builds = 0
Dangerous builds = 0
	# write_dump all atom ${dumpfile}
        next i
jump SELF loop1
        displace_atoms upper move 0.0 ${ystep1} 0.0 units lattice
        displace_atoms upper move 0.0 0.00288675134594812 0.0 units lattice
        min_style ${style}
        min_style hftn
        minimize ${etol} ${ftol} ${maxiter} ${maxeval}
        minimize 1e-12 ${ftol} ${maxiter} ${maxeval}
        minimize 1e-12 1e-08 ${maxiter} ${maxeval}
        minimize 1e-12 1e-08 10000 ${maxeval}
        minimize 1e-12 1e-08 10000 20000
WARNING: Resetting reneighboring criteria during minimization (../min.cpp:168)
Memory usage per processor = 5.28733 Mbytes
Step Temp PotEng Lx Ly Lz 
      16            0    -17287.92     6.928552    73.793018    4.0002014 
Loop time of 0.00207 on 1 procs for 0 steps with 2912 atoms

Minimization stats:
  Stopping criterion = force tolerance
  Energy initial, next-to-last, final = 
        -17287.9196214     -17287.9196214     -17287.9196214
  Force two-norm initial, final = 9.86523e-11 9.86523e-11
  Force max component initial, final = 3.19188e-12 3.19188e-12
  Final line search alpha, max atom move = 0 0
  Iterations, force evaluations = 0 0

Pair  time (%) = 0.00203495 (98.3069)
Neigh time (%) = 0 (0)
Comm  time (%) = 1.79417e-05 (0.866749)
Outpt time (%) = 0 (0)
Other time (%) = 1.71058e-05 (0.826369)

Nlocal:    2912 ave 2912 max 2912 min
Histogram: 1 0 0 0 0 0 0 0 0 0
Nghost:    7129 ave 7129 max 7129 min
Histogram: 1 0 0 0 0 0 0 0 0 0
Neighs:    111648 ave 111648 max 111648 min
Histogram: 1 0 0 0 0 0 0 0 0 0

Total # of neighbors = 111648
Ave neighs/atom = 38.3407
Neighbor list builds = 0
Dangerous builds = 0
	# write_dump all atom ${dumpfile}
        next i
jump SELF loop1
        displace_atoms upper move 0.0 ${ystep1} 0.0 units lattice
        displace_atoms upper move 0.0 0.00288675134594812 0.0 units lattice
        min_style ${style}
        min_style hftn
        minimize ${etol} ${ftol} ${maxiter} ${maxeval}
        minimize 1e-12 ${ftol} ${maxiter} ${maxeval}
        minimize 1e-12 1e-08 ${maxiter} ${maxeval}
        minimize 1e-12 1e-08 10000 ${maxeval}
        minimize 1e-12 1e-08 10000 20000
WARNING: Resetting reneighboring criteria during minimization (../min.cpp:168)
Memory usage per processor = 5.28733 Mbytes
Step Temp PotEng Lx Ly Lz 
      16            0   -17286.702     6.928552    73.800089    4.0002014 
Loop time of 0.0020769 on 1 procs for 0 steps with 2912 atoms

Minimization stats:
  Stopping criterion = force tolerance
  Energy initial, next-to-last, final = 
        -17286.7023489     -17286.7023489     -17286.7023489
  Force two-norm initial, final = 9.86534e-11 9.86534e-11
  Force max component initial, final = 3.19188e-12 3.19188e-12
  Final line search alpha, max atom move = 0 0
  Iterations, force evaluations = 0 0

Pair  time (%) = 0.00201505 (97.0217)
Neigh time (%) = 0 (0)
Comm  time (%) = 3.08673e-05 (1.48622)
Outpt time (%) = 0 (0)
Other time (%) = 3.09881e-05 (1.49204)

Nlocal:    2912 ave 2912 max 2912 min
Histogram: 1 0 0 0 0 0 0 0 0 0
Nghost:    7129 ave 7129 max 7129 min
Histogram: 1 0 0 0 0 0 0 0 0 0
Neighs:    111648 ave 111648 max 111648 min
Histogram: 1 0 0 0 0 0 0 0 0 0

Total # of neighbors = 111648
Ave neighs/atom = 38.3407
Neighbor list builds = 0
Dangerous builds = 0
	# write_dump all atom ${dumpfile}
        next i
jump SELF loop1
        displace_atoms upper move 0.0 ${ystep1} 0.0 units lattice
        displace_atoms upper move 0.0 0.00288675134594812 0.0 units lattice
        min_style ${style}
        min_style hftn
        minimize ${etol} ${ftol} ${maxiter} ${maxeval}
        minimize 1e-12 ${ftol} ${maxiter} ${maxeval}
        minimize 1e-12 1e-08 ${maxiter} ${maxeval}
        minimize 1e-12 1e-08 10000 ${maxeval}
        minimize 1e-12 1e-08 10000 20000
WARNING: Resetting reneighboring criteria during minimization (../min.cpp:168)
Memory usage per processor = 5.28733 Mbytes
Step Temp PotEng Lx Ly Lz 
      16            0   -17285.615     6.928552    73.807161    4.0002014 
Loop time of 0.00235992 on 1 procs for 0 steps with 2912 atoms

Minimization stats:
  Stopping criterion = force tolerance
  Energy initial, next-to-last, final = 
        -17285.6152131     -17285.6152131     -17285.6152131
  Force two-norm initial, final = 9.86547e-11 9.86547e-11
  Force max component initial, final = 3.19188e-12 3.19188e-12
  Final line search alpha, max atom move = 0 0
  Iterations, force evaluations = 0 0

Pair  time (%) = 0.00229893 (97.4154)
Neigh time (%) = 0 (0)
Comm  time (%) = 3.41466e-05 (1.44694)
Outpt time (%) = 0 (0)
Other time (%) = 2.68478e-05 (1.13766)

Nlocal:    2912 ave 2912 max 2912 min
Histogram: 1 0 0 0 0 0 0 0 0 0
Nghost:    7129 ave 7129 max 7129 min
Histogram: 1 0 0 0 0 0 0 0 0 0
Neighs:    111648 ave 111648 max 111648 min
Histogram: 1 0 0 0 0 0 0 0 0 0

Total # of neighbors = 111648
Ave neighs/atom = 38.3407
Neighbor list builds = 0
Dangerous builds = 0
	# write_dump all atom ${dumpfile}
        next i
jump SELF loop1
        displace_atoms upper move 0.0 ${ystep1} 0.0 units lattice
        displace_atoms upper move 0.0 0.00288675134594812 0.0 units lattice
        min_style ${style}
        min_style hftn
        minimize ${etol} ${ftol} ${maxiter} ${maxeval}
        minimize 1e-12 ${ftol} ${maxiter} ${maxeval}
        minimize 1e-12 1e-08 ${maxiter} ${maxeval}
        minimize 1e-12 1e-08 10000 ${maxeval}
        minimize 1e-12 1e-08 10000 20000
WARNING: Resetting reneighboring criteria during minimization (../min.cpp:168)
Memory usage per processor = 5.28733 Mbytes
Step Temp PotEng Lx Ly Lz 
      16            0   -17284.651     6.928552    73.814232    4.0002014 
Loop time of 0.00253609 on 1 procs for 0 steps with 2912 atoms

Minimization stats:
  Stopping criterion = force tolerance
  Energy initial, next-to-last, final = 
        -17284.6510695     -17284.6510695     -17284.6510695
  Force two-norm initial, final = 9.86561e-11 9.86561e-11
  Force max component initial, final = 3.19188e-12 3.19188e-12
  Final line search alpha, max atom move = 0 0
  Iterations, force evaluations = 0 0

Pair  time (%) = 0.00246293 (97.1155)
Neigh time (%) = 0 (0)
Comm  time (%) = 3.60928e-05 (1.42317)
Outpt time (%) = 0 (0)
Other time (%) = 3.70609e-05 (1.46134)

Nlocal:    2912 ave 2912 max 2912 min
Histogram: 1 0 0 0 0 0 0 0 0 0
Nghost:    7129 ave 7129 max 7129 min
Histogram: 1 0 0 0 0 0 0 0 0 0
Neighs:    111648 ave 111648 max 111648 min
Histogram: 1 0 0 0 0 0 0 0 0 0

Total # of neighbors = 111648
Ave neighs/atom = 38.3407
Neighbor list builds = 0
Dangerous builds = 0
	# write_dump all atom ${dumpfile}
        next i
jump SELF loop1
        displace_atoms upper move 0.0 ${ystep1} 0.0 units lattice
        displace_atoms upper move 0.0 0.00288675134594812 0.0 units lattice
        min_style ${style}
        min_style hftn
        minimize ${etol} ${ftol} ${maxiter} ${maxeval}
        minimize 1e-12 ${ftol} ${maxiter} ${maxeval}
        minimize 1e-12 1e-08 ${maxiter} ${maxeval}
        minimize 1e-12 1e-08 10000 ${maxeval}
        minimize 1e-12 1e-08 10000 20000
WARNING: Resetting reneighboring criteria during minimization (../min.cpp:168)
Memory usage per processor = 5.28733 Mbytes
Step Temp PotEng Lx Ly Lz 
      16            0   -17283.803     6.928552    73.821303    4.0002014 
Loop time of 0.00244911 on 1 procs for 0 steps with 2912 atoms

Minimization stats:
[...]
  Force max component initial, final = 3.19188e-12 3.19188e-12
  Final line search alpha, max atom move = 0 0
  Iterations, force evaluations = 0 0

Pair  time (%) = 0.00223601 (97.3466)
Neigh time (%) = 0 (0)
Comm  time (%) = 3.2014e-05 (1.39376)
Outpt time (%) = 0 (0)
Other time (%) = 2.89341e-05 (1.25967)

Nlocal:    2912 ave 2912 max 2912 min
Histogram: 1 0 0 0 0 0 0 0 0 0
Nghost:    7129 ave 7129 max 7129 min
Histogram: 1 0 0 0 0 0 0 0 0 0
Neighs:    110880 ave 110880 max 110880 min
Histogram: 1 0 0 0 0 0 0 0 0 0

Total # of neighbors = 110880
Ave neighs/atom = 38.0769
Neighbor list builds = 0
Dangerous builds = 0
	# write_dump all atom ${dumpfile}
        next i
jump SELF loop1
        displace_atoms upper move 0.0 ${ystep1} 0.0 units lattice
        displace_atoms upper move 0.0 0.00288675134594812 0.0 units lattice
        min_style ${style}
        min_style hftn
        minimize ${etol} ${ftol} ${maxiter} ${maxeval}
        minimize 1e-12 ${ftol} ${maxiter} ${maxeval}
        minimize 1e-12 1e-08 ${maxiter} ${maxeval}
        minimize 1e-12 1e-08 10000 ${maxeval}
        minimize 1e-12 1e-08 10000 20000
WARNING: Resetting reneighboring criteria during minimization (../min.cpp:168)
Memory usage per processor = 5.28733 Mbytes
Step Temp PotEng Lx Ly Lz 
      16            0    -17279.99     6.928552    75.560874    4.0002014 
Loop time of 0.00244295 on 1 procs for 0 steps with 2912 atoms

Minimization stats:
  Stopping criterion = force tolerance
  Energy initial, next-to-last, final = 
        -17279.9900092     -17279.9900092     -17279.9900092
  Force two-norm initial, final = 9.86798e-11 9.86798e-11
  Force max component initial, final = 3.19188e-12 3.19188e-12
  Final line search alpha, max atom move = 0 0
  Iterations, force evaluations = 0 0

Pair  time (%) = 0.00238105 (97.4661)
Neigh time (%) = 0 (0)
Comm  time (%) = 3.29e-05 (1.34673)
Outpt time (%) = 0 (0)
Other time (%) = 2.90017e-05 (1.18716)

Nlocal:    2912 ave 2912 max 2912 min
Histogram: 1 0 0 0 0 0 0 0 0 0
Nghost:    7129 ave 7129 max 7129 min
Histogram: 1 0 0 0 0 0 0 0 0 0
Neighs:    110880 ave 110880 max 110880 min
Histogram: 1 0 0 0 0 0 0 0 0 0

Total # of neighbors = 110880
Ave neighs/atom = 38.0769
Neighbor list builds = 0
Dangerous builds = 0
	# write_dump all atom ${dumpfile}
        next i
jump SELF loop1
        displace_atoms upper move 0.0 ${ystep1} 0.0 units lattice
        displace_atoms upper move 0.0 0.00288675134594812 0.0 units lattice
        min_style ${style}
        min_style hftn
        minimize ${etol} ${ftol} ${maxiter} ${maxeval}
        minimize 1e-12 ${ftol} ${maxiter} ${maxeval}
        minimize 1e-12 1e-08 ${maxiter} ${maxeval}
        minimize 1e-12 1e-08 10000 ${maxeval}
        minimize 1e-12 1e-08 10000 20000
WARNING: Resetting reneighboring criteria during minimization (../min.cpp:168)
Memory usage per processor = 5.28733 Mbytes
Step Temp PotEng Lx Ly Lz 
      16            0    -17279.99     6.928552    75.567945    4.0002014 
Loop time of 0.00196898 on 1 procs for 0 steps with 2912 atoms

Minimization stats:
  Stopping criterion = force tolerance
  Energy initial, next-to-last, final = 
        -17279.9900092     -17279.9900092     -17279.9900092
  Force two-norm initial, final = 9.86802e-11 9.86802e-11
  Force max component initial, final = 3.19188e-12 3.19188e-12
  Final line search alpha, max atom move = 0 0
  Iterations, force evaluations = 0 0

Pair  time (%) = 0.00190808 (96.9069)
Neigh time (%) = 0 (0)
Comm  time (%) = 3.10323e-05 (1.57606)
Outpt time (%) = 0 (0)
Other time (%) = 2.98696e-05 (1.51701)

Nlocal:    2912 ave 2912 max 2912 min
Histogram: 1 0 0 0 0 0 0 0 0 0
Nghost:    7129 ave 7129 max 7129 min
Histogram: 1 0 0 0 0 0 0 0 0 0
Neighs:    110880 ave 110880 max 110880 min
Histogram: 1 0 0 0 0 0 0 0 0 0

Total # of neighbors = 110880
Ave neighs/atom = 38.0769
Neighbor list builds = 0
Dangerous builds = 0
	# write_dump all atom ${dumpfile}
        next i
jump SELF loop1
        displace_atoms upper move 0.0 ${ystep1} 0.0 units lattice
        displace_atoms upper move 0.0 0.00288675134594812 0.0 units lattice
        min_style ${style}
        min_style hftn
        minimize ${etol} ${ftol} ${maxiter} ${maxeval}
        minimize 1e-12 ${ftol} ${maxiter} ${maxeval}
        minimize 1e-12 1e-08 ${maxiter} ${maxeval}
        minimize 1e-12 1e-08 10000 ${maxeval}
        minimize 1e-12 1e-08 10000 20000
WARNING: Resetting reneighboring criteria during minimization (../min.cpp:168)
Memory usage per processor = 5.28733 Mbytes
Step Temp PotEng Lx Ly Lz 
      16            0    -17279.99     6.928552    75.575017    4.0002014 
Loop time of 0.00274494 on 1 procs for 0 steps with 2912 atoms

Minimization stats:
  Stopping criterion = force tolerance
  Energy initial, next-to-last, final = 
        -17279.9900092     -17279.9900092     -17279.9900092
  Force two-norm initial, final = 9.86798e-11 9.86798e-11
  Force max component initial, final = 3.19188e-12 3.19188e-12
  Final line search alpha, max atom move = 0 0
  Iterations, force evaluations = 0 0

Pair  time (%) = 0.00268399 (97.7796)
Neigh time (%) = 0 (0)
Comm  time (%) = 3.19994e-05 (1.16576)
Outpt time (%) = 0 (0)
Other time (%) = 2.89486e-05 (1.05462)

Nlocal:    2912 ave 2912 max 2912 min
Histogram: 1 0 0 0 0 0 0 0 0 0
Nghost:    7129 ave 7129 max 7129 min
Histogram: 1 0 0 0 0 0 0 0 0 0
Neighs:    110880 ave 110880 max 110880 min
Histogram: 1 0 0 0 0 0 0 0 0 0

Total # of neighbors = 110880
Ave neighs/atom = 38.0769
Neighbor list builds = 0
Dangerous builds = 0
	# write_dump all atom ${dumpfile}
        next i
jump SELF loop1
        displace_atoms upper move 0.0 ${ystep1} 0.0 units lattice
        displace_atoms upper move 0.0 0.00288675134594812 0.0 units lattice
        min_style ${style}
        min_style hftn
        minimize ${etol} ${ftol} ${maxiter} ${maxeval}
        minimize 1e-12 ${ftol} ${maxiter} ${maxeval}
        minimize 1e-12 1e-08 ${maxiter} ${maxeval}
        minimize 1e-12 1e-08 10000 ${maxeval}
        minimize 1e-12 1e-08 10000 20000
WARNING: Resetting reneighboring criteria during minimization (../min.cpp:168)
Memory usage per processor = 5.28733 Mbytes
Step Temp PotEng Lx Ly Lz 
      16            0    -17279.99     6.928552    75.582088    4.0002014 
Loop time of 0.00239911 on 1 procs for 0 steps with 2912 atoms

Minimization stats:
  Stopping criterion = force tolerance
  Energy initial, next-to-last, final = 
        -17279.9900092     -17279.9900092     -17279.9900092
  Force two-norm initial, final = 9.868e-11 9.868e-11
  Force max component initial, final = 3.19188e-12 3.19188e-12
  Final line search alpha, max atom move = 0 0
  Iterations, force evaluations = 0 0

Pair  time (%) = 0.00233792 (97.4496)
Neigh time (%) = 0 (0)
Comm  time (%) = 3.20793e-05 (1.33714)
Outpt time (%) = 0 (0)
Other time (%) = 2.91072e-05 (1.21325)

Nlocal:    2912 ave 2912 max 2912 min
Histogram: 1 0 0 0 0 0 0 0 0 0
Nghost:    7129 ave 7129 max 7129 min
Histogram: 1 0 0 0 0 0 0 0 0 0
Neighs:    110880 ave 110880 max 110880 min
Histogram: 1 0 0 0 0 0 0 0 0 0

Total # of neighbors = 110880
Ave neighs/atom = 38.0769
Neighbor list builds = 0
Dangerous builds = 0
	# write_dump all atom ${dumpfile}
        next i
jump SELF loop1
        displace_atoms upper move 0.0 ${ystep1} 0.0 units lattice
        displace_atoms upper move 0.0 0.00288675134594812 0.0 units lattice
        min_style ${style}
        min_style hftn
        minimize ${etol} ${ftol} ${maxiter} ${maxeval}
        minimize 1e-12 ${ftol} ${maxiter} ${maxeval}
        minimize 1e-12 1e-08 ${maxiter} ${maxeval}
        minimize 1e-12 1e-08 10000 ${maxeval}
        minimize 1e-12 1e-08 10000 20000
WARNING: Resetting reneighboring criteria during minimization (../min.cpp:168)
Memory usage per processor = 5.28733 Mbytes
Step Temp PotEng Lx Ly Lz 
      16            0    -17279.99     6.928552    75.589159    4.0002014 
Loop time of 0.00230908 on 1 procs for 0 steps with 2912 atoms

Minimization stats:
  Stopping criterion = force tolerance
  Energy initial, next-to-last, final = 
        -17279.9900092     -17279.9900092     -17279.9900092
  Force two-norm initial, final = 9.86798e-11 9.86798e-11
  Force max component initial, final = 3.19188e-12 3.19188e-12
  Final line search alpha, max atom move = 0 0
  Iterations, force evaluations = 0 0

Pair  time (%) = 0.00225104 (97.4864)
Neigh time (%) = 0 (0)
Comm  time (%) = 3.18222e-05 (1.37813)
Outpt time (%) = 0 (0)
Other time (%) = 2.62185e-05 (1.13545)

Nlocal:    2912 ave 2912 max 2912 min
Histogram: 1 0 0 0 0 0 0 0 0 0
Nghost:    7129 ave 7129 max 7129 min
Histogram: 1 0 0 0 0 0 0 0 0 0
Neighs:    110880 ave 110880 max 110880 min
Histogram: 1 0 0 0 0 0 0 0 0 0

Total # of neighbors = 110880
Ave neighs/atom = 38.0769
Neighbor list builds = 0
Dangerous builds = 0
	# write_dump all atom ${dumpfile}
        next i
jump SELF loop1
        displace_atoms upper move 0.0 ${ystep1} 0.0 units lattice
        displace_atoms upper move 0.0 0.00288675134594812 0.0 units lattice
        min_style ${style}
        min_style hftn
        minimize ${etol} ${ftol} ${maxiter} ${maxeval}
        minimize 1e-12 ${ftol} ${maxiter} ${maxeval}
        minimize 1e-12 1e-08 ${maxiter} ${maxeval}
        minimize 1e-12 1e-08 10000 ${maxeval}
        minimize 1e-12 1e-08 10000 20000
WARNING: Resetting reneighboring criteria during minimization (../min.cpp:168)
Memory usage per processor = 5.28733 Mbytes
Step Temp PotEng Lx Ly Lz 
      16            0    -17279.99     6.928552    75.596231    4.0002014 
Loop time of 0.00240099 on 1 procs for 0 steps with 2912 atoms

Minimization stats:
  Stopping criterion = force tolerance
  Energy initial, next-to-last, final = 
        -17279.9900092     -17279.9900092     -17279.9900092
  Force two-norm initial, final = 9.86801e-11 9.86801e-11
  Force max component initial, final = 3.19188e-12 3.19188e-12
  Final line search alpha, max atom move = 0 0
  Iterations, force evaluations = 0 0

Pair  time (%) = 0.00234009 (97.4635)
Neigh time (%) = 0 (0)
Comm  time (%) = 3.10307e-05 (1.29241)
Outpt time (%) = 0 (0)
Other time (%) = 2.9871e-05 (1.24411)

Nlocal:    2912 ave 2912 max 2912 min
Histogram: 1 0 0 0 0 0 0 0 0 0
Nghost:    7129 ave 7129 max 7129 min
Histogram: 1 0 0 0 0 0 0 0 0 0
Neighs:    110880 ave 110880 max 110880 min
Histogram: 1 0 0 0 0 0 0 0 0 0

Total # of neighbors = 110880
Ave neighs/atom = 38.0769
Neighbor list builds = 0
Dangerous builds = 0
	# write_dump all atom ${dumpfile}
        next i
jump SELF loop1
        displace_atoms upper move 0.0 ${ystep1} 0.0 units lattice
        displace_atoms upper move 0.0 0.00288675134594812 0.0 units lattice
        min_style ${style}
        min_style hftn
        minimize ${etol} ${ftol} ${maxiter} ${maxeval}
        minimize 1e-12 ${ftol} ${maxiter} ${maxeval}
        minimize 1e-12 1e-08 ${maxiter} ${maxeval}
        minimize 1e-12 1e-08 10000 ${maxeval}
        minimize 1e-12 1e-08 10000 20000
WARNING: Resetting reneighboring criteria during minimization (../min.cpp:168)
Memory usage per processor = 5.28733 Mbytes
Step Temp PotEng Lx Ly Lz 
      16            0    -17279.99     6.928552    75.603302    4.0002014 
Loop time of 0.00240611 on 1 procs for 0 steps with 2912 atoms

Minimization stats:
  Stopping criterion = force tolerance
  Energy initial, next-to-last, final = 
        -17279.9900092     -17279.9900092     -17279.9900092
  Force two-norm initial, final = 9.86797e-11 9.86797e-11
  Force max component initial, final = 3.19188e-12 3.19188e-12
  Final line search alpha, max atom move = 0 0
  Iterations, force evaluations = 0 0

Pair  time (%) = 0.00234711 (97.5481)
Neigh time (%) = 0 (0)
Comm  time (%) = 3.21184e-05 (1.33487)
Outpt time (%) = 0 (0)
Other time (%) = 2.68761e-05 (1.117)

Nlocal:    2912 ave 2912 max 2912 min
Histogram: 1 0 0 0 0 0 0 0 0 0
Nghost:    7129 ave 7129 max 7129 min
Histogram: 1 0 0 0 0 0 0 0 0 0
Neighs:    110880 ave 110880 max 110880 min
Histogram: 1 0 0 0 0 0 0 0 0 0

Total # of neighbors = 110880
Ave neighs/atom = 38.0769
Neighbor list builds = 0
Dangerous builds = 0
	# write_dump all atom ${dumpfile}
        next i
jump SELF loop1
        displace_atoms upper move 0.0 ${ystep1} 0.0 units lattice
        displace_atoms upper move 0.0 0.00288675134594812 0.0 units lattice
        min_style ${style}
        min_style hftn
        minimize ${etol} ${ftol} ${maxiter} ${maxeval}
        minimize 1e-12 ${ftol} ${maxiter} ${maxeval}
        minimize 1e-12 1e-08 ${maxiter} ${maxeval}
        minimize 1e-12 1e-08 10000 ${maxeval}
        minimize 1e-12 1e-08 10000 20000
WARNING: Resetting reneighboring criteria during minimization (../min.cpp:168)
Memory usage per processor = 5.28733 Mbytes
Step Temp PotEng Lx Ly Lz 
      16            0    -17279.99     6.928552    75.610374    4.0002014 
Loop time of 0.00221292 on 1 procs for 0 steps with 2912 atoms

Minimization stats:
  Stopping criterion = force tolerance
  Energy initial, next-to-last, final = 
        -17279.9900092     -17279.9900092     -17279.9900092
  Force two-norm initial, final = 9.86801e-11 9.86801e-11
  Force max component initial, final = 3.19188e-12 3.19188e-12
  Final line search alpha, max atom move = 0 0
  Iterations, force evaluations = 0 0

Pair  time (%) = 0.00215198 (97.2458)
Neigh time (%) = 0 (0)
Comm  time (%) = 3.31129e-05 (1.49634)
Outpt time (%) = 0 (0)
Other time (%) = 2.78351e-05 (1.25784)

Nlocal:    2912 ave 2912 max 2912 min
Histogram: 1 0 0 0 0 0 0 0 0 0
Nghost:    7129 ave 7129 max 7129 min
Histogram: 1 0 0 0 0 0 0 0 0 0
Neighs:    110880 ave 110880 max 110880 min
Histogram: 1 0 0 0 0 0 0 0 0 0

Total # of neighbors = 110880
Ave neighs/atom = 38.0769
Neighbor list builds = 0
Dangerous builds = 0
	# write_dump all atom ${dumpfile}
        next i
jump SELF loop1
        displace_atoms upper move 0.0 ${ystep1} 0.0 units lattice
        displace_atoms upper move 0.0 0.00288675134594812 0.0 units lattice
        min_style ${style}
        min_style hftn
        minimize ${etol} ${ftol} ${maxiter} ${maxeval}
        minimize 1e-12 ${ftol} ${maxiter} ${maxeval}
        minimize 1e-12 1e-08 ${maxiter} ${maxeval}
        minimize 1e-12 1e-08 10000 ${maxeval}
        minimize 1e-12 1e-08 10000 20000
WARNING: Resetting reneighboring criteria during minimization (../min.cpp:168)
Memory usage per processor = 5.28733 Mbytes
Step Temp PotEng Lx Ly Lz 
      16            0    -17279.99     6.928552    75.617445    4.0002014 
Loop time of 0.0024669 on 1 procs for 0 steps with 2912 atoms

Minimization stats:
  Stopping criterion = force tolerance
  Energy initial, next-to-last, final = 
        -17279.9900092     -17279.9900092     -17279.9900092
  Force two-norm initial, final = 9.86797e-11 9.86797e-11
  Force max component initial, final = 3.19188e-12 3.19188e-12
  Final line search alpha, max atom move = 0 0
  Iterations, force evaluations = 0 0

Pair  time (%) = 0.0024069 (97.568)
Neigh time (%) = 0 (0)
Comm  time (%) = 3.3097e-05 (1.34164)
Outpt time (%) = 0 (0)
Other time (%) = 2.68974e-05 (1.09033)

Nlocal:    2912 ave 2912 max 2912 min
Histogram: 1 0 0 0 0 0 0 0 0 0
Nghost:    7129 ave 7129 max 7129 min
Histogram: 1 0 0 0 0 0 0 0 0 0
Neighs:    110880 ave 110880 max 110880 min
Histogram: 1 0 0 0 0 0 0 0 0 0

Total # of neighbors = 110880
Ave neighs/atom = 38.0769
Neighbor list builds = 0
Dangerous builds = 0
	# write_dump all atom ${dumpfile}
        next i
jump SELF loop1
        displace_atoms upper move 0.0 ${ystep1} 0.0 units lattice
        displace_atoms upper move 0.0 0.00288675134594812 0.0 units lattice
        min_style ${style}
        min_style hftn
        minimize ${etol} ${ftol} ${maxiter} ${maxeval}
        minimize 1e-12 ${ftol} ${maxiter} ${maxeval}
        minimize 1e-12 1e-08 ${maxiter} ${maxeval}
        minimize 1e-12 1e-08 10000 ${maxeval}
        minimize 1e-12 1e-08 10000 20000
WARNING: Resetting reneighboring criteria during minimization (../min.cpp:168)
Memory usage per processor = 5.28733 Mbytes
Step Temp PotEng Lx Ly Lz 
      16            0    -17279.99     6.928552    75.624516    4.0002014 
Loop time of 0.00204905 on 1 procs for 0 steps with 2912 atoms

Minimization stats:
  Stopping criterion = force tolerance
  Energy initial, next-to-last, final = 
        -17279.9900092     -17279.9900092     -17279.9900092
  Force two-norm initial, final = 9.868e-11 9.868e-11
  Force max component initial, final = 3.19188e-12 3.19188e-12
  Final line search alpha, max atom move = 0 0
  Iterations, force evaluations = 0 0

Pair  time (%) = 0.00198791 (97.0162)
Neigh time (%) = 0 (0)
Comm  time (%) = 3.10037e-05 (1.51308)
Outpt time (%) = 0 (0)
Other time (%) = 3.01364e-05 (1.47075)

Nlocal:    2912 ave 2912 max 2912 min
Histogram: 1 0 0 0 0 0 0 0 0 0
Nghost:    7129 ave 7129 max 7129 min
Histogram: 1 0 0 0 0 0 0 0 0 0
Neighs:    110880 ave 110880 max 110880 min
Histogram: 1 0 0 0 0 0 0 0 0 0

Total # of neighbors = 110880
Ave neighs/atom = 38.0769
Neighbor list builds = 0
Dangerous builds = 0
	# write_dump all atom ${dumpfile}
        next i
jump SELF loop1

# allow atoms to relax in y-direction, now that two halves have separated
unfix 2
min_style ${style}
min_style hftn
minimize ${etol} ${ftol} ${maxiter} ${maxeval}
minimize 1e-12 ${ftol} ${maxiter} ${maxeval}
minimize 1e-12 1e-08 ${maxiter} ${maxeval}
minimize 1e-12 1e-08 10000 ${maxeval}
minimize 1e-12 1e-08 10000 20000
WARNING: Resetting reneighboring criteria during minimization (../min.cpp:168)
Memory usage per processor = 5.28733 Mbytes
Step Temp PotEng Lx Ly Lz 
      16            0    -17279.99     6.928552    75.624516    4.0002014 
      17            0    -17279.99     6.928552    75.624516    4.0002014 
      18            0    -17279.99     6.928552    75.624516    4.0002014 
      19            0    -17279.99     6.928552    75.624516    4.0002014 
      20            0    -17279.99     6.928552    75.624516    4.0002014 
      21            0    -17279.99     6.928552    75.624516    4.0002014 
      22            0    -17279.99     6.928552    75.624516    4.0002014 
      23            0    -17279.99     6.928552    75.624516    4.0002014 
      24            0    -17279.99     6.928552    75.624516    4.0002014 
      25            0    -17279.99     6.928552    75.624516    4.0002014 
      26            0    -17279.99     6.928552    75.624516    4.0002014 
      27            0    -17279.99     6.928552    75.624516    4.0002014 
      28            0    -17279.99     6.928552    75.624516    4.0002014 
      29            0    -17279.99     6.928552    75.624516    4.0002014 
      30            0    -17279.99     6.928552    75.624516    4.0002014 
      31            0    -17279.99     6.928552    75.624516    4.0002014 
      32            0    -17279.99     6.928552    75.624516    4.0002014 
      33            0    -17279.99     6.928552    75.624516    4.0002014 
      34            0    -17279.99     6.928552    75.624516    4.0002014 
Loop time of 0.488924 on 1 procs for 17 steps with 2912 atoms

Minimization stats:
  Stopping criterion = energy tolerance
  Energy initial, next-to-last, final = 
        -17279.9900092     -17279.9902772     -17279.9903331
  Force two-norm initial, final = 0.148134 0.0651415
  Force max component initial, final = 0.0130933 0.00329485
  Final line search alpha, max atom move = 0 0
  Iterations, force evaluations = 17 180

Pair  time (%) = 0.456147 (93.296)
Neigh time (%) = 0 (0)
Comm  time (%) = 0.0104253 (2.13229)
Outpt time (%) = 0.00173959 (0.3558)
Other time (%) = 0.0206124 (4.21587)

Nlocal:    2912 ave 2912 max 2912 min
Histogram: 1 0 0 0 0 0 0 0 0 0
Nghost:    7129 ave 7129 max 7129 min
Histogram: 1 0 0 0 0 0 0 0 0 0
Neighs:    110880 ave 110880 max 110880 min
Histogram: 1 0 0 0 0 0 0 0 0 0

Total # of neighbors = 110880
Ave neighs/atom = 38.0769
Neighbor list builds = 0
Dangerous builds = 0

write_dump all atom ${dumpfile}
write_dump all atom surf_V_inter3_3d.*.dump


