LAMMPS (28 Jun 2014)
# attempt at getting surface energy

#file prefix
variable prefix string surf_V_inter1new2
variable dumpfile string ${prefix}.*.dump
variable dumpfile string surf_V_inter1new2.*.dump
variable restartfile string ${prefix}.*.equil
variable restartfile string surf_V_inter1new2.*.equil

#Mass (g/mol)
variable m equal 1

# lattice constant (in Angstroms) and orientation of axes (given by lattice vectors)
variable rho equal 0.9165
variable x1 equal 1
variable x2 equal 0
variable x3 equal 0
variable y1 equal 0
variable y2 equal 1
variable y3 equal 0
# length of lattice in different directions (using orientation of lattice vectors)
variable ax equal sqrt(${x1}*${x1}+${x2}*${x2}+${x3}*${x3})
variable ax equal sqrt(1*${x1}+${x2}*${x2}+${x3}*${x3})
variable ax equal sqrt(1*1+${x2}*${x2}+${x3}*${x3})
variable ax equal sqrt(1*1+0*${x2}+${x3}*${x3})
variable ax equal sqrt(1*1+0*0+${x3}*${x3})
variable ax equal sqrt(1*1+0*0+0*${x3})
variable ax equal sqrt(1*1+0*0+0*0)
variable ay equal sqrt(${y1}*${y1}+${y2}*${y2}+${y3}*${y3})
variable ay equal sqrt(0*${y1}+${y2}*${y2}+${y3}*${y3})
variable ay equal sqrt(0*0+${y2}*${y2}+${y3}*${y3})
variable ay equal sqrt(0*0+1*${y2}+${y3}*${y3})
variable ay equal sqrt(0*0+1*1+${y3}*${y3})
variable ay equal sqrt(0*0+1*1+0*${y3})
variable ay equal sqrt(0*0+1*1+0*0)
variable az equal 1

# size of box in lattice units
variable lxpos equal 1
variable lxneg equal 0
variable lypos equal 10
variable lyneg equal -1*${lypos}
variable lyneg equal -1*10
variable lzpos equal 1
variable lzneg equal 0

# Define minimization parameters and damping
variable etol equal 1.0e-12
variable ftol equal 1.0e-8
variable maxiter equal 10000
variable maxeval equal 20000
variable style string cg

# boundary conditions
dimension	2
boundary	p s p
atom_style	atomic

# create geometry
units		lj
lattice         hex ${rho}
lattice         hex 0.9165
Lattice spacing in x,y,z = 1.12245 1.94415 1.12245
region		myregion block ${lxneg} ${lxpos} ${lyneg} ${lypos} ${lzneg} ${lzpos} units lattice
region		myregion block 0 ${lxpos} ${lyneg} ${lypos} ${lzneg} ${lzpos} units lattice
region		myregion block 0 1 ${lyneg} ${lypos} ${lzneg} ${lzpos} units lattice
region		myregion block 0 1 -10 ${lypos} ${lzneg} ${lzpos} units lattice
region		myregion block 0 1 -10 10 ${lzneg} ${lzpos} units lattice
region		myregion block 0 1 -10 10 0 ${lzpos} units lattice
region		myregion block 0 1 -10 10 0 1 units lattice
create_box	1 myregion
Created orthogonal box = (0 -19.4415 0) to (1.12245 19.4415 1.12245)
  1 by 1 by 1 MPI processor grid
create_atoms	1 box
Created 41 atoms

# define masses
mass * $m
mass * 1

# my fake/morse potential
pair_style      table linear 3001
pair_coeff      * * vpotential_inter1new2 dummy
neighbor	0.3 bin
neigh_modify	delay 5

# define groups
region	    upper block INF INF 0.01 ${lypos} INF INF units lattice
region	    upper block INF INF 0.01 10 INF INF units lattice
group		upper region upper
20 atoms in group upper

# Setup output
thermo 1
thermo_style custom step temp pe lx ly lz
thermo_modify norm no

# Compute initial state by relaxing box
min_style ${style}
min_style cg
minimize ${etol} ${ftol} ${maxiter} ${maxeval}
minimize 1e-12 ${ftol} ${maxiter} ${maxeval}
minimize 1e-12 1e-08 ${maxiter} ${maxeval}
minimize 1e-12 1e-08 10000 ${maxeval}
minimize 1e-12 1e-08 10000 20000
WARNING: Resetting reneighboring criteria during minimization (../min.cpp:168)
Memory usage per processor = 3.35962 Mbytes
Step Temp PotEng Lx Ly Lz 
       0            0   -120.99996    1.1224537    38.890715    1.1224537 
       1            0   -120.99996    1.1224537    38.890715    1.1224537 
       2            0   -120.99996    1.1224537    38.890715    1.1224537 
Loop time of 2.90623e-05 on 1 procs for 2 steps with 41 atoms

Minimization stats:
  Stopping criterion = linesearch alpha is zero
  Energy initial, next-to-last, final = 
        -120.999963848     -120.999964932     -120.999964932
  Force two-norm initial, final = 0.000550698 0.00322436
  Force max component initial, final = 0.000389403 0.00179508
  Final line search alpha, max atom move = 0.000976562 1.75301e-06
  Iterations, force evaluations = 2 15

Pair  time (%) = 1.74191e-05 (59.9372)
Neigh time (%) = 0 (0)
Comm  time (%) = 4.05638e-06 (13.9575)
Outpt time (%) = -7.11298e-08 (-0.24475)
Other time (%) = 7.65792e-06 (26.35)

Nlocal:    41 ave 41 max 41 min
Histogram: 1 0 0 0 0 0 0 0 0 0
Nghost:    185 ave 185 max 185 min
Histogram: 1 0 0 0 0 0 0 0 0 0
Neighs:    359 ave 359 max 359 min
Histogram: 1 0 0 0 0 0 0 0 0 0

Total # of neighbors = 359
Ave neighs/atom = 8.7561
Neighbor list builds = 0
Dangerous builds = 0

# don't allow atoms to relax in y-direction
fix 2 all setforce NULL 0.0 NULL

# Energy curve will have nstep steps
variable nsteps equal 500
variable sstep1 equal 1.0
variable ystep1 equal ${sstep1}/(${ay}*${nsteps})
variable ystep1 equal 1/(${ay}*${nsteps})
variable ystep1 equal 1/(1*${nsteps})
variable ystep1 equal 1/(1*500)

variable i loop ${nsteps}
variable i loop 500
label loop1
        displace_atoms upper move 0.0 ${ystep1} 0.0 units lattice
        displace_atoms upper move 0.0 0.002 0.0 units lattice
        min_style ${style}
        min_style cg
        minimize ${etol} ${ftol} ${maxiter} ${maxeval}
        minimize 1e-12 ${ftol} ${maxiter} ${maxeval}
        minimize 1e-12 1e-08 ${maxiter} ${maxeval}
        minimize 1e-12 1e-08 10000 ${maxeval}
        minimize 1e-12 1e-08 10000 20000
WARNING: Resetting reneighboring criteria during minimization (../min.cpp:168)
Memory usage per processor = 3.35962 Mbytes
Step Temp PotEng Lx Ly Lz 
       2            0   -120.99969    1.1224537      38.8947    1.1224537 
       3            0   -120.99969    1.1224537      38.8947    1.1224537 
Loop time of 4.11057e-05 on 1 procs for 1 steps with 41 atoms

Minimization stats:
  Stopping criterion = linesearch alpha is zero
  Energy initial, next-to-last, final = 
        -120.999690069     -120.999690069     -120.999690069
  Force two-norm initial, final = 1.80447e-18 1.80447e-18
  Force max component initial, final = 1.30104e-18 1.30104e-18
  Final line search alpha, max atom move = 0.5 6.50521e-19
  Iterations, force evaluations = 1 2

Pair  time (%) = 2.52095e-05 (61.3285)
Neigh time (%) = 0 (0)
Comm  time (%) = 3.96138e-06 (9.63707)
Outpt time (%) = 0 (0)
Other time (%) = 1.19348e-05 (29.0344)

Nlocal:    41 ave 41 max 41 min
Histogram: 1 0 0 0 0 0 0 0 0 0
Nghost:    185 ave 185 max 185 min
Histogram: 1 0 0 0 0 0 0 0 0 0
Neighs:    359 ave 359 max 359 min
Histogram: 1 0 0 0 0 0 0 0 0 0

Total # of neighbors = 359
Ave neighs/atom = 8.7561
Neighbor list builds = 0
Dangerous builds = 0
	# write_dump all atom ${dumpfile}
        next i
jump SELF loop1
        displace_atoms upper move 0.0 ${ystep1} 0.0 units lattice
        displace_atoms upper move 0.0 0.002 0.0 units lattice
        min_style ${style}
        min_style cg
        minimize ${etol} ${ftol} ${maxiter} ${maxeval}
        minimize 1e-12 ${ftol} ${maxiter} ${maxeval}
        minimize 1e-12 1e-08 ${maxiter} ${maxeval}
        minimize 1e-12 1e-08 10000 ${maxeval}
        minimize 1e-12 1e-08 10000 20000
WARNING: Resetting reneighboring criteria during minimization (../min.cpp:168)
Memory usage per processor = 3.35962 Mbytes
Step Temp PotEng Lx Ly Lz 
       3            0   -120.99888    1.1224537    38.898588    1.1224537 
       4            0   -120.99888    1.1224537    38.898588    1.1224537 
Loop time of 4.09908e-05 on 1 procs for 1 steps with 41 atoms

Minimization stats:
  Stopping criterion = linesearch alpha is zero
  Energy initial, next-to-last, final = 
        -120.998878952     -120.998878952     -120.998878952
  Force two-norm initial, final = 5.10231e-18 5.10231e-18
  Force max component initial, final = 4.93312e-18 4.93312e-18
  Final line search alpha, max atom move = 0.5 2.46656e-18
  Iterations, force evaluations = 1 2

Pair  time (%) = 2.5865e-05 (63.0997)
Neigh time (%) = 0 (0)
Comm  time (%) = 2.84181e-06 (6.93282)
Outpt time (%) = 0 (0)
Other time (%) = 1.22839e-05 (29.9675)

Nlocal:    41 ave 41 max 41 min
Histogram: 1 0 0 0 0 0 0 0 0 0
Nghost:    185 ave 185 max 185 min
Histogram: 1 0 0 0 0 0 0 0 0 0
Neighs:    359 ave 359 max 359 min
Histogram: 1 0 0 0 0 0 0 0 0 0

Total # of neighbors = 359
Ave neighs/atom = 8.7561
Neighbor list builds = 0
Dangerous builds = 0
	# write_dump all atom ${dumpfile}
        next i
jump SELF loop1
        displace_atoms upper move 0.0 ${ystep1} 0.0 units lattice
        displace_atoms upper move 0.0 0.002 0.0 units lattice
        min_style ${style}
        min_style cg
        minimize ${etol} ${ftol} ${maxiter} ${maxeval}
        minimize 1e-12 ${ftol} ${maxiter} ${maxeval}
        minimize 1e-12 1e-08 ${maxiter} ${maxeval}
        minimize 1e-12 1e-08 10000 ${maxeval}
        minimize 1e-12 1e-08 10000 20000
WARNING: Resetting reneighboring criteria during minimization (../min.cpp:168)
Memory usage per processor = 3.35962 Mbytes
Step Temp PotEng Lx Ly Lz 
       4            0   -120.99755    1.1224537    38.902477    1.1224537 
       5            0   -120.99755    1.1224537    38.902477    1.1224537 
Loop time of 0.00179696 on 1 procs for 1 steps with 41 atoms

Minimization stats:
  Stopping criterion = linesearch alpha is zero
  Energy initial, next-to-last, final = 
         -120.99754844      -120.99754844      -120.99754844
  Force two-norm initial, final = 3.05639e-18 3.05639e-18
  Force max component initial, final = 2.76472e-18 2.76472e-18
  Final line search alpha, max atom move = 0.5 1.38236e-18
  Iterations, force evaluations = 1 2

Pair  time (%) = 2.58699e-05 (1.43965)
Neigh time (%) = 0 (0)
Comm  time (%) = 3.8516e-06 (0.21434)
Outpt time (%) = 0 (0)
Other time (%) = 0.00176724 (98.346)

Nlocal:    41 ave 41 max 41 min
Histogram: 1 0 0 0 0 0 0 0 0 0
Nghost:    185 ave 185 max 185 min
Histogram: 1 0 0 0 0 0 0 0 0 0
Neighs:    359 ave 359 max 359 min
Histogram: 1 0 0 0 0 0 0 0 0 0

Total # of neighbors = 359
Ave neighs/atom = 8.7561
Neighbor list builds = 0
Dangerous builds = 0
	# write_dump all atom ${dumpfile}
        next i
jump SELF loop1
        displace_atoms upper move 0.0 ${ystep1} 0.0 units lattice
        displace_atoms upper move 0.0 0.002 0.0 units lattice
        min_style ${style}
        min_style cg
        minimize ${etol} ${ftol} ${maxiter} ${maxeval}
        minimize 1e-12 ${ftol} ${maxiter} ${maxeval}
        minimize 1e-12 1e-08 ${maxiter} ${maxeval}
        minimize 1e-12 1e-08 10000 ${maxeval}
        minimize 1e-12 1e-08 10000 20000
WARNING: Resetting reneighboring criteria during minimization (../min.cpp:168)
Memory usage per processor = 3.35962 Mbytes
Step Temp PotEng Lx Ly Lz 
       5            0   -120.99571    1.1224537    38.906365    1.1224537 
       6            0   -120.99571    1.1224537    38.906365    1.1224537 
Loop time of 4.11085e-05 on 1 procs for 1 steps with 41 atoms

Minimization stats:
  Stopping criterion = linesearch alpha is zero
  Energy initial, next-to-last, final = 
        -120.995712014     -120.995712014     -120.995712014
  Force two-norm initial, final = 1.48313e-17 1.48313e-17
  Force max component initial, final = 1.25767e-17 1.25767e-17
  Final line search alpha, max atom move = 0.5 6.28837e-18
  Iterations, force evaluations = 1 2

Pair  time (%) = 2.61717e-05 (63.6649)
Neigh time (%) = 0 (0)
Comm  time (%) = 3.93204e-06 (9.56505)
Outpt time (%) = 0 (0)
Other time (%) = 1.10047e-05 (26.77)

Nlocal:    41 ave 41 max 41 min
Histogram: 1 0 0 0 0 0 0 0 0 0
Nghost:    185 ave 185 max 185 min
Histogram: 1 0 0 0 0 0 0 0 0 0
Neighs:    359 ave 359 max 359 min
Histogram: 1 0 0 0 0 0 0 0 0 0

Total # of neighbors = 359
Ave neighs/atom = 8.7561
Neighbor list builds = 0
Dangerous builds = 0
	# write_dump all atom ${dumpfile}
        next i
jump SELF loop1
        displace_atoms upper move 0.0 ${ystep1} 0.0 units lattice
        displace_atoms upper move 0.0 0.002 0.0 units lattice
        min_style ${style}
        min_style cg
        minimize ${etol} ${ftol} ${maxiter} ${maxeval}
        minimize 1e-12 ${ftol} ${maxiter} ${maxeval}
        minimize 1e-12 1e-08 ${maxiter} ${maxeval}
        minimize 1e-12 1e-08 10000 ${maxeval}
        minimize 1e-12 1e-08 10000 20000
WARNING: Resetting reneighboring criteria during minimization (../min.cpp:168)
Memory usage per processor = 3.35962 Mbytes
Step Temp PotEng Lx Ly Lz 
       6            0   -120.99339    1.1224537    38.910253    1.1224537 
       7            0   -120.99339    1.1224537    38.910253    1.1224537 
Loop time of 4.00896e-05 on 1 procs for 1 steps with 41 atoms

Minimization stats:
  Stopping criterion = linesearch alpha is zero
  Energy initial, next-to-last, final = 
        -120.993389112     -120.993389112     -120.993389112
  Force two-norm initial, final = 1.70736e-17 1.70736e-17
  Force max component initial, final = 1.25767e-17 1.25767e-17
  Final line search alpha, max atom move = 0.5 6.28837e-18
  Iterations, force evaluations = 1 2

Pair  time (%) = 2.70226e-05 (67.4054)
Neigh time (%) = 0 (0)
Comm  time (%) = 3.72634e-06 (9.29503)
Outpt time (%) = 0 (0)
Other time (%) = 9.3407e-06 (23.2996)

Nlocal:    41 ave 41 max 41 min
Histogram: 1 0 0 0 0 0 0 0 0 0
Nghost:    185 ave 185 max 185 min
Histogram: 1 0 0 0 0 0 0 0 0 0
Neighs:    359 ave 359 max 359 min
Histogram: 1 0 0 0 0 0 0 0 0 0

Total # of neighbors = 359
Ave neighs/atom = 8.7561
Neighbor list builds = 0
Dangerous builds = 0
	# write_dump all atom ${dumpfile}
        next i
jump SELF loop1
        displace_atoms upper move 0.0 ${ystep1} 0.0 units lattice
        displace_atoms upper move 0.0 0.002 0.0 units lattice
        min_style ${style}
        min_style cg
        minimize ${etol} ${ftol} ${maxiter} ${maxeval}
        minimize 1e-12 ${ftol} ${maxiter} ${maxeval}
        minimize 1e-12 1e-08 ${maxiter} ${maxeval}
        minimize 1e-12 1e-08 10000 ${maxeval}
        minimize 1e-12 1e-08 10000 20000
WARNING: Resetting reneighboring criteria during minimization (../min.cpp:168)
Memory usage per processor = 3.35962 Mbytes
Step Temp PotEng Lx Ly Lz 
       7            0    -120.9906    1.1224537    38.914142    1.1224537 
       8            0    -120.9906    1.1224537    38.914142    1.1224537 
Loop time of 3.9118e-05 on 1 procs for 1 steps with 41 atoms

Minimization stats:
  Stopping criterion = linesearch alpha is zero
  Energy initial, next-to-last, final = 
        -120.990596162     -120.990596162     -120.990596162
  Force two-norm initial, final = 1.56563e-17 1.56563e-17
  Force max component initial, final = 1.25767e-17 1.25767e-17
  Final line search alpha, max atom move = 0.5 6.28837e-18
  Iterations, force evaluations = 1 2

Pair  time (%) = 2.62002e-05 (66.9774)
Neigh time (%) = 0 (0)
Comm  time (%) = 3.98885e-06 (10.197)
Outpt time (%) = 0 (0)
Other time (%) = 8.92894e-06 (22.8257)

Nlocal:    41 ave 41 max 41 min
Histogram: 1 0 0 0 0 0 0 0 0 0
Nghost:    185 ave 185 max 185 min
Histogram: 1 0 0 0 0 0 0 0 0 0
Neighs:    359 ave 359 max 359 min
Histogram: 1 0 0 0 0 0 0 0 0 0

Total # of neighbors = 359
Ave neighs/atom = 8.7561
Neighbor list builds = 0
Dangerous builds = 0
	# write_dump all atom ${dumpfile}
        next i
jump SELF loop1
        displace_atoms upper move 0.0 ${ystep1} 0.0 units lattice
        displace_atoms upper move 0.0 0.002 0.0 units lattice
        min_style ${style}
        min_style cg
        minimize ${etol} ${ftol} ${maxiter} ${maxeval}
        minimize 1e-12 ${ftol} ${maxiter} ${maxeval}
        minimize 1e-12 1e-08 ${maxiter} ${maxeval}
        minimize 1e-12 1e-08 10000 ${maxeval}
        minimize 1e-12 1e-08 10000 20000
WARNING: Resetting reneighboring criteria during minimization (../min.cpp:168)
Memory usage per processor = 3.35962 Mbytes
Step Temp PotEng Lx Ly Lz 
       8            0   -120.98735    1.1224537     38.91803    1.1224537 
       9            0   -120.98735    1.1224537     38.91803    1.1224537 
Loop time of 3.80947e-05 on 1 procs for 1 steps with 41 atoms

Minimization stats:
  Stopping criterion = linesearch alpha is zero
  Energy initial, next-to-last, final = 
         -120.98734878      -120.98734878      -120.98734878
  Force two-norm initial, final = 1.62112e-17 1.62112e-17
  Force max component initial, final = 1.51788e-17 1.51788e-17
  Final line search alpha, max atom move = 0.5 7.58942e-18
  Iterations, force evaluations = 1 2

Pair  time (%) = 2.70378e-05 (70.9752)
Neigh time (%) = 0 (0)
Comm  time (%) = 3.75696e-06 (9.86215)
Outpt time (%) = 0 (0)
Other time (%) = 7.29994e-06 (19.1626)

Nlocal:    41 ave 41 max 41 min
Histogram: 1 0 0 0 0 0 0 0 0 0
Nghost:    185 ave 185 max 185 min
Histogram: 1 0 0 0 0 0 0 0 0 0
Neighs:    359 ave 359 max 359 min
Histogram: 1 0 0 0 0 0 0 0 0 0

Total # of neighbors = 359
Ave neighs/atom = 8.7561
Neighbor list builds = 0
Dangerous builds = 0
	# write_dump all atom ${dumpfile}
        next i
jump SELF loop1
        displace_atoms upper move 0.0 ${ystep1} 0.0 units lattice
        displace_atoms upper move 0.0 0.002 0.0 units lattice
        min_style ${style}
        min_style cg
        minimize ${etol} ${ftol} ${maxiter} ${maxeval}
        minimize 1e-12 ${ftol} ${maxiter} ${maxeval}
        minimize 1e-12 1e-08 ${maxiter} ${maxeval}
        minimize 1e-12 1e-08 10000 ${maxeval}
        minimize 1e-12 1e-08 10000 20000
WARNING: Resetting reneighboring criteria during minimization (../min.cpp:168)
Memory usage per processor = 3.35962 Mbytes
Step Temp PotEng Lx Ly Lz 
       9            0   -120.98366    1.1224537    38.921918    1.1224537 
      10            0   -120.98366    1.1224537    38.921918    1.1224537 
Loop time of 3.78862e-05 on 1 procs for 1 steps with 41 atoms

Minimization stats:
  Stopping criterion = linesearch alpha is zero
  Energy initial, next-to-last, final = 
        -120.983662255     -120.983662255     -120.983662255
  Force two-norm initial, final = 2.94715e-17 2.94715e-17
  Force max component initial, final = 2.52619e-17 2.52619e-17
  Final line search alpha, max atom move = 0.5 1.2631e-17
  Iterations, force evaluations = 1 2

Pair  time (%) = 2.51274e-05 (66.3234)
Neigh time (%) = 0 (0)
Comm  time (%) = 5.84358e-06 (15.424)
Outpt time (%) = 0 (0)
Other time (%) = 6.91519e-06 (18.2525)

Nlocal:    41 ave 41 max 41 min
Histogram: 1 0 0 0 0 0 0 0 0 0
Nghost:    185 ave 185 max 185 min
Histogram: 1 0 0 0 0 0 0 0 0 0
Neighs:    359 ave 359 max 359 min
Histogram: 1 0 0 0 0 0 0 0 0 0

Total # of neighbors = 359
Ave neighs/atom = 8.7561
Neighbor list builds = 0
Dangerous builds = 0
	# write_dump all atom ${dumpfile}
        next i
jump SELF loop1
        displace_atoms upper move 0.0 ${ystep1} 0.0 units lattice
        displace_atoms upper move 0.0 0.002 0.0 units lattice
        min_style ${style}
        min_style cg
        minimize ${etol} ${ftol} ${maxiter} ${maxeval}
        minimize 1e-12 ${ftol} ${maxiter} ${maxeval}
        minimize 1e-12 1e-08 ${maxiter} ${maxeval}
        minimize 1e-12 1e-08 10000 ${maxeval}
        minimize 1e-12 1e-08 10000 20000
WARNING: Resetting reneighboring criteria during minimization (../min.cpp:168)
Memory usage per processor = 3.35962 Mbytes
Step Temp PotEng Lx Ly Lz 
      10            0   -120.97955    1.1224537    38.925807    1.1224537 
      11            0   -120.97955    1.1224537    38.925807    1.1224537 
Loop time of 3.9881e-05 on 1 procs for 1 steps with 41 atoms

Minimization stats:
  Stopping criterion = linesearch alpha is zero
  Energy initial, next-to-last, final = 
        -120.979550066     -120.979550066     -120.979550066
  Force two-norm initial, final = 3.11605e-17 3.11605e-17
  Force max component initial, final = 2.72135e-17 2.72135e-17
  Final line search alpha, max atom move = 0.5 1.36067e-17
  Iterations, force evaluations = 1 2

Pair  time (%) = 2.71117e-05 (67.9816)
Neigh time (%) = 0 (0)
Comm  time (%) = 3.90469e-06 (9.79085)
Outpt time (%) = 0 (0)
Other time (%) = 8.86456e-06 (22.2275)

Nlocal:    41 ave 41 max 41 min
Histogram: 1 0 0 0 0 0 0 0 0 0
Nghost:    185 ave 185 max 185 min
Histogram: 1 0 0 0 0 0 0 0 0 0
Neighs:    359 ave 359 max 359 min
Histogram: 1 0 0 0 0 0 0 0 0 0

Total # of neighbors = 359
Ave neighs/atom = 8.7561
Neighbor list builds = 0
Dangerous builds = 0
	# write_dump all atom ${dumpfile}
        next i
jump SELF loop1
        displace_atoms upper move 0.0 ${ystep1} 0.0 units lattice
        displace_atoms upper move 0.0 0.002 0.0 units lattice
        min_style ${style}
        min_style cg
        minimize ${etol} ${ftol} ${maxiter} ${maxeval}
        minimize 1e-12 ${ftol} ${maxiter} ${maxeval}
        minimize 1e-12 1e-08 ${maxiter} ${maxeval}
        minimize 1e-12 1e-08 10000 ${maxeval}
        minimize 1e-12 1e-08 10000 20000
WARNING: Resetting reneighboring criteria during minimization (../min.cpp:168)
Memory usage per processor = 3.35962 Mbytes
Step Temp PotEng Lx Ly Lz 
      11            0   -120.97503    1.1224537    38.929695    1.1224537 
      12            0   -120.97503    1.1224537    38.929695    1.1224537 
Loop time of 3.99683e-05 on 1 procs for 1 steps with 41 atoms

Minimization stats:
  Stopping criterion = linesearch alpha is zero
  Energy initial, next-to-last, final = 
        -120.975028663     -120.975028663     -120.975028663
  Force two-norm initial, final = 2.85476e-17 2.85476e-17
  Force max component initial, final = 2.41777e-17 2.41777e-17
  Final line search alpha, max atom move = 0.5 1.20889e-17
  Iterations, force evaluations = 1 2

Pair  time (%) = 2.68971e-05 (67.296)
Neigh time (%) = 0 (0)
Comm  time (%) = 4.42902e-06 (11.0813)
Outpt time (%) = 0 (0)
Other time (%) = 8.64221e-06 (21.6227)

Nlocal:    41 ave 41 max 41 min
Histogram: 1 0 0 0 0 0 0 0 0 0
Nghost:    185 ave 185 max 185 min
Histogram: 1 0 0 0 0 0 0 0 0 0
Neighs:    359 ave 359 max 359 min
Histogram: 1 0 0 0 0 0 0 0 0 0

Total # of neighbors = 359
Ave neighs/atom = 8.7561
Neighbor list builds = 0
Dangerous builds = 0
	# write_dump all atom ${dumpfile}
        next i
jump SELF loop1
        displace_atoms upper move 0.0 ${ystep1} 0.0 units lattice
        displace_atoms upper move 0.0 0.002 0.0 units lattice
        min_style ${style}
        min_style cg
        minimize ${etol} ${ftol} ${maxiter} ${maxeval}
        minimize 1e-12 ${ftol} ${maxiter} ${maxeval}
        minimize 1e-12 1e-08 ${maxiter} ${maxeval}
        minimize 1e-12 1e-08 10000 ${maxeval}
        minimize 1e-12 1e-08 10000 20000
WARNING: Resetting reneighboring criteria during minimization (../min.cpp:168)
Memory usage per processor = 3.35962 Mbytes
Step Temp PotEng Lx Ly Lz 
      12            0   -120.97011    1.1224537    38.933583    1.1224537 
      13            0   -120.97011    1.1224537    38.933583    1.1224537 
Loop time of 5.70026e-05 on 1 procs for 1 steps with 41 atoms

Minimization stats:
  Stopping criterion = linesearch alpha is zero
  Energy initial, next-to-last, final = 
        -120.970112426     -120.970112426     -120.970112426
  Force two-norm initial, final = 2.25651e-17 2.25651e-17
  Force max component initial, final = 1.66967e-17 1.66967e-17
  Final line search alpha, max atom move = 0.5 8.34836e-18
  Iterations, force evaluations = 1 2

Pair  time (%) = 3.69794e-05 (64.8732)
Neigh time (%) = 0 (0)
Comm  time (%) = 7.10343e-06 (12.4616)
Outpt time (%) = 0 (0)
Other time (%) = 1.29198e-05 (22.6652)

Nlocal:    41 ave 41 max 41 min
Histogram: 1 0 0 0 0 0 0 0 0 0
Nghost:    185 ave 185 max 185 min
Histogram: 1 0 0 0 0 0 0 0 0 0
Neighs:    359 ave 359 max 359 min
Histogram: 1 0 0 0 0 0 0 0 0 0

Total # of neighbors = 359
Ave neighs/atom = 8.7561
Neighbor list builds = 0
Dangerous builds = 0
	# write_dump all atom ${dumpfile}
        next i
jump SELF loop1
        displace_atoms upper move 0.0 ${ystep1} 0.0 units lattice
        displace_atoms upper move 0.0 0.002 0.0 units lattice
        min_style ${style}
        min_style cg
        minimize ${etol} ${ftol} ${maxiter} ${maxeval}
        minimize 1e-12 ${ftol} ${maxiter} ${maxeval}
        minimize 1e-12 1e-08 ${maxiter} ${maxeval}
        minimize 1e-12 1e-08 10000 ${maxeval}
        minimize 1e-12 1e-08 10000 20000
WARNING: Resetting reneighboring criteria during minimization (../min.cpp:168)
Memory usage per processor = 3.35962 Mbytes
Step Temp PotEng Lx Ly Lz 
      13            0   -120.96482    1.1224537    38.937471    1.1224537 
      14            0   -120.96482    1.1224537    38.937471    1.1224537 
Loop time of 9.73232e-07 on 1 procs for 1 steps with 41 atoms

Minimization stats:
  Stopping criterion = linesearch alpha is zero
  Energy initial, next-to-last, final = 
        -120.964815371     -120.964815371     -120.964815371
  Force two-norm initial, final = 1.68277e-17 1.68277e-17
  Force max component initial, final = 1.51788e-17 1.51788e-17
  Final line search alpha, max atom move = 0.5 7.58942e-18
  Iterations, force evaluations = 1 2

Pair  time (%) = -3.39933e-08 (-3.49282)
Neigh time (%) = 0 (0)
Comm  time (%) = 8.85688e-07 (91.0048)
Outpt time (%) = 0 (0)
Other time (%) = 1.21538e-07 (12.488)

Nlocal:    41 ave 41 max 41 min
Histogram: 1 0 0 0 0 0 0 0 0 0
Nghost:    185 ave 185 max 185 min
Histogram: 1 0 0 0 0 0 0 0 0 0
Neighs:    359 ave 359 max 359 min
Histogram: 1 0 0 0 0 0 0 0 0 0

Total # of neighbors = 359
Ave neighs/atom = 8.7561
Neighbor list builds = 0
Dangerous builds = 0
	# write_dump all atom ${dumpfile}
        next i
jump SELF loop1
        displace_atoms upper move 0.0 ${ystep1} 0.0 units lattice
        displace_atoms upper move 0.0 0.002 0.0 units lattice
        min_style ${style}
        min_style cg
        minimize ${etol} ${ftol} ${maxiter} ${maxeval}
        minimize 1e-12 ${ftol} ${maxiter} ${maxeval}
        minimize 1e-12 1e-08 ${maxiter} ${maxeval}
        minimize 1e-12 1e-08 10000 ${maxeval}
        minimize 1e-12 1e-08 10000 20000
WARNING: Resetting reneighboring criteria during minimization (../min.cpp:168)
Memory usage per processor = 3.35962 Mbytes
Step Temp PotEng Lx Ly Lz 
      14            0   -120.95915    1.1224537     38.94136    1.1224537 
      15            0   -120.95915    1.1224537     38.94136    1.1224537 
Loop time of 7.01961e-06 on 1 procs for 1 steps with 41 atoms

Minimization stats:
  Stopping criterion = linesearch alpha is zero
  Energy initial, next-to-last, final = 
        -120.959151201     -120.959151201     -120.959151201
  Force two-norm initial, final = 1.54192e-17 1.54192e-17
  Force max component initial, final = 1.51788e-17 1.51788e-17
  Final line search alpha, max atom move = 0.5 7.58942e-18
  Iterations, force evaluations = 1 2

Pair  time (%) = 5.86733e-08 (0.835849)
Neigh time (%) = 0 (0)
Comm  time (%) = 1.17347e-07 (1.6717)
Outpt time (%) = 0 (0)
Other time (%) = 6.84359e-06 (97.4925)

Nlocal:    41 ave 41 max 41 min
Histogram: 1 0 0 0 0 0 0 0 0 0
Nghost:    185 ave 185 max 185 min
Histogram: 1 0 0 0 0 0 0 0 0 0
Neighs:    359 ave 359 max 359 min
Histogram: 1 0 0 0 0 0 0 0 0 0

Total # of neighbors = 359
Ave neighs/atom = 8.7561
Neighbor list builds = 0
Dangerous builds = 0
	# write_dump all atom ${dumpfile}
        next i
jump SELF loop1
        displace_atoms upper move 0.0 ${ystep1} 0.0 units lattice
        displace_atoms upper move 0.0 0.002 0.0 units lattice
        min_style ${style}
        min_style cg
        minimize ${etol} ${ftol} ${maxiter} ${maxeval}
        minimize 1e-12 ${ftol} ${maxiter} ${maxeval}
        minimize 1e-12 1e-08 ${maxiter} ${maxeval}
        minimize 1e-12 1e-08 10000 ${maxeval}
        minimize 1e-12 1e-08 10000 20000
WARNING: Resetting reneighboring criteria during minimization (../min.cpp:168)
Memory usage per processor = 3.35962 Mbytes
Step Temp PotEng Lx Ly Lz 
      15            0   -120.95313    1.1224537    38.945248    1.1224537 
      16            0   -120.95313    1.1224537    38.945248    1.1224537 
Loop time of 0.000716037 on 1 procs for 1 steps with 41 atoms

Minimization stats:
  Stopping criterion = linesearch alpha is zero
  Energy initial, next-to-last, final = 
        -120.953133304     -120.953133304     -120.953133304
  Force two-norm initial, final = 1.52906e-17 1.52906e-17
  Force max component initial, final = 1.51788e-17 1.51788e-17
  Final line search alpha, max atom move = 0.5 7.58942e-18
  Iterations, force evaluations = 1 2

Pair  time (%) = 0.000598101 (83.5293)
Neigh time (%) = 0 (0)
Comm  time (%) = 5.81167e-05 (8.11644)
Outpt time (%) = 0 (0)
Other time (%) = 5.98197e-05 (8.35427)

Nlocal:    41 ave 41 max 41 min
Histogram: 1 0 0 0 0 0 0 0 0 0
Nghost:    185 ave 185 max 185 min
Histogram: 1 0 0 0 0 0 0 0 0 0
Neighs:    359 ave 359 max 359 min
Histogram: 1 0 0 0 0 0 0 0 0 0

Total # of neighbors = 359
Ave neighs/atom = 8.7561
Neighbor list builds = 0
Dangerous builds = 0
	# write_dump all atom ${dumpfile}
        next i
jump SELF loop1
        displace_atoms upper move 0.0 ${ystep1} 0.0 units lattice
        displace_atoms upper move 0.0 0.002 0.0 units lattice
        min_style ${style}
        min_style cg
        minimize ${etol} ${ftol} ${maxiter} ${maxeval}
        minimize 1e-12 ${ftol} ${maxiter} ${maxeval}
        minimize 1e-12 1e-08 ${maxiter} ${maxeval}
        minimize 1e-12 1e-08 10000 ${maxeval}
        minimize 1e-12 1e-08 10000 20000
WARNING: Resetting reneighboring criteria during minimization (../min.cpp:168)
Memory usage per processor = 3.35962 Mbytes
Step Temp PotEng Lx Ly Lz 
      16            0   -120.94677    1.1224537    38.949136    1.1224537 
      17            0   -120.94677    1.1224537    38.949136    1.1224537 
Loop time of 7.51084e-05 on 1 procs for 1 steps with 41 atoms

Minimization stats:
  Stopping criterion = linesearch alpha is zero
  Energy initial, next-to-last, final = 
        -120.946774753     -120.946774753     -120.946774753
  Force two-norm initial, final = 1.72714e-17 1.72714e-17
  Force max component initial, final = 1.51788e-17 1.51788e-17
  Final line search alpha, max atom move = 0.5 7.58942e-18
  Iterations, force evaluations = 1 2

Pair  time (%) = 3.22493e-05 (42.937)
Neigh time (%) = 0 (0)
Comm  time (%) = 1.51865e-05 (20.2194)
Outpt time (%) = 0 (0)
Other time (%) = 2.76726e-05 (36.8436)

Nlocal:    41 ave 41 max 41 min
Histogram: 1 0 0 0 0 0 0 0 0 0
Nghost:    185 ave 185 max 185 min
Histogram: 1 0 0 0 0 0 0 0 0 0
Neighs:    359 ave 359 max 359 min
Histogram: 1 0 0 0 0 0 0 0 0 0

Total # of neighbors = 359
Ave neighs/atom = 8.7561
Neighbor list builds = 0
Dangerous builds = 0
	# write_dump all atom ${dumpfile}
        next i
jump SELF loop1
        displace_atoms upper move 0.0 ${ystep1} 0.0 units lattice
        displace_atoms upper move 0.0 0.002 0.0 units lattice
        min_style ${style}
        min_style cg
        minimize ${etol} ${ftol} ${maxiter} ${maxeval}
        minimize 1e-12 ${ftol} ${maxiter} ${maxeval}
        minimize 1e-12 1e-08 ${maxiter} ${maxeval}
        minimize 1e-12 1e-08 10000 ${maxeval}
        minimize 1e-12 1e-08 10000 20000
WARNING: Resetting reneighboring criteria during minimization (../min.cpp:168)
Memory usage per processor = 3.35962 Mbytes
Step Temp PotEng Lx Ly Lz 
      17            0   -120.94009    1.1224537    38.953025    1.1224537 
      18            0   -120.94009    1.1224537    38.953025    1.1224537 
Loop time of 4.00951e-05 on 1 procs for 1 steps with 41 atoms

Minimization stats:
  Stopping criterion = linesearch alpha is zero
  Energy initial, next-to-last, final = 
        -120.940088362     -120.940088362     -120.940088362
  Force two-norm initial, final = 2.1775e-17 2.1775e-17
  Force max component initial, final = 1.56125e-17 1.56125e-17
  Final line search alpha, max atom move = 0.5 7.80626e-18
  Iterations, force evaluations = 1 2

Pair  time (%) = 2.51316e-05 (62.6801)
Neigh time (%) = 0 (0)
Comm  time (%) = 4.80562e-06 (11.9856)
Outpt time (%) = 0 (0)
Other time (%) = 1.01578e-05 (25.3343)

Nlocal:    41 ave 41 max 41 min
Histogram: 1 0 0 0 0 0 0 0 0 0
Nghost:    185 ave 185 max 185 min
Histogram: 1 0 0 0 0 0 0 0 0 0
Neighs:    359 ave 359 max 359 min
Histogram: 1 0 0 0 0 0 0 0 0 0

Total # of neighbors = 359
Ave neighs/atom = 8.7561
Neighbor list builds = 0
Dangerous builds = 0
	# write_dump all atom ${dumpfile}
        next i
jump SELF loop1
        displace_atoms upper move 0.0 ${ystep1} 0.0 units lattice
        displace_atoms upper move 0.0 0.002 0.0 units lattice
        min_style ${style}
        min_style cg
        minimize ${etol} ${ftol} ${maxiter} ${maxeval}
        minimize 1e-12 ${ftol} ${maxiter} ${maxeval}
        minimize 1e-12 1e-08 ${maxiter} ${maxeval}
        minimize 1e-12 1e-08 10000 ${maxeval}
        minimize 1e-12 1e-08 10000 20000
WARNING: Resetting reneighboring criteria during minimization (../min.cpp:168)
Memory usage per processor = 3.35962 Mbytes
Step Temp PotEng Lx Ly Lz 
      18            0   -120.93312    1.1224537    38.956913    1.1224537 
      19            0   -120.93312    1.1224537    38.956913    1.1224537 
Loop time of 4.00096e-05 on 1 procs for 1 steps with 41 atoms

Minimization stats:
  Stopping criterion = linesearch alpha is zero
  Energy initial, next-to-last, final = 
        -120.933115375     -120.933115375     -120.933115375
  Force two-norm initial, final = 1.55123e-17 1.55123e-17
  Force max component initial, final = 1.51788e-17 1.51788e-17
  Final line search alpha, max atom move = 0.5 7.58942e-18
  Iterations, force evaluations = 1 2

Pair  time (%) = 2.47824e-05 (61.941)
Neigh time (%) = 0 (0)
Comm  time (%) = 4.10702e-06 (10.2651)
Outpt time (%) = 0 (0)
Other time (%) = 1.11202e-05 (27.7939)

Nlocal:    41 ave 41 max 41 min
Histogram: 1 0 0 0 0 0 0 0 0 0
Nghost:    185 ave 185 max 185 min
Histogram: 1 0 0 0 0 0 0 0 0 0
Neighs:    355 ave 355 max 355 min
Histogram: 1 0 0 0 0 0 0 0 0 0

Total # of neighbors = 355
Ave neighs/atom = 8.65854
Neighbor list builds = 0
Dangerous builds = 0
	# write_dump all atom ${dumpfile}
        next i
jump SELF loop1
        displace_atoms upper move 0.0 ${ystep1} 0.0 units lattice
        displace_atoms upper move 0.0 0.002 0.0 units lattice
        min_style ${style}
        min_style cg
        minimize ${etol} ${ftol} ${maxiter} ${maxeval}
        minimize 1e-12 ${ftol} ${maxiter} ${maxeval}
        minimize 1e-12 1e-08 ${maxiter} ${maxeval}
        minimize 1e-12 1e-08 10000 ${maxeval}
        minimize 1e-12 1e-08 10000 20000
WARNING: Resetting reneighboring criteria during minimization (../min.cpp:168)
Memory usage per processor = 3.35962 Mbytes
Step Temp PotEng Lx Ly Lz 
      19            0   -120.92606    1.1224537    38.960801    1.1224537 
      20            0   -120.92606    1.1224537    38.960801    1.1224537 
Loop time of 4.80439e-05 on 1 procs for 1 steps with 41 atoms

Minimization stats:
  Stopping criterion = linesearch alpha is zero
  Energy initial, next-to-last, final = 
        -120.926058503     -120.926058503     -120.926058503
  Force two-norm initial, final = 1.66008e-17 1.66008e-17
  Force max component initial, final = 1.51788e-17 1.51788e-17
  Final line search alpha, max atom move = 0.5 7.58942e-18
  Iterations, force evaluations = 1 2

Pair  time (%) = 3.31564e-05 (69.0126)
Neigh time (%) = 0 (0)
Comm  time (%) = 5.03368e-06 (10.4773)
Outpt time (%) = 0 (0)
Other time (%) = 9.85386e-06 (20.5101)

Nlocal:    41 ave 41 max 41 min
Histogram: 1 0 0 0 0 0 0 0 0 0
Nghost:    185 ave 185 max 185 min
Histogram: 1 0 0 0 0 0 0 0 0 0
Neighs:    355 ave 355 max 355 min
Histogram: 1 0 0 0 0 0 0 0 0 0

Total # of neighbors = 355
Ave neighs/atom = 8.65854
Neighbor list builds = 0
Dangerous builds = 0
	# write_dump all atom ${dumpfile}
        next i
jump SELF loop1
        displace_atoms upper move 0.0 ${ystep1} 0.0 units lattice
        displace_atoms upper move 0.0 0.002 0.0 units lattice
        min_style ${style}
        min_style cg
        minimize ${etol} ${ftol} ${maxiter} ${maxeval}
        minimize 1e-12 ${ftol} ${maxiter} ${maxeval}
        minimize 1e-12 1e-08 ${maxiter} ${maxeval}
        minimize 1e-12 1e-08 10000 ${maxeval}
        minimize 1e-12 1e-08 10000 20000
WARNING: Resetting reneighboring criteria during minimization (../min.cpp:168)
Memory usage per processor = 3.35962 Mbytes
Step Temp PotEng Lx Ly Lz 
      20            0   -120.91896    1.1224537    38.964689    1.1224537 
      21            0   -120.91896    1.1224537    38.964689    1.1224537 
Loop time of 3.9947e-05 on 1 procs for 1 steps with 41 atoms

Minimization stats:
  Stopping criterion = linesearch alpha is zero
  Energy initial, next-to-last, final = 
        -120.918956975     -120.918956975     -120.918956975
  Force two-norm initial, final = 1.82831e-17 1.82831e-17
  Force max component initial, final = 1.51788e-17 1.51788e-17
  Final line search alpha, max atom move = 0.5 7.58942e-18
  Iterations, force evaluations = 1 2

Pair  time (%) = 2.57798e-05 (64.5351)
Neigh time (%) = 0 (0)
Comm  time (%) = 3.14845e-06 (7.88158)
Outpt time (%) = 0 (0)
Other time (%) = 1.10187e-05 (27.5833)

Nlocal:    41 ave 41 max 41 min
Histogram: 1 0 0 0 0 0 0 0 0 0
Nghost:    185 ave 185 max 185 min
Histogram: 1 0 0 0 0 0 0 0 0 0
Neighs:    355 ave 355 max 355 min
Histogram: 1 0 0 0 0 0 0 0 0 0

Total # of neighbors = 355
Ave neighs/atom = 8.65854
Neighbor list builds = 0
Dangerous builds = 0
	# write_dump all atom ${dumpfile}
        next i
jump SELF loop1
        displace_atoms upper move 0.0 ${ystep1} 0.0 units lattice
        displace_atoms upper move 0.0 0.002 0.0 units lattice
        min_style ${style}
        min_style cg
        minimize ${etol} ${ftol} ${maxiter} ${maxeval}
        minimize 1e-12 ${ftol} ${maxiter} ${maxeval}
        minimize 1e-12 1e-08 ${maxiter} ${maxeval}
        minimize 1e-12 1e-08 10000 ${maxeval}
        minimize 1e-12 1e-08 10000 20000
WARNING: Resetting reneighboring criteria during minimization (../min.cpp:168)
Memory usage per processor = 3.35962 Mbytes
Step Temp PotEng Lx Ly Lz 
      21            0   -120.91181    1.1224537    38.968578    1.1224537 
      22            0   -120.91181    1.1224537    38.968578    1.1224537 
Loop time of 3.79565e-05 on 1 procs for 1 steps with 41 atoms

Minimization stats:
  Stopping criterion = linesearch alpha is zero
  Energy initial, next-to-last, final = 
        -120.911810265     -120.911810265     -120.911810265
  Force two-norm initial, final = 2.67807e-17 2.67807e-17
  Force max component initial, final = 2.20635e-17 2.20635e-17
  Final line search alpha, max atom move = 0.5 1.10318e-17
  Iterations, force evaluations = 1 2

Pair  time (%) = 2.71e-05 (71.3974)
Neigh time (%) = 0 (0)
Comm  time (%) = 4.35812e-06 (11.4819)
Outpt time (%) = 0 (0)
Other time (%) = 6.49842e-06 (17.1207)

Nlocal:    41 ave 41 max 41 min
Histogram: 1 0 0 0 0 0 0 0 0 0
Nghost:    185 ave 185 max 185 min
Histogram: 1 0 0 0 0 0 0 0 0 0
Neighs:    355 ave 355 max 355 min
Histogram: 1 0 0 0 0 0 0 0 0 0

Total # of neighbors = 355
Ave neighs/atom = 8.65854
Neighbor list builds = 0
Dangerous builds = 0
	# write_dump all atom ${dumpfile}
        next i
jump SELF loop1
        displace_atoms upper move 0.0 ${ystep1} 0.0 units lattice
        displace_atoms upper move 0.0 0.002 0.0 units lattice
        min_style ${style}
        min_style cg
        minimize ${etol} ${ftol} ${maxiter} ${maxeval}
        minimize 1e-12 ${ftol} ${maxiter} ${maxeval}
        minimize 1e-12 1e-08 ${maxiter} ${maxeval}
        minimize 1e-12 1e-08 10000 ${maxeval}
        minimize 1e-12 1e-08 10000 20000
WARNING: Resetting reneighboring criteria during minimization (../min.cpp:168)
Memory usage per processor = 3.35962 Mbytes
Step Temp PotEng Lx Ly Lz 
      22            0   -120.90462    1.1224537    38.972466    1.1224537 
      23            0   -120.90462    1.1224537    38.972466    1.1224537 
Loop time of 3.8974e-05 on 1 procs for 1 steps with 41 atoms

Minimization stats:
  Stopping criterion = linesearch alpha is zero
  Energy initial, next-to-last, final = 
        -120.904617907     -120.904617907     -120.904617907
  Force two-norm initial, final = 3.05941e-17 3.05941e-17
  Force max component initial, final = 2.6563e-17 2.6563e-17
  Final line search alpha, max atom move = 0.5 1.32815e-17
  Iterations, force evaluations = 1 2

Pair  time (%) = 2.49074e-05 (63.9078)
Neigh time (%) = 0 (0)
Comm  time (%) = 3.0722e-06 (7.88269)
Outpt time (%) = 0 (0)
Other time (%) = 1.09944e-05 (28.2095)

Nlocal:    41 ave 41 max 41 min
Histogram: 1 0 0 0 0 0 0 0 0 0
Nghost:    185 ave 185 max 185 min
Histogram: 1 0 0 0 0 0 0 0 0 0
Neighs:    355 ave 355 max 355 min
Histogram: 1 0 0 0 0 0 0 0 0 0

Total # of neighbors = 355
Ave neighs/atom = 8.65854
Neighbor list builds = 0
Dangerous builds = 0
	# write_dump all atom ${dumpfile}
        next i
jump SELF loop1
        displace_atoms upper move 0.0 ${ystep1} 0.0 units lattice
        displace_atoms upper move 0.0 0.002 0.0 units lattice
        min_style ${style}
        min_style cg
        minimize ${etol} ${ftol} ${maxiter} ${maxeval}
        minimize 1e-12 ${ftol} ${maxiter} ${maxeval}
        minimize 1e-12 1e-08 ${maxiter} ${maxeval}
        minimize 1e-12 1e-08 10000 ${maxeval}
        minimize 1e-12 1e-08 10000 20000
WARNING: Resetting reneighboring criteria during minimization (../min.cpp:168)
Memory usage per processor = 3.35962 Mbytes
Step Temp PotEng Lx Ly Lz 
      23            0   -120.89738    1.1224537    38.976354    1.1224537 
      24            0   -120.89738    1.1224537    38.976354    1.1224537 
Loop time of 3.79321e-05 on 1 procs for 1 steps with 41 atoms

Minimization stats:
  Stopping criterion = linesearch alpha is zero
  Energy initial, next-to-last, final = 
        -120.897379277     -120.897379277     -120.897379277
  Force two-norm initial, final = 1.59111e-17 1.59111e-17
  Force max component initial, final = 1.51788e-17 1.51788e-17
  Final line search alpha, max atom move = 0.5 7.58942e-18
  Iterations, force evaluations = 1 2

Pair  time (%) = 2.72651e-05 (71.8786)
Neigh time (%) = 0 (0)
Comm  time (%) = 4.21132e-06 (11.1023)
Outpt time (%) = 0 (0)
Other time (%) = 6.4557e-06 (17.0191)

Nlocal:    41 ave 41 max 41 min
Histogram: 1 0 0 0 0 0 0 0 0 0
Nghost:    185 ave 185 max 185 min
Histogram: 1 0 0 0 0 0 0 0 0 0
Neighs:    355 ave 355 max 355 min
Histogram: 1 0 0 0 0 0 0 0 0 0

Total # of neighbors = 355
Ave neighs/atom = 8.65854
Neighbor list builds = 0
Dangerous builds = 0
	# write_dump all atom ${dumpfile}
        next i
jump SELF loop1
        displace_atoms upper move 0.0 ${ystep1} 0.0 units lattice
        displace_atoms upper move 0.0 0.002 0.0 units lattice
        min_style ${style}
        min_style cg
        minimize ${etol} ${ftol} ${maxiter} ${maxeval}
        minimize 1e-12 ${ftol} ${maxiter} ${maxeval}
        minimize 1e-12 1e-08 ${maxiter} ${maxeval}
        minimize 1e-12 1e-08 10000 ${maxeval}
        minimize 1e-12 1e-08 10000 20000
WARNING: Resetting reneighboring criteria during minimization (../min.cpp:168)
Memory usage per processor = 3.35962 Mbytes
Step Temp PotEng Lx Ly Lz 
      24            0   -120.89009    1.1224537    38.980243    1.1224537 
      25            0   -120.89009    1.1224537    38.980243    1.1224537 
Loop time of 4.00784e-05 on 1 procs for 1 steps with 41 atoms

Minimization stats:
  Stopping criterion = linesearch alpha is zero
  Energy initial, next-to-last, final = 
        -120.890093964     -120.890093964     -120.890093964
  Force two-norm initial, final = 1.58789e-17 1.58789e-17
  Force max component initial, final = 1.51788e-17 1.51788e-17
  Final line search alpha, max atom move = 0.5 7.58942e-18
  Iterations, force evaluations = 1 2

Pair  time (%) = 2.60354e-05 (64.961)
Neigh time (%) = 0 (0)
Comm  time (%) = 3.65917e-06 (9.13002)
Outpt time (%) = 0 (0)
Other time (%) = 1.03839e-05 (25.9089)

Nlocal:    41 ave 41 max 41 min
Histogram: 1 0 0 0 0 0 0 0 0 0
Nghost:    185 ave 185 max 185 min
Histogram: 1 0 0 0 0 0 0 0 0 0
Neighs:    355 ave 355 max 355 min
Histogram: 1 0 0 0 0 0 0 0 0 0

Total # of neighbors = 355
Ave neighs/atom = 8.65854
Neighbor list builds = 0
Dangerous builds = 0
	# write_dump all atom ${dumpfile}
        next i
jump SELF loop1
        displace_atoms upper move 0.0 ${ystep1} 0.0 units lattice
        displace_atoms upper move 0.0 0.002 0.0 units lattice
        min_style ${style}
        min_style cg
        minimize ${etol} ${ftol} ${maxiter} ${maxeval}
        minimize 1e-12 ${ftol} ${maxiter} ${maxeval}
        minimize 1e-12 1e-08 ${maxiter} ${maxeval}
        minimize 1e-12 1e-08 10000 ${maxeval}
        minimize 1e-12 1e-08 10000 20000
WARNING: Resetting reneighboring criteria during minimization (../min.cpp:168)
Memory usage per processor = 3.35962 Mbytes
Step Temp PotEng Lx Ly Lz 
      25            0   -120.88276    1.1224537    38.984131    1.1224537 
      26            0   -120.88276    1.1224537    38.984131    1.1224537 
Loop time of 4.00528e-05 on 1 procs for 1 steps with 41 atoms

Minimization stats:
  Stopping criterion = linesearch alpha is zero
  Energy initial, next-to-last, final = 
        -120.882761433     -120.882761433     -120.882761433
  Force two-norm initial, final = 2.05304e-17 2.05304e-17
  Force max component initial, final = 1.51788e-17 1.51788e-17
  Final line search alpha, max atom move = 0.5 7.58942e-18
  Iterations, force evaluations = 1 2

Pair  time (%) = 2.60047e-05 (64.9261)
Neigh time (%) = 0 (0)
Comm  time (%) = 2.64437e-06 (6.60222)
Outpt time (%) = 0 (0)
Other time (%) = 1.14037e-05 (28.4717)

Nlocal:    41 ave 41 max 41 min
Histogram: 1 0 0 0 0 0 0 0 0 0
Nghost:    185 ave 185 max 185 min
Histogram: 1 0 0 0 0 0 0 0 0 0
Neighs:    355 ave 355 max 355 min
Histogram: 1 0 0 0 0 0 0 0 0 0

Total # of neighbors = 355
Ave neighs/atom = 8.65854
Neighbor list builds = 0
Dangerous builds = 0
	# write_dump all atom ${dumpfile}
        next i
jump SELF loop1
        displace_atoms upper move 0.0 ${ystep1} 0.0 units lattice
        displace_atoms upper move 0.0 0.002 0.0 units lattice
        min_style ${style}
        min_style cg
        minimize ${etol} ${ftol} ${maxiter} ${maxeval}
        minimize 1e-12 ${ftol} ${maxiter} ${maxeval}
        minimize 1e-12 1e-08 ${maxiter} ${maxeval}
        minimize 1e-12 1e-08 10000 ${maxeval}
        minimize 1e-12 1e-08 10000 20000
WARNING: Resetting reneighboring criteria during minimization (../min.cpp:168)
Memory usage per processor = 3.35962 Mbytes
Step Temp PotEng Lx Ly Lz 
      26            0   -120.87538    1.1224537    38.988019    1.1224537 
      27            0   -120.87538    1.1224537    38.988019    1.1224537 
Loop time of 4.00498e-05 on 1 procs for 1 steps with 41 atoms

Minimization stats:
  Stopping criterion = linesearch alpha is zero
  Energy initial, next-to-last, final = 
        -120.875381197     -120.875381197     -120.875381197
  Force two-norm initial, final = 4.16769e-17 4.16769e-17
  Force max component initial, final = 3.88144e-17 3.88144e-17
  Final line search alpha, max atom move = 0.5 1.94072e-17
  Iterations, force evaluations = 1 2

Pair  time (%) = 2.6903e-05 (67.1739)
Neigh time (%) = 0 (0)
Comm  time (%) = 3.72576e-06 (9.30281)
Outpt time (%) = 0 (0)
Other time (%) = 9.42103e-06 (23.5233)

Nlocal:    41 ave 41 max 41 min
Histogram: 1 0 0 0 0 0 0 0 0 0
Nghost:    185 ave 185 max 185 min
Histogram: 1 0 0 0 0 0 0 0 0 0
Neighs:    355 ave 355 max 355 min
Histogram: 1 0 0 0 0 0 0 0 0 0

Total # of neighbors = 355
Ave neighs/atom = 8.65854
Neighbor list builds = 0
Dangerous builds = 0
	# write_dump all atom ${dumpfile}
        next i
jump SELF loop1
        displace_atoms upper move 0.0 ${ystep1} 0.0 units lattice
        displace_atoms upper move 0.0 0.002 0.0 units lattice
        min_style ${style}
        min_style cg
        minimize ${etol} ${ftol} ${maxiter} ${maxeval}
        minimize 1e-12 ${ftol} ${maxiter} ${maxeval}
        minimize 1e-12 1e-08 ${maxiter} ${maxeval}
        minimize 1e-12 1e-08 10000 ${maxeval}
        minimize 1e-12 1e-08 10000 20000
WARNING: Resetting reneighboring criteria during minimization (../min.cpp:168)
Memory usage per processor = 3.35962 Mbytes
Step Temp PotEng Lx Ly Lz 
      27            0   -120.86795    1.1224537    38.991908    1.1224537 
      28            0   -120.86795    1.1224537    38.991908    1.1224537 
Loop time of 4.09463e-05 on 1 procs for 1 steps with 41 atoms

Minimization stats:
  Stopping criterion = linesearch alpha is zero
  Energy initial, next-to-last, final = 
        -120.867952764     -120.867952764     -120.867952764
  Force two-norm initial, final = 6.30095e-17 6.30095e-17
  Force max component initial, final = 4.84096e-17 4.84096e-17
  Final line search alpha, max atom move = 0.5 2.42048e-17
  Iterations, force evaluations = 1 2

Pair  time (%) = 2.47315e-05 (60.3999)
Neigh time (%) = 0 (0)
Comm  time (%) = 3.4821e-06 (8.50406)
Outpt time (%) = 0 (0)
Other time (%) = 1.27327e-05 (31.0961)

Nlocal:    41 ave 41 max 41 min
Histogram: 1 0 0 0 0 0 0 0 0 0
Nghost:    185 ave 185 max 185 min
Histogram: 1 0 0 0 0 0 0 0 0 0
Neighs:    355 ave 355 max 355 min
Histogram: 1 0 0 0 0 0 0 0 0 0

Total # of neighbors = 355
Ave neighs/atom = 8.65854
Neighbor list builds = 0
Dangerous builds = 0
	# write_dump all atom ${dumpfile}
        next i
jump SELF loop1
        displace_atoms upper move 0.0 ${ystep1} 0.0 units lattice
        displace_atoms upper move 0.0 0.002 0.0 units lattice
        min_style ${style}
        min_style cg
        minimize ${etol} ${ftol} ${maxiter} ${maxeval}
        minimize 1e-12 ${ftol} ${maxiter} ${maxeval}
        minimize 1e-12 1e-08 ${maxiter} ${maxeval}
        minimize 1e-12 1e-08 10000 ${maxeval}
        minimize 1e-12 1e-08 10000 20000
WARNING: Resetting reneighboring criteria during minimization (../min.cpp:168)
Memory usage per processor = 3.35962 Mbytes
Step Temp PotEng Lx Ly Lz 
      28            0   -120.86048    1.1224537    38.995796    1.1224537 
      29            0   -120.86048    1.1224537    38.995796    1.1224537 
Loop time of 3.98811e-05 on 1 procs for 1 steps with 41 atoms

Minimization stats:
  Stopping criterion = linesearch alpha is zero
  Energy initial, next-to-last, final = 
        -120.860475447     -120.860475447     -120.860475447
  Force two-norm initial, final = 4.5792e-17 4.5792e-17
  Force max component initial, final = 4.03323e-17 4.03323e-17
  Final line search alpha, max atom move = 0.5 2.01662e-17
  Iterations, force evaluations = 1 2

Pair  time (%) = 2.42513e-05 (60.809)
Neigh time (%) = 0 (0)
Comm  time (%) = 3.04473e-06 (7.63451)
Outpt time (%) = 0 (0)
Other time (%) = 1.25851e-05 (31.5565)

Nlocal:    41 ave 41 max 41 min
Histogram: 1 0 0 0 0 0 0 0 0 0
Nghost:    185 ave 185 max 185 min
Histogram: 1 0 0 0 0 0 0 0 0 0
Neighs:    355 ave 355 max 355 min
Histogram: 1 0 0 0 0 0 0 0 0 0

Total # of neighbors = 355
Ave neighs/atom = 8.65854
Neighbor list builds = 0
Dangerous builds = 0
	# write_dump all atom ${dumpfile}
        next i
jump SELF loop1
        displace_atoms upper move 0.0 ${ystep1} 0.0 units lattice
        displace_atoms upper move 0.0 0.002 0.0 units lattice
        min_style ${style}
        min_style cg
        minimize ${etol} ${ftol} ${maxiter} ${maxeval}
        minimize 1e-12 ${ftol} ${maxiter} ${maxeval}
        minimize 1e-12 1e-08 ${maxiter} ${maxeval}
        minimize 1e-12 1e-08 10000 ${maxeval}
        minimize 1e-12 1e-08 10000 20000
WARNING: Resetting reneighboring criteria during minimization (../min.cpp:168)
Memory usage per processor = 3.35962 Mbytes
Step Temp PotEng Lx Ly Lz 
      29            0   -120.85295    1.1224537    38.999684    1.1224537 
      30            0   -120.85295    1.1224537    38.999684    1.1224537 
Loop time of 5.3036e-05 on 1 procs for 1 steps with 41 atoms

Minimization stats:
  Stopping criterion = linesearch alpha is zero
  Energy initial, next-to-last, final = 
        -120.852948884     -120.852948884     -120.852948884
  Force two-norm initial, final = 4.17085e-17 4.17085e-17
  Force max component initial, final = 4.03323e-17 4.03323e-17
  Final line search alpha, max atom move = 0.5 2.01662e-17
  Iterations, force evaluations = 1 2

Pair  time (%) = 3.49405e-05 (65.8808)
Neigh time (%) = 0 (0)
Comm  time (%) = 3.93309e-06 (7.41589)
Outpt time (%) = 0 (0)
Other time (%) = 1.41624e-05 (26.7033)

Nlocal:    41 ave 41 max 41 min
Histogram: 1 0 0 0 0 0 0 0 0 0
Nghost:    185 ave 185 max 185 min
Histogram: 1 0 0 0 0 0 0 0 0 0
Neighs:    355 ave 355 max 355 min
Histogram: 1 0 0 0 0 0 0 0 0 0

Total # of neighbors = 355
Ave neighs/atom = 8.65854
Neighbor list builds = 0
Dangerous builds = 0
	# write_dump all atom ${dumpfile}
        next i
jump SELF loop1
        displace_atoms upper move 0.0 ${ystep1} 0.0 units lattice
        displace_atoms upper move 0.0 0.002 0.0 units lattice
        min_style ${style}
        min_style cg
        minimize ${etol} ${ftol} ${maxiter} ${maxeval}
        minimize 1e-12 ${ftol} ${maxiter} ${maxeval}
        minimize 1e-12 1e-08 ${maxiter} ${maxeval}
        minimize 1e-12 1e-08 10000 ${maxeval}
        minimize 1e-12 1e-08 10000 20000
WARNING: Resetting reneighboring criteria during minimization (../min.cpp:168)
Memory usage per processor = 3.35962 Mbytes
Step Temp PotEng Lx Ly Lz 
      30            0   -120.84537    1.1224537    39.003572    1.1224537 
      31            0   -120.84537    1.1224537    39.003572    1.1224537 
Loop time of 3.99041e-05 on 1 procs for 1 steps with 41 atoms

Minimization stats:
  Stopping criterion = linesearch alpha is zero
  Energy initial, next-to-last, final = 
         -120.84537257      -120.84537257      -120.84537257
  Force two-norm initial, final = 5.01243e-17 5.01243e-17
  Force max component initial, final = 4.03323e-17 4.03323e-17
  Final line search alpha, max atom move = 0.5 2.01662e-17
  Iterations, force evaluations = 1 2

Pair  time (%) = 2.61812e-05 (65.6103)
Neigh time (%) = 0 (0)
Comm  time (%) = 4.99736e-06 (12.5234)
Outpt time (%) = 0 (0)
Other time (%) = 8.72556e-06 (21.8663)

Nlocal:    41 ave 41 max 41 min
Histogram: 1 0 0 0 0 0 0 0 0 0
Nghost:    185 ave 185 max 185 min
Histogram: 1 0 0 0 0 0 0 0 0 0
Neighs:    355 ave 355 max 355 min
Histogram: 1 0 0 0 0 0 0 0 0 0

Total # of neighbors = 355
Ave neighs/atom = 8.65854
Neighbor list builds = 0
Dangerous builds = 0
	# write_dump all atom ${dumpfile}
        next i
jump SELF loop1
        displace_atoms upper move 0.0 ${ystep1} 0.0 units lattice
        displace_atoms upper move 0.0 0.002 0.0 units lattice
        min_style ${style}
        min_style cg
        minimize ${etol} ${ftol} ${maxiter} ${maxeval}
        minimize 1e-12 ${ftol} ${maxiter} ${maxeval}
        minimize 1e-12 1e-08 ${maxiter} ${maxeval}
        minimize 1e-12 1e-08 10000 ${maxeval}
        minimize 1e-12 1e-08 10000 20000
WARNING: Resetting reneighboring criteria during minimization (../min.cpp:168)
Memory usage per processor = 3.35962 Mbytes
Step Temp PotEng Lx Ly Lz 
      31            0   -120.83775    1.1224537    39.007461    1.1224537 
      32            0   -120.83775    1.1224537    39.007461    1.1224537 
Loop time of 4.0031e-05 on 1 procs for 1 steps with 41 atoms

Minimization stats:
  Stopping criterion = linesearch alpha is zero
  Energy initial, next-to-last, final = 
        -120.837745864     -120.837745864     -120.837745864
  Force two-norm initial, final = 4.18644e-17 4.18644e-17
  Force max component initial, final = 4.03323e-17 4.03323e-17
  Final line search alpha, max atom move = 0.5 2.01662e-17
  Iterations, force evaluations = 1 2

Pair  time (%) = 2.59393e-05 (64.798)
Neigh time (%) = 0 (0)
Comm  time (%) = 1.79838e-06 (4.49247)
Outpt time (%) = 0 (0)
Other time (%) = 1.22933e-05 (30.7095)

Nlocal:    41 ave 41 max 41 min
Histogram: 1 0 0 0 0 0 0 0 0 0
Nghost:    185 ave 185 max 185 min
Histogram: 1 0 0 0 0 0 0 0 0 0
Neighs:    355 ave 355 max 355 min
Histogram: 1 0 0 0 0 0 0 0 0 0

Total # of neighbors = 355
Ave neighs/atom = 8.65854
Neighbor list builds = 0
Dangerous builds = 0
	# write_dump all atom ${dumpfile}
        next i
jump SELF loop1
        displace_atoms upper move 0.0 ${ystep1} 0.0 units lattice
        displace_atoms upper move 0.0 0.002 0.0 units lattice
        min_style ${style}
        min_style cg
        minimize ${etol} ${ftol} ${maxiter} ${maxeval}
        minimize 1e-12 ${ftol} ${maxiter} ${maxeval}
        minimize 1e-12 1e-08 ${maxiter} ${maxeval}
        minimize 1e-12 1e-08 10000 ${maxeval}
        minimize 1e-12 1e-08 10000 20000
WARNING: Resetting reneighboring criteria during minimization (../min.cpp:168)
Memory usage per processor = 3.35962 Mbytes
Step Temp PotEng Lx Ly Lz 
      32            0   -120.83007    1.1224537    39.011349    1.1224537 
      33            0   -120.83007    1.1224537    39.011349    1.1224537 
Loop time of 4.18868e-05 on 1 procs for 1 steps with 41 atoms

Minimization stats:
  Stopping criterion = linesearch alpha is zero
  Energy initial, next-to-last, final = 
         -120.83006831      -120.83006831      -120.83006831
  Force two-norm initial, final = 4.17643e-17 4.17643e-17
  Force max component initial, final = 4.03323e-17 4.03323e-17
  Final line search alpha, max atom move = 0.5 2.01662e-17
  Iterations, force evaluations = 1 2

Pair  time (%) = 2.49306e-05 (59.5189)
Neigh time (%) = 0 (0)
Comm  time (%) = 4.35708e-06 (10.402)
Outpt time (%) = 0 (0)
Other time (%) = 1.25992e-05 (30.0791)

Nlocal:    41 ave 41 max 41 min
Histogram: 1 0 0 0 0 0 0 0 0 0
Nghost:    185 ave 185 max 185 min
Histogram: 1 0 0 0 0 0 0 0 0 0
Neighs:    355 ave 355 max 355 min
Histogram: 1 0 0 0 0 0 0 0 0 0

Total # of neighbors = 355
Ave neighs/atom = 8.65854
Neighbor list builds = 0
Dangerous builds = 0
	# write_dump all atom ${dumpfile}
        next i
jump SELF loop1
        displace_atoms upper move 0.0 ${ystep1} 0.0 units lattice
        displace_atoms upper move 0.0 0.002 0.0 units lattice
        min_style ${style}
        min_style cg
        minimize ${etol} ${ftol} ${maxiter} ${maxeval}
        minimize 1e-12 ${ftol} ${maxiter} ${maxeval}
        minimize 1e-12 1e-08 ${maxiter} ${maxeval}
        minimize 1e-12 1e-08 10000 ${maxeval}
        minimize 1e-12 1e-08 10000 20000
WARNING: Resetting reneighboring criteria during minimization (../min.cpp:168)
Memory usage per processor = 3.35962 Mbytes
Step Temp PotEng Lx Ly Lz 
      33            0   -120.82234    1.1224537    39.015237    1.1224537 
      34            0   -120.82234    1.1224537    39.015237    1.1224537 
Loop time of 4.10125e-05 on 1 procs for 1 steps with 41 atoms

Minimization stats:
  Stopping criterion = linesearch alpha is zero
  Energy initial, next-to-last, final = 
        -120.822339452     -120.822339452     -120.822339452
  Force two-norm initial, final = 5.4677e-17 5.4677e-17
  Force max component initial, final = 4.03323e-17 4.03323e-17
  Final line search alpha, max atom move = 0.5 2.01662e-17
  Iterations, force evaluations = 1 2

Pair  time (%) = 2.49302e-05 (60.7868)
Neigh time (%) = 0 (0)
Comm  time (%) = 2.68756e-06 (6.55303)
Outpt time (%) = 0 (0)
Other time (%) = 1.33947e-05 (32.6601)

Nlocal:    41 ave 41 max 41 min
Histogram: 1 0 0 0 0 0 0 0 0 0
Nghost:    185 ave 185 max 185 min
Histogram: 1 0 0 0 0 0 0 0 0 0
Neighs:    355 ave 355 max 355 min
Histogram: 1 0 0 0 0 0 0 0 0 0

Total # of neighbors = 355
Ave neighs/atom = 8.65854
Neighbor list builds = 0
Dangerous builds = 0
	# write_dump all atom ${dumpfile}
        next i
jump SELF loop1
        displace_atoms upper move 0.0 ${ystep1} 0.0 units lattice
        displace_atoms upper move 0.0 0.002 0.0 units lattice
        min_style ${style}
        min_style cg
        minimize ${etol} ${ftol} ${maxiter} ${maxeval}
        minimize 1e-12 ${ftol} ${maxiter} ${maxeval}
        minimize 1e-12 1e-08 ${maxiter} ${maxeval}
        minimize 1e-12 1e-08 10000 ${maxeval}
        minimize 1e-12 1e-08 10000 20000
WARNING: Resetting reneighboring criteria during minimization (../min.cpp:168)
Memory usage per processor = 3.35962 Mbytes
Step Temp PotEng Lx Ly Lz 
      34            0   -120.81456    1.1224537    39.019126    1.1224537 
      35            0   -120.81456    1.1224537    39.019126    1.1224537 
Loop time of 4.10117e-05 on 1 procs for 1 steps with 41 atoms

Minimization stats:
  Stopping criterion = linesearch alpha is zero
  Energy initial, next-to-last, final = 
        -120.814558569     -120.814558569     -120.814558569
  Force two-norm initial, final = 5.89863e-17 5.89863e-17
  Force max component initial, final = 4.30428e-17 4.30428e-17
  Final line search alpha, max atom move = 0.5 2.15214e-17
  Iterations, force evaluations = 1 2

Pair  time (%) = 2.49277e-05 (60.7818)
Neigh time (%) = 0 (0)
Comm  time (%) = 2.87441e-06 (7.00875)
Outpt time (%) = 0 (0)
Other time (%) = 1.32096e-05 (32.2094)

Nlocal:    41 ave 41 max 41 min
Histogram: 1 0 0 0 0 0 0 0 0 0
Nghost:    185 ave 185 max 185 min
Histogram: 1 0 0 0 0 0 0 0 0 0
Neighs:    355 ave 355 max 355 min
Histogram: 1 0 0 0 0 0 0 0 0 0

Total # of neighbors = 355
Ave neighs/atom = 8.65854
Neighbor list builds = 0
Dangerous builds = 0
	# write_dump all atom ${dumpfile}
        next i
jump SELF loop1
        displace_atoms upper move 0.0 ${ystep1} 0.0 units lattice
        displace_atoms upper move 0.0 0.002 0.0 units lattice
        min_style ${style}
        min_style cg
        minimize ${etol} ${ftol} ${maxiter} ${maxeval}
        minimize 1e-12 ${ftol} ${maxiter} ${maxeval}
        minimize 1e-12 1e-08 ${maxiter} ${maxeval}
        minimize 1e-12 1e-08 10000 ${maxeval}
        minimize 1e-12 1e-08 10000 20000
WARNING: Resetting reneighboring criteria during minimization (../min.cpp:168)
Memory usage per processor = 3.35962 Mbytes
Step Temp PotEng Lx Ly Lz 
      35            0   -120.80673    1.1224537    39.023014    1.1224537 
      36            0   -120.80673    1.1224537    39.023014    1.1224537 
Loop time of 3.99002e-05 on 1 procs for 1 steps with 41 atoms

Minimization stats:
  Stopping criterion = linesearch alpha is zero
  Energy initial, next-to-last, final = 
        -120.806725315     -120.806725315     -120.806725315
  Force two-norm initial, final = 4.3171e-17 4.3171e-17
  Force max component initial, final = 4.03323e-17 4.03323e-17
  Final line search alpha, max atom move = 0.5 2.01662e-17
  Iterations, force evaluations = 1 2

Pair  time (%) = 2.51693e-05 (63.0808)
Neigh time (%) = 0 (0)
Comm  time (%) = 4.92739e-06 (12.3493)
Outpt time (%) = 0 (0)
Other time (%) = 9.80345e-06 (24.5699)

Nlocal:    41 ave 41 max 41 min
Histogram: 1 0 0 0 0 0 0 0 0 0
Nghost:    185 ave 185 max 185 min
Histogram: 1 0 0 0 0 0 0 0 0 0
Neighs:    355 ave 355 max 355 min
Histogram: 1 0 0 0 0 0 0 0 0 0

Total # of neighbors = 355
Ave neighs/atom = 8.65854
Neighbor list builds = 0
Dangerous builds = 0
	# write_dump all atom ${dumpfile}
        next i
jump SELF loop1
        displace_atoms upper move 0.0 ${ystep1} 0.0 units lattice
        displace_atoms upper move 0.0 0.002 0.0 units lattice
        min_style ${style}
        min_style cg
        minimize ${etol} ${ftol} ${maxiter} ${maxeval}
        minimize 1e-12 ${ftol} ${maxiter} ${maxeval}
        minimize 1e-12 1e-08 ${maxiter} ${maxeval}
        minimize 1e-12 1e-08 10000 ${maxeval}
        minimize 1e-12 1e-08 10000 20000
WARNING: Resetting reneighboring criteria during minimization (../min.cpp:168)
Memory usage per processor = 3.35962 Mbytes
Step Temp PotEng Lx Ly Lz 
      36            0   -120.79884    1.1224537    39.026902    1.1224537 
      37            0   -120.79884    1.1224537    39.026902    1.1224537 
Loop time of 3.99807e-05 on 1 procs for 1 steps with 41 atoms

Minimization stats:
  Stopping criterion = linesearch alpha is zero
  Energy initial, next-to-last, final = 
        -120.798839071     -120.798839071     -120.798839071
  Force two-norm initial, final = 5.22589e-17 5.22589e-17
  Force max component initial, final = 4.03323e-17 4.03323e-17
  Final line search alpha, max atom move = 0.5 2.01662e-17
  Iterations, force evaluations = 1 2

Pair  time (%) = 2.5696e-05 (64.2709)
Neigh time (%) = 0 (0)
Comm  time (%) = 5.45732e-06 (13.6499)
Outpt time (%) = 0 (0)
Other time (%) = 8.82742e-06 (22.0792)

Nlocal:    41 ave 41 max 41 min
Histogram: 1 0 0 0 0 0 0 0 0 0
Nghost:    185 ave 185 max 185 min
Histogram: 1 0 0 0 0 0 0 0 0 0
Neighs:    355 ave 355 max 355 min
Histogram: 1 0 0 0 0 0 0 0 0 0

Total # of neighbors = 355
Ave neighs/atom = 8.65854
Neighbor list builds = 0
Dangerous builds = 0
	# write_dump all atom ${dumpfile}
        next i
jump SELF loop1
        displace_atoms upper move 0.0 ${ystep1} 0.0 units lattice
        displace_atoms upper move 0.0 0.002 0.0 units lattice
        min_style ${style}
        min_style cg
        minimize ${etol} ${ftol} ${maxiter} ${maxeval}
        minimize 1e-12 ${ftol} ${maxiter} ${maxeval}
        minimize 1e-12 1e-08 ${maxiter} ${maxeval}
        minimize 1e-12 1e-08 10000 ${maxeval}
        minimize 1e-12 1e-08 10000 20000
WARNING: Resetting reneighboring criteria during minimization (../min.cpp:168)
Memory usage per processor = 3.35962 Mbytes
Step Temp PotEng Lx Ly Lz 
      37            0    -120.7909    1.1224537     39.03079    1.1224537 
      38            0    -120.7909    1.1224537     39.03079    1.1224537 
Loop time of 8.61e-05 on 1 procs for 1 steps with 41 atoms

Minimization stats:
  Stopping criterion = linesearch alpha is zero
  Energy initial, next-to-last, final = 
        -120.790899338     -120.790899338     -120.790899338
  Force two-norm initial, final = 4.42994e-17 4.42994e-17
  Force max component initial, final = 4.03323e-17 4.03323e-17
  Final line search alpha, max atom move = 0.5 2.01662e-17
  Iterations, force evaluations = 1 2

Pair  time (%) = 3.71438e-05 (43.1403)
Neigh time (%) = 0 (0)
Comm  time (%) = 3.1969e-05 (37.1302)
Outpt time (%) = 0 (0)
Other time (%) = 1.69871e-05 (19.7295)

Nlocal:    41 ave 41 max 41 min
Histogram: 1 0 0 0 0 0 0 0 0 0
Nghost:    185 ave 185 max 185 min
Histogram: 1 0 0 0 0 0 0 0 0 0
Neighs:    355 ave 355 max 355 min
Histogram: 1 0 0 0 0 0 0 0 0 0

Total # of neighbors = 355
Ave neighs/atom = 8.65854
Neighbor list builds = 0
Dangerous builds = 0
	# write_dump all atom ${dumpfile}
        next i
jump SELF loop1
        displace_atoms upper move 0.0 ${ystep1} 0.0 units lattice
        displace_atoms upper move 0.0 0.002 0.0 units lattice
        min_style ${style}
        min_style cg
        minimize ${etol} ${ftol} ${maxiter} ${maxeval}
        minimize 1e-12 ${ftol} ${maxiter} ${maxeval}
        minimize 1e-12 1e-08 ${maxiter} ${maxeval}
        minimize 1e-12 1e-08 10000 ${maxeval}
        minimize 1e-12 1e-08 10000 20000
WARNING: Resetting reneighboring criteria during minimization (../min.cpp:168)
Memory usage per processor = 3.35962 Mbytes
Step Temp PotEng Lx Ly Lz 
      38            0   -120.78291    1.1224537    39.034679    1.1224537 
      39            0   -120.78291    1.1224537    39.034679    1.1224537 
Loop time of 4.20108e-05 on 1 procs for 1 steps with 41 atoms

Minimization stats:
  Stopping criterion = linesearch alpha is zero
  Energy initial, next-to-last, final = 
         -120.78290557      -120.78290557      -120.78290557
  Force two-norm initial, final = 4.05423e-17 4.05423e-17
  Force max component initial, final = 4.03323e-17 4.03323e-17
  Final line search alpha, max atom move = 0.5 2.01662e-17
  Iterations, force evaluations = 1 2

Pair  time (%) = 2.70177e-05 (64.3112)
Neigh time (%) = 0 (0)
Comm  time (%) = 3.71668e-06 (8.84695)
Outpt time (%) = 0 (0)
Other time (%) = 1.12765e-05 (26.8418)

Nlocal:    41 ave 41 max 41 min
Histogram: 1 0 0 0 0 0 0 0 0 0
Nghost:    185 ave 185 max 185 min
Histogram: 1 0 0 0 0 0 0 0 0 0
Neighs:    355 ave 355 max 355 min
Histogram: 1 0 0 0 0 0 0 0 0 0

Total # of neighbors = 355
Ave neighs/atom = 8.65854
Neighbor list builds = 0
Dangerous builds = 0
	# write_dump all atom ${dumpfile}
        next i
jump SELF loop1
        displace_atoms upper move 0.0 ${ystep1} 0.0 units lattice
        displace_atoms upper move 0.0 0.002 0.0 units lattice
        min_style ${style}
        min_style cg
        minimize ${etol} ${ftol} ${maxiter} ${maxeval}
        minimize 1e-12 ${ftol} ${maxiter} ${maxeval}
        minimize 1e-12 1e-08 ${maxiter} ${maxeval}
        minimize 1e-12 1e-08 10000 ${maxeval}
        minimize 1e-12 1e-08 10000 20000
WARNING: Resetting reneighboring criteria during minimization (../min.cpp:168)
Memory usage per processor = 3.35962 Mbytes
Step Temp PotEng Lx Ly Lz 
      39            0   -120.77486    1.1224537    39.038567    1.1224537 
      40            0   -120.77486    1.1224537    39.038567    1.1224537 
Loop time of 3.99717e-05 on 1 procs for 1 steps with 41 atoms

Minimization stats:
  Stopping criterion = linesearch alpha is zero
  Energy initial, next-to-last, final = 
        -120.774857216     -120.774857216     -120.774857216
  Force two-norm initial, final = 4.89292e-17 4.89292e-17
  Force max component initial, final = 4.03323e-17 4.03323e-17
  Final line search alpha, max atom move = 0.5 2.01662e-17
  Iterations, force evaluations = 1 2

Pair  time (%) = 2.59532e-05 (64.9289)
Neigh time (%) = 0 (0)
Comm  time (%) = 4.25661e-06 (10.6491)
Outpt time (%) = 0 (0)
Other time (%) = 9.76189e-06 (24.422)

Nlocal:    41 ave 41 max 41 min
Histogram: 1 0 0 0 0 0 0 0 0 0
Nghost:    185 ave 185 max 185 min
Histogram: 1 0 0 0 0 0 0 0 0 0
Neighs:    355 ave 355 max 355 min
Histogram: 1 0 0 0 0 0 0 0 0 0

Total # of neighbors = 355
Ave neighs/atom = 8.65854
Neighbor list builds = 0
Dangerous builds = 0
	# write_dump all atom ${dumpfile}
        next i
jump SELF loop1
        displace_atoms upper move 0.0 ${ystep1} 0.0 units lattice
        displace_atoms upper move 0.0 0.002 0.0 units lattice
        min_style ${style}
        min_style cg
        minimize ${etol} ${ftol} ${maxiter} ${maxeval}
        minimize 1e-12 ${ftol} ${maxiter} ${maxeval}
        minimize 1e-12 1e-08 ${maxiter} ${maxeval}
        minimize 1e-12 1e-08 10000 ${maxeval}
        minimize 1e-12 1e-08 10000 20000
WARNING: Resetting reneighboring criteria during minimization (../min.cpp:168)
Memory usage per processor = 3.35962 Mbytes
Step Temp PotEng Lx Ly Lz 
      40            0   -120.76675    1.1224537    39.042455    1.1224537 
      41            0   -120.76675    1.1224537    39.042455    1.1224537 
Loop time of 3.98904e-05 on 1 procs for 1 steps with 41 atoms

Minimization stats:
  Stopping criterion = linesearch alpha is zero
  Energy initial, next-to-last, final = 
        -120.766753776     -120.766753776     -120.766753776
  Force two-norm initial, final = 5.13741e-17 5.13741e-17
  Force max component initial, final = 4.03323e-17 4.03323e-17
  Final line search alpha, max atom move = 0.5 2.01662e-17
  Iterations, force evaluations = 1 2

Pair  time (%) = 2.51402e-05 (63.0233)
Neigh time (%) = 0 (0)
Comm  time (%) = 3.86906e-06 (9.69923)
Outpt time (%) = 0 (0)
Other time (%) = 1.08811e-05 (27.2775)

Nlocal:    41 ave 41 max 41 min
Histogram: 1 0 0 0 0 0 0 0 0 0
Nghost:    185 ave 185 max 185 min
Histogram: 1 0 0 0 0 0 0 0 0 0
Neighs:    355 ave 355 max 355 min
Histogram: 1 0 0 0 0 0 0 0 0 0

Total # of neighbors = 355
Ave neighs/atom = 8.65854
Neighbor list builds = 0
Dangerous builds = 0
	# write_dump all atom ${dumpfile}
        next i
jump SELF loop1
        displace_atoms upper move 0.0 ${ystep1} 0.0 units lattice
        displace_atoms upper move 0.0 0.002 0.0 units lattice
        min_style ${style}
        min_style cg
        minimize ${etol} ${ftol} ${maxiter} ${maxeval}
        minimize 1e-12 ${ftol} ${maxiter} ${maxeval}
        minimize 1e-12 1e-08 ${maxiter} ${maxeval}
        minimize 1e-12 1e-08 10000 ${maxeval}
        minimize 1e-12 1e-08 10000 20000
WARNING: Resetting reneighboring criteria during minimization (../min.cpp:168)
Memory usage per processor = 3.35962 Mbytes
Step Temp PotEng Lx Ly Lz 
      41            0   -120.75859    1.1224537    39.046344    1.1224537 
      42            0   -120.75859    1.1224537    39.046344    1.1224537 
Loop time of 4.30305e-05 on 1 procs for 1 steps with 41 atoms

Minimization stats:
  Stopping criterion = linesearch alpha is zero
  Energy initial, next-to-last, final = 
        -120.758594702     -120.758594702     -120.758594702
  Force two-norm initial, final = 6.30512e-17 6.30512e-17
  Force max component initial, final = 4.84638e-17 4.84638e-17
  Final line search alpha, max atom move = 0.5 2.42319e-17
  Iterations, force evaluations = 1 2

Pair  time (%) = 2.61231e-05 (60.7084)
Neigh time (%) = 0 (0)
Comm  time (%) = 4.88118e-06 (11.3435)
Outpt time (%) = 0 (0)
Other time (%) = 1.20262e-05 (27.948)

Nlocal:    41 ave 41 max 41 min
Histogram: 1 0 0 0 0 0 0 0 0 0
Nghost:    185 ave 185 max 185 min
Histogram: 1 0 0 0 0 0 0 0 0 0
Neighs:    355 ave 355 max 355 min
Histogram: 1 0 0 0 0 0 0 0 0 0

Total # of neighbors = 355
Ave neighs/atom = 8.65854
Neighbor list builds = 0
Dangerous builds = 0
	# write_dump all atom ${dumpfile}
        next i
jump SELF loop1
        displace_atoms upper move 0.0 ${ystep1} 0.0 units lattice
        displace_atoms upper move 0.0 0.002 0.0 units lattice
        min_style ${style}
        min_style cg
        minimize ${etol} ${ftol} ${maxiter} ${maxeval}
        minimize 1e-12 ${ftol} ${maxiter} ${maxeval}
        minimize 1e-12 1e-08 ${maxiter} ${maxeval}
        minimize 1e-12 1e-08 10000 ${maxeval}
        minimize 1e-12 1e-08 10000 20000
WARNING: Resetting reneighboring criteria during minimization (../min.cpp:168)
Memory usage per processor = 3.35962 Mbytes
Step Temp PotEng Lx Ly Lz 
      42            0   -120.75038    1.1224537    39.050232    1.1224537 
      43            0   -120.75038    1.1224537    39.050232    1.1224537 
Loop time of 4.005e-05 on 1 procs for 1 steps with 41 atoms

Minimization stats:
  Stopping criterion = linesearch alpha is zero
  Energy initial, next-to-last, final = 
        -120.750379391     -120.750379391     -120.750379391
  Force two-norm initial, final = 4.07024e-17 4.07024e-17
  Force max component initial, final = 4.03323e-17 4.03323e-17
  Final line search alpha, max atom move = 0.5 2.01662e-17
  Iterations, force evaluations = 1 2

Pair  time (%) = 2.50426e-05 (62.5282)
Neigh time (%) = 0 (0)
Comm  time (%) = 2.67383e-06 (6.67622)
Outpt time (%) = 0 (0)
Other time (%) = 1.23336e-05 (30.7955)

Nlocal:    41 ave 41 max 41 min
Histogram: 1 0 0 0 0 0 0 0 0 0
Nghost:    185 ave 185 max 185 min
Histogram: 1 0 0 0 0 0 0 0 0 0
Neighs:    355 ave 355 max 355 min
Histogram: 1 0 0 0 0 0 0 0 0 0

Total # of neighbors = 355
Ave neighs/atom = 8.65854
Neighbor list builds = 0
Dangerous builds = 0
	# write_dump all atom ${dumpfile}
        next i
jump SELF loop1
        displace_atoms upper move 0.0 ${ystep1} 0.0 units lattice
        displace_atoms upper move 0.0 0.002 0.0 units lattice
        min_style ${style}
        min_style cg
        minimize ${etol} ${ftol} ${maxiter} ${maxeval}
        minimize 1e-12 ${ftol} ${maxiter} ${maxeval}
        minimize 1e-12 1e-08 ${maxiter} ${maxeval}
        minimize 1e-12 1e-08 10000 ${maxeval}
        minimize 1e-12 1e-08 10000 20000
WARNING: Resetting reneighboring criteria during minimization (../min.cpp:168)
Memory usage per processor = 3.35962 Mbytes
Step Temp PotEng Lx Ly Lz 
      43            0   -120.74211    1.1224537     39.05412    1.1224537 
      44            0   -120.74211    1.1224537     39.05412    1.1224537 
Loop time of 3.99094e-05 on 1 procs for 1 steps with 41 atoms

Minimization stats:
  Stopping criterion = linesearch alpha is zero
  Energy initial, next-to-last, final = 
        -120.742107461     -120.742107461     -120.742107461
  Force two-norm initial, final = 5.93433e-17 5.93433e-17
  Force max component initial, final = 4.35307e-17 4.35307e-17
  Final line search alpha, max atom move = 0.5 2.17654e-17
  Iterations, force evaluations = 1 2

Pair  time (%) = 2.52896e-05 (63.3675)
Neigh time (%) = 0 (0)
Comm  time (%) = 4.1679e-06 (10.4434)
Outpt time (%) = 0 (0)
Other time (%) = 1.04519e-05 (26.189)

Nlocal:    41 ave 41 max 41 min
Histogram: 1 0 0 0 0 0 0 0 0 0
Nghost:    185 ave 185 max 185 min
Histogram: 1 0 0 0 0 0 0 0 0 0
Neighs:    355 ave 355 max 355 min
Histogram: 1 0 0 0 0 0 0 0 0 0

Total # of neighbors = 355
Ave neighs/atom = 8.65854
Neighbor list builds = 0
Dangerous builds = 0
	# write_dump all atom ${dumpfile}
        next i
jump SELF loop1
        displace_atoms upper move 0.0 ${ystep1} 0.0 units lattice
        displace_atoms upper move 0.0 0.002 0.0 units lattice
        min_style ${style}
        min_style cg
        minimize ${etol} ${ftol} ${maxiter} ${maxeval}
        minimize 1e-12 ${ftol} ${maxiter} ${maxeval}
        minimize 1e-12 1e-08 ${maxiter} ${maxeval}
        minimize 1e-12 1e-08 10000 ${maxeval}
        minimize 1e-12 1e-08 10000 20000
WARNING: Resetting reneighboring criteria during minimization (../min.cpp:168)
Memory usage per processor = 3.35962 Mbytes
Step Temp PotEng Lx Ly Lz 
      44            0   -120.73378    1.1224537    39.058009    1.1224537 
      45            0   -120.73378    1.1224537    39.058009    1.1224537 
Loop time of 3.99221e-05 on 1 procs for 1 steps with 41 atoms

Minimization stats:
  Stopping criterion = linesearch alpha is zero
  Energy initial, next-to-last, final = 
        -120.733778135     -120.733778135     -120.733778135
  Force two-norm initial, final = 4.03354e-17 4.03354e-17
  Force max component initial, final = 4.03323e-17 4.03323e-17
  Final line search alpha, max atom move = 0.5 2.01662e-17
  Iterations, force evaluations = 1 2

Pair  time (%) = 2.48972e-05 (62.3644)
Neigh time (%) = 0 (0)
Comm  time (%) = 2.33669e-06 (5.85312)
Outpt time (%) = 0 (0)
Other time (%) = 1.26882e-05 (31.7825)

Nlocal:    41 ave 41 max 41 min
Histogram: 1 0 0 0 0 0 0 0 0 0
Nghost:    185 ave 185 max 185 min
Histogram: 1 0 0 0 0 0 0 0 0 0
Neighs:    355 ave 355 max 355 min
Histogram: 1 0 0 0 0 0 0 0 0 0

Total # of neighbors = 355
Ave neighs/atom = 8.65854
Neighbor list builds = 0
Dangerous builds = 0
	# write_dump all atom ${dumpfile}
        next i
jump SELF loop1
        displace_atoms upper move 0.0 ${ystep1} 0.0 units lattice
        displace_atoms upper move 0.0 0.002 0.0 units lattice
        min_style ${style}
        min_style cg
        minimize ${etol} ${ftol} ${maxiter} ${maxeval}
        minimize 1e-12 ${ftol} ${maxiter} ${maxeval}
        minimize 1e-12 1e-08 ${maxiter} ${maxeval}
        minimize 1e-12 1e-08 10000 ${maxeval}
        minimize 1e-12 1e-08 10000 20000
WARNING: Resetting reneighboring criteria during minimization (../min.cpp:168)
Memory usage per processor = 3.35962 Mbytes
Step Temp PotEng Lx Ly Lz 
      45            0   -120.72539    1.1224537    39.061897    1.1224537 
      46            0   -120.72539    1.1224537    39.061897    1.1224537 
Loop time of 0.000204974 on 1 procs for 1 steps with 41 atoms

Minimization stats:
  Stopping criterion = linesearch alpha is zero
  Energy initial, next-to-last, final = 
        -120.725391065     -120.725391065     -120.725391065
  Force two-norm initial, final = 6.00226e-17 6.00226e-17
  Force max component initial, final = 4.44523e-17 4.44523e-17
  Final line search alpha, max atom move = 0.5 2.22261e-17
  Iterations, force evaluations = 1 2

Pair  time (%) = 0.000128006 (62.4501)
Neigh time (%) = 0 (0)
Comm  time (%) = 1.9194e-05 (9.36412)
Outpt time (%) = 0 (0)
Other time (%) = 5.77734e-05 (28.1858)

Nlocal:    41 ave 41 max 41 min
Histogram: 1 0 0 0 0 0 0 0 0 0
Nghost:    185 ave 185 max 185 min
Histogram: 1 0 0 0 0 0 0 0 0 0
Neighs:    355 ave 355 max 355 min
Histogram: 1 0 0 0 0 0 0 0 0 0

Total # of neighbors = 355
Ave neighs/atom = 8.65854
Neighbor list builds = 0
Dangerous builds = 0
	# write_dump all atom ${dumpfile}
        next i
jump SELF loop1
        displace_atoms upper move 0.0 ${ystep1} 0.0 units lattice
        displace_atoms upper move 0.0 0.002 0.0 units lattice
        min_style ${style}
        min_style cg
        minimize ${etol} ${ftol} ${maxiter} ${maxeval}
[...]
        min_style cg
        minimize ${etol} ${ftol} ${maxiter} ${maxeval}
        minimize 1e-12 ${ftol} ${maxiter} ${maxeval}
        minimize 1e-12 1e-08 ${maxiter} ${maxeval}
        minimize 1e-12 1e-08 10000 ${maxeval}
        minimize 1e-12 1e-08 10000 20000
WARNING: Resetting reneighboring criteria during minimization (../min.cpp:168)
Memory usage per processor = 3.35969 Mbytes
Step Temp PotEng Lx Ly Lz 
     491            0   -118.99997    1.1224537    40.796076    1.1224537 
     492            0   -118.99997    1.1224537    40.796076    1.1224537 
Loop time of 4.0014e-05 on 1 procs for 1 steps with 41 atoms

Minimization stats:
  Stopping criterion = linesearch alpha is zero
  Energy initial, next-to-last, final = 
        -118.999965529     -118.999965529     -118.999965529
  Force two-norm initial, final = 4.69473e-20 4.69473e-20
  Force max component initial, final = 2.71051e-20 2.71051e-20
  Final line search alpha, max atom move = 0.5 1.35525e-20
  Iterations, force evaluations = 1 2

Pair  time (%) = 2.48883e-05 (62.199)
Neigh time (%) = 0 (0)
Comm  time (%) = 3.84217e-06 (9.60206)
Outpt time (%) = 0 (0)
Other time (%) = 1.12836e-05 (28.199)

Nlocal:    41 ave 41 max 41 min
Histogram: 1 0 0 0 0 0 0 0 0 0
Nghost:    185 ave 185 max 185 min
Histogram: 1 0 0 0 0 0 0 0 0 0
Neighs:    349 ave 349 max 349 min
Histogram: 1 0 0 0 0 0 0 0 0 0

Total # of neighbors = 349
Ave neighs/atom = 8.5122
Neighbor list builds = 0
Dangerous builds = 0
	# write_dump all atom ${dumpfile}
        next i
jump SELF loop1
        displace_atoms upper move 0.0 ${ystep1} 0.0 units lattice
        displace_atoms upper move 0.0 0.002 0.0 units lattice
        min_style ${style}
        min_style cg
        minimize ${etol} ${ftol} ${maxiter} ${maxeval}
        minimize 1e-12 ${ftol} ${maxiter} ${maxeval}
        minimize 1e-12 1e-08 ${maxiter} ${maxeval}
        minimize 1e-12 1e-08 10000 ${maxeval}
        minimize 1e-12 1e-08 10000 20000
WARNING: Resetting reneighboring criteria during minimization (../min.cpp:168)
Memory usage per processor = 3.35969 Mbytes
Step Temp PotEng Lx Ly Lz 
     492            0   -118.99997    1.1224537    40.799964    1.1224537 
     493            0   -118.99997    1.1224537    40.799964    1.1224537 
Loop time of 3.90008e-05 on 1 procs for 1 steps with 41 atoms

Minimization stats:
  Stopping criterion = linesearch alpha is zero
  Energy initial, next-to-last, final = 
        -118.999965529     -118.999965529     -118.999965529
  Force two-norm initial, final = 5.42101e-20 5.42101e-20
  Force max component initial, final = 2.71051e-20 2.71051e-20
  Final line search alpha, max atom move = 0.5 1.35525e-20
  Iterations, force evaluations = 1 2

Pair  time (%) = 2.4756e-05 (63.4756)
Neigh time (%) = 0 (0)
Comm  time (%) = 2.29268e-06 (5.87856)
Outpt time (%) = 0 (0)
Other time (%) = 1.19521e-05 (30.6459)

Nlocal:    41 ave 41 max 41 min
Histogram: 1 0 0 0 0 0 0 0 0 0
Nghost:    185 ave 185 max 185 min
Histogram: 1 0 0 0 0 0 0 0 0 0
Neighs:    349 ave 349 max 349 min
Histogram: 1 0 0 0 0 0 0 0 0 0

Total # of neighbors = 349
Ave neighs/atom = 8.5122
Neighbor list builds = 0
Dangerous builds = 0
	# write_dump all atom ${dumpfile}
        next i
jump SELF loop1
        displace_atoms upper move 0.0 ${ystep1} 0.0 units lattice
        displace_atoms upper move 0.0 0.002 0.0 units lattice
        min_style ${style}
        min_style cg
        minimize ${etol} ${ftol} ${maxiter} ${maxeval}
        minimize 1e-12 ${ftol} ${maxiter} ${maxeval}
        minimize 1e-12 1e-08 ${maxiter} ${maxeval}
        minimize 1e-12 1e-08 10000 ${maxeval}
        minimize 1e-12 1e-08 10000 20000
WARNING: Resetting reneighboring criteria during minimization (../min.cpp:168)
Memory usage per processor = 3.35969 Mbytes
Step Temp PotEng Lx Ly Lz 
     493            0   -118.99997    1.1224537    40.803852    1.1224537 
     494            0   -118.99997    1.1224537    40.803852    1.1224537 
Loop time of 0.023316 on 1 procs for 1 steps with 41 atoms

Minimization stats:
  Stopping criterion = linesearch alpha is zero
  Energy initial, next-to-last, final = 
        -118.999965529     -118.999965529     -118.999965529
  Force two-norm initial, final = 5.42101e-20 5.42101e-20
  Force max component initial, final = 2.71051e-20 2.71051e-20
  Final line search alpha, max atom move = 0.5 1.35525e-20
  Iterations, force evaluations = 1 2

Pair  time (%) = 3.80629e-05 (0.163248)
Neigh time (%) = 0 (0)
Comm  time (%) = 3.18342e-05 (0.136534)
Outpt time (%) = 0 (0)
Other time (%) = 0.0232461 (99.7002)

Nlocal:    41 ave 41 max 41 min
Histogram: 1 0 0 0 0 0 0 0 0 0
Nghost:    185 ave 185 max 185 min
Histogram: 1 0 0 0 0 0 0 0 0 0
Neighs:    349 ave 349 max 349 min
Histogram: 1 0 0 0 0 0 0 0 0 0

Total # of neighbors = 349
Ave neighs/atom = 8.5122
Neighbor list builds = 0
Dangerous builds = 0
	# write_dump all atom ${dumpfile}
        next i
jump SELF loop1
        displace_atoms upper move 0.0 ${ystep1} 0.0 units lattice
        displace_atoms upper move 0.0 0.002 0.0 units lattice
        min_style ${style}
        min_style cg
        minimize ${etol} ${ftol} ${maxiter} ${maxeval}
        minimize 1e-12 ${ftol} ${maxiter} ${maxeval}
        minimize 1e-12 1e-08 ${maxiter} ${maxeval}
        minimize 1e-12 1e-08 10000 ${maxeval}
        minimize 1e-12 1e-08 10000 20000
WARNING: Resetting reneighboring criteria during minimization (../min.cpp:168)
Memory usage per processor = 3.35969 Mbytes
Step Temp PotEng Lx Ly Lz 
     494            0   -118.99997    1.1224537    40.807741    1.1224537 
     495            0   -118.99997    1.1224537    40.807741    1.1224537 
Loop time of 0.000145076 on 1 procs for 1 steps with 41 atoms

Minimization stats:
  Stopping criterion = linesearch alpha is zero
  Energy initial, next-to-last, final = 
        -118.999965529     -118.999965529     -118.999965529
  Force two-norm initial, final = 5.42101e-20 5.42101e-20
  Force max component initial, final = 2.71051e-20 2.71051e-20
  Final line search alpha, max atom move = 0.5 1.35525e-20
  Iterations, force evaluations = 1 2

Pair  time (%) = 4.1093e-05 (28.3252)
Neigh time (%) = 0 (0)
Comm  time (%) = 4.87556e-05 (33.607)
Outpt time (%) = 0 (0)
Other time (%) = 5.52271e-05 (38.0678)

Nlocal:    41 ave 41 max 41 min
Histogram: 1 0 0 0 0 0 0 0 0 0
Nghost:    185 ave 185 max 185 min
Histogram: 1 0 0 0 0 0 0 0 0 0
Neighs:    349 ave 349 max 349 min
Histogram: 1 0 0 0 0 0 0 0 0 0

Total # of neighbors = 349
Ave neighs/atom = 8.5122
Neighbor list builds = 0
Dangerous builds = 0
	# write_dump all atom ${dumpfile}
        next i
jump SELF loop1
        displace_atoms upper move 0.0 ${ystep1} 0.0 units lattice
        displace_atoms upper move 0.0 0.002 0.0 units lattice
        min_style ${style}
        min_style cg
        minimize ${etol} ${ftol} ${maxiter} ${maxeval}
        minimize 1e-12 ${ftol} ${maxiter} ${maxeval}
        minimize 1e-12 1e-08 ${maxiter} ${maxeval}
        minimize 1e-12 1e-08 10000 ${maxeval}
        minimize 1e-12 1e-08 10000 20000
WARNING: Resetting reneighboring criteria during minimization (../min.cpp:168)
Memory usage per processor = 3.35969 Mbytes
Step Temp PotEng Lx Ly Lz 
     495            0   -118.99997    1.1224537    40.811629    1.1224537 
     496            0   -118.99997    1.1224537    40.811629    1.1224537 
Loop time of 4.39357e-05 on 1 procs for 1 steps with 41 atoms

Minimization stats:
  Stopping criterion = linesearch alpha is zero
  Energy initial, next-to-last, final = 
        -118.999965529     -118.999965529     -118.999965529
  Force two-norm initial, final = 5.42101e-20 5.42101e-20
  Force max component initial, final = 2.71051e-20 2.71051e-20
  Final line search alpha, max atom move = 0.5 1.35525e-20
  Iterations, force evaluations = 1 2

Pair  time (%) = 2.49642e-05 (56.8199)
Neigh time (%) = 0 (0)
Comm  time (%) = 5.61657e-06 (12.7836)
Outpt time (%) = 0 (0)
Other time (%) = 1.33549e-05 (30.3965)

Nlocal:    41 ave 41 max 41 min
Histogram: 1 0 0 0 0 0 0 0 0 0
Nghost:    185 ave 185 max 185 min
Histogram: 1 0 0 0 0 0 0 0 0 0
Neighs:    349 ave 349 max 349 min
Histogram: 1 0 0 0 0 0 0 0 0 0

Total # of neighbors = 349
Ave neighs/atom = 8.5122
Neighbor list builds = 0
Dangerous builds = 0
	# write_dump all atom ${dumpfile}
        next i
jump SELF loop1
        displace_atoms upper move 0.0 ${ystep1} 0.0 units lattice
        displace_atoms upper move 0.0 0.002 0.0 units lattice
        min_style ${style}
        min_style cg
        minimize ${etol} ${ftol} ${maxiter} ${maxeval}
        minimize 1e-12 ${ftol} ${maxiter} ${maxeval}
        minimize 1e-12 1e-08 ${maxiter} ${maxeval}
        minimize 1e-12 1e-08 10000 ${maxeval}
        minimize 1e-12 1e-08 10000 20000
WARNING: Resetting reneighboring criteria during minimization (../min.cpp:168)
Memory usage per processor = 3.35969 Mbytes
Step Temp PotEng Lx Ly Lz 
     496            0   -118.99997    1.1224537    40.815517    1.1224537 
     497            0   -118.99997    1.1224537    40.815517    1.1224537 
Loop time of 3.69588e-05 on 1 procs for 1 steps with 41 atoms

Minimization stats:
  Stopping criterion = linesearch alpha is zero
  Energy initial, next-to-last, final = 
        -118.999965529     -118.999965529     -118.999965529
  Force two-norm initial, final = 5.42101e-20 5.42101e-20
  Force max component initial, final = 2.71051e-20 2.71051e-20
  Final line search alpha, max atom move = 0.5 1.35525e-20
  Iterations, force evaluations = 1 2

Pair  time (%) = 2.49149e-05 (67.4124)
Neigh time (%) = 0 (0)
Comm  time (%) = 4.37209e-06 (11.8296)
Outpt time (%) = 0 (0)
Other time (%) = 7.67189e-06 (20.7579)

Nlocal:    41 ave 41 max 41 min
Histogram: 1 0 0 0 0 0 0 0 0 0
Nghost:    185 ave 185 max 185 min
Histogram: 1 0 0 0 0 0 0 0 0 0
Neighs:    349 ave 349 max 349 min
Histogram: 1 0 0 0 0 0 0 0 0 0

Total # of neighbors = 349
Ave neighs/atom = 8.5122
Neighbor list builds = 0
Dangerous builds = 0
	# write_dump all atom ${dumpfile}
        next i
jump SELF loop1
        displace_atoms upper move 0.0 ${ystep1} 0.0 units lattice
        displace_atoms upper move 0.0 0.002 0.0 units lattice
        min_style ${style}
        min_style cg
        minimize ${etol} ${ftol} ${maxiter} ${maxeval}
        minimize 1e-12 ${ftol} ${maxiter} ${maxeval}
        minimize 1e-12 1e-08 ${maxiter} ${maxeval}
        minimize 1e-12 1e-08 10000 ${maxeval}
        minimize 1e-12 1e-08 10000 20000
WARNING: Resetting reneighboring criteria during minimization (../min.cpp:168)
Memory usage per processor = 3.35969 Mbytes
Step Temp PotEng Lx Ly Lz 
     497            0   -118.99997    1.1224537    40.819406    1.1224537 
     498            0   -118.99997    1.1224537    40.819406    1.1224537 
Loop time of 3.99392e-05 on 1 procs for 1 steps with 41 atoms

Minimization stats:
  Stopping criterion = linesearch alpha is zero
  Energy initial, next-to-last, final = 
        -118.999965529     -118.999965529     -118.999965529
  Force two-norm initial, final = 4.69473e-20 4.69473e-20
  Force max component initial, final = 2.71051e-20 2.71051e-20
  Final line search alpha, max atom move = 0.5 1.35525e-20
  Iterations, force evaluations = 1 2

Pair  time (%) = 2.60944e-05 (65.3353)
Neigh time (%) = 0 (0)
Comm  time (%) = 4.30061e-06 (10.7679)
Outpt time (%) = 0 (0)
Other time (%) = 9.54419e-06 (23.8968)

Nlocal:    41 ave 41 max 41 min
Histogram: 1 0 0 0 0 0 0 0 0 0
Nghost:    185 ave 185 max 185 min
Histogram: 1 0 0 0 0 0 0 0 0 0
Neighs:    349 ave 349 max 349 min
Histogram: 1 0 0 0 0 0 0 0 0 0

Total # of neighbors = 349
Ave neighs/atom = 8.5122
Neighbor list builds = 0
Dangerous builds = 0
	# write_dump all atom ${dumpfile}
        next i
jump SELF loop1
        displace_atoms upper move 0.0 ${ystep1} 0.0 units lattice
        displace_atoms upper move 0.0 0.002 0.0 units lattice
        min_style ${style}
        min_style cg
        minimize ${etol} ${ftol} ${maxiter} ${maxeval}
        minimize 1e-12 ${ftol} ${maxiter} ${maxeval}
        minimize 1e-12 1e-08 ${maxiter} ${maxeval}
        minimize 1e-12 1e-08 10000 ${maxeval}
        minimize 1e-12 1e-08 10000 20000
WARNING: Resetting reneighboring criteria during minimization (../min.cpp:168)
Memory usage per processor = 3.35969 Mbytes
Step Temp PotEng Lx Ly Lz 
     498            0   -118.99997    1.1224537    40.823294    1.1224537 
     499            0   -118.99997    1.1224537    40.823294    1.1224537 
Loop time of 3.99203e-05 on 1 procs for 1 steps with 41 atoms

Minimization stats:
  Stopping criterion = linesearch alpha is zero
  Energy initial, next-to-last, final = 
        -118.999965529     -118.999965529     -118.999965529
  Force two-norm initial, final = 4.69473e-20 4.69473e-20
  Force max component initial, final = 2.71051e-20 2.71051e-20
  Final line search alpha, max atom move = 0.5 1.35525e-20
  Iterations, force evaluations = 1 2

Pair  time (%) = 2.52762e-05 (63.3166)
Neigh time (%) = 0 (0)
Comm  time (%) = 5.0948e-06 (12.7624)
Outpt time (%) = 0 (0)
Other time (%) = 9.54932e-06 (23.9209)

Nlocal:    41 ave 41 max 41 min
Histogram: 1 0 0 0 0 0 0 0 0 0
Nghost:    185 ave 185 max 185 min
Histogram: 1 0 0 0 0 0 0 0 0 0
Neighs:    349 ave 349 max 349 min
Histogram: 1 0 0 0 0 0 0 0 0 0

Total # of neighbors = 349
Ave neighs/atom = 8.5122
Neighbor list builds = 0
Dangerous builds = 0
	# write_dump all atom ${dumpfile}
        next i
jump SELF loop1
        displace_atoms upper move 0.0 ${ystep1} 0.0 units lattice
        displace_atoms upper move 0.0 0.002 0.0 units lattice
        min_style ${style}
        min_style cg
        minimize ${etol} ${ftol} ${maxiter} ${maxeval}
        minimize 1e-12 ${ftol} ${maxiter} ${maxeval}
        minimize 1e-12 1e-08 ${maxiter} ${maxeval}
        minimize 1e-12 1e-08 10000 ${maxeval}
        minimize 1e-12 1e-08 10000 20000
WARNING: Resetting reneighboring criteria during minimization (../min.cpp:168)
Memory usage per processor = 3.35969 Mbytes
Step Temp PotEng Lx Ly Lz 
     499            0   -118.99997    1.1224537    40.827182    1.1224537 
     500            0   -118.99997    1.1224537    40.827182    1.1224537 
Loop time of 4.01139e-05 on 1 procs for 1 steps with 41 atoms

Minimization stats:
  Stopping criterion = linesearch alpha is zero
  Energy initial, next-to-last, final = 
        -118.999965529     -118.999965529     -118.999965529
  Force two-norm initial, final = 4.69473e-20 4.69473e-20
  Force max component initial, final = 2.71051e-20 2.71051e-20
  Final line search alpha, max atom move = 0.5 1.35525e-20
  Iterations, force evaluations = 1 2

Pair  time (%) = 2.42345e-05 (60.4142)
Neigh time (%) = 0 (0)
Comm  time (%) = 2.01142e-06 (5.01428)
Outpt time (%) = 0 (0)
Other time (%) = 1.3868e-05 (34.5715)

Nlocal:    41 ave 41 max 41 min
Histogram: 1 0 0 0 0 0 0 0 0 0
Nghost:    185 ave 185 max 185 min
Histogram: 1 0 0 0 0 0 0 0 0 0
Neighs:    349 ave 349 max 349 min
Histogram: 1 0 0 0 0 0 0 0 0 0

Total # of neighbors = 349
Ave neighs/atom = 8.5122
Neighbor list builds = 0
Dangerous builds = 0
	# write_dump all atom ${dumpfile}
        next i
jump SELF loop1
        displace_atoms upper move 0.0 ${ystep1} 0.0 units lattice
        displace_atoms upper move 0.0 0.002 0.0 units lattice
        min_style ${style}
        min_style cg
        minimize ${etol} ${ftol} ${maxiter} ${maxeval}
        minimize 1e-12 ${ftol} ${maxiter} ${maxeval}
        minimize 1e-12 1e-08 ${maxiter} ${maxeval}
        minimize 1e-12 1e-08 10000 ${maxeval}
        minimize 1e-12 1e-08 10000 20000
WARNING: Resetting reneighboring criteria during minimization (../min.cpp:168)
Memory usage per processor = 3.35969 Mbytes
Step Temp PotEng Lx Ly Lz 
     500            0   -118.99997    1.1224537    40.831071    1.1224537 
     501            0   -118.99997    1.1224537    40.831071    1.1224537 
Loop time of 4.00464e-05 on 1 procs for 1 steps with 41 atoms

Minimization stats:
  Stopping criterion = linesearch alpha is zero
  Energy initial, next-to-last, final = 
        -118.999965529     -118.999965529     -118.999965529
  Force two-norm initial, final = 5.42101e-20 5.42101e-20
  Force max component initial, final = 2.71051e-20 2.71051e-20
  Final line search alpha, max atom move = 0.5 1.35525e-20
  Iterations, force evaluations = 1 2

Pair  time (%) = 2.48927e-05 (62.1597)
Neigh time (%) = 0 (0)
Comm  time (%) = 2.85101e-06 (7.11927)
Outpt time (%) = 0 (0)
Other time (%) = 1.23027e-05 (30.721)

Nlocal:    41 ave 41 max 41 min
Histogram: 1 0 0 0 0 0 0 0 0 0
Nghost:    185 ave 185 max 185 min
Histogram: 1 0 0 0 0 0 0 0 0 0
Neighs:    349 ave 349 max 349 min
Histogram: 1 0 0 0 0 0 0 0 0 0

Total # of neighbors = 349
Ave neighs/atom = 8.5122
Neighbor list builds = 0
Dangerous builds = 0
	# write_dump all atom ${dumpfile}
        next i
jump SELF loop1
        displace_atoms upper move 0.0 ${ystep1} 0.0 units lattice
        displace_atoms upper move 0.0 0.002 0.0 units lattice
        min_style ${style}
        min_style cg
        minimize ${etol} ${ftol} ${maxiter} ${maxeval}
        minimize 1e-12 ${ftol} ${maxiter} ${maxeval}
        minimize 1e-12 1e-08 ${maxiter} ${maxeval}
        minimize 1e-12 1e-08 10000 ${maxeval}
        minimize 1e-12 1e-08 10000 20000
WARNING: Resetting reneighboring criteria during minimization (../min.cpp:168)
Memory usage per processor = 3.35969 Mbytes
Step Temp PotEng Lx Ly Lz 
     501            0   -118.99997    1.1224537    40.834959    1.1224537 
     502            0   -118.99997    1.1224537    40.834959    1.1224537 
Loop time of 4.10072e-05 on 1 procs for 1 steps with 41 atoms

Minimization stats:
  Stopping criterion = linesearch alpha is zero
  Energy initial, next-to-last, final = 
        -118.999965529     -118.999965529     -118.999965529
  Force two-norm initial, final = 5.42101e-20 5.42101e-20
  Force max component initial, final = 2.71051e-20 2.71051e-20
  Final line search alpha, max atom move = 0.5 1.35525e-20
  Iterations, force evaluations = 1 2

Pair  time (%) = 2.49142e-05 (60.7556)
Neigh time (%) = 0 (0)
Comm  time (%) = 4.89363e-06 (11.9336)
Outpt time (%) = 0 (0)
Other time (%) = 1.11994e-05 (27.3108)

Nlocal:    41 ave 41 max 41 min
Histogram: 1 0 0 0 0 0 0 0 0 0
Nghost:    185 ave 185 max 185 min
Histogram: 1 0 0 0 0 0 0 0 0 0
Neighs:    349 ave 349 max 349 min
Histogram: 1 0 0 0 0 0 0 0 0 0

Total # of neighbors = 349
Ave neighs/atom = 8.5122
Neighbor list builds = 0
Dangerous builds = 0
	# write_dump all atom ${dumpfile}
        next i
jump SELF loop1

unfix 2
min_style ${style}
min_style cg
minimize ${etol} ${ftol} ${maxiter} ${maxeval}
minimize 1e-12 ${ftol} ${maxiter} ${maxeval}
minimize 1e-12 1e-08 ${maxiter} ${maxeval}
minimize 1e-12 1e-08 10000 ${maxeval}
minimize 1e-12 1e-08 10000 20000
WARNING: Resetting reneighboring criteria during minimization (../min.cpp:168)
Memory usage per processor = 3.35969 Mbytes
Step Temp PotEng Lx Ly Lz 
     502            0   -118.99997    1.1224537    40.834959    1.1224537 
     503            0   -118.99997    1.1224537    40.834959    1.1224537 
Loop time of 0.000138064 on 1 procs for 1 steps with 41 atoms

Minimization stats:
  Stopping criterion = linesearch alpha is zero
  Energy initial, next-to-last, final = 
        -118.999965529     -118.999965529     -118.999965529
  Force two-norm initial, final = 0.00327105 0.00327105
  Force max component initial, final = 0.00179508 0.00179508
  Final line search alpha, max atom move = 0.000976562 1.75301e-06
  Iterations, force evaluations = 1 11

Pair  time (%) = 0.000103026 (74.6217)
Neigh time (%) = 0 (0)
Comm  time (%) = 1.74519e-05 (12.6405)
Outpt time (%) = 0 (0)
Other time (%) = 1.75863e-05 (12.7378)

Nlocal:    41 ave 41 max 41 min
Histogram: 1 0 0 0 0 0 0 0 0 0
Nghost:    185 ave 185 max 185 min
Histogram: 1 0 0 0 0 0 0 0 0 0
Neighs:    349 ave 349 max 349 min
Histogram: 1 0 0 0 0 0 0 0 0 0

Total # of neighbors = 349
Ave neighs/atom = 8.5122
Neighbor list builds = 0
Dangerous builds = 0

