LAMMPS (28 Jun 2014)
# attempt at getting surface energy

#file prefix
variable prefix string surf_V_inter3new
variable dumpfile string ${prefix}.*.dump
variable dumpfile string surf_V_inter3new.*.dump
variable restartfile string ${prefix}.*.equil
variable restartfile string surf_V_inter3new.*.equil

#Mass (g/mol)
variable m equal 1

# lattice constant (in Angstroms) and orientation of axes (given by lattice vectors)
variable rho equal 0.9165
variable x1 equal 1
variable x2 equal 0
variable x3 equal 0
variable y1 equal 0
variable y2 equal 1
variable y3 equal 0
# length of lattice in different directions (using orientation of lattice vectors)
variable ax equal sqrt(${x1}*${x1}+${x2}*${x2}+${x3}*${x3})
variable ax equal sqrt(1*${x1}+${x2}*${x2}+${x3}*${x3})
variable ax equal sqrt(1*1+${x2}*${x2}+${x3}*${x3})
variable ax equal sqrt(1*1+0*${x2}+${x3}*${x3})
variable ax equal sqrt(1*1+0*0+${x3}*${x3})
variable ax equal sqrt(1*1+0*0+0*${x3})
variable ax equal sqrt(1*1+0*0+0*0)
variable ay equal sqrt(${y1}*${y1}+${y2}*${y2}+${y3}*${y3})
variable ay equal sqrt(0*${y1}+${y2}*${y2}+${y3}*${y3})
variable ay equal sqrt(0*0+${y2}*${y2}+${y3}*${y3})
variable ay equal sqrt(0*0+1*${y2}+${y3}*${y3})
variable ay equal sqrt(0*0+1*1+${y3}*${y3})
variable ay equal sqrt(0*0+1*1+0*${y3})
variable ay equal sqrt(0*0+1*1+0*0)
variable az equal 1

# size of box in lattice units
variable lxpos equal 1
variable lxneg equal 0
variable lypos equal 10
variable lyneg equal -1*${lypos}
variable lyneg equal -1*10
variable lzpos equal 1
variable lzneg equal 0

# Define minimization parameters and damping
variable etol equal 1.0e-12
variable ftol equal 1.0e-8
variable maxiter equal 10000
variable maxeval equal 20000
variable style string cg

# boundary conditions
dimension	2
boundary	p s p
atom_style	atomic

# create geometry
units		lj
lattice         hex ${rho}
lattice         hex 0.9165
Lattice spacing in x,y,z = 1.12245 1.94415 1.12245
region		myregion block ${lxneg} ${lxpos} ${lyneg} ${lypos} ${lzneg} ${lzpos} units lattice
region		myregion block 0 ${lxpos} ${lyneg} ${lypos} ${lzneg} ${lzpos} units lattice
region		myregion block 0 1 ${lyneg} ${lypos} ${lzneg} ${lzpos} units lattice
region		myregion block 0 1 -10 ${lypos} ${lzneg} ${lzpos} units lattice
region		myregion block 0 1 -10 10 ${lzneg} ${lzpos} units lattice
region		myregion block 0 1 -10 10 0 ${lzpos} units lattice
region		myregion block 0 1 -10 10 0 1 units lattice
create_box	1 myregion
Created orthogonal box = (0 -19.4415 0) to (1.12245 19.4415 1.12245)
  1 by 1 by 1 MPI processor grid
create_atoms	1 box
Created 41 atoms

# define masses
mass * $m
mass * 1

# my fake/morse potential
pair_style      table linear 3001
pair_coeff      * * vpotential_inter3new dummy
neighbor	0.3 bin
neigh_modify	delay 5

# define groups
region	    upper block INF INF 0.01 ${lypos} INF INF units lattice
region	    upper block INF INF 0.01 10 INF INF units lattice
group		upper region upper
20 atoms in group upper

# Setup output
thermo 1
thermo_style custom step temp pe lx ly lz
thermo_modify norm no

# Compute initial state by relaxing box
min_style ${style}
min_style cg
minimize ${etol} ${ftol} ${maxiter} ${maxeval}
minimize 1e-12 ${ftol} ${maxiter} ${maxeval}
minimize 1e-12 1e-08 ${maxiter} ${maxeval}
minimize 1e-12 1e-08 10000 ${maxeval}
minimize 1e-12 1e-08 10000 20000
WARNING: Resetting reneighboring criteria during minimization (../min.cpp:168)
Memory usage per processor = 3.35962 Mbytes
Step Temp PotEng Lx Ly Lz 
       0            0   -120.99996    1.1224537    38.890715    1.1224537 
       1            0   -120.99996    1.1224537    38.890715    1.1224537 
       2            0   -120.99996    1.1224537    38.890715    1.1224537 
Loop time of 0.00476094 on 1 procs for 2 steps with 41 atoms

Minimization stats:
  Stopping criterion = linesearch alpha is zero
  Energy initial, next-to-last, final = 
        -120.999963848     -120.999964932     -120.999964932
  Force two-norm initial, final = 0.000550698 0.00322436
  Force max component initial, final = 0.000389403 0.00179508
  Final line search alpha, max atom move = 0.000976562 1.75301e-06
  Iterations, force evaluations = 2 15

Pair  time (%) = 0.00012786 (2.6856)
Neigh time (%) = 0 (0)
Comm  time (%) = 0.00456752 (95.9375)
Outpt time (%) = 8.92126e-06 (0.187384)
Other time (%) = 5.66307e-05 (1.18949)

Nlocal:    41 ave 41 max 41 min
Histogram: 1 0 0 0 0 0 0 0 0 0
Nghost:    185 ave 185 max 185 min
Histogram: 1 0 0 0 0 0 0 0 0 0
Neighs:    359 ave 359 max 359 min
Histogram: 1 0 0 0 0 0 0 0 0 0

Total # of neighbors = 359
Ave neighs/atom = 8.7561
Neighbor list builds = 0
Dangerous builds = 0

# don't allow atoms to relax in y-direction
fix 2 all setforce NULL 0.0 NULL

# Energy curve will have nstep steps
variable nsteps equal 500
variable sstep1 equal 1.0
variable ystep1 equal ${sstep1}/(${ay}*${nsteps})
variable ystep1 equal 1/(${ay}*${nsteps})
variable ystep1 equal 1/(1*${nsteps})
variable ystep1 equal 1/(1*500)

variable i loop ${nsteps}
variable i loop 500
label loop1
        displace_atoms upper move 0.0 ${ystep1} 0.0 units lattice
        displace_atoms upper move 0.0 0.002 0.0 units lattice
        min_style ${style}
        min_style cg
        minimize ${etol} ${ftol} ${maxiter} ${maxeval}
        minimize 1e-12 ${ftol} ${maxiter} ${maxeval}
        minimize 1e-12 1e-08 ${maxiter} ${maxeval}
        minimize 1e-12 1e-08 10000 ${maxeval}
        minimize 1e-12 1e-08 10000 20000
WARNING: Resetting reneighboring criteria during minimization (../min.cpp:168)
Memory usage per processor = 3.35962 Mbytes
Step Temp PotEng Lx Ly Lz 
       2            0   -120.99969    1.1224537      38.8947    1.1224537 
       3            0   -120.99969    1.1224537      38.8947    1.1224537 
Loop time of 3.08835e-05 on 1 procs for 1 steps with 41 atoms

Minimization stats:
  Stopping criterion = linesearch alpha is zero
  Energy initial, next-to-last, final = 
        -120.999690069     -120.999690069     -120.999690069
  Force two-norm initial, final = 1.80447e-18 1.80447e-18
  Force max component initial, final = 1.30104e-18 1.30104e-18
  Final line search alpha, max atom move = 0.5 6.50521e-19
  Iterations, force evaluations = 1 2

Pair  time (%) = 7.43079e-07 (2.40607)
Neigh time (%) = 0 (0)
Comm  time (%) = -4.67524e-07 (-1.51383)
Outpt time (%) = 0 (0)
Other time (%) = 3.06079e-05 (99.1078)

Nlocal:    41 ave 41 max 41 min
Histogram: 1 0 0 0 0 0 0 0 0 0
Nghost:    185 ave 185 max 185 min
Histogram: 1 0 0 0 0 0 0 0 0 0
Neighs:    359 ave 359 max 359 min
Histogram: 1 0 0 0 0 0 0 0 0 0

Total # of neighbors = 359
Ave neighs/atom = 8.7561
Neighbor list builds = 0
Dangerous builds = 0
	# write_dump all atom ${dumpfile}
        next i
jump SELF loop1
        displace_atoms upper move 0.0 ${ystep1} 0.0 units lattice
        displace_atoms upper move 0.0 0.002 0.0 units lattice
        min_style ${style}
        min_style cg
        minimize ${etol} ${ftol} ${maxiter} ${maxeval}
        minimize 1e-12 ${ftol} ${maxiter} ${maxeval}
        minimize 1e-12 1e-08 ${maxiter} ${maxeval}
        minimize 1e-12 1e-08 10000 ${maxeval}
        minimize 1e-12 1e-08 10000 20000
WARNING: Resetting reneighboring criteria during minimization (../min.cpp:168)
Memory usage per processor = 3.35962 Mbytes
Step Temp PotEng Lx Ly Lz 
       3            0   -120.99888    1.1224537    38.898588    1.1224537 
       4            0   -120.99888    1.1224537    38.898588    1.1224537 
Loop time of 6.68888e-05 on 1 procs for 1 steps with 41 atoms

Minimization stats:
  Stopping criterion = linesearch alpha is zero
  Energy initial, next-to-last, final = 
        -120.998878952     -120.998878952     -120.998878952
  Force two-norm initial, final = 5.10231e-18 5.10231e-18
  Force max component initial, final = 4.93312e-18 4.93312e-18
  Final line search alpha, max atom move = 0.5 2.46656e-18
  Iterations, force evaluations = 1 2

Pair  time (%) = 2.32742e-05 (34.7954)
Neigh time (%) = 0 (0)
Comm  time (%) = 3.99817e-06 (5.97734)
Outpt time (%) = 0 (0)
Other time (%) = 3.96164e-05 (59.2272)

Nlocal:    41 ave 41 max 41 min
Histogram: 1 0 0 0 0 0 0 0 0 0
Nghost:    185 ave 185 max 185 min
Histogram: 1 0 0 0 0 0 0 0 0 0
Neighs:    359 ave 359 max 359 min
Histogram: 1 0 0 0 0 0 0 0 0 0

Total # of neighbors = 359
Ave neighs/atom = 8.7561
Neighbor list builds = 0
Dangerous builds = 0
	# write_dump all atom ${dumpfile}
        next i
jump SELF loop1
        displace_atoms upper move 0.0 ${ystep1} 0.0 units lattice
        displace_atoms upper move 0.0 0.002 0.0 units lattice
        min_style ${style}
        min_style cg
        minimize ${etol} ${ftol} ${maxiter} ${maxeval}
        minimize 1e-12 ${ftol} ${maxiter} ${maxeval}
        minimize 1e-12 1e-08 ${maxiter} ${maxeval}
        minimize 1e-12 1e-08 10000 ${maxeval}
        minimize 1e-12 1e-08 10000 20000
WARNING: Resetting reneighboring criteria during minimization (../min.cpp:168)
Memory usage per processor = 3.35962 Mbytes
Step Temp PotEng Lx Ly Lz 
       4            0   -120.99755    1.1224537    38.902477    1.1224537 
       5            0   -120.99755    1.1224537    38.902477    1.1224537 
Loop time of 6.79489e-05 on 1 procs for 1 steps with 41 atoms

Minimization stats:
  Stopping criterion = linesearch alpha is zero
  Energy initial, next-to-last, final = 
         -120.99754844      -120.99754844      -120.99754844
  Force two-norm initial, final = 3.05639e-18 3.05639e-18
  Force max component initial, final = 2.76472e-18 2.76472e-18
  Final line search alpha, max atom move = 0.5 1.38236e-18
  Iterations, force evaluations = 1 2

Pair  time (%) = 2.67393e-05 (39.3521)
Neigh time (%) = 0 (0)
Comm  time (%) = 4.11342e-06 (6.05369)
Outpt time (%) = 0 (0)
Other time (%) = 3.70962e-05 (54.5942)

Nlocal:    41 ave 41 max 41 min
Histogram: 1 0 0 0 0 0 0 0 0 0
Nghost:    185 ave 185 max 185 min
Histogram: 1 0 0 0 0 0 0 0 0 0
Neighs:    359 ave 359 max 359 min
Histogram: 1 0 0 0 0 0 0 0 0 0

Total # of neighbors = 359
Ave neighs/atom = 8.7561
Neighbor list builds = 0
Dangerous builds = 0
	# write_dump all atom ${dumpfile}
        next i
jump SELF loop1
        displace_atoms upper move 0.0 ${ystep1} 0.0 units lattice
        displace_atoms upper move 0.0 0.002 0.0 units lattice
        min_style ${style}
        min_style cg
        minimize ${etol} ${ftol} ${maxiter} ${maxeval}
        minimize 1e-12 ${ftol} ${maxiter} ${maxeval}
        minimize 1e-12 1e-08 ${maxiter} ${maxeval}
        minimize 1e-12 1e-08 10000 ${maxeval}
        minimize 1e-12 1e-08 10000 20000
WARNING: Resetting reneighboring criteria during minimization (../min.cpp:168)
Memory usage per processor = 3.35962 Mbytes
Step Temp PotEng Lx Ly Lz 
       5            0   -120.99571    1.1224537    38.906365    1.1224537 
       6            0   -120.99571    1.1224537    38.906365    1.1224537 
Loop time of 3.99628e-05 on 1 procs for 1 steps with 41 atoms

Minimization stats:
  Stopping criterion = linesearch alpha is zero
  Energy initial, next-to-last, final = 
        -120.995712014     -120.995712014     -120.995712014
  Force two-norm initial, final = 1.48313e-17 1.48313e-17
  Force max component initial, final = 1.25767e-17 1.25767e-17
  Final line search alpha, max atom move = 0.5 6.28837e-18
  Iterations, force evaluations = 1 2

Pair  time (%) = 2.47346e-05 (61.8941)
Neigh time (%) = 0 (0)
Comm  time (%) = 3.20375e-06 (8.01683)
Outpt time (%) = 0 (0)
Other time (%) = 1.20244e-05 (30.089)

Nlocal:    41 ave 41 max 41 min
Histogram: 1 0 0 0 0 0 0 0 0 0
Nghost:    185 ave 185 max 185 min
Histogram: 1 0 0 0 0 0 0 0 0 0
Neighs:    359 ave 359 max 359 min
Histogram: 1 0 0 0 0 0 0 0 0 0

Total # of neighbors = 359
Ave neighs/atom = 8.7561
Neighbor list builds = 0
Dangerous builds = 0
	# write_dump all atom ${dumpfile}
        next i
jump SELF loop1
        displace_atoms upper move 0.0 ${ystep1} 0.0 units lattice
        displace_atoms upper move 0.0 0.002 0.0 units lattice
        min_style ${style}
        min_style cg
        minimize ${etol} ${ftol} ${maxiter} ${maxeval}
        minimize 1e-12 ${ftol} ${maxiter} ${maxeval}
        minimize 1e-12 1e-08 ${maxiter} ${maxeval}
        minimize 1e-12 1e-08 10000 ${maxeval}
        minimize 1e-12 1e-08 10000 20000
WARNING: Resetting reneighboring criteria during minimization (../min.cpp:168)
Memory usage per processor = 3.35962 Mbytes
Step Temp PotEng Lx Ly Lz 
       6            0   -120.99339    1.1224537    38.910253    1.1224537 
       7            0   -120.99339    1.1224537    38.910253    1.1224537 
Loop time of 4.00557e-05 on 1 procs for 1 steps with 41 atoms

Minimization stats:
  Stopping criterion = linesearch alpha is zero
  Energy initial, next-to-last, final = 
        -120.993389112     -120.993389112     -120.993389112
  Force two-norm initial, final = 1.70736e-17 1.70736e-17
  Force max component initial, final = 1.25767e-17 1.25767e-17
  Final line search alpha, max atom move = 0.5 6.28837e-18
  Iterations, force evaluations = 1 2

Pair  time (%) = 2.49209e-05 (62.2156)
Neigh time (%) = 0 (0)
Comm  time (%) = 2.66894e-06 (6.66306)
Outpt time (%) = 0 (0)
Other time (%) = 1.24659e-05 (31.1213)

Nlocal:    41 ave 41 max 41 min
Histogram: 1 0 0 0 0 0 0 0 0 0
Nghost:    185 ave 185 max 185 min
Histogram: 1 0 0 0 0 0 0 0 0 0
Neighs:    359 ave 359 max 359 min
Histogram: 1 0 0 0 0 0 0 0 0 0

Total # of neighbors = 359
Ave neighs/atom = 8.7561
Neighbor list builds = 0
Dangerous builds = 0
	# write_dump all atom ${dumpfile}
        next i
jump SELF loop1
        displace_atoms upper move 0.0 ${ystep1} 0.0 units lattice
        displace_atoms upper move 0.0 0.002 0.0 units lattice
        min_style ${style}
        min_style cg
        minimize ${etol} ${ftol} ${maxiter} ${maxeval}
        minimize 1e-12 ${ftol} ${maxiter} ${maxeval}
        minimize 1e-12 1e-08 ${maxiter} ${maxeval}
        minimize 1e-12 1e-08 10000 ${maxeval}
        minimize 1e-12 1e-08 10000 20000
WARNING: Resetting reneighboring criteria during minimization (../min.cpp:168)
Memory usage per processor = 3.35962 Mbytes
Step Temp PotEng Lx Ly Lz 
       7            0    -120.9906    1.1224537    38.914142    1.1224537 
       8            0    -120.9906    1.1224537    38.914142    1.1224537 
Loop time of 3.99906e-05 on 1 procs for 1 steps with 41 atoms

Minimization stats:
  Stopping criterion = linesearch alpha is zero
  Energy initial, next-to-last, final = 
        -120.990596162     -120.990596162     -120.990596162
  Force two-norm initial, final = 1.56563e-17 1.56563e-17
  Force max component initial, final = 1.25767e-17 1.25767e-17
  Final line search alpha, max atom move = 0.5 6.28837e-18
  Iterations, force evaluations = 1 2

Pair  time (%) = 2.5818e-05 (64.5601)
Neigh time (%) = 0 (0)
Comm  time (%) = 7.94185e-07 (1.98593)
Outpt time (%) = 0 (0)
Other time (%) = 1.33784e-05 (33.4539)

Nlocal:    41 ave 41 max 41 min
Histogram: 1 0 0 0 0 0 0 0 0 0
Nghost:    185 ave 185 max 185 min
Histogram: 1 0 0 0 0 0 0 0 0 0
Neighs:    359 ave 359 max 359 min
Histogram: 1 0 0 0 0 0 0 0 0 0

Total # of neighbors = 359
Ave neighs/atom = 8.7561
Neighbor list builds = 0
Dangerous builds = 0
	# write_dump all atom ${dumpfile}
        next i
jump SELF loop1
        displace_atoms upper move 0.0 ${ystep1} 0.0 units lattice
        displace_atoms upper move 0.0 0.002 0.0 units lattice
        min_style ${style}
        min_style cg
        minimize ${etol} ${ftol} ${maxiter} ${maxeval}
        minimize 1e-12 ${ftol} ${maxiter} ${maxeval}
        minimize 1e-12 1e-08 ${maxiter} ${maxeval}
        minimize 1e-12 1e-08 10000 ${maxeval}
        minimize 1e-12 1e-08 10000 20000
WARNING: Resetting reneighboring criteria during minimization (../min.cpp:168)
Memory usage per processor = 3.35962 Mbytes
Step Temp PotEng Lx Ly Lz 
       8            0   -120.98735    1.1224537     38.91803    1.1224537 
       9            0   -120.98735    1.1224537     38.91803    1.1224537 
Loop time of 9.07457e-07 on 1 procs for 1 steps with 41 atoms

Minimization stats:
  Stopping criterion = linesearch alpha is zero
  Energy initial, next-to-last, final = 
         -120.98734878      -120.98734878      -120.98734878
  Force two-norm initial, final = 1.62112e-17 1.62112e-17
  Force max component initial, final = 1.51788e-17 1.51788e-17
  Final line search alpha, max atom move = 0.5 7.58942e-18
  Iterations, force evaluations = 1 2

Pair  time (%) = -2.77651e-07 (-30.5965)
Neigh time (%) = 0 (0)
Comm  time (%) = 4.44707e-07 (49.0058)
Outpt time (%) = 0 (0)
Other time (%) = 7.40401e-07 (81.5908)

Nlocal:    41 ave 41 max 41 min
Histogram: 1 0 0 0 0 0 0 0 0 0
Nghost:    185 ave 185 max 185 min
Histogram: 1 0 0 0 0 0 0 0 0 0
Neighs:    359 ave 359 max 359 min
Histogram: 1 0 0 0 0 0 0 0 0 0

Total # of neighbors = 359
Ave neighs/atom = 8.7561
Neighbor list builds = 0
Dangerous builds = 0
	# write_dump all atom ${dumpfile}
        next i
jump SELF loop1
        displace_atoms upper move 0.0 ${ystep1} 0.0 units lattice
        displace_atoms upper move 0.0 0.002 0.0 units lattice
        min_style ${style}
        min_style cg
        minimize ${etol} ${ftol} ${maxiter} ${maxeval}
        minimize 1e-12 ${ftol} ${maxiter} ${maxeval}
        minimize 1e-12 1e-08 ${maxiter} ${maxeval}
        minimize 1e-12 1e-08 10000 ${maxeval}
        minimize 1e-12 1e-08 10000 20000
WARNING: Resetting reneighboring criteria during minimization (../min.cpp:168)
Memory usage per processor = 3.35962 Mbytes
Step Temp PotEng Lx Ly Lz 
       9            0   -120.98366    1.1224537    38.921918    1.1224537 
      10            0   -120.98366    1.1224537    38.921918    1.1224537 
Loop time of 3.903e-05 on 1 procs for 1 steps with 41 atoms

Minimization stats:
  Stopping criterion = linesearch alpha is zero
  Energy initial, next-to-last, final = 
        -120.983662255     -120.983662255     -120.983662255
  Force two-norm initial, final = 2.94715e-17 2.94715e-17
  Force max component initial, final = 2.52619e-17 2.52619e-17
  Final line search alpha, max atom move = 0.5 1.2631e-17
  Iterations, force evaluations = 1 2

Pair  time (%) = 2.48436e-05 (63.6526)
Neigh time (%) = 0 (0)
Comm  time (%) = 3.75276e-06 (9.61508)
Outpt time (%) = 0 (0)
Other time (%) = 1.04336e-05 (26.7323)

Nlocal:    41 ave 41 max 41 min
Histogram: 1 0 0 0 0 0 0 0 0 0
Nghost:    185 ave 185 max 185 min
Histogram: 1 0 0 0 0 0 0 0 0 0
Neighs:    359 ave 359 max 359 min
Histogram: 1 0 0 0 0 0 0 0 0 0

Total # of neighbors = 359
Ave neighs/atom = 8.7561
Neighbor list builds = 0
Dangerous builds = 0
	# write_dump all atom ${dumpfile}
        next i
jump SELF loop1
        displace_atoms upper move 0.0 ${ystep1} 0.0 units lattice
        displace_atoms upper move 0.0 0.002 0.0 units lattice
        min_style ${style}
        min_style cg
        minimize ${etol} ${ftol} ${maxiter} ${maxeval}
        minimize 1e-12 ${ftol} ${maxiter} ${maxeval}
        minimize 1e-12 1e-08 ${maxiter} ${maxeval}
        minimize 1e-12 1e-08 10000 ${maxeval}
        minimize 1e-12 1e-08 10000 20000
WARNING: Resetting reneighboring criteria during minimization (../min.cpp:168)
Memory usage per processor = 3.35962 Mbytes
Step Temp PotEng Lx Ly Lz 
      10            0   -120.97955    1.1224537    38.925807    1.1224537 
      11            0   -120.97955    1.1224537    38.925807    1.1224537 
Loop time of 4.19281e-05 on 1 procs for 1 steps with 41 atoms

Minimization stats:
  Stopping criterion = linesearch alpha is zero
  Energy initial, next-to-last, final = 
        -120.979550066     -120.979550066     -120.979550066
  Force two-norm initial, final = 3.11605e-17 3.11605e-17
  Force max component initial, final = 2.72135e-17 2.72135e-17
  Final line search alpha, max atom move = 0.5 1.36067e-17
  Iterations, force evaluations = 1 2

Pair  time (%) = 2.69619e-05 (64.305)
Neigh time (%) = 0 (0)
Comm  time (%) = 4.32029e-06 (10.304)
Outpt time (%) = 0 (0)
Other time (%) = 1.06459e-05 (25.3909)

Nlocal:    41 ave 41 max 41 min
Histogram: 1 0 0 0 0 0 0 0 0 0
Nghost:    185 ave 185 max 185 min
Histogram: 1 0 0 0 0 0 0 0 0 0
Neighs:    359 ave 359 max 359 min
Histogram: 1 0 0 0 0 0 0 0 0 0

Total # of neighbors = 359
Ave neighs/atom = 8.7561
Neighbor list builds = 0
Dangerous builds = 0
	# write_dump all atom ${dumpfile}
        next i
jump SELF loop1
        displace_atoms upper move 0.0 ${ystep1} 0.0 units lattice
        displace_atoms upper move 0.0 0.002 0.0 units lattice
        min_style ${style}
        min_style cg
        minimize ${etol} ${ftol} ${maxiter} ${maxeval}
        minimize 1e-12 ${ftol} ${maxiter} ${maxeval}
        minimize 1e-12 1e-08 ${maxiter} ${maxeval}
        minimize 1e-12 1e-08 10000 ${maxeval}
        minimize 1e-12 1e-08 10000 20000
WARNING: Resetting reneighboring criteria during minimization (../min.cpp:168)
Memory usage per processor = 3.35962 Mbytes
Step Temp PotEng Lx Ly Lz 
      11            0   -120.97503    1.1224537    38.929695    1.1224537 
      12            0   -120.97503    1.1224537    38.929695    1.1224537 
Loop time of 4.002e-05 on 1 procs for 1 steps with 41 atoms

Minimization stats:
  Stopping criterion = linesearch alpha is zero
  Energy initial, next-to-last, final = 
        -120.975028663     -120.975028663     -120.975028663
  Force two-norm initial, final = 2.85476e-17 2.85476e-17
  Force max component initial, final = 2.41777e-17 2.41777e-17
  Final line search alpha, max atom move = 0.5 1.20889e-17
  Iterations, force evaluations = 1 2

Pair  time (%) = 2.58598e-05 (64.6172)
Neigh time (%) = 0 (0)
Comm  time (%) = 3.06987e-06 (7.67085)
Outpt time (%) = 0 (0)
Other time (%) = 1.10903e-05 (27.7119)

Nlocal:    41 ave 41 max 41 min
Histogram: 1 0 0 0 0 0 0 0 0 0
Nghost:    185 ave 185 max 185 min
Histogram: 1 0 0 0 0 0 0 0 0 0
Neighs:    359 ave 359 max 359 min
Histogram: 1 0 0 0 0 0 0 0 0 0

Total # of neighbors = 359
Ave neighs/atom = 8.7561
Neighbor list builds = 0
Dangerous builds = 0
	# write_dump all atom ${dumpfile}
        next i
jump SELF loop1
        displace_atoms upper move 0.0 ${ystep1} 0.0 units lattice
        displace_atoms upper move 0.0 0.002 0.0 units lattice
        min_style ${style}
        min_style cg
        minimize ${etol} ${ftol} ${maxiter} ${maxeval}
        minimize 1e-12 ${ftol} ${maxiter} ${maxeval}
        minimize 1e-12 1e-08 ${maxiter} ${maxeval}
        minimize 1e-12 1e-08 10000 ${maxeval}
        minimize 1e-12 1e-08 10000 20000
WARNING: Resetting reneighboring criteria during minimization (../min.cpp:168)
Memory usage per processor = 3.35962 Mbytes
Step Temp PotEng Lx Ly Lz 
      12            0   -120.97011    1.1224537    38.933583    1.1224537 
      13            0   -120.97011    1.1224537    38.933583    1.1224537 
Loop time of 3.99875e-05 on 1 procs for 1 steps with 41 atoms

Minimization stats:
  Stopping criterion = linesearch alpha is zero
  Energy initial, next-to-last, final = 
        -120.970112426     -120.970112426     -120.970112426
  Force two-norm initial, final = 2.25651e-17 2.25651e-17
  Force max component initial, final = 1.66967e-17 1.66967e-17
  Final line search alpha, max atom move = 0.5 8.34836e-18
  Iterations, force evaluations = 1 2

Pair  time (%) = 2.57625e-05 (64.4263)
Neigh time (%) = 0 (0)
Comm  time (%) = 4.11365e-06 (10.2873)
Outpt time (%) = 0 (0)
Other time (%) = 1.01114e-05 (25.2863)

Nlocal:    41 ave 41 max 41 min
Histogram: 1 0 0 0 0 0 0 0 0 0
Nghost:    185 ave 185 max 185 min
Histogram: 1 0 0 0 0 0 0 0 0 0
Neighs:    359 ave 359 max 359 min
Histogram: 1 0 0 0 0 0 0 0 0 0

Total # of neighbors = 359
Ave neighs/atom = 8.7561
Neighbor list builds = 0
Dangerous builds = 0
	# write_dump all atom ${dumpfile}
        next i
jump SELF loop1
        displace_atoms upper move 0.0 ${ystep1} 0.0 units lattice
        displace_atoms upper move 0.0 0.002 0.0 units lattice
        min_style ${style}
        min_style cg
        minimize ${etol} ${ftol} ${maxiter} ${maxeval}
        minimize 1e-12 ${ftol} ${maxiter} ${maxeval}
        minimize 1e-12 1e-08 ${maxiter} ${maxeval}
        minimize 1e-12 1e-08 10000 ${maxeval}
        minimize 1e-12 1e-08 10000 20000
WARNING: Resetting reneighboring criteria during minimization (../min.cpp:168)
Memory usage per processor = 3.35962 Mbytes
Step Temp PotEng Lx Ly Lz 
      13            0   -120.96482    1.1224537    38.937471    1.1224537 
      14            0   -120.96482    1.1224537    38.937471    1.1224537 
Loop time of 4.09728e-05 on 1 procs for 1 steps with 41 atoms

Minimization stats:
  Stopping criterion = linesearch alpha is zero
  Energy initial, next-to-last, final = 
        -120.964815371     -120.964815371     -120.964815371
  Force two-norm initial, final = 1.68277e-17 1.68277e-17
  Force max component initial, final = 1.51788e-17 1.51788e-17
  Final line search alpha, max atom move = 0.5 7.58942e-18
  Iterations, force evaluations = 1 2

Pair  time (%) = 2.48111e-05 (60.5551)
Neigh time (%) = 0 (0)
Comm  time (%) = 4.11831e-06 (10.0513)
Outpt time (%) = 0 (0)
Other time (%) = 1.20434e-05 (29.3936)

Nlocal:    41 ave 41 max 41 min
Histogram: 1 0 0 0 0 0 0 0 0 0
Nghost:    185 ave 185 max 185 min
Histogram: 1 0 0 0 0 0 0 0 0 0
Neighs:    359 ave 359 max 359 min
Histogram: 1 0 0 0 0 0 0 0 0 0

Total # of neighbors = 359
Ave neighs/atom = 8.7561
Neighbor list builds = 0
Dangerous builds = 0
	# write_dump all atom ${dumpfile}
        next i
jump SELF loop1
        displace_atoms upper move 0.0 ${ystep1} 0.0 units lattice
        displace_atoms upper move 0.0 0.002 0.0 units lattice
        min_style ${style}
        min_style cg
        minimize ${etol} ${ftol} ${maxiter} ${maxeval}
        minimize 1e-12 ${ftol} ${maxiter} ${maxeval}
        minimize 1e-12 1e-08 ${maxiter} ${maxeval}
        minimize 1e-12 1e-08 10000 ${maxeval}
        minimize 1e-12 1e-08 10000 20000
WARNING: Resetting reneighboring criteria during minimization (../min.cpp:168)
Memory usage per processor = 3.35962 Mbytes
Step Temp PotEng Lx Ly Lz 
      14            0   -120.95915    1.1224537     38.94136    1.1224537 
      15            0   -120.95915    1.1224537     38.94136    1.1224537 
Loop time of 3.99336e-05 on 1 procs for 1 steps with 41 atoms

Minimization stats:
  Stopping criterion = linesearch alpha is zero
  Energy initial, next-to-last, final = 
        -120.959151201     -120.959151201     -120.959151201
  Force two-norm initial, final = 1.75365e-17 1.75365e-17
  Force max component initial, final = 1.51788e-17 1.51788e-17
  Final line search alpha, max atom move = 0.5 7.58942e-18
  Iterations, force evaluations = 1 2

Pair  time (%) = 2.53161e-05 (63.3956)
Neigh time (%) = 0 (0)
Comm  time (%) = 5.22076e-06 (13.0736)
Outpt time (%) = 0 (0)
Other time (%) = 9.3967e-06 (23.5308)

Nlocal:    41 ave 41 max 41 min
Histogram: 1 0 0 0 0 0 0 0 0 0
Nghost:    185 ave 185 max 185 min
Histogram: 1 0 0 0 0 0 0 0 0 0
Neighs:    359 ave 359 max 359 min
Histogram: 1 0 0 0 0 0 0 0 0 0

Total # of neighbors = 359
Ave neighs/atom = 8.7561
Neighbor list builds = 0
Dangerous builds = 0
	# write_dump all atom ${dumpfile}
        next i
jump SELF loop1
        displace_atoms upper move 0.0 ${ystep1} 0.0 units lattice
        displace_atoms upper move 0.0 0.002 0.0 units lattice
        min_style ${style}
        min_style cg
        minimize ${etol} ${ftol} ${maxiter} ${maxeval}
        minimize 1e-12 ${ftol} ${maxiter} ${maxeval}
        minimize 1e-12 1e-08 ${maxiter} ${maxeval}
        minimize 1e-12 1e-08 10000 ${maxeval}
        minimize 1e-12 1e-08 10000 20000
WARNING: Resetting reneighboring criteria during minimization (../min.cpp:168)
Memory usage per processor = 3.35962 Mbytes
Step Temp PotEng Lx Ly Lz 
      15            0   -120.95313    1.1224537    38.945248    1.1224537 
      16            0   -120.95313    1.1224537    38.945248    1.1224537 
Loop time of 3.70051e-05 on 1 procs for 1 steps with 41 atoms

Minimization stats:
  Stopping criterion = linesearch alpha is zero
  Energy initial, next-to-last, final = 
        -120.953133304     -120.953133304     -120.953133304
  Force two-norm initial, final = 1.57865e-17 1.57865e-17
  Force max component initial, final = 1.51788e-17 1.51788e-17
  Final line search alpha, max atom move = 0.5 7.58942e-18
  Iterations, force evaluations = 1 2

Pair  time (%) = 2.49076e-05 (67.3088)
Neigh time (%) = 0 (0)
Comm  time (%) = 2.88081e-06 (7.78492)
Outpt time (%) = 0 (0)
Other time (%) = 9.2166e-06 (24.9063)

Nlocal:    41 ave 41 max 41 min
Histogram: 1 0 0 0 0 0 0 0 0 0
Nghost:    185 ave 185 max 185 min
Histogram: 1 0 0 0 0 0 0 0 0 0
Neighs:    359 ave 359 max 359 min
Histogram: 1 0 0 0 0 0 0 0 0 0

Total # of neighbors = 359
Ave neighs/atom = 8.7561
Neighbor list builds = 0
Dangerous builds = 0
	# write_dump all atom ${dumpfile}
        next i
jump SELF loop1
        displace_atoms upper move 0.0 ${ystep1} 0.0 units lattice
        displace_atoms upper move 0.0 0.002 0.0 units lattice
        min_style ${style}
        min_style cg
        minimize ${etol} ${ftol} ${maxiter} ${maxeval}
        minimize 1e-12 ${ftol} ${maxiter} ${maxeval}
        minimize 1e-12 1e-08 ${maxiter} ${maxeval}
        minimize 1e-12 1e-08 10000 ${maxeval}
        minimize 1e-12 1e-08 10000 20000
WARNING: Resetting reneighboring criteria during minimization (../min.cpp:168)
Memory usage per processor = 3.35962 Mbytes
Step Temp PotEng Lx Ly Lz 
      16            0   -120.94677    1.1224537    38.949136    1.1224537 
      17            0   -120.94677    1.1224537    38.949136    1.1224537 
Loop time of 3.99108e-05 on 1 procs for 1 steps with 41 atoms

Minimization stats:
  Stopping criterion = linesearch alpha is zero
  Energy initial, next-to-last, final = 
        -120.946774753     -120.946774753     -120.946774753
  Force two-norm initial, final = 1.72714e-17 1.72714e-17
  Force max component initial, final = 1.51788e-17 1.51788e-17
  Final line search alpha, max atom move = 0.5 7.58942e-18
  Iterations, force evaluations = 1 2

Pair  time (%) = 2.40552e-05 (60.2726)
Neigh time (%) = 0 (0)
Comm  time (%) = 3.17604e-06 (7.95786)
Outpt time (%) = 0 (0)
Other time (%) = 1.26795e-05 (31.7696)

Nlocal:    41 ave 41 max 41 min
Histogram: 1 0 0 0 0 0 0 0 0 0
Nghost:    185 ave 185 max 185 min
Histogram: 1 0 0 0 0 0 0 0 0 0
Neighs:    359 ave 359 max 359 min
Histogram: 1 0 0 0 0 0 0 0 0 0

Total # of neighbors = 359
Ave neighs/atom = 8.7561
Neighbor list builds = 0
Dangerous builds = 0
	# write_dump all atom ${dumpfile}
        next i
jump SELF loop1
        displace_atoms upper move 0.0 ${ystep1} 0.0 units lattice
        displace_atoms upper move 0.0 0.002 0.0 units lattice
        min_style ${style}
        min_style cg
        minimize ${etol} ${ftol} ${maxiter} ${maxeval}
        minimize 1e-12 ${ftol} ${maxiter} ${maxeval}
        minimize 1e-12 1e-08 ${maxiter} ${maxeval}
        minimize 1e-12 1e-08 10000 ${maxeval}
        minimize 1e-12 1e-08 10000 20000
WARNING: Resetting reneighboring criteria during minimization (../min.cpp:168)
Memory usage per processor = 3.35962 Mbytes
Step Temp PotEng Lx Ly Lz 
      17            0   -120.94009    1.1224537    38.953025    1.1224537 
      18            0   -120.94009    1.1224537    38.953025    1.1224537 
Loop time of 3.88987e-05 on 1 procs for 1 steps with 41 atoms

Minimization stats:
  Stopping criterion = linesearch alpha is zero
  Energy initial, next-to-last, final = 
        -120.940088362     -120.940088362     -120.940088362
  Force two-norm initial, final = 1.68043e-17 1.68043e-17
  Force max component initial, final = 1.51788e-17 1.51788e-17
  Final line search alpha, max atom move = 0.5 7.58942e-18
  Iterations, force evaluations = 1 2

Pair  time (%) = 2.51649e-05 (64.6935)
Neigh time (%) = 0 (0)
Comm  time (%) = 3.91831e-06 (10.0731)
Outpt time (%) = 0 (0)
Other time (%) = 9.81544e-06 (25.2334)

Nlocal:    41 ave 41 max 41 min
Histogram: 1 0 0 0 0 0 0 0 0 0
Nghost:    185 ave 185 max 185 min
Histogram: 1 0 0 0 0 0 0 0 0 0
Neighs:    359 ave 359 max 359 min
Histogram: 1 0 0 0 0 0 0 0 0 0

Total # of neighbors = 359
Ave neighs/atom = 8.7561
Neighbor list builds = 0
Dangerous builds = 0
	# write_dump all atom ${dumpfile}
        next i
jump SELF loop1
        displace_atoms upper move 0.0 ${ystep1} 0.0 units lattice
        displace_atoms upper move 0.0 0.002 0.0 units lattice
        min_style ${style}
        min_style cg
        minimize ${etol} ${ftol} ${maxiter} ${maxeval}
        minimize 1e-12 ${ftol} ${maxiter} ${maxeval}
        minimize 1e-12 1e-08 ${maxiter} ${maxeval}
        minimize 1e-12 1e-08 10000 ${maxeval}
        minimize 1e-12 1e-08 10000 20000
WARNING: Resetting reneighboring criteria during minimization (../min.cpp:168)
Memory usage per processor = 3.35962 Mbytes
Step Temp PotEng Lx Ly Lz 
      18            0    -120.9331    1.1224537    38.956913    1.1224537 
      19            0    -120.9331    1.1224537    38.956913    1.1224537 
Loop time of 4.00651e-05 on 1 procs for 1 steps with 41 atoms

Minimization stats:
  Stopping criterion = linesearch alpha is zero
  Energy initial, next-to-last, final = 
        -120.933100484     -120.933100484     -120.933100484
  Force two-norm initial, final = 1.57864e-17 1.57864e-17
  Force max component initial, final = 1.51788e-17 1.51788e-17
  Final line search alpha, max atom move = 0.5 7.58942e-18
  Iterations, force evaluations = 1 2

Pair  time (%) = 2.5949e-05 (64.767)
Neigh time (%) = 0 (0)
Comm  time (%) = 4.53298e-06 (11.314)
Outpt time (%) = 0 (0)
Other time (%) = 9.58319e-06 (23.919)

Nlocal:    41 ave 41 max 41 min
Histogram: 1 0 0 0 0 0 0 0 0 0
Nghost:    185 ave 185 max 185 min
Histogram: 1 0 0 0 0 0 0 0 0 0
Neighs:    355 ave 355 max 355 min
Histogram: 1 0 0 0 0 0 0 0 0 0

Total # of neighbors = 355
Ave neighs/atom = 8.65854
Neighbor list builds = 0
Dangerous builds = 0
	# write_dump all atom ${dumpfile}
        next i
jump SELF loop1
        displace_atoms upper move 0.0 ${ystep1} 0.0 units lattice
        displace_atoms upper move 0.0 0.002 0.0 units lattice
        min_style ${style}
        min_style cg
        minimize ${etol} ${ftol} ${maxiter} ${maxeval}
        minimize 1e-12 ${ftol} ${maxiter} ${maxeval}
        minimize 1e-12 1e-08 ${maxiter} ${maxeval}
        minimize 1e-12 1e-08 10000 ${maxeval}
        minimize 1e-12 1e-08 10000 20000
WARNING: Resetting reneighboring criteria during minimization (../min.cpp:168)
Memory usage per processor = 3.35962 Mbytes
Step Temp PotEng Lx Ly Lz 
      19            0   -120.92591    1.1224537    38.960801    1.1224537 
      20            0   -120.92591    1.1224537    38.960801    1.1224537 
Loop time of 3.99073e-05 on 1 procs for 1 steps with 41 atoms

Minimization stats:
  Stopping criterion = linesearch alpha is zero
  Energy initial, next-to-last, final = 
        -120.925913882     -120.925913882     -120.925913882
  Force two-norm initial, final = 6.72639e-17 6.72639e-17
  Force max component initial, final = 5.38306e-17 5.38306e-17
  Final line search alpha, max atom move = 0.5 2.69153e-17
  Iterations, force evaluations = 1 2

Pair  time (%) = 2.52834e-05 (63.3554)
Neigh time (%) = 0 (0)
Comm  time (%) = 3.15555e-06 (7.90721)
Outpt time (%) = 0 (0)
Other time (%) = 1.14683e-05 (28.7374)

Nlocal:    41 ave 41 max 41 min
Histogram: 1 0 0 0 0 0 0 0 0 0
Nghost:    185 ave 185 max 185 min
Histogram: 1 0 0 0 0 0 0 0 0 0
Neighs:    355 ave 355 max 355 min
Histogram: 1 0 0 0 0 0 0 0 0 0

Total # of neighbors = 355
Ave neighs/atom = 8.65854
Neighbor list builds = 0
Dangerous builds = 0
	# write_dump all atom ${dumpfile}
        next i
jump SELF loop1
        displace_atoms upper move 0.0 ${ystep1} 0.0 units lattice
        displace_atoms upper move 0.0 0.002 0.0 units lattice
        min_style ${style}
        min_style cg
        minimize ${etol} ${ftol} ${maxiter} ${maxeval}
        minimize 1e-12 ${ftol} ${maxiter} ${maxeval}
        minimize 1e-12 1e-08 ${maxiter} ${maxeval}
        minimize 1e-12 1e-08 10000 ${maxeval}
        minimize 1e-12 1e-08 10000 20000
WARNING: Resetting reneighboring criteria during minimization (../min.cpp:168)
Memory usage per processor = 3.35962 Mbytes
Step Temp PotEng Lx Ly Lz 
      20            0   -120.91855    1.1224537    38.964689    1.1224537 
      21            0   -120.91855    1.1224537    38.964689    1.1224537 
Loop time of 3.99484e-05 on 1 procs for 1 steps with 41 atoms

Minimization stats:
  Stopping criterion = linesearch alpha is zero
  Energy initial, next-to-last, final = 
        -120.918549985     -120.918549985     -120.918549985
  Force two-norm initial, final = 5.24317e-17 5.24317e-17
  Force max component initial, final = 4.03323e-17 4.03323e-17
  Final line search alpha, max atom move = 0.5 2.01662e-17
  Iterations, force evaluations = 1 2

Pair  time (%) = 2.46913e-05 (61.8081)
Neigh time (%) = 0 (0)
Comm  time (%) = 3.40189e-06 (8.51571)
Outpt time (%) = 0 (0)
Other time (%) = 1.18552e-05 (29.6762)

Nlocal:    41 ave 41 max 41 min
Histogram: 1 0 0 0 0 0 0 0 0 0
Nghost:    185 ave 185 max 185 min
Histogram: 1 0 0 0 0 0 0 0 0 0
Neighs:    355 ave 355 max 355 min
Histogram: 1 0 0 0 0 0 0 0 0 0

Total # of neighbors = 355
Ave neighs/atom = 8.65854
Neighbor list builds = 0
Dangerous builds = 0
	# write_dump all atom ${dumpfile}
        next i
jump SELF loop1
        displace_atoms upper move 0.0 ${ystep1} 0.0 units lattice
        displace_atoms upper move 0.0 0.002 0.0 units lattice
        min_style ${style}
        min_style cg
        minimize ${etol} ${ftol} ${maxiter} ${maxeval}
        minimize 1e-12 ${ftol} ${maxiter} ${maxeval}
        minimize 1e-12 1e-08 ${maxiter} ${maxeval}
        minimize 1e-12 1e-08 10000 ${maxeval}
        minimize 1e-12 1e-08 10000 20000
WARNING: Resetting reneighboring criteria during minimization (../min.cpp:168)
Memory usage per processor = 3.35962 Mbytes
Step Temp PotEng Lx Ly Lz 
      21            0   -120.91101    1.1224537    38.968578    1.1224537 
      22            0   -120.91101    1.1224537    38.968578    1.1224537 
Loop time of 3.80358e-05 on 1 procs for 1 steps with 41 atoms

Minimization stats:
  Stopping criterion = linesearch alpha is zero
  Energy initial, next-to-last, final = 
        -120.911010787     -120.911010787     -120.911010787
  Force two-norm initial, final = 4.06396e-17 4.06396e-17
  Force max component initial, final = 4.03323e-17 4.03323e-17
  Final line search alpha, max atom move = 0.5 2.01662e-17
  Iterations, force evaluations = 1 2

Pair  time (%) = 1.88744e-05 (49.6228)
Neigh time (%) = 0 (0)
Comm  time (%) = 3.77488e-06 (9.92455)
Outpt time (%) = 0 (0)
Other time (%) = 1.53865e-05 (40.4527)

Nlocal:    41 ave 41 max 41 min
Histogram: 1 0 0 0 0 0 0 0 0 0
Nghost:    185 ave 185 max 185 min
Histogram: 1 0 0 0 0 0 0 0 0 0
Neighs:    355 ave 355 max 355 min
Histogram: 1 0 0 0 0 0 0 0 0 0

Total # of neighbors = 355
Ave neighs/atom = 8.65854
Neighbor list builds = 0
Dangerous builds = 0
	# write_dump all atom ${dumpfile}
        next i
jump SELF loop1
        displace_atoms upper move 0.0 ${ystep1} 0.0 units lattice
        displace_atoms upper move 0.0 0.002 0.0 units lattice
        min_style ${style}
        min_style cg
        minimize ${etol} ${ftol} ${maxiter} ${maxeval}
        minimize 1e-12 ${ftol} ${maxiter} ${maxeval}
        minimize 1e-12 1e-08 ${maxiter} ${maxeval}
        minimize 1e-12 1e-08 10000 ${maxeval}
        minimize 1e-12 1e-08 10000 20000
WARNING: Resetting reneighboring criteria during minimization (../min.cpp:168)
Memory usage per processor = 3.35962 Mbytes
Step Temp PotEng Lx Ly Lz 
      22            0    -120.9033    1.1224537    38.972466    1.1224537 
      23            0    -120.9033    1.1224537    38.972466    1.1224537 
Loop time of 6.89501e-05 on 1 procs for 1 steps with 41 atoms

Minimization stats:
  Stopping criterion = linesearch alpha is zero
  Energy initial, next-to-last, final = 
        -120.903298365     -120.903298365     -120.903298365
  Force two-norm initial, final = 4.71922e-17 4.71922e-17
  Force max component initial, final = 4.03323e-17 4.03323e-17
  Final line search alpha, max atom move = 0.5 2.01662e-17
  Iterations, force evaluations = 1 2

Pair  time (%) = 2.2882e-05 (33.1863)
Neigh time (%) = 0 (0)
Comm  time (%) = 4.16732e-06 (6.04396)
Outpt time (%) = 0 (0)
Other time (%) = 4.19008e-05 (60.7697)

Nlocal:    41 ave 41 max 41 min
Histogram: 1 0 0 0 0 0 0 0 0 0
Nghost:    185 ave 185 max 185 min
Histogram: 1 0 0 0 0 0 0 0 0 0
Neighs:    355 ave 355 max 355 min
Histogram: 1 0 0 0 0 0 0 0 0 0

Total # of neighbors = 355
Ave neighs/atom = 8.65854
Neighbor list builds = 0
Dangerous builds = 0
	# write_dump all atom ${dumpfile}
        next i
jump SELF loop1
        displace_atoms upper move 0.0 ${ystep1} 0.0 units lattice
        displace_atoms upper move 0.0 0.002 0.0 units lattice
        min_style ${style}
        min_style cg
        minimize ${etol} ${ftol} ${maxiter} ${maxeval}
        minimize 1e-12 ${ftol} ${maxiter} ${maxeval}
        minimize 1e-12 1e-08 ${maxiter} ${maxeval}
        minimize 1e-12 1e-08 10000 ${maxeval}
        minimize 1e-12 1e-08 10000 20000
WARNING: Resetting reneighboring criteria during minimization (../min.cpp:168)
Memory usage per processor = 3.35962 Mbytes
Step Temp PotEng Lx Ly Lz 
      23            0   -120.89541    1.1224537    38.976354    1.1224537 
      24            0   -120.89541    1.1224537    38.976354    1.1224537 
Loop time of 3.98846e-05 on 1 procs for 1 steps with 41 atoms

Minimization stats:
  Stopping criterion = linesearch alpha is zero
  Energy initial, next-to-last, final = 
        -120.895414258     -120.895414258     -120.895414258
  Force two-norm initial, final = 5.18136e-17 5.18136e-17
  Force max component initial, final = 4.03323e-17 4.03323e-17
  Final line search alpha, max atom move = 0.5 2.01662e-17
  Iterations, force evaluations = 1 2

Pair  time (%) = 2.52151e-05 (63.2201)
Neigh time (%) = 0 (0)
Comm  time (%) = 3.01888e-06 (7.56904)
Outpt time (%) = 0 (0)
Other time (%) = 1.16506e-05 (29.2108)

Nlocal:    41 ave 41 max 41 min
Histogram: 1 0 0 0 0 0 0 0 0 0
Nghost:    185 ave 185 max 185 min
Histogram: 1 0 0 0 0 0 0 0 0 0
Neighs:    355 ave 355 max 355 min
Histogram: 1 0 0 0 0 0 0 0 0 0

Total # of neighbors = 355
Ave neighs/atom = 8.65854
Neighbor list builds = 0
Dangerous builds = 0
	# write_dump all atom ${dumpfile}
        next i
jump SELF loop1
        displace_atoms upper move 0.0 ${ystep1} 0.0 units lattice
        displace_atoms upper move 0.0 0.002 0.0 units lattice
        min_style ${style}
        min_style cg
        minimize ${etol} ${ftol} ${maxiter} ${maxeval}
        minimize 1e-12 ${ftol} ${maxiter} ${maxeval}
        minimize 1e-12 1e-08 ${maxiter} ${maxeval}
        minimize 1e-12 1e-08 10000 ${maxeval}
        minimize 1e-12 1e-08 10000 20000
WARNING: Resetting reneighboring criteria during minimization (../min.cpp:168)
Memory usage per processor = 3.35962 Mbytes
Step Temp PotEng Lx Ly Lz 
      24            0   -120.88736    1.1224537    38.980243    1.1224537 
      25            0   -120.88736    1.1224537    38.980243    1.1224537 
Loop time of 4.10813e-05 on 1 procs for 1 steps with 41 atoms

Minimization stats:
  Stopping criterion = linesearch alpha is zero
  Energy initial, next-to-last, final = 
        -120.887360959     -120.887360959     -120.887360959
  Force two-norm initial, final = 5.63528e-17 5.63528e-17
  Force max component initial, final = 4.03323e-17 4.03323e-17
  Final line search alpha, max atom move = 0.5 2.01662e-17
  Iterations, force evaluations = 1 2

Pair  time (%) = 2.61365e-05 (63.6214)
Neigh time (%) = 0 (0)
Comm  time (%) = 3.9544e-06 (9.62577)
Outpt time (%) = 0 (0)
Other time (%) = 1.09904e-05 (26.7528)

Nlocal:    41 ave 41 max 41 min
Histogram: 1 0 0 0 0 0 0 0 0 0
Nghost:    185 ave 185 max 185 min
Histogram: 1 0 0 0 0 0 0 0 0 0
Neighs:    355 ave 355 max 355 min
Histogram: 1 0 0 0 0 0 0 0 0 0

Total # of neighbors = 355
Ave neighs/atom = 8.65854
Neighbor list builds = 0
Dangerous builds = 0
	# write_dump all atom ${dumpfile}
        next i
jump SELF loop1
        displace_atoms upper move 0.0 ${ystep1} 0.0 units lattice
        displace_atoms upper move 0.0 0.002 0.0 units lattice
        min_style ${style}
        min_style cg
        minimize ${etol} ${ftol} ${maxiter} ${maxeval}
        minimize 1e-12 ${ftol} ${maxiter} ${maxeval}
        minimize 1e-12 1e-08 ${maxiter} ${maxeval}
        minimize 1e-12 1e-08 10000 ${maxeval}
        minimize 1e-12 1e-08 10000 20000
WARNING: Resetting reneighboring criteria during minimization (../min.cpp:168)
Memory usage per processor = 3.35962 Mbytes
Step Temp PotEng Lx Ly Lz 
      25            0   -120.87914    1.1224537    38.984131    1.1224537 
      26            0   -120.87914    1.1224537    38.984131    1.1224537 
Loop time of 3.991e-05 on 1 procs for 1 steps with 41 atoms

Minimization stats:
  Stopping criterion = linesearch alpha is zero
  Energy initial, next-to-last, final = 
        -120.879140666     -120.879140666     -120.879140666
  Force two-norm initial, final = 6.01029e-17 6.01029e-17
  Force max component initial, final = 4.45607e-17 4.45607e-17
  Final line search alpha, max atom move = 0.5 2.22804e-17
  Iterations, force evaluations = 1 2

Pair  time (%) = 2.40991e-05 (60.3838)
Neigh time (%) = 0 (0)
Comm  time (%) = 2.21748e-06 (5.5562)
Outpt time (%) = 0 (0)
Other time (%) = 1.35934e-05 (34.06)

Nlocal:    41 ave 41 max 41 min
Histogram: 1 0 0 0 0 0 0 0 0 0
Nghost:    185 ave 185 max 185 min
Histogram: 1 0 0 0 0 0 0 0 0 0
Neighs:    355 ave 355 max 355 min
Histogram: 1 0 0 0 0 0 0 0 0 0

Total # of neighbors = 355
Ave neighs/atom = 8.65854
Neighbor list builds = 0
Dangerous builds = 0
	# write_dump all atom ${dumpfile}
        next i
jump SELF loop1
        displace_atoms upper move 0.0 ${ystep1} 0.0 units lattice
        displace_atoms upper move 0.0 0.002 0.0 units lattice
        min_style ${style}
        min_style cg
        minimize ${etol} ${ftol} ${maxiter} ${maxeval}
        minimize 1e-12 ${ftol} ${maxiter} ${maxeval}
        minimize 1e-12 1e-08 ${maxiter} ${maxeval}
        minimize 1e-12 1e-08 10000 ${maxeval}
        minimize 1e-12 1e-08 10000 20000
WARNING: Resetting reneighboring criteria during minimization (../min.cpp:168)
Memory usage per processor = 3.35962 Mbytes
Step Temp PotEng Lx Ly Lz 
      26            0   -120.87076    1.1224537    38.988019    1.1224537 
      27            0   -120.87076    1.1224537    38.988019    1.1224537 
Loop time of 3.90369e-05 on 1 procs for 1 steps with 41 atoms

Minimization stats:
  Stopping criterion = linesearch alpha is zero
  Energy initial, next-to-last, final = 
        -120.870755489     -120.870755489     -120.870755489
  Force two-norm initial, final = 4.05649e-17 4.05649e-17
  Force max component initial, final = 4.03323e-17 4.03323e-17
  Final line search alpha, max atom move = 0.5 2.01662e-17
  Iterations, force evaluations = 1 2

Pair  time (%) = 2.48641e-05 (63.6939)
Neigh time (%) = 0 (0)
Comm  time (%) = 3.79374e-06 (9.71836)
Outpt time (%) = 0 (0)
Other time (%) = 1.0379e-05 (26.5877)

Nlocal:    41 ave 41 max 41 min
Histogram: 1 0 0 0 0 0 0 0 0 0
Nghost:    185 ave 185 max 185 min
Histogram: 1 0 0 0 0 0 0 0 0 0
Neighs:    355 ave 355 max 355 min
Histogram: 1 0 0 0 0 0 0 0 0 0

Total # of neighbors = 355
Ave neighs/atom = 8.65854
Neighbor list builds = 0
Dangerous builds = 0
	# write_dump all atom ${dumpfile}
        next i
jump SELF loop1
        displace_atoms upper move 0.0 ${ystep1} 0.0 units lattice
        displace_atoms upper move 0.0 0.002 0.0 units lattice
        min_style ${style}
        min_style cg
        minimize ${etol} ${ftol} ${maxiter} ${maxeval}
        minimize 1e-12 ${ftol} ${maxiter} ${maxeval}
        minimize 1e-12 1e-08 ${maxiter} ${maxeval}
        minimize 1e-12 1e-08 10000 ${maxeval}
        minimize 1e-12 1e-08 10000 20000
WARNING: Resetting reneighboring criteria during minimization (../min.cpp:168)
Memory usage per processor = 3.35962 Mbytes
Step Temp PotEng Lx Ly Lz 
      27            0   -120.86221    1.1224537    38.991908    1.1224537 
      28            0   -120.86221    1.1224537    38.991908    1.1224537 
Loop time of 4.10711e-05 on 1 procs for 1 steps with 41 atoms

Minimization stats:
  Stopping criterion = linesearch alpha is zero
  Energy initial, next-to-last, final = 
        -120.862207558     -120.862207558     -120.862207558
  Force two-norm initial, final = 4.67751e-17 4.67751e-17
  Force max component initial, final = 4.03323e-17 4.03323e-17
  Final line search alpha, max atom move = 0.5 2.01662e-17
  Iterations, force evaluations = 1 2

Pair  time (%) = 2.51059e-05 (61.1279)
Neigh time (%) = 0 (0)
Comm  time (%) = 3.75416e-06 (9.14064)
Outpt time (%) = 0 (0)
Other time (%) = 1.2211e-05 (29.7315)

Nlocal:    41 ave 41 max 41 min
Histogram: 1 0 0 0 0 0 0 0 0 0
Nghost:    185 ave 185 max 185 min
Histogram: 1 0 0 0 0 0 0 0 0 0
Neighs:    355 ave 355 max 355 min
Histogram: 1 0 0 0 0 0 0 0 0 0

Total # of neighbors = 355
Ave neighs/atom = 8.65854
Neighbor list builds = 0
Dangerous builds = 0
	# write_dump all atom ${dumpfile}
        next i
jump SELF loop1
        displace_atoms upper move 0.0 ${ystep1} 0.0 units lattice
        displace_atoms upper move 0.0 0.002 0.0 units lattice
        min_style ${style}
        min_style cg
        minimize ${etol} ${ftol} ${maxiter} ${maxeval}
        minimize 1e-12 ${ftol} ${maxiter} ${maxeval}
        minimize 1e-12 1e-08 ${maxiter} ${maxeval}
        minimize 1e-12 1e-08 10000 ${maxeval}
        minimize 1e-12 1e-08 10000 20000
WARNING: Resetting reneighboring criteria during minimization (../min.cpp:168)
Memory usage per processor = 3.35962 Mbytes
Step Temp PotEng Lx Ly Lz 
      28            0    -120.8535    1.1224537    38.995796    1.1224537 
      29            0    -120.8535    1.1224537    38.995796    1.1224537 
Loop time of 3.99528e-05 on 1 procs for 1 steps with 41 atoms

Minimization stats:
  Stopping criterion = linesearch alpha is zero
  Energy initial, next-to-last, final = 
        -120.853498182     -120.853498182     -120.853498182
  Force two-norm initial, final = 4.21208e-17 4.21208e-17
  Force max component initial, final = 4.03323e-17 4.03323e-17
  Final line search alpha, max atom move = 0.5 2.01662e-17
  Iterations, force evaluations = 1 2

Pair  time (%) = 2.50889e-05 (62.7963)
Neigh time (%) = 0 (0)
Comm  time (%) = 6.24335e-06 (15.6268)
Outpt time (%) = 0 (0)
Other time (%) = 8.62055e-06 (21.5768)

Nlocal:    41 ave 41 max 41 min
Histogram: 1 0 0 0 0 0 0 0 0 0
Nghost:    185 ave 185 max 185 min
Histogram: 1 0 0 0 0 0 0 0 0 0
Neighs:    355 ave 355 max 355 min
Histogram: 1 0 0 0 0 0 0 0 0 0

Total # of neighbors = 355
Ave neighs/atom = 8.65854
Neighbor list builds = 0
Dangerous builds = 0
	# write_dump all atom ${dumpfile}
        next i
jump SELF loop1
        displace_atoms upper move 0.0 ${ystep1} 0.0 units lattice
        displace_atoms upper move 0.0 0.002 0.0 units lattice
        min_style ${style}
        min_style cg
        minimize ${etol} ${ftol} ${maxiter} ${maxeval}
        minimize 1e-12 ${ftol} ${maxiter} ${maxeval}
        minimize 1e-12 1e-08 ${maxiter} ${maxeval}
        minimize 1e-12 1e-08 10000 ${maxeval}
        minimize 1e-12 1e-08 10000 20000
WARNING: Resetting reneighboring criteria during minimization (../min.cpp:168)
Memory usage per processor = 3.35962 Mbytes
Step Temp PotEng Lx Ly Lz 
      29            0   -120.84463    1.1224537    38.999684    1.1224537 
      30            0   -120.84463    1.1224537    38.999684    1.1224537 
Loop time of 3.90187e-05 on 1 procs for 1 steps with 41 atoms

Minimization stats:
  Stopping criterion = linesearch alpha is zero
  Energy initial, next-to-last, final = 
        -120.844630363     -120.844630363     -120.844630363
  Force two-norm initial, final = 4.39478e-17 4.39478e-17
  Force max component initial, final = 4.03323e-17 4.03323e-17
  Final line search alpha, max atom move = 0.5 2.01662e-17
  Iterations, force evaluations = 1 2

Pair  time (%) = 2.48095e-05 (63.5836)
Neigh time (%) = 0 (0)
Comm  time (%) = 4.16138e-06 (10.6651)
Outpt time (%) = 0 (0)
Other time (%) = 1.00478e-05 (25.7513)

Nlocal:    41 ave 41 max 41 min
Histogram: 1 0 0 0 0 0 0 0 0 0
Nghost:    185 ave 185 max 185 min
Histogram: 1 0 0 0 0 0 0 0 0 0
Neighs:    355 ave 355 max 355 min
Histogram: 1 0 0 0 0 0 0 0 0 0

Total # of neighbors = 355
Ave neighs/atom = 8.65854
Neighbor list builds = 0
Dangerous builds = 0
	# write_dump all atom ${dumpfile}
        next i
jump SELF loop1
        displace_atoms upper move 0.0 ${ystep1} 0.0 units lattice
        displace_atoms upper move 0.0 0.002 0.0 units lattice
        min_style ${style}
        min_style cg
        minimize ${etol} ${ftol} ${maxiter} ${maxeval}
        minimize 1e-12 ${ftol} ${maxiter} ${maxeval}
        minimize 1e-12 1e-08 ${maxiter} ${maxeval}
        minimize 1e-12 1e-08 10000 ${maxeval}
        minimize 1e-12 1e-08 10000 20000
WARNING: Resetting reneighboring criteria during minimization (../min.cpp:168)
Memory usage per processor = 3.35962 Mbytes
Step Temp PotEng Lx Ly Lz 
      30            0   -120.83561    1.1224537    39.003572    1.1224537 
      31            0   -120.83561    1.1224537    39.003572    1.1224537 
Loop time of 3.90733e-05 on 1 procs for 1 steps with 41 atoms

Minimization stats:
  Stopping criterion = linesearch alpha is zero
  Energy initial, next-to-last, final = 
        -120.835606298     -120.835606298     -120.835606298
  Force two-norm initial, final = 4.30941e-17 4.30941e-17
  Force max component initial, final = 4.03323e-17 4.03323e-17
  Final line search alpha, max atom move = 0.5 2.01662e-17
  Iterations, force evaluations = 1 2

Pair  time (%) = 2.49734e-05 (63.9143)
Neigh time (%) = 0 (0)
Comm  time (%) = 3.77395e-06 (9.65865)
Outpt time (%) = 0 (0)
Other time (%) = 1.03259e-05 (26.4271)

Nlocal:    41 ave 41 max 41 min
Histogram: 1 0 0 0 0 0 0 0 0 0
Nghost:    185 ave 185 max 185 min
Histogram: 1 0 0 0 0 0 0 0 0 0
Neighs:    355 ave 355 max 355 min
Histogram: 1 0 0 0 0 0 0 0 0 0

Total # of neighbors = 355
Ave neighs/atom = 8.65854
Neighbor list builds = 0
Dangerous builds = 0
	# write_dump all atom ${dumpfile}
        next i
jump SELF loop1
        displace_atoms upper move 0.0 ${ystep1} 0.0 units lattice
        displace_atoms upper move 0.0 0.002 0.0 units lattice
        min_style ${style}
        min_style cg
        minimize ${etol} ${ftol} ${maxiter} ${maxeval}
        minimize 1e-12 ${ftol} ${maxiter} ${maxeval}
        minimize 1e-12 1e-08 ${maxiter} ${maxeval}
        minimize 1e-12 1e-08 10000 ${maxeval}
        minimize 1e-12 1e-08 10000 20000
WARNING: Resetting reneighboring criteria during minimization (../min.cpp:168)
Memory usage per processor = 3.35962 Mbytes
Step Temp PotEng Lx Ly Lz 
      31            0   -120.82643    1.1224537    39.007461    1.1224537 
      32            0   -120.82643    1.1224537    39.007461    1.1224537 
Loop time of 6.0079e-05 on 1 procs for 1 steps with 41 atoms

Minimization stats:
  Stopping criterion = linesearch alpha is zero
  Energy initial, next-to-last, final = 
        -120.826427543     -120.826427543     -120.826427543
  Force two-norm initial, final = 4.74759e-17 4.74759e-17
  Force max component initial, final = 4.03323e-17 4.03323e-17
  Final line search alpha, max atom move = 0.5 2.01662e-17
  Iterations, force evaluations = 1 2

Pair  time (%) = 2.90958e-05 (48.4292)
Neigh time (%) = 0 (0)
Comm  time (%) = 3.0651e-06 (5.10178)
Outpt time (%) = 0 (0)
Other time (%) = 2.79181e-05 (46.469)

Nlocal:    41 ave 41 max 41 min
Histogram: 1 0 0 0 0 0 0 0 0 0
Nghost:    185 ave 185 max 185 min
Histogram: 1 0 0 0 0 0 0 0 0 0
Neighs:    355 ave 355 max 355 min
Histogram: 1 0 0 0 0 0 0 0 0 0

Total # of neighbors = 355
Ave neighs/atom = 8.65854
Neighbor list builds = 0
Dangerous builds = 0
	# write_dump all atom ${dumpfile}
        next i
jump SELF loop1
        displace_atoms upper move 0.0 ${ystep1} 0.0 units lattice
        displace_atoms upper move 0.0 0.002 0.0 units lattice
        min_style ${style}
        min_style cg
        minimize ${etol} ${ftol} ${maxiter} ${maxeval}
        minimize 1e-12 ${ftol} ${maxiter} ${maxeval}
        minimize 1e-12 1e-08 ${maxiter} ${maxeval}
        minimize 1e-12 1e-08 10000 ${maxeval}
        minimize 1e-12 1e-08 10000 20000
WARNING: Resetting reneighboring criteria during minimization (../min.cpp:168)
Memory usage per processor = 3.35962 Mbytes
Step Temp PotEng Lx Ly Lz 
      32            0    -120.8171    1.1224537    39.011349    1.1224537 
      33            0    -120.8171    1.1224537    39.011349    1.1224537 
Loop time of 4.00079e-05 on 1 procs for 1 steps with 41 atoms

Minimization stats:
  Stopping criterion = linesearch alpha is zero
  Energy initial, next-to-last, final = 
        -120.817096571     -120.817096571     -120.817096571
  Force two-norm initial, final = 5.06113e-17 5.06113e-17
  Force max component initial, final = 4.03323e-17 4.03323e-17
  Final line search alpha, max atom move = 0.5 2.01662e-17
  Iterations, force evaluations = 1 2

Pair  time (%) = 2.47773e-05 (61.931)
Neigh time (%) = 0 (0)
Comm  time (%) = 5.0969e-06 (12.7397)
Outpt time (%) = 0 (0)
Other time (%) = 1.01337e-05 (25.3293)

Nlocal:    41 ave 41 max 41 min
Histogram: 1 0 0 0 0 0 0 0 0 0
Nghost:    185 ave 185 max 185 min
Histogram: 1 0 0 0 0 0 0 0 0 0
Neighs:    355 ave 355 max 355 min
Histogram: 1 0 0 0 0 0 0 0 0 0

Total # of neighbors = 355
Ave neighs/atom = 8.65854
Neighbor list builds = 0
Dangerous builds = 0
	# write_dump all atom ${dumpfile}
        next i
jump SELF loop1
        displace_atoms upper move 0.0 ${ystep1} 0.0 units lattice
        displace_atoms upper move 0.0 0.002 0.0 units lattice
        min_style ${style}
        min_style cg
        minimize ${etol} ${ftol} ${maxiter} ${maxeval}
        minimize 1e-12 ${ftol} ${maxiter} ${maxeval}
        minimize 1e-12 1e-08 ${maxiter} ${maxeval}
        minimize 1e-12 1e-08 10000 ${maxeval}
        minimize 1e-12 1e-08 10000 20000
WARNING: Resetting reneighboring criteria during minimization (../min.cpp:168)
Memory usage per processor = 3.35962 Mbytes
Step Temp PotEng Lx Ly Lz 
      33            0   -120.80762    1.1224537    39.015237    1.1224537 
      34            0   -120.80762    1.1224537    39.015237    1.1224537 
Loop time of 3.99934e-05 on 1 procs for 1 steps with 41 atoms

Minimization stats:
  Stopping criterion = linesearch alpha is zero
  Energy initial, next-to-last, final = 
        -120.807615996     -120.807615996     -120.807615996
  Force two-norm initial, final = 4.32097e-17 4.32097e-17
  Force max component initial, final = 4.03323e-17 4.03323e-17
  Final line search alpha, max atom move = 0.5 2.01662e-17
  Iterations, force evaluations = 1 2

Pair  time (%) = 2.47338e-05 (61.8447)
Neigh time (%) = 0 (0)
Comm  time (%) = 5.48689e-06 (13.7195)
Outpt time (%) = 0 (0)
Other time (%) = 9.77272e-06 (24.4358)

Nlocal:    41 ave 41 max 41 min
Histogram: 1 0 0 0 0 0 0 0 0 0
Nghost:    185 ave 185 max 185 min
Histogram: 1 0 0 0 0 0 0 0 0 0
Neighs:    355 ave 355 max 355 min
Histogram: 1 0 0 0 0 0 0 0 0 0

Total # of neighbors = 355
Ave neighs/atom = 8.65854
Neighbor list builds = 0
Dangerous builds = 0
	# write_dump all atom ${dumpfile}
        next i
jump SELF loop1
        displace_atoms upper move 0.0 ${ystep1} 0.0 units lattice
        displace_atoms upper move 0.0 0.002 0.0 units lattice
        min_style ${style}
        min_style cg
        minimize ${etol} ${ftol} ${maxiter} ${maxeval}
        minimize 1e-12 ${ftol} ${maxiter} ${maxeval}
        minimize 1e-12 1e-08 ${maxiter} ${maxeval}
        minimize 1e-12 1e-08 10000 ${maxeval}
        minimize 1e-12 1e-08 10000 20000
WARNING: Resetting reneighboring criteria during minimization (../min.cpp:168)
Memory usage per processor = 3.35962 Mbytes
Step Temp PotEng Lx Ly Lz 
      34            0   -120.79799    1.1224537    39.019126    1.1224537 
      35            0   -120.79799    1.1224537    39.019126    1.1224537 
Loop time of 3.98819e-05 on 1 procs for 1 steps with 41 atoms

Minimization stats:
  Stopping criterion = linesearch alpha is zero
  Energy initial, next-to-last, final = 
        -120.797987052     -120.797987052     -120.797987052
  Force two-norm initial, final = 5.47869e-17 5.47869e-17
  Force max component initial, final = 4.03323e-17 4.03323e-17
  Final line search alpha, max atom move = 0.5 2.01662e-17
  Iterations, force evaluations = 1 2

Pair  time (%) = 2.5161e-05 (63.0887)
Neigh time (%) = 0 (0)
Comm  time (%) = 4.8643e-06 (12.1968)
Outpt time (%) = 0 (0)
Other time (%) = 9.85665e-06 (24.7146)

Nlocal:    41 ave 41 max 41 min
Histogram: 1 0 0 0 0 0 0 0 0 0
Nghost:    185 ave 185 max 185 min
Histogram: 1 0 0 0 0 0 0 0 0 0
Neighs:    355 ave 355 max 355 min
Histogram: 1 0 0 0 0 0 0 0 0 0

Total # of neighbors = 355
Ave neighs/atom = 8.65854
Neighbor list builds = 0
Dangerous builds = 0
	# write_dump all atom ${dumpfile}
        next i
jump SELF loop1
        displace_atoms upper move 0.0 ${ystep1} 0.0 units lattice
        displace_atoms upper move 0.0 0.002 0.0 units lattice
        min_style ${style}
        min_style cg
        minimize ${etol} ${ftol} ${maxiter} ${maxeval}
        minimize 1e-12 ${ftol} ${maxiter} ${maxeval}
        minimize 1e-12 1e-08 ${maxiter} ${maxeval}
        minimize 1e-12 1e-08 10000 ${maxeval}
        minimize 1e-12 1e-08 10000 20000
WARNING: Resetting reneighboring criteria during minimization (../min.cpp:168)
Memory usage per processor = 3.35962 Mbytes
Step Temp PotEng Lx Ly Lz 
      35            0   -120.78821    1.1224537    39.023014    1.1224537 
      36            0   -120.78821    1.1224537    39.023014    1.1224537 
Loop time of 4.00862e-05 on 1 procs for 1 steps with 41 atoms

Minimization stats:
  Stopping criterion = linesearch alpha is zero
  Energy initial, next-to-last, final = 
        -120.788212871     -120.788212871     -120.788212871
  Force two-norm initial, final = 5.08745e-17 5.08745e-17
  Force max component initial, final = 4.03323e-17 4.03323e-17
  Final line search alpha, max atom move = 0.5 2.01662e-17
  Iterations, force evaluations = 1 2

Pair  time (%) = 2.41051e-05 (60.1331)
Neigh time (%) = 0 (0)
Comm  time (%) = 3.75253e-06 (9.36115)
Outpt time (%) = 0 (0)
Other time (%) = 1.22286e-05 (30.5058)

Nlocal:    41 ave 41 max 41 min
Histogram: 1 0 0 0 0 0 0 0 0 0
Nghost:    185 ave 185 max 185 min
Histogram: 1 0 0 0 0 0 0 0 0 0
Neighs:    355 ave 355 max 355 min
Histogram: 1 0 0 0 0 0 0 0 0 0

Total # of neighbors = 355
Ave neighs/atom = 8.65854
Neighbor list builds = 0
Dangerous builds = 0
	# write_dump all atom ${dumpfile}
        next i
jump SELF loop1
        displace_atoms upper move 0.0 ${ystep1} 0.0 units lattice
        displace_atoms upper move 0.0 0.002 0.0 units lattice
        min_style ${style}
        min_style cg
        minimize ${etol} ${ftol} ${maxiter} ${maxeval}
        minimize 1e-12 ${ftol} ${maxiter} ${maxeval}
        minimize 1e-12 1e-08 ${maxiter} ${maxeval}
        minimize 1e-12 1e-08 10000 ${maxeval}
        minimize 1e-12 1e-08 10000 20000
WARNING: Resetting reneighboring criteria during minimization (../min.cpp:168)
Memory usage per processor = 3.35962 Mbytes
Step Temp PotEng Lx Ly Lz 
      36            0    -120.7783    1.1224537    39.026902    1.1224537 
      37            0    -120.7783    1.1224537    39.026902    1.1224537 
Loop time of 3.89748e-05 on 1 procs for 1 steps with 41 atoms

Minimization stats:
  Stopping criterion = linesearch alpha is zero
  Energy initial, next-to-last, final = 
         -120.77829522      -120.77829522      -120.77829522
  Force two-norm initial, final = 4.86244e-17 4.86244e-17
  Force max component initial, final = 4.03323e-17 4.03323e-17
  Final line search alpha, max atom move = 0.5 2.01662e-17
  Iterations, force evaluations = 1 2

Pair  time (%) = 2.49164e-05 (63.9294)
Neigh time (%) = 0 (0)
Comm  time (%) = 6.37502e-06 (16.3568)
Outpt time (%) = 0 (0)
Other time (%) = 7.68341e-06 (19.7138)

Nlocal:    41 ave 41 max 41 min
Histogram: 1 0 0 0 0 0 0 0 0 0
Nghost:    185 ave 185 max 185 min
Histogram: 1 0 0 0 0 0 0 0 0 0
Neighs:    355 ave 355 max 355 min
Histogram: 1 0 0 0 0 0 0 0 0 0

Total # of neighbors = 355
Ave neighs/atom = 8.65854
Neighbor list builds = 0
Dangerous builds = 0
	# write_dump all atom ${dumpfile}
        next i
jump SELF loop1
        displace_atoms upper move 0.0 ${ystep1} 0.0 units lattice
        displace_atoms upper move 0.0 0.002 0.0 units lattice
        min_style ${style}
        min_style cg
        minimize ${etol} ${ftol} ${maxiter} ${maxeval}
        minimize 1e-12 ${ftol} ${maxiter} ${maxeval}
        minimize 1e-12 1e-08 ${maxiter} ${maxeval}
        minimize 1e-12 1e-08 10000 ${maxeval}
        minimize 1e-12 1e-08 10000 20000
WARNING: Resetting reneighboring criteria during minimization (../min.cpp:168)
Memory usage per processor = 3.35962 Mbytes
Step Temp PotEng Lx Ly Lz 
      37            0   -120.76824    1.1224537     39.03079    1.1224537 
      38            0   -120.76824    1.1224537     39.03079    1.1224537 
Loop time of -2.8871e-08 on 1 procs for 1 steps with 41 atoms

Minimization stats:
  Stopping criterion = linesearch alpha is zero
  Energy initial, next-to-last, final = 
        -120.768236456     -120.768236456     -120.768236456
  Force two-norm initial, final = 5.01565e-17 5.01565e-17
  Force max component initial, final = 4.03323e-17 4.03323e-17
  Final line search alpha, max atom move = 0.5 2.01662e-17
  Iterations, force evaluations = 1 2

Pair  time (%) = -8.6613e-08 (300)
Neigh time (%) = 0 (-0)
Comm  time (%) = -1.73226e-07 (600)
Outpt time (%) = 0 (-0)
Other time (%) = 2.30968e-07 (-800)

Nlocal:    41 ave 41 max 41 min
Histogram: 1 0 0 0 0 0 0 0 0 0
Nghost:    185 ave 185 max 185 min
Histogram: 1 0 0 0 0 0 0 0 0 0
Neighs:    355 ave 355 max 355 min
Histogram: 1 0 0 0 0 0 0 0 0 0

Total # of neighbors = 355
Ave neighs/atom = 8.65854
Neighbor list builds = 0
Dangerous builds = 0
	# write_dump all atom ${dumpfile}
        next i
jump SELF loop1
        displace_atoms upper move 0.0 ${ystep1} 0.0 units lattice
        displace_atoms upper move 0.0 0.002 0.0 units lattice
        min_style ${style}
        min_style cg
        minimize ${etol} ${ftol} ${maxiter} ${maxeval}
        minimize 1e-12 ${ftol} ${maxiter} ${maxeval}
        minimize 1e-12 1e-08 ${maxiter} ${maxeval}
        minimize 1e-12 1e-08 10000 ${maxeval}
        minimize 1e-12 1e-08 10000 20000
WARNING: Resetting reneighboring criteria during minimization (../min.cpp:168)
Memory usage per processor = 3.35962 Mbytes
Step Temp PotEng Lx Ly Lz 
      38            0   -120.75804    1.1224537    39.034679    1.1224537 
      39            0   -120.75804    1.1224537    39.034679    1.1224537 
Loop time of 3.89739e-05 on 1 procs for 1 steps with 41 atoms

Minimization stats:
  Stopping criterion = linesearch alpha is zero
  Energy initial, next-to-last, final = 
        -120.758038894     -120.758038894     -120.758038894
  Force two-norm initial, final = 6.38883e-17 6.38883e-17
  Force max component initial, final = 4.9548e-17 4.9548e-17
  Final line search alpha, max atom move = 0.5 2.4774e-17
  Iterations, force evaluations = 1 2

Pair  time (%) = 2.49137e-05 (63.9241)
Neigh time (%) = 0 (0)
Comm  time (%) = 4.36977e-06 (11.212)
Outpt time (%) = 0 (0)
Other time (%) = 9.69041e-06 (24.8639)

Nlocal:    41 ave 41 max 41 min
Histogram: 1 0 0 0 0 0 0 0 0 0
Nghost:    185 ave 185 max 185 min
Histogram: 1 0 0 0 0 0 0 0 0 0
Neighs:    355 ave 355 max 355 min
Histogram: 1 0 0 0 0 0 0 0 0 0

Total # of neighbors = 355
Ave neighs/atom = 8.65854
Neighbor list builds = 0
Dangerous builds = 0
	# write_dump all atom ${dumpfile}
        next i
jump SELF loop1
        displace_atoms upper move 0.0 ${ystep1} 0.0 units lattice
        displace_atoms upper move 0.0 0.002 0.0 units lattice
        min_style ${style}
        min_style cg
        minimize ${etol} ${ftol} ${maxiter} ${maxeval}
        minimize 1e-12 ${ftol} ${maxiter} ${maxeval}
        minimize 1e-12 1e-08 ${maxiter} ${maxeval}
        minimize 1e-12 1e-08 10000 ${maxeval}
        minimize 1e-12 1e-08 10000 20000
WARNING: Resetting reneighboring criteria during minimization (../min.cpp:168)
Memory usage per processor = 3.35962 Mbytes
Step Temp PotEng Lx Ly Lz 
      39            0    -120.7477    1.1224537    39.038567    1.1224537 
      40            0    -120.7477    1.1224537    39.038567    1.1224537 
Loop time of 3.89686e-05 on 1 procs for 1 steps with 41 atoms

Minimization stats:
  Stopping criterion = linesearch alpha is zero
  Energy initial, next-to-last, final = 
        -120.747704682     -120.747704682     -120.747704682
  Force two-norm initial, final = 6.49025e-17 6.49025e-17
  Force max component initial, final = 5.08491e-17 5.08491e-17
  Final line search alpha, max atom move = 0.5 2.54245e-17
  Iterations, force evaluations = 1 2

Pair  time (%) = 2.48979e-05 (63.8921)
Neigh time (%) = 0 (0)
Comm  time (%) = 5.33811e-06 (13.6985)
Outpt time (%) = 0 (0)
Other time (%) = 8.73266e-06 (22.4095)

Nlocal:    41 ave 41 max 41 min
Histogram: 1 0 0 0 0 0 0 0 0 0
Nghost:    185 ave 185 max 185 min
Histogram: 1 0 0 0 0 0 0 0 0 0
Neighs:    355 ave 355 max 355 min
Histogram: 1 0 0 0 0 0 0 0 0 0

Total # of neighbors = 355
Ave neighs/atom = 8.65854
Neighbor list builds = 0
Dangerous builds = 0
	# write_dump all atom ${dumpfile}
        next i
jump SELF loop1
        displace_atoms upper move 0.0 ${ystep1} 0.0 units lattice
        displace_atoms upper move 0.0 0.002 0.0 units lattice
        min_style ${style}
        min_style cg
        minimize ${etol} ${ftol} ${maxiter} ${maxeval}
        minimize 1e-12 ${ftol} ${maxiter} ${maxeval}
        minimize 1e-12 1e-08 ${maxiter} ${maxeval}
        minimize 1e-12 1e-08 10000 ${maxeval}
        minimize 1e-12 1e-08 10000 20000
WARNING: Resetting reneighboring criteria during minimization (../min.cpp:168)
Memory usage per processor = 3.35962 Mbytes
Step Temp PotEng Lx Ly Lz 
      40            0   -120.73724    1.1224537    39.042455    1.1224537 
      41            0   -120.73724    1.1224537    39.042455    1.1224537 
Loop time of 6.99545e-05 on 1 procs for 1 steps with 41 atoms

Minimization stats:
  Stopping criterion = linesearch alpha is zero
  Energy initial, next-to-last, final = 
        -120.737236176     -120.737236176     -120.737236176
  Force two-norm initial, final = 4.24799e-17 4.24799e-17
  Force max component initial, final = 4.03323e-17 4.03323e-17
  Final line search alpha, max atom move = 0.5 2.01662e-17
  Iterations, force evaluations = 1 2

Pair  time (%) = 2.48952e-05 (35.5877)
Neigh time (%) = 0 (0)
Comm  time (%) = 5.85569e-06 (8.37071)
Outpt time (%) = 0 (0)
Other time (%) = 3.92037e-05 (56.0416)

Nlocal:    41 ave 41 max 41 min
Histogram: 1 0 0 0 0 0 0 0 0 0
Nghost:    185 ave 185 max 185 min
Histogram: 1 0 0 0 0 0 0 0 0 0
Neighs:    355 ave 355 max 355 min
Histogram: 1 0 0 0 0 0 0 0 0 0

Total # of neighbors = 355
Ave neighs/atom = 8.65854
Neighbor list builds = 0
Dangerous builds = 0
	# write_dump all atom ${dumpfile}
        next i
jump SELF loop1
        displace_atoms upper move 0.0 ${ystep1} 0.0 units lattice
        displace_atoms upper move 0.0 0.002 0.0 units lattice
        min_style ${style}
        min_style cg
        minimize ${etol} ${ftol} ${maxiter} ${maxeval}
        minimize 1e-12 ${ftol} ${maxiter} ${maxeval}
        minimize 1e-12 1e-08 ${maxiter} ${maxeval}
        minimize 1e-12 1e-08 10000 ${maxeval}
        minimize 1e-12 1e-08 10000 20000
WARNING: Resetting reneighboring criteria during minimization (../min.cpp:168)
Memory usage per processor = 3.35962 Mbytes
Step Temp PotEng Lx Ly Lz 
      41            0   -120.72664    1.1224537    39.046344    1.1224537 
      42            0   -120.72664    1.1224537    39.046344    1.1224537 
Loop time of 3.98897e-05 on 1 procs for 1 steps with 41 atoms

Minimization stats:
  Stopping criterion = linesearch alpha is zero
  Energy initial, next-to-last, final = 
        -120.726635761     -120.726635761     -120.726635761
  Force two-norm initial, final = 6.59697e-17 6.59697e-17
  Force max component initial, final = 5.22043e-17 5.22043e-17
  Final line search alpha, max atom move = 0.5 2.61022e-17
  Iterations, force evaluations = 1 2

Pair  time (%) = 2.51379e-05 (63.0185)
Neigh time (%) = 0 (0)
Comm  time (%) = 5.86442e-06 (14.7016)
Outpt time (%) = 0 (0)
Other time (%) = 8.88738e-06 (22.2799)

Nlocal:    41 ave 41 max 41 min
Histogram: 1 0 0 0 0 0 0 0 0 0
Nghost:    185 ave 185 max 185 min
Histogram: 1 0 0 0 0 0 0 0 0 0
Neighs:    355 ave 355 max 355 min
Histogram: 1 0 0 0 0 0 0 0 0 0

Total # of neighbors = 355
Ave neighs/atom = 8.65854
Neighbor list builds = 0
Dangerous builds = 0
	# write_dump all atom ${dumpfile}
        next i
jump SELF loop1
        displace_atoms upper move 0.0 ${ystep1} 0.0 units lattice
        displace_atoms upper move 0.0 0.002 0.0 units lattice
        min_style ${style}
        min_style cg
        minimize ${etol} ${ftol} ${maxiter} ${maxeval}
        minimize 1e-12 ${ftol} ${maxiter} ${maxeval}
        minimize 1e-12 1e-08 ${maxiter} ${maxeval}
        minimize 1e-12 1e-08 10000 ${maxeval}
        minimize 1e-12 1e-08 10000 20000
WARNING: Resetting reneighboring criteria during minimization (../min.cpp:168)
Memory usage per processor = 3.35962 Mbytes
Step Temp PotEng Lx Ly Lz 
      42            0   -120.71591    1.1224537    39.050232    1.1224537 
      43            0   -120.71591    1.1224537    39.050232    1.1224537 
Loop time of 3.90674e-05 on 1 procs for 1 steps with 41 atoms

Minimization stats:
  Stopping criterion = linesearch alpha is zero
  Energy initial, next-to-last, final = 
        -120.715905424     -120.715905424     -120.715905424
  Force two-norm initial, final = 4.19677e-17 4.19677e-17
  Force max component initial, final = 4.03323e-17 4.03323e-17
  Final line search alpha, max atom move = 0.5 2.01662e-17
  Iterations, force evaluations = 1 2

Pair  time (%) = 2.49555e-05 (63.8781)
Neigh time (%) = 0 (0)
Comm  time (%) = 3.7381e-06 (9.56834)
Outpt time (%) = 0 (0)
Other time (%) = 1.03738e-05 (26.5536)

Nlocal:    41 ave 41 max 41 min
Histogram: 1 0 0 0 0 0 0 0 0 0
Nghost:    185 ave 185 max 185 min
Histogram: 1 0 0 0 0 0 0 0 0 0
Neighs:    355 ave 355 max 355 min
Histogram: 1 0 0 0 0 0 0 0 0 0

Total # of neighbors = 355
Ave neighs/atom = 8.65854
Neighbor list builds = 0
Dangerous builds = 0
	# write_dump all atom ${dumpfile}
        next i
jump SELF loop1
        displace_atoms upper move 0.0 ${ystep1} 0.0 units lattice
        displace_atoms upper move 0.0 0.002 0.0 units lattice
        min_style ${style}
        min_style cg
        minimize ${etol} ${ftol} ${maxiter} ${maxeval}
        minimize 1e-12 ${ftol} ${maxiter} ${maxeval}
        minimize 1e-12 1e-08 ${maxiter} ${maxeval}
        minimize 1e-12 1e-08 10000 ${maxeval}
        minimize 1e-12 1e-08 10000 20000
WARNING: Resetting reneighboring criteria during minimization (../min.cpp:168)
Memory usage per processor = 3.35962 Mbytes
Step Temp PotEng Lx Ly Lz 
      43            0   -120.70505    1.1224537     39.05412    1.1224537 
      44            0   -120.70505    1.1224537     39.05412    1.1224537 
Loop time of -9.37143e-08 on 1 procs for 1 steps with 41 atoms

Minimization stats:
  Stopping criterion = linesearch alpha is zero
  Energy initial, next-to-last, final = 
        -120.705048039     -120.705048039     -120.705048039
  Force two-norm initial, final = 6.0506e-17 6.0506e-17
  Force max component initial, final = 4.51028e-17 4.51028e-17
  Final line search alpha, max atom move = 0.5 2.25514e-17
  Iterations, force evaluations = 1 2

Pair  time (%) = -2.81143e-07 (300)
Neigh time (%) = 0 (-0)
Comm  time (%) = -5.62286e-07 (600)
Outpt time (%) = 0 (-0)
Other time (%) = 7.49715e-07 (-800)

Nlocal:    41 ave 41 max 41 min
Histogram: 1 0 0 0 0 0 0 0 0 0
Nghost:    185 ave 185 max 185 min
Histogram: 1 0 0 0 0 0 0 0 0 0
Neighs:    355 ave 355 max 355 min
Histogram: 1 0 0 0 0 0 0 0 0 0

Total # of neighbors = 355
Ave neighs/atom = 8.65854
Neighbor list builds = 0
Dangerous builds = 0
	# write_dump all atom ${dumpfile}
        next i
jump SELF loop1
        displace_atoms upper move 0.0 ${ystep1} 0.0 units lattice
        displace_atoms upper move 0.0 0.002 0.0 units lattice
        min_style ${style}
        min_style cg
        minimize ${etol} ${ftol} ${maxiter} ${maxeval}
        minimize 1e-12 ${ftol} ${maxiter} ${maxeval}
        minimize 1e-12 1e-08 ${maxiter} ${maxeval}
        minimize 1e-12 1e-08 10000 ${maxeval}
        minimize 1e-12 1e-08 10000 20000
WARNING: Resetting reneighboring criteria during minimization (../min.cpp:168)
Memory usage per processor = 3.35962 Mbytes
Step Temp PotEng Lx Ly Lz 
      44            0   -120.69407    1.1224537    39.058009    1.1224537 
      45            0   -120.69407    1.1224537    39.058009    1.1224537 
Loop time of 3.98862e-05 on 1 procs for 1 steps with 41 atoms

Minimization stats:
  Stopping criterion = linesearch alpha is zero
  Energy initial, next-to-last, final = 
        -120.694065241     -120.694065241     -120.694065241
  Force two-norm initial, final = 4.56388e-17 4.56388e-17
  Force max component initial, final = 4.03323e-17 4.03323e-17
  Final line search alpha, max atom move = 0.5 2.01662e-17
  Iterations, force evaluations = 1 2

Pair  time (%) = 2.61277e-05 (65.5055)
Neigh time (%) = 0 (0)
Comm  time (%) = 4.89014e-06 (12.2602)
Outpt time (%) = 0 (0)
Other time (%) = 8.8684e-06 (22.2343)

Nlocal:    41 ave 41 max 41 min
Histogram: 1 0 0 0 0 0 0 0 0 0
Nghost:    185 ave 185 max 185 min
Histogram: 1 0 0 0 0 0 0 0 0 0
Neighs:    355 ave 355 max 355 min
Histogram: 1 0 0 0 0 0 0 0 0 0

Total # of neighbors = 355
Ave neighs/atom = 8.65854
Neighbor list builds = 0
Dangerous builds = 0
	# write_dump all atom ${dumpfile}
        next i
jump SELF loop1
        displace_atoms upper move 0.0 ${ystep1} 0.0 units lattice
        displace_atoms upper move 0.0 0.002 0.0 units lattice
        min_style ${style}
        min_style cg
        minimize ${etol} ${ftol} ${maxiter} ${maxeval}
        minimize 1e-12 ${ftol} ${maxiter} ${maxeval}
        minimize 1e-12 1e-08 ${maxiter} ${maxeval}
        minimize 1e-12 1e-08 10000 ${maxeval}
        minimize 1e-12 1e-08 10000 20000
WARNING: Resetting reneighboring criteria during minimization (../min.cpp:168)
Memory usage per processor = 3.35962 Mbytes
Step Temp PotEng Lx Ly Lz 
      45            0   -120.68296    1.1224537    39.061897    1.1224537 
      46            0   -120.68296    1.1224537    39.061897    1.1224537 
Loop time of 3.81059e-05 on 1 procs for 1 steps with 41 atoms

Minimization stats:
  Stopping criterion = linesearch alpha is zero
  Energy initial, next-to-last, final = 
        -120.682959879     -120.682959879     -120.682959879
  Force two-norm initial, final = 5.3237e-17 5.3237e-17
  Force max component initial, final = 4.03323e-17 4.03323e-17
  Final line search alpha, max atom move = 0.5 2.01662e-17
  Iterations, force evaluations = 1 2

Pair  time (%) = 2.49784e-05 (65.55)
Neigh time (%) = 0 (0)
Comm  time (%) = 5.54556e-06 (14.553)
Outpt time (%) = 0 (0)
Other time (%) = 7.5819e-06 (19.8969)

Nlocal:    41 ave 41 max 41 min
Histogram: 1 0 0 0 0 0 0 0 0 0
Nghost:    185 ave 185 max 185 min
Histogram: 1 0 0 0 0 0 0 0 0 0
Neighs:    355 ave 355 max 355 min
Histogram: 1 0 0 0 0 0 0 0 0 0

Total # of neighbors = 355
Ave neighs/atom = 8.65854
Neighbor list builds = 0
Dangerous builds = 0
	# write_dump all atom ${dumpfile}
        next i
jump SELF loop1
        displace_atoms upper move 0.0 ${ystep1} 0.0 units lattice
        displace_atoms upper move 0.0 0.002 0.0 units lattice
        min_style ${style}
        min_style cg
        minimize ${etol} ${ftol} ${maxiter} ${maxeval}
[...]
        min_style cg
        minimize ${etol} ${ftol} ${maxiter} ${maxeval}
        minimize 1e-12 ${ftol} ${maxiter} ${maxeval}
        minimize 1e-12 1e-08 ${maxiter} ${maxeval}
        minimize 1e-12 1e-08 10000 ${maxeval}
        minimize 1e-12 1e-08 10000 20000
WARNING: Resetting reneighboring criteria during minimization (../min.cpp:168)
Memory usage per processor = 3.35969 Mbytes
Step Temp PotEng Lx Ly Lz 
     491            0   -118.99997    1.1224537    40.796076    1.1224537 
     492            0   -118.99997    1.1224537    40.796076    1.1224537 
Loop time of 3.99589e-05 on 1 procs for 1 steps with 41 atoms

Minimization stats:
  Stopping criterion = linesearch alpha is zero
  Energy initial, next-to-last, final = 
        -118.999965529     -118.999965529     -118.999965529
  Force two-norm initial, final = 4.69473e-20 4.69473e-20
  Force max component initial, final = 2.71051e-20 2.71051e-20
  Final line search alpha, max atom move = 0.5 1.35525e-20
  Iterations, force evaluations = 1 2

Pair  time (%) = 2.27691e-05 (56.9813)
Neigh time (%) = 0 (0)
Comm  time (%) = 4.22623e-06 (10.5764)
Outpt time (%) = 0 (0)
Other time (%) = 1.29635e-05 (32.4422)

Nlocal:    41 ave 41 max 41 min
Histogram: 1 0 0 0 0 0 0 0 0 0
Nghost:    185 ave 185 max 185 min
Histogram: 1 0 0 0 0 0 0 0 0 0
Neighs:    349 ave 349 max 349 min
Histogram: 1 0 0 0 0 0 0 0 0 0

Total # of neighbors = 349
Ave neighs/atom = 8.5122
Neighbor list builds = 0
Dangerous builds = 0
	# write_dump all atom ${dumpfile}
        next i
jump SELF loop1
        displace_atoms upper move 0.0 ${ystep1} 0.0 units lattice
        displace_atoms upper move 0.0 0.002 0.0 units lattice
        min_style ${style}
        min_style cg
        minimize ${etol} ${ftol} ${maxiter} ${maxeval}
        minimize 1e-12 ${ftol} ${maxiter} ${maxeval}
        minimize 1e-12 1e-08 ${maxiter} ${maxeval}
        minimize 1e-12 1e-08 10000 ${maxeval}
        minimize 1e-12 1e-08 10000 20000
WARNING: Resetting reneighboring criteria during minimization (../min.cpp:168)
Memory usage per processor = 3.35969 Mbytes
Step Temp PotEng Lx Ly Lz 
     492            0   -118.99997    1.1224537    40.799964    1.1224537 
     493            0   -118.99997    1.1224537    40.799964    1.1224537 
Loop time of 3.90394e-05 on 1 procs for 1 steps with 41 atoms

Minimization stats:
  Stopping criterion = linesearch alpha is zero
  Energy initial, next-to-last, final = 
        -118.999965529     -118.999965529     -118.999965529
  Force two-norm initial, final = 5.42101e-20 5.42101e-20
  Force max component initial, final = 2.71051e-20 2.71051e-20
  Final line search alpha, max atom move = 0.5 1.35525e-20
  Iterations, force evaluations = 1 2

Pair  time (%) = 2.49182e-05 (63.8284)
Neigh time (%) = 0 (0)
Comm  time (%) = 3.90178e-06 (9.99445)
Outpt time (%) = 0 (0)
Other time (%) = 1.02194e-05 (26.1771)

Nlocal:    41 ave 41 max 41 min
Histogram: 1 0 0 0 0 0 0 0 0 0
Nghost:    185 ave 185 max 185 min
Histogram: 1 0 0 0 0 0 0 0 0 0
Neighs:    349 ave 349 max 349 min
Histogram: 1 0 0 0 0 0 0 0 0 0

Total # of neighbors = 349
Ave neighs/atom = 8.5122
Neighbor list builds = 0
Dangerous builds = 0
	# write_dump all atom ${dumpfile}
        next i
jump SELF loop1
        displace_atoms upper move 0.0 ${ystep1} 0.0 units lattice
        displace_atoms upper move 0.0 0.002 0.0 units lattice
        min_style ${style}
        min_style cg
        minimize ${etol} ${ftol} ${maxiter} ${maxeval}
        minimize 1e-12 ${ftol} ${maxiter} ${maxeval}
        minimize 1e-12 1e-08 ${maxiter} ${maxeval}
        minimize 1e-12 1e-08 10000 ${maxeval}
        minimize 1e-12 1e-08 10000 20000
WARNING: Resetting reneighboring criteria during minimization (../min.cpp:168)
Memory usage per processor = 3.35969 Mbytes
Step Temp PotEng Lx Ly Lz 
     493            0   -118.99997    1.1224537    40.803852    1.1224537 
     494            0   -118.99997    1.1224537    40.803852    1.1224537 
Loop time of 3.89878e-05 on 1 procs for 1 steps with 41 atoms

Minimization stats:
  Stopping criterion = linesearch alpha is zero
  Energy initial, next-to-last, final = 
        -118.999965529     -118.999965529     -118.999965529
  Force two-norm initial, final = 5.42101e-20 5.42101e-20
  Force max component initial, final = 2.71051e-20 2.71051e-20
  Final line search alpha, max atom move = 0.5 1.35525e-20
  Iterations, force evaluations = 1 2

Pair  time (%) = 2.47171e-05 (63.3969)
Neigh time (%) = 0 (0)
Comm  time (%) = 2.45334e-06 (6.29257)
Outpt time (%) = 0 (0)
Other time (%) = 1.18174e-05 (30.3106)

Nlocal:    41 ave 41 max 41 min
Histogram: 1 0 0 0 0 0 0 0 0 0
Nghost:    185 ave 185 max 185 min
Histogram: 1 0 0 0 0 0 0 0 0 0
Neighs:    349 ave 349 max 349 min
Histogram: 1 0 0 0 0 0 0 0 0 0

Total # of neighbors = 349
Ave neighs/atom = 8.5122
Neighbor list builds = 0
Dangerous builds = 0
	# write_dump all atom ${dumpfile}
        next i
jump SELF loop1
        displace_atoms upper move 0.0 ${ystep1} 0.0 units lattice
        displace_atoms upper move 0.0 0.002 0.0 units lattice
        min_style ${style}
        min_style cg
        minimize ${etol} ${ftol} ${maxiter} ${maxeval}
        minimize 1e-12 ${ftol} ${maxiter} ${maxeval}
        minimize 1e-12 1e-08 ${maxiter} ${maxeval}
        minimize 1e-12 1e-08 10000 ${maxeval}
        minimize 1e-12 1e-08 10000 20000
WARNING: Resetting reneighboring criteria during minimization (../min.cpp:168)
Memory usage per processor = 3.35969 Mbytes
Step Temp PotEng Lx Ly Lz 
     494            0   -118.99997    1.1224537    40.807741    1.1224537 
     495            0   -118.99997    1.1224537    40.807741    1.1224537 
Loop time of 3.89295e-05 on 1 procs for 1 steps with 41 atoms

Minimization stats:
  Stopping criterion = linesearch alpha is zero
  Energy initial, next-to-last, final = 
        -118.999965529     -118.999965529     -118.999965529
  Force two-norm initial, final = 5.42101e-20 5.42101e-20
  Force max component initial, final = 2.71051e-20 2.71051e-20
  Final line search alpha, max atom move = 0.5 1.35525e-20
  Iterations, force evaluations = 1 2

Pair  time (%) = 2.53036e-05 (64.9984)
Neigh time (%) = 0 (0)
Comm  time (%) = 5.1494e-06 (13.2275)
Outpt time (%) = 0 (0)
Other time (%) = 8.47655e-06 (21.7741)

Nlocal:    41 ave 41 max 41 min
Histogram: 1 0 0 0 0 0 0 0 0 0
Nghost:    185 ave 185 max 185 min
Histogram: 1 0 0 0 0 0 0 0 0 0
Neighs:    349 ave 349 max 349 min
Histogram: 1 0 0 0 0 0 0 0 0 0

Total # of neighbors = 349
Ave neighs/atom = 8.5122
Neighbor list builds = 0
Dangerous builds = 0
	# write_dump all atom ${dumpfile}
        next i
jump SELF loop1
        displace_atoms upper move 0.0 ${ystep1} 0.0 units lattice
        displace_atoms upper move 0.0 0.002 0.0 units lattice
        min_style ${style}
        min_style cg
        minimize ${etol} ${ftol} ${maxiter} ${maxeval}
        minimize 1e-12 ${ftol} ${maxiter} ${maxeval}
        minimize 1e-12 1e-08 ${maxiter} ${maxeval}
        minimize 1e-12 1e-08 10000 ${maxeval}
        minimize 1e-12 1e-08 10000 20000
WARNING: Resetting reneighboring criteria during minimization (../min.cpp:168)
Memory usage per processor = 3.35969 Mbytes
Step Temp PotEng Lx Ly Lz 
     495            0   -118.99997    1.1224537    40.811629    1.1224537 
     496            0   -118.99997    1.1224537    40.811629    1.1224537 
Loop time of 3.91162e-05 on 1 procs for 1 steps with 41 atoms

Minimization stats:
  Stopping criterion = linesearch alpha is zero
  Energy initial, next-to-last, final = 
        -118.999965529     -118.999965529     -118.999965529
  Force two-norm initial, final = 5.42101e-20 5.42101e-20
  Force max component initial, final = 2.71051e-20 2.71051e-20
  Final line search alpha, max atom move = 0.5 1.35525e-20
  Iterations, force evaluations = 1 2

Pair  time (%) = 2.51024e-05 (64.1739)
Neigh time (%) = 0 (0)
Comm  time (%) = 1.79349e-06 (4.58504)
Outpt time (%) = 0 (0)
Other time (%) = 1.22203e-05 (31.2411)

Nlocal:    41 ave 41 max 41 min
Histogram: 1 0 0 0 0 0 0 0 0 0
Nghost:    185 ave 185 max 185 min
Histogram: 1 0 0 0 0 0 0 0 0 0
Neighs:    349 ave 349 max 349 min
Histogram: 1 0 0 0 0 0 0 0 0 0

Total # of neighbors = 349
Ave neighs/atom = 8.5122
Neighbor list builds = 0
Dangerous builds = 0
	# write_dump all atom ${dumpfile}
        next i
jump SELF loop1
        displace_atoms upper move 0.0 ${ystep1} 0.0 units lattice
        displace_atoms upper move 0.0 0.002 0.0 units lattice
        min_style ${style}
        min_style cg
        minimize ${etol} ${ftol} ${maxiter} ${maxeval}
        minimize 1e-12 ${ftol} ${maxiter} ${maxeval}
        minimize 1e-12 1e-08 ${maxiter} ${maxeval}
        minimize 1e-12 1e-08 10000 ${maxeval}
        minimize 1e-12 1e-08 10000 20000
WARNING: Resetting reneighboring criteria during minimization (../min.cpp:168)
Memory usage per processor = 3.35969 Mbytes
Step Temp PotEng Lx Ly Lz 
     496            0   -118.99997    1.1224537    40.815517    1.1224537 
     497            0   -118.99997    1.1224537    40.815517    1.1224537 
Loop time of 0.0282011 on 1 procs for 1 steps with 41 atoms

Minimization stats:
  Stopping criterion = linesearch alpha is zero
  Energy initial, next-to-last, final = 
        -118.999965529     -118.999965529     -118.999965529
  Force two-norm initial, final = 5.42101e-20 5.42101e-20
  Force max component initial, final = 2.71051e-20 2.71051e-20
  Final line search alpha, max atom move = 0.5 1.35525e-20
  Iterations, force evaluations = 1 2

Pair  time (%) = 2.50072e-05 (0.0886746)
Neigh time (%) = 0 (0)
Comm  time (%) = 2.5566e-06 (0.0090656)
Outpt time (%) = 0 (0)
Other time (%) = 0.0281735 (99.9023)

Nlocal:    41 ave 41 max 41 min
Histogram: 1 0 0 0 0 0 0 0 0 0
Nghost:    185 ave 185 max 185 min
Histogram: 1 0 0 0 0 0 0 0 0 0
Neighs:    349 ave 349 max 349 min
Histogram: 1 0 0 0 0 0 0 0 0 0

Total # of neighbors = 349
Ave neighs/atom = 8.5122
Neighbor list builds = 0
Dangerous builds = 0
	# write_dump all atom ${dumpfile}
        next i
jump SELF loop1
        displace_atoms upper move 0.0 ${ystep1} 0.0 units lattice
        displace_atoms upper move 0.0 0.002 0.0 units lattice
        min_style ${style}
        min_style cg
        minimize ${etol} ${ftol} ${maxiter} ${maxeval}
        minimize 1e-12 ${ftol} ${maxiter} ${maxeval}
        minimize 1e-12 1e-08 ${maxiter} ${maxeval}
        minimize 1e-12 1e-08 10000 ${maxeval}
        minimize 1e-12 1e-08 10000 20000
WARNING: Resetting reneighboring criteria during minimization (../min.cpp:168)
Memory usage per processor = 3.35969 Mbytes
Step Temp PotEng Lx Ly Lz 
     497            0   -118.99997    1.1224537    40.819406    1.1224537 
     498            0   -118.99997    1.1224537    40.819406    1.1224537 
Loop time of 0.00058703 on 1 procs for 1 steps with 41 atoms

Minimization stats:
  Stopping criterion = linesearch alpha is zero
  Energy initial, next-to-last, final = 
        -118.999965529     -118.999965529     -118.999965529
  Force two-norm initial, final = 4.69473e-20 4.69473e-20
  Force max component initial, final = 2.71051e-20 2.71051e-20
  Final line search alpha, max atom move = 0.5 1.35525e-20
  Iterations, force evaluations = 1 2

Pair  time (%) = 0.000566151 (96.4433)
Neigh time (%) = 0 (0)
Comm  time (%) = 2.87301e-06 (0.489415)
Outpt time (%) = 0 (0)
Other time (%) = 1.80062e-05 (3.06734)

Nlocal:    41 ave 41 max 41 min
Histogram: 1 0 0 0 0 0 0 0 0 0
Nghost:    185 ave 185 max 185 min
Histogram: 1 0 0 0 0 0 0 0 0 0
Neighs:    349 ave 349 max 349 min
Histogram: 1 0 0 0 0 0 0 0 0 0

Total # of neighbors = 349
Ave neighs/atom = 8.5122
Neighbor list builds = 0
Dangerous builds = 0
	# write_dump all atom ${dumpfile}
        next i
jump SELF loop1
        displace_atoms upper move 0.0 ${ystep1} 0.0 units lattice
        displace_atoms upper move 0.0 0.002 0.0 units lattice
        min_style ${style}
        min_style cg
        minimize ${etol} ${ftol} ${maxiter} ${maxeval}
        minimize 1e-12 ${ftol} ${maxiter} ${maxeval}
        minimize 1e-12 1e-08 ${maxiter} ${maxeval}
        minimize 1e-12 1e-08 10000 ${maxeval}
        minimize 1e-12 1e-08 10000 20000
WARNING: Resetting reneighboring criteria during minimization (../min.cpp:168)
Memory usage per processor = 3.35969 Mbytes
Step Temp PotEng Lx Ly Lz 
     498            0   -118.99997    1.1224537    40.823294    1.1224537 
     499            0   -118.99997    1.1224537    40.823294    1.1224537 
Loop time of 3.99664e-05 on 1 procs for 1 steps with 41 atoms

Minimization stats:
  Stopping criterion = linesearch alpha is zero
  Energy initial, next-to-last, final = 
        -118.999965529     -118.999965529     -118.999965529
  Force two-norm initial, final = 4.69473e-20 4.69473e-20
  Force max component initial, final = 2.71051e-20 2.71051e-20
  Final line search alpha, max atom move = 0.5 1.35525e-20
  Iterations, force evaluations = 1 2

Pair  time (%) = 2.4699e-05 (61.7994)
Neigh time (%) = 0 (0)
Comm  time (%) = 5.37094e-06 (13.4386)
Outpt time (%) = 0 (0)
Other time (%) = 9.89647e-06 (24.7619)

Nlocal:    41 ave 41 max 41 min
Histogram: 1 0 0 0 0 0 0 0 0 0
Nghost:    185 ave 185 max 185 min
Histogram: 1 0 0 0 0 0 0 0 0 0
Neighs:    349 ave 349 max 349 min
Histogram: 1 0 0 0 0 0 0 0 0 0

Total # of neighbors = 349
Ave neighs/atom = 8.5122
Neighbor list builds = 0
Dangerous builds = 0
	# write_dump all atom ${dumpfile}
        next i
jump SELF loop1
        displace_atoms upper move 0.0 ${ystep1} 0.0 units lattice
        displace_atoms upper move 0.0 0.002 0.0 units lattice
        min_style ${style}
        min_style cg
        minimize ${etol} ${ftol} ${maxiter} ${maxeval}
        minimize 1e-12 ${ftol} ${maxiter} ${maxeval}
        minimize 1e-12 1e-08 ${maxiter} ${maxeval}
        minimize 1e-12 1e-08 10000 ${maxeval}
        minimize 1e-12 1e-08 10000 20000
WARNING: Resetting reneighboring criteria during minimization (../min.cpp:168)
Memory usage per processor = 3.35969 Mbytes
Step Temp PotEng Lx Ly Lz 
     499            0   -118.99997    1.1224537    40.827182    1.1224537 
     500            0   -118.99997    1.1224537    40.827182    1.1224537 
Loop time of 3.89407e-05 on 1 procs for 1 steps with 41 atoms

Minimization stats:
  Stopping criterion = linesearch alpha is zero
  Energy initial, next-to-last, final = 
        -118.999965529     -118.999965529     -118.999965529
  Force two-norm initial, final = 4.69473e-20 4.69473e-20
  Force max component initial, final = 2.71051e-20 2.71051e-20
  Final line search alpha, max atom move = 0.5 1.35525e-20
  Iterations, force evaluations = 1 2

Pair  time (%) = 2.42448e-05 (62.2608)
Neigh time (%) = 0 (0)
Comm  time (%) = 4.07826e-06 (10.473)
Outpt time (%) = 0 (0)
Other time (%) = 1.06177e-05 (27.2662)

Nlocal:    41 ave 41 max 41 min
Histogram: 1 0 0 0 0 0 0 0 0 0
Nghost:    185 ave 185 max 185 min
Histogram: 1 0 0 0 0 0 0 0 0 0
Neighs:    349 ave 349 max 349 min
Histogram: 1 0 0 0 0 0 0 0 0 0

Total # of neighbors = 349
Ave neighs/atom = 8.5122
Neighbor list builds = 0
Dangerous builds = 0
	# write_dump all atom ${dumpfile}
        next i
jump SELF loop1
        displace_atoms upper move 0.0 ${ystep1} 0.0 units lattice
        displace_atoms upper move 0.0 0.002 0.0 units lattice
        min_style ${style}
        min_style cg
        minimize ${etol} ${ftol} ${maxiter} ${maxeval}
        minimize 1e-12 ${ftol} ${maxiter} ${maxeval}
        minimize 1e-12 1e-08 ${maxiter} ${maxeval}
        minimize 1e-12 1e-08 10000 ${maxeval}
        minimize 1e-12 1e-08 10000 20000
WARNING: Resetting reneighboring criteria during minimization (../min.cpp:168)
Memory usage per processor = 3.35969 Mbytes
Step Temp PotEng Lx Ly Lz 
     500            0   -118.99997    1.1224537    40.831071    1.1224537 
     501            0   -118.99997    1.1224537    40.831071    1.1224537 
Loop time of 3.90214e-05 on 1 procs for 1 steps with 41 atoms

Minimization stats:
  Stopping criterion = linesearch alpha is zero
  Energy initial, next-to-last, final = 
        -118.999965529     -118.999965529     -118.999965529
  Force two-norm initial, final = 5.42101e-20 5.42101e-20
  Force max component initial, final = 2.71051e-20 2.71051e-20
  Final line search alpha, max atom move = 0.5 1.35525e-20
  Iterations, force evaluations = 1 2

Pair  time (%) = 2.37713e-05 (60.9187)
Neigh time (%) = 0 (0)
Comm  time (%) = 5.27711e-06 (13.5236)
Outpt time (%) = 0 (0)
Other time (%) = 9.97295e-06 (25.5577)

Nlocal:    41 ave 41 max 41 min
Histogram: 1 0 0 0 0 0 0 0 0 0
Nghost:    185 ave 185 max 185 min
Histogram: 1 0 0 0 0 0 0 0 0 0
Neighs:    349 ave 349 max 349 min
Histogram: 1 0 0 0 0 0 0 0 0 0

Total # of neighbors = 349
Ave neighs/atom = 8.5122
Neighbor list builds = 0
Dangerous builds = 0
	# write_dump all atom ${dumpfile}
        next i
jump SELF loop1
        displace_atoms upper move 0.0 ${ystep1} 0.0 units lattice
        displace_atoms upper move 0.0 0.002 0.0 units lattice
        min_style ${style}
        min_style cg
        minimize ${etol} ${ftol} ${maxiter} ${maxeval}
        minimize 1e-12 ${ftol} ${maxiter} ${maxeval}
        minimize 1e-12 1e-08 ${maxiter} ${maxeval}
        minimize 1e-12 1e-08 10000 ${maxeval}
        minimize 1e-12 1e-08 10000 20000
WARNING: Resetting reneighboring criteria during minimization (../min.cpp:168)
Memory usage per processor = 3.35969 Mbytes
Step Temp PotEng Lx Ly Lz 
     501            0   -118.99997    1.1224537    40.834959    1.1224537 
     502            0   -118.99997    1.1224537    40.834959    1.1224537 
Loop time of 3.99358e-05 on 1 procs for 1 steps with 41 atoms

Minimization stats:
  Stopping criterion = linesearch alpha is zero
  Energy initial, next-to-last, final = 
        -118.999965529     -118.999965529     -118.999965529
  Force two-norm initial, final = 5.42101e-20 5.42101e-20
  Force max component initial, final = 2.71051e-20 2.71051e-20
  Final line search alpha, max atom move = 0.5 1.35525e-20
  Iterations, force evaluations = 1 2

Pair  time (%) = 2.50841e-05 (62.8111)
Neigh time (%) = 0 (0)
Comm  time (%) = 5.18747e-06 (12.9895)
Outpt time (%) = 0 (0)
Other time (%) = 9.66422e-06 (24.1994)

Nlocal:    41 ave 41 max 41 min
Histogram: 1 0 0 0 0 0 0 0 0 0
Nghost:    185 ave 185 max 185 min
Histogram: 1 0 0 0 0 0 0 0 0 0
Neighs:    349 ave 349 max 349 min
Histogram: 1 0 0 0 0 0 0 0 0 0

Total # of neighbors = 349
Ave neighs/atom = 8.5122
Neighbor list builds = 0
Dangerous builds = 0
	# write_dump all atom ${dumpfile}
        next i
jump SELF loop1

unfix 2
min_style ${style}
min_style cg
minimize ${etol} ${ftol} ${maxiter} ${maxeval}
minimize 1e-12 ${ftol} ${maxiter} ${maxeval}
minimize 1e-12 1e-08 ${maxiter} ${maxeval}
minimize 1e-12 1e-08 10000 ${maxeval}
minimize 1e-12 1e-08 10000 20000
WARNING: Resetting reneighboring criteria during minimization (../min.cpp:168)
Memory usage per processor = 3.35969 Mbytes
Step Temp PotEng Lx Ly Lz 
     502            0   -118.99997    1.1224537    40.834959    1.1224537 
     503            0   -118.99997    1.1224537    40.834959    1.1224537 
Loop time of 0.000128885 on 1 procs for 1 steps with 41 atoms

Minimization stats:
  Stopping criterion = linesearch alpha is zero
  Energy initial, next-to-last, final = 
        -118.999965529     -118.999965529     -118.999965529
  Force two-norm initial, final = 0.00327105 0.00327105
  Force max component initial, final = 0.00179508 0.00179508
  Final line search alpha, max atom move = 0.000976562 1.75301e-06
  Iterations, force evaluations = 1 11

Pair  time (%) = 9.4045e-05 (72.9679)
Neigh time (%) = 0 (0)
Comm  time (%) = 1.46437e-05 (11.3618)
Outpt time (%) = 0 (0)
Other time (%) = 2.01968e-05 (15.6703)

Nlocal:    41 ave 41 max 41 min
Histogram: 1 0 0 0 0 0 0 0 0 0
Nghost:    185 ave 185 max 185 min
Histogram: 1 0 0 0 0 0 0 0 0 0
Neighs:    349 ave 349 max 349 min
Histogram: 1 0 0 0 0 0 0 0 0 0

Total # of neighbors = 349
Ave neighs/atom = 8.5122
Neighbor list builds = 0
Dangerous builds = 0

