LAMMPS (28 Jun 2014)
# attempt at getting surface energy

#file prefix
variable prefix string surf_V_brittle_3d
variable dumpfile string ${prefix}.*.dump
variable dumpfile string surf_V_brittle_3d.*.dump
variable restartfile string ${prefix}.*.equil
variable restartfile string surf_V_brittle_3d.*.equil

#Mass (g/mol)
variable m equal 1.0

# lattice constant (in Angstroms) and orientation of axes (given by lattice vectors)
variable rho equal 1.0
variable x1 equal 1
variable x2 equal 1
variable x3 equal -2
variable y1 equal 1
variable y2 equal 1
variable y3 equal 1
variable z1 equal 1
variable z2 equal -1
variable z3 equal 0
# length of lattice in different directions (using orientation of lattice vectors)
variable ax equal sqrt(${x1}*${x1}+${x2}*${x2}+${x3}*${x3})
variable ax equal sqrt(1*${x1}+${x2}*${x2}+${x3}*${x3})
variable ax equal sqrt(1*1+${x2}*${x2}+${x3}*${x3})
variable ax equal sqrt(1*1+1*${x2}+${x3}*${x3})
variable ax equal sqrt(1*1+1*1+${x3}*${x3})
variable ax equal sqrt(1*1+1*1+-2*${x3})
variable ax equal sqrt(1*1+1*1+-2*-2)
variable ay equal sqrt(${y1}*${y1}+${y2}*${y2}+${y3}*${y3})
variable ay equal sqrt(1*${y1}+${y2}*${y2}+${y3}*${y3})
variable ay equal sqrt(1*1+${y2}*${y2}+${y3}*${y3})
variable ay equal sqrt(1*1+1*${y2}+${y3}*${y3})
variable ay equal sqrt(1*1+1*1+${y3}*${y3})
variable ay equal sqrt(1*1+1*1+1*${y3})
variable ay equal sqrt(1*1+1*1+1*1)
variable az equal sqrt(${z1}*${z1}+${z2}*${z2}+${z3}*${z3})
variable az equal sqrt(1*${z1}+${z2}*${z2}+${z3}*${z3})
variable az equal sqrt(1*1+${z2}*${z2}+${z3}*${z3})
variable az equal sqrt(1*1+-1*${z2}+${z3}*${z3})
variable az equal sqrt(1*1+-1*-1+${z3}*${z3})
variable az equal sqrt(1*1+-1*-1+0*${z3})
variable az equal sqrt(1*1+-1*-1+0*0)

# size of box in lattice units
variable lxpos equal 2
variable lxneg equal 0
variable lypos equal 15
variable lyneg equal -1*${lypos}
variable lyneg equal -1*15
variable lzpos equal 2
variable lzneg equal 0

# boundary conditions
dimension	3
boundary	p s p
atom_style	atomic

# Define minimization parameters and damping
variable etol equal 1.0e-12
variable ftol equal 1.0e-8
variable maxiter equal 10000
variable maxeval equal 20000
variable style string hftn

# create geometry
units		lj
lattice         fcc ${rho} orient x 1 1 -2 orient y 1 1 1 orient z 1 -1 0 spacing ${ax} ${ay} ${az}
lattice         fcc 1 orient x 1 1 -2 orient y 1 1 1 orient z 1 -1 0 spacing ${ax} ${ay} ${az}
lattice         fcc 1 orient x 1 1 -2 orient y 1 1 1 orient z 1 -1 0 spacing 2.44948974278318 ${ay} ${az}
lattice         fcc 1 orient x 1 1 -2 orient y 1 1 1 orient z 1 -1 0 spacing 2.44948974278318 1.73205080756888 ${az}
lattice         fcc 1 orient x 1 1 -2 orient y 1 1 1 orient z 1 -1 0 spacing 2.44948974278318 1.73205080756888 1.4142135623731
Lattice spacing in x,y,z = 3.88832 2.74946 2.24492
region		myregion block ${lxneg} ${lxpos} ${lyneg} ${lypos} ${lzneg} ${lzpos} units lattice
region		myregion block 0 ${lxpos} ${lyneg} ${lypos} ${lzneg} ${lzpos} units lattice
region		myregion block 0 2 ${lyneg} ${lypos} ${lzneg} ${lzpos} units lattice
region		myregion block 0 2 -15 ${lypos} ${lzneg} ${lzpos} units lattice
region		myregion block 0 2 -15 15 ${lzneg} ${lzpos} units lattice
region		myregion block 0 2 -15 15 0 ${lzpos} units lattice
region		myregion block 0 2 -15 15 0 2 units lattice
create_box	1 myregion
Created orthogonal box = (0 -41.2419 0) to (7.77665 41.2419 4.48985)
  1 by 1 by 1 MPI processor grid
create_atoms	1 box
Created 2912 atoms
write_dump all atom init.dump

# define masses
mass * $m
mass * 1

# my fake/morse potential
pair_style      table linear 3001
pair_coeff      * * vpotential_inter13d dummy
neighbor	0.3 bin
neigh_modify	delay 5

# define groups. Nudge to separate planes cleanly
region	    upper block INF INF 0.01 ${lypos} INF INF units lattice
region	    upper block INF INF 0.01 15 INF INF units lattice
group		upper region upper
1440 atoms in group upper

# Setup output
thermo 1
thermo_style custom step temp pe lx ly lz
thermo_modify norm no

# Compute initial state by relaxing box
fix 3 all box/relax x 0.0
min_style ${style}
min_style hftn
minimize ${etol} ${ftol} ${maxiter} ${maxeval}
minimize 1e-12 ${ftol} ${maxiter} ${maxeval}
minimize 1e-12 1e-08 ${maxiter} ${maxeval}
minimize 1e-12 1e-08 10000 ${maxeval}
minimize 1e-12 1e-08 10000 20000
WARNING: Resetting reneighboring criteria during minimization (../min.cpp:168)
Memory usage per processor = 5.28939 Mbytes
Step Temp PotEng Lx Ly Lz 
       0            0   -17375.986    7.7766452    82.500275    4.4898482 
       1            0   -17375.986    7.7766452    82.500275    4.4898482 
       2            0   -17375.986    7.7766452    82.500275    4.4898482 
       3            0   -17375.986    7.7766452    82.500275    4.4898482 
       4            0   -17375.986    7.7766452    82.500275    4.4898482 
       5            0   -17375.986    7.7766452    82.500275    4.4898482 
       6            0   -17375.986    7.7766452    82.500275    4.4898482 
       7            0   -17375.986    7.7766452    82.500275    4.4898482 
       8            0   -17375.986    7.7766452    82.500275    4.4898482 
       9            0   -17375.986    7.7766452    82.500275    4.4898482 
      10            0   -17375.986    7.7766452    82.500275    4.4898482 
      11            0   -17375.986    7.7766452    82.500275    4.4898482 
      12            0   -17375.986    7.7766452    82.500275    4.4898482 
      13            0   -17375.986    7.7766452    82.500275    4.4898482 
      14            0   -17375.986    7.7766452    82.500275    4.4898482 
      15            0   -17375.986    7.7766452    82.500275    4.4898482 
Loop time of 0.225259 on 1 procs for 14 steps with 2912 atoms

Minimization stats:
  Stopping criterion = trust region too small
  Energy initial, next-to-last, final = 
        -17375.9855515     -17375.9855515     -17375.9855515
  Force two-norm initial, final = 0.840484 0.840484
  Force max component initial, final = 0.840481 0.840481
  Final line search alpha, max atom move = 0 0
  Iterations, force evaluations = 14 88

Pair  time (%) = 0.194829 (86.4912)
Neigh time (%) = 0 (0)
Comm  time (%) = 0.00554218 (2.46036)
Outpt time (%) = 0.0101622 (4.51132)
Other time (%) = 0.0147255 (6.53714)

Nlocal:    2912 ave 2912 max 2912 min
Histogram: 1 0 0 0 0 0 0 0 0 0
Nghost:    7129 ave 7129 max 7129 min
Histogram: 1 0 0 0 0 0 0 0 0 0
Neighs:    77856 ave 77856 max 77856 min
Histogram: 1 0 0 0 0 0 0 0 0 0

Total # of neighbors = 77856
Ave neighs/atom = 26.7363
Neighbor list builds = 0
Dangerous builds = 0
unfix 3

# don't allow atoms to relax in y-direction
fix 2 all setforce NULL 0.0 NULL

# GSF energy curve will have 100*2 steps
variable nsteps equal 300
variable sstep1 equal 1.5
variable ystep1 equal ${sstep1}/(${ay}*${nsteps})
variable ystep1 equal 1.5/(${ay}*${nsteps})
variable ystep1 equal 1.5/(1.73205080756888*${nsteps})
variable ystep1 equal 1.5/(1.73205080756888*300)

variable i loop ${nsteps}
variable i loop 300
label loop1
        displace_atoms upper move 0.0 ${ystep1} 0.0 units lattice
        displace_atoms upper move 0.0 0.00288675134594812 0.0 units lattice
        min_style ${style}
        min_style hftn
        minimize ${etol} ${ftol} ${maxiter} ${maxeval}
        minimize 1e-12 ${ftol} ${maxiter} ${maxeval}
        minimize 1e-12 1e-08 ${maxiter} ${maxeval}
        minimize 1e-12 1e-08 10000 ${maxeval}
        minimize 1e-12 1e-08 10000 20000
WARNING: Resetting reneighboring criteria during minimization (../min.cpp:168)
Memory usage per processor = 5.28939 Mbytes
Step Temp PotEng Lx Ly Lz 
      15            0   -17375.822    7.7766452    82.508212    4.4898482 
Loop time of 0.00188294 on 1 procs for 0 steps with 2912 atoms

Minimization stats:
  Stopping criterion = force tolerance
  Energy initial, next-to-last, final = 
        -17375.8217205     -17375.8217205     -17375.8217205
  Force two-norm initial, final = 8.51156e-11 8.51156e-11
  Force max component initial, final = 2.7994e-12 2.7994e-12
  Final line search alpha, max atom move = 0 0
  Iterations, force evaluations = 0 0

Pair  time (%) = 0.00181904 (96.6063)
Neigh time (%) = 0 (0)
Comm  time (%) = 3.40171e-05 (1.8066)
Outpt time (%) = 0 (0)
Other time (%) = 2.98846e-05 (1.58713)

Nlocal:    2912 ave 2912 max 2912 min
Histogram: 1 0 0 0 0 0 0 0 0 0
Nghost:    7129 ave 7129 max 7129 min
Histogram: 1 0 0 0 0 0 0 0 0 0
Neighs:    77856 ave 77856 max 77856 min
Histogram: 1 0 0 0 0 0 0 0 0 0

Total # of neighbors = 77856
Ave neighs/atom = 26.7363
Neighbor list builds = 0
Dangerous builds = 0
	# write_dump all atom ${dumpfile}
        next i
jump SELF loop1
        displace_atoms upper move 0.0 ${ystep1} 0.0 units lattice
        displace_atoms upper move 0.0 0.00288675134594812 0.0 units lattice
        min_style ${style}
        min_style hftn
        minimize ${etol} ${ftol} ${maxiter} ${maxeval}
        minimize 1e-12 ${ftol} ${maxiter} ${maxeval}
        minimize 1e-12 1e-08 ${maxiter} ${maxeval}
        minimize 1e-12 1e-08 10000 ${maxeval}
        minimize 1e-12 1e-08 10000 20000
WARNING: Resetting reneighboring criteria during minimization (../min.cpp:168)
Memory usage per processor = 5.28939 Mbytes
Step Temp PotEng Lx Ly Lz 
      15            0   -17375.355    7.7766452    82.516149    4.4898482 
Loop time of 0.00211398 on 1 procs for 0 steps with 2912 atoms

Minimization stats:
  Stopping criterion = force tolerance
  Energy initial, next-to-last, final = 
        -17375.3554661     -17375.3554661     -17375.3554661
  Force two-norm initial, final = 8.50972e-11 8.50972e-11
  Force max component initial, final = 2.7994e-12 2.7994e-12
  Final line search alpha, max atom move = 0 0
  Iterations, force evaluations = 0 0

Pair  time (%) = 0.00205089 (97.0154)
Neigh time (%) = 0 (0)
Comm  time (%) = 3.19772e-05 (1.51265)
Outpt time (%) = 0 (0)
Other time (%) = 3.11167e-05 (1.47195)

Nlocal:    2912 ave 2912 max 2912 min
Histogram: 1 0 0 0 0 0 0 0 0 0
Nghost:    7129 ave 7129 max 7129 min
Histogram: 1 0 0 0 0 0 0 0 0 0
Neighs:    77856 ave 77856 max 77856 min
Histogram: 1 0 0 0 0 0 0 0 0 0

Total # of neighbors = 77856
Ave neighs/atom = 26.7363
Neighbor list builds = 0
Dangerous builds = 0
	# write_dump all atom ${dumpfile}
        next i
jump SELF loop1
        displace_atoms upper move 0.0 ${ystep1} 0.0 units lattice
        displace_atoms upper move 0.0 0.00288675134594812 0.0 units lattice
        min_style ${style}
        min_style hftn
        minimize ${etol} ${ftol} ${maxiter} ${maxeval}
        minimize 1e-12 ${ftol} ${maxiter} ${maxeval}
        minimize 1e-12 1e-08 ${maxiter} ${maxeval}
        minimize 1e-12 1e-08 10000 ${maxeval}
        minimize 1e-12 1e-08 10000 20000
WARNING: Resetting reneighboring criteria during minimization (../min.cpp:168)
Memory usage per processor = 5.28939 Mbytes
Step Temp PotEng Lx Ly Lz 
      15            0   -17374.622    7.7766452    82.524086    4.4898482 
Loop time of 0.00250197 on 1 procs for 0 steps with 2912 atoms

Minimization stats:
  Stopping criterion = force tolerance
  Energy initial, next-to-last, final = 
        -17374.6218503     -17374.6218503     -17374.6218503
  Force two-norm initial, final = 8.50788e-11 8.50788e-11
  Force max component initial, final = 2.7994e-12 2.7994e-12
  Final line search alpha, max atom move = 0 0
  Iterations, force evaluations = 0 0

Pair  time (%) = 0.00241896 (96.6826)
Neigh time (%) = 0 (0)
Comm  time (%) = 4.8922e-05 (1.95534)
Outpt time (%) = 0 (0)
Other time (%) = 3.40792e-05 (1.3621)

Nlocal:    2912 ave 2912 max 2912 min
Histogram: 1 0 0 0 0 0 0 0 0 0
Nghost:    7129 ave 7129 max 7129 min
Histogram: 1 0 0 0 0 0 0 0 0 0
Neighs:    77856 ave 77856 max 77856 min
Histogram: 1 0 0 0 0 0 0 0 0 0

Total # of neighbors = 77856
Ave neighs/atom = 26.7363
Neighbor list builds = 0
Dangerous builds = 0
	# write_dump all atom ${dumpfile}
        next i
jump SELF loop1
        displace_atoms upper move 0.0 ${ystep1} 0.0 units lattice
        displace_atoms upper move 0.0 0.00288675134594812 0.0 units lattice
        min_style ${style}
        min_style hftn
        minimize ${etol} ${ftol} ${maxiter} ${maxeval}
        minimize 1e-12 ${ftol} ${maxiter} ${maxeval}
        minimize 1e-12 1e-08 ${maxiter} ${maxeval}
        minimize 1e-12 1e-08 10000 ${maxeval}
        minimize 1e-12 1e-08 10000 20000
WARNING: Resetting reneighboring criteria during minimization (../min.cpp:168)
Memory usage per processor = 5.28939 Mbytes
Step Temp PotEng Lx Ly Lz 
      15            0   -17373.653    7.7766452    82.532023    4.4898482 
Loop time of 0.00207305 on 1 procs for 0 steps with 2912 atoms

Minimization stats:
  Stopping criterion = force tolerance
  Energy initial, next-to-last, final = 
        -17373.6531956     -17373.6531956     -17373.6531956
  Force two-norm initial, final = 8.50672e-11 8.50672e-11
  Force max component initial, final = 2.7994e-12 2.7994e-12
  Final line search alpha, max atom move = 0 0
  Iterations, force evaluations = 0 0

Pair  time (%) = 0.00200795 (96.86)
Neigh time (%) = 0 (0)
Comm  time (%) = 3.50265e-05 (1.68961)
Outpt time (%) = 0 (0)
Other time (%) = 3.00674e-05 (1.4504)

Nlocal:    2912 ave 2912 max 2912 min
Histogram: 1 0 0 0 0 0 0 0 0 0
Nghost:    7129 ave 7129 max 7129 min
Histogram: 1 0 0 0 0 0 0 0 0 0
Neighs:    77856 ave 77856 max 77856 min
Histogram: 1 0 0 0 0 0 0 0 0 0

Total # of neighbors = 77856
Ave neighs/atom = 26.7363
Neighbor list builds = 0
Dangerous builds = 0
	# write_dump all atom ${dumpfile}
        next i
jump SELF loop1
        displace_atoms upper move 0.0 ${ystep1} 0.0 units lattice
        displace_atoms upper move 0.0 0.00288675134594812 0.0 units lattice
        min_style ${style}
        min_style hftn
        minimize ${etol} ${ftol} ${maxiter} ${maxeval}
        minimize 1e-12 ${ftol} ${maxiter} ${maxeval}
        minimize 1e-12 1e-08 ${maxiter} ${maxeval}
        minimize 1e-12 1e-08 10000 ${maxeval}
        minimize 1e-12 1e-08 10000 20000
WARNING: Resetting reneighboring criteria during minimization (../min.cpp:168)
Memory usage per processor = 5.28939 Mbytes
Step Temp PotEng Lx Ly Lz 
      15            0   -17372.479    7.7766452     82.53996    4.4898482 
Loop time of 0.00212497 on 1 procs for 0 steps with 2912 atoms

Minimization stats:
  Stopping criterion = force tolerance
  Energy initial, next-to-last, final = 
        -17372.4792093     -17372.4792093     -17372.4792093
  Force two-norm initial, final = 8.50557e-11 8.50557e-11
  Force max component initial, final = 2.7994e-12 2.7994e-12
  Final line search alpha, max atom move = 0 0
  Iterations, force evaluations = 0 0

Pair  time (%) = 0.00205706 (96.8043)
Neigh time (%) = 0 (0)
Comm  time (%) = 3.40272e-05 (1.6013)
Outpt time (%) = 0 (0)
Other time (%) = 3.38814e-05 (1.59444)

Nlocal:    2912 ave 2912 max 2912 min
Histogram: 1 0 0 0 0 0 0 0 0 0
Nghost:    7129 ave 7129 max 7129 min
Histogram: 1 0 0 0 0 0 0 0 0 0
Neighs:    77856 ave 77856 max 77856 min
Histogram: 1 0 0 0 0 0 0 0 0 0

Total # of neighbors = 77856
Ave neighs/atom = 26.7363
Neighbor list builds = 0
Dangerous builds = 0
	# write_dump all atom ${dumpfile}
        next i
jump SELF loop1
        displace_atoms upper move 0.0 ${ystep1} 0.0 units lattice
        displace_atoms upper move 0.0 0.00288675134594812 0.0 units lattice
        min_style ${style}
        min_style hftn
        minimize ${etol} ${ftol} ${maxiter} ${maxeval}
        minimize 1e-12 ${ftol} ${maxiter} ${maxeval}
        minimize 1e-12 1e-08 ${maxiter} ${maxeval}
        minimize 1e-12 1e-08 10000 ${maxeval}
        minimize 1e-12 1e-08 10000 20000
WARNING: Resetting reneighboring criteria during minimization (../min.cpp:168)
Memory usage per processor = 5.28939 Mbytes
Step Temp PotEng Lx Ly Lz 
      15            0   -17371.127    7.7766452    82.547897    4.4898482 
Loop time of 0.00245598 on 1 procs for 0 steps with 2912 atoms

Minimization stats:
  Stopping criterion = force tolerance
  Energy initial, next-to-last, final = 
        -17371.1267864     -17371.1267864     -17371.1267864
  Force two-norm initial, final = 8.5043e-11 8.5043e-11
  Force max component initial, final = 2.7994e-12 2.7994e-12
  Final line search alpha, max atom move = 0 0
  Iterations, force evaluations = 0 0

Pair  time (%) = 0.00240591 (97.9612)
Neigh time (%) = 0 (0)
Comm  time (%) = 2.79956e-05 (1.13989)
Outpt time (%) = 0 (0)
Other time (%) = 2.20779e-05 (0.898945)

Nlocal:    2912 ave 2912 max 2912 min
Histogram: 1 0 0 0 0 0 0 0 0 0
Nghost:    7129 ave 7129 max 7129 min
Histogram: 1 0 0 0 0 0 0 0 0 0
Neighs:    77856 ave 77856 max 77856 min
Histogram: 1 0 0 0 0 0 0 0 0 0

Total # of neighbors = 77856
Ave neighs/atom = 26.7363
Neighbor list builds = 0
Dangerous builds = 0
	# write_dump all atom ${dumpfile}
        next i
jump SELF loop1
        displace_atoms upper move 0.0 ${ystep1} 0.0 units lattice
        displace_atoms upper move 0.0 0.00288675134594812 0.0 units lattice
        min_style ${style}
        min_style hftn
        minimize ${etol} ${ftol} ${maxiter} ${maxeval}
        minimize 1e-12 ${ftol} ${maxiter} ${maxeval}
        minimize 1e-12 1e-08 ${maxiter} ${maxeval}
        minimize 1e-12 1e-08 10000 ${maxeval}
        minimize 1e-12 1e-08 10000 20000
WARNING: Resetting reneighboring criteria during minimization (../min.cpp:168)
Memory usage per processor = 5.28939 Mbytes
Step Temp PotEng Lx Ly Lz 
      15            0    -17369.62    7.7766452    82.555834    4.4898482 
Loop time of 0.005469 on 1 procs for 0 steps with 2912 atoms

Minimization stats:
  Stopping criterion = force tolerance
  Energy initial, next-to-last, final = 
        -17369.6203127     -17369.6203127     -17369.6203127
  Force two-norm initial, final = 8.50351e-11 8.50351e-11
  Force max component initial, final = 2.7994e-12 2.7994e-12
  Final line search alpha, max atom move = 0 0
  Iterations, force evaluations = 0 0

Pair  time (%) = 0.00536909 (98.1733)
Neigh time (%) = 0 (0)
Comm  time (%) = 5.38439e-05 (0.984531)
Outpt time (%) = 0 (0)
Other time (%) = 4.60579e-05 (0.842163)

Nlocal:    2912 ave 2912 max 2912 min
Histogram: 1 0 0 0 0 0 0 0 0 0
Nghost:    7129 ave 7129 max 7129 min
Histogram: 1 0 0 0 0 0 0 0 0 0
Neighs:    77856 ave 77856 max 77856 min
Histogram: 1 0 0 0 0 0 0 0 0 0

Total # of neighbors = 77856
Ave neighs/atom = 26.7363
Neighbor list builds = 0
Dangerous builds = 0
	# write_dump all atom ${dumpfile}
        next i
jump SELF loop1
        displace_atoms upper move 0.0 ${ystep1} 0.0 units lattice
        displace_atoms upper move 0.0 0.00288675134594812 0.0 units lattice
        min_style ${style}
        min_style hftn
        minimize ${etol} ${ftol} ${maxiter} ${maxeval}
        minimize 1e-12 ${ftol} ${maxiter} ${maxeval}
        minimize 1e-12 1e-08 ${maxiter} ${maxeval}
        minimize 1e-12 1e-08 10000 ${maxeval}
        minimize 1e-12 1e-08 10000 20000
WARNING: Resetting reneighboring criteria during minimization (../min.cpp:168)
Memory usage per processor = 5.28939 Mbytes
Step Temp PotEng Lx Ly Lz 
      15            0   -17367.982    7.7766452    82.563771    4.4898482 
Loop time of 0.00283099 on 1 procs for 0 steps with 2912 atoms

Minimization stats:
  Stopping criterion = force tolerance
  Energy initial, next-to-last, final = 
        -17367.9823934     -17367.9823934     -17367.9823934
  Force two-norm initial, final = 8.50252e-11 8.50252e-11
  Force max component initial, final = 2.7994e-12 2.7994e-12
  Final line search alpha, max atom move = 0 0
  Iterations, force evaluations = 0 0

Pair  time (%) = 0.00276589 (97.7007)
Neigh time (%) = 0 (0)
Comm  time (%) = 3.2972e-05 (1.16468)
Outpt time (%) = 0 (0)
Other time (%) = 3.21219e-05 (1.13465)

Nlocal:    2912 ave 2912 max 2912 min
Histogram: 1 0 0 0 0 0 0 0 0 0
Nghost:    7129 ave 7129 max 7129 min
Histogram: 1 0 0 0 0 0 0 0 0 0
Neighs:    77856 ave 77856 max 77856 min
Histogram: 1 0 0 0 0 0 0 0 0 0

Total # of neighbors = 77856
Ave neighs/atom = 26.7363
Neighbor list builds = 0
Dangerous builds = 0
	# write_dump all atom ${dumpfile}
        next i
jump SELF loop1
        displace_atoms upper move 0.0 ${ystep1} 0.0 units lattice
        displace_atoms upper move 0.0 0.00288675134594812 0.0 units lattice
        min_style ${style}
        min_style hftn
        minimize ${etol} ${ftol} ${maxiter} ${maxeval}
        minimize 1e-12 ${ftol} ${maxiter} ${maxeval}
        minimize 1e-12 1e-08 ${maxiter} ${maxeval}
        minimize 1e-12 1e-08 10000 ${maxeval}
        minimize 1e-12 1e-08 10000 20000
WARNING: Resetting reneighboring criteria during minimization (../min.cpp:168)
Memory usage per processor = 5.28939 Mbytes
Step Temp PotEng Lx Ly Lz 
      15            0   -17366.232    7.7766452    82.571708    4.4898482 
Loop time of 0.00185188 on 1 procs for 0 steps with 2912 atoms

Minimization stats:
  Stopping criterion = force tolerance
  Energy initial, next-to-last, final = 
        -17366.2321812     -17366.2321812     -17366.2321812
  Force two-norm initial, final = 8.50229e-11 8.50229e-11
  Force max component initial, final = 2.7994e-12 2.7994e-12
  Final line search alpha, max atom move = 0 0
  Iterations, force evaluations = 0 0

Pair  time (%) = 0.00178803 (96.5519)
Neigh time (%) = 0 (0)
Comm  time (%) = 3.39926e-05 (1.83557)
Outpt time (%) = 0 (0)
Other time (%) = 2.98629e-05 (1.61257)

Nlocal:    2912 ave 2912 max 2912 min
Histogram: 1 0 0 0 0 0 0 0 0 0
Nghost:    7129 ave 7129 max 7129 min
Histogram: 1 0 0 0 0 0 0 0 0 0
Neighs:    77664 ave 77664 max 77664 min
Histogram: 1 0 0 0 0 0 0 0 0 0

Total # of neighbors = 77664
Ave neighs/atom = 26.6703
Neighbor list builds = 0
Dangerous builds = 0
	# write_dump all atom ${dumpfile}
        next i
jump SELF loop1
        displace_atoms upper move 0.0 ${ystep1} 0.0 units lattice
        displace_atoms upper move 0.0 0.00288675134594812 0.0 units lattice
        min_style ${style}
        min_style hftn
        minimize ${etol} ${ftol} ${maxiter} ${maxeval}
        minimize 1e-12 ${ftol} ${maxiter} ${maxeval}
        minimize 1e-12 1e-08 ${maxiter} ${maxeval}
        minimize 1e-12 1e-08 10000 ${maxeval}
        minimize 1e-12 1e-08 10000 20000
WARNING: Resetting reneighboring criteria during minimization (../min.cpp:168)
Memory usage per processor = 5.28939 Mbytes
Step Temp PotEng Lx Ly Lz 
      15            0   -17364.376    7.7766452    82.579645    4.4898482 
Loop time of 0.00365489 on 1 procs for 0 steps with 2912 atoms

Minimization stats:
  Stopping criterion = force tolerance
  Energy initial, next-to-last, final = 
        -17364.3757592     -17364.3757592     -17364.3757592
  Force two-norm initial, final = 8.50211e-11 8.50211e-11
  Force max component initial, final = 2.7994e-12 2.7994e-12
  Final line search alpha, max atom move = 0 0
  Iterations, force evaluations = 0 0

Pair  time (%) = 0.00359199 (98.279)
Neigh time (%) = 0 (0)
Comm  time (%) = 3.30884e-05 (0.905318)
Outpt time (%) = 0 (0)
Other time (%) = 2.98134e-05 (0.815712)

Nlocal:    2912 ave 2912 max 2912 min
Histogram: 1 0 0 0 0 0 0 0 0 0
Nghost:    7129 ave 7129 max 7129 min
Histogram: 1 0 0 0 0 0 0 0 0 0
Neighs:    77664 ave 77664 max 77664 min
Histogram: 1 0 0 0 0 0 0 0 0 0

Total # of neighbors = 77664
Ave neighs/atom = 26.6703
Neighbor list builds = 0
Dangerous builds = 0
	# write_dump all atom ${dumpfile}
        next i
jump SELF loop1
        displace_atoms upper move 0.0 ${ystep1} 0.0 units lattice
        displace_atoms upper move 0.0 0.00288675134594812 0.0 units lattice
        min_style ${style}
        min_style hftn
        minimize ${etol} ${ftol} ${maxiter} ${maxeval}
        minimize 1e-12 ${ftol} ${maxiter} ${maxeval}
        minimize 1e-12 1e-08 ${maxiter} ${maxeval}
        minimize 1e-12 1e-08 10000 ${maxeval}
        minimize 1e-12 1e-08 10000 20000
WARNING: Resetting reneighboring criteria during minimization (../min.cpp:168)
Memory usage per processor = 5.28939 Mbytes
Step Temp PotEng Lx Ly Lz 
      15            0   -17362.419    7.7766452    82.587582    4.4898482 
Loop time of 0.00250597 on 1 procs for 0 steps with 2912 atoms

Minimization stats:
  Stopping criterion = force tolerance
  Energy initial, next-to-last, final = 
        -17362.4191788     -17362.4191788     -17362.4191788
  Force two-norm initial, final = 8.50186e-11 8.50186e-11
  Force max component initial, final = 2.7994e-12 2.7994e-12
  Final line search alpha, max atom move = 0 0
  Iterations, force evaluations = 0 0

Pair  time (%) = 0.00244402 (97.528)
Neigh time (%) = 0 (0)
Comm  time (%) = 3.28986e-05 (1.31281)
Outpt time (%) = 0 (0)
Other time (%) = 2.90495e-05 (1.15921)

Nlocal:    2912 ave 2912 max 2912 min
Histogram: 1 0 0 0 0 0 0 0 0 0
Nghost:    7129 ave 7129 max 7129 min
Histogram: 1 0 0 0 0 0 0 0 0 0
Neighs:    77664 ave 77664 max 77664 min
Histogram: 1 0 0 0 0 0 0 0 0 0

Total # of neighbors = 77664
Ave neighs/atom = 26.6703
Neighbor list builds = 0
Dangerous builds = 0
	# write_dump all atom ${dumpfile}
        next i
jump SELF loop1
        displace_atoms upper move 0.0 ${ystep1} 0.0 units lattice
        displace_atoms upper move 0.0 0.00288675134594812 0.0 units lattice
        min_style ${style}
        min_style hftn
        minimize ${etol} ${ftol} ${maxiter} ${maxeval}
        minimize 1e-12 ${ftol} ${maxiter} ${maxeval}
        minimize 1e-12 1e-08 ${maxiter} ${maxeval}
        minimize 1e-12 1e-08 10000 ${maxeval}
        minimize 1e-12 1e-08 10000 20000
WARNING: Resetting reneighboring criteria during minimization (../min.cpp:168)
Memory usage per processor = 5.28939 Mbytes
Step Temp PotEng Lx Ly Lz 
      15            0    -17360.37    7.7766452    82.595519    4.4898482 
Loop time of 0.00291102 on 1 procs for 0 steps with 2912 atoms

Minimization stats:
  Stopping criterion = force tolerance
  Energy initial, next-to-last, final = 
        -17360.3696788     -17360.3696788     -17360.3696788
  Force two-norm initial, final = 8.50149e-11 8.50149e-11
  Force max component initial, final = 2.7994e-12 2.7994e-12
  Final line search alpha, max atom move = 0 0
  Iterations, force evaluations = 0 0

Pair  time (%) = 0.00283912 (97.53)
Neigh time (%) = 0 (0)
Comm  time (%) = 4.20352e-05 (1.444)
Outpt time (%) = 0 (0)
Other time (%) = 2.98665e-05 (1.02598)

Nlocal:    2912 ave 2912 max 2912 min
Histogram: 1 0 0 0 0 0 0 0 0 0
Nghost:    7129 ave 7129 max 7129 min
Histogram: 1 0 0 0 0 0 0 0 0 0
Neighs:    77664 ave 77664 max 77664 min
Histogram: 1 0 0 0 0 0 0 0 0 0

Total # of neighbors = 77664
Ave neighs/atom = 26.6703
Neighbor list builds = 0
Dangerous builds = 0
	# write_dump all atom ${dumpfile}
        next i
jump SELF loop1
        displace_atoms upper move 0.0 ${ystep1} 0.0 units lattice
        displace_atoms upper move 0.0 0.00288675134594812 0.0 units lattice
        min_style ${style}
        min_style hftn
        minimize ${etol} ${ftol} ${maxiter} ${maxeval}
        minimize 1e-12 ${ftol} ${maxiter} ${maxeval}
        minimize 1e-12 1e-08 ${maxiter} ${maxeval}
        minimize 1e-12 1e-08 10000 ${maxeval}
        minimize 1e-12 1e-08 10000 20000
WARNING: Resetting reneighboring criteria during minimization (../min.cpp:168)
Memory usage per processor = 5.28939 Mbytes
Step Temp PotEng Lx Ly Lz 
      15            0   -17358.235    7.7766452    82.603456    4.4898482 
Loop time of 0.00298202 on 1 procs for 0 steps with 2912 atoms

Minimization stats:
  Stopping criterion = force tolerance
  Energy initial, next-to-last, final = 
        -17358.2346331     -17358.2346331     -17358.2346331
  Force two-norm initial, final = 8.50127e-11 8.50127e-11
  Force max component initial, final = 2.7994e-12 2.7994e-12
  Final line search alpha, max atom move = 0 0
  Iterations, force evaluations = 0 0

Pair  time (%) = 0.00290688 (97.4802)
Neigh time (%) = 0 (0)
Comm  time (%) = 4.40486e-05 (1.47714)
Outpt time (%) = 0 (0)
Other time (%) = 3.10916e-05 (1.04263)

Nlocal:    2912 ave 2912 max 2912 min
Histogram: 1 0 0 0 0 0 0 0 0 0
Nghost:    7129 ave 7129 max 7129 min
Histogram: 1 0 0 0 0 0 0 0 0 0
Neighs:    77664 ave 77664 max 77664 min
Histogram: 1 0 0 0 0 0 0 0 0 0

Total # of neighbors = 77664
Ave neighs/atom = 26.6703
Neighbor list builds = 0
Dangerous builds = 0
	# write_dump all atom ${dumpfile}
        next i
jump SELF loop1
        displace_atoms upper move 0.0 ${ystep1} 0.0 units lattice
        displace_atoms upper move 0.0 0.00288675134594812 0.0 units lattice
        min_style ${style}
        min_style hftn
        minimize ${etol} ${ftol} ${maxiter} ${maxeval}
        minimize 1e-12 ${ftol} ${maxiter} ${maxeval}
        minimize 1e-12 1e-08 ${maxiter} ${maxeval}
        minimize 1e-12 1e-08 10000 ${maxeval}
        minimize 1e-12 1e-08 10000 20000
WARNING: Resetting reneighboring criteria during minimization (../min.cpp:168)
Memory usage per processor = 5.28939 Mbytes
Step Temp PotEng Lx Ly Lz 
      15            0   -17356.022    7.7766452    82.611393    4.4898482 
Loop time of 0.00210705 on 1 procs for 0 steps with 2912 atoms

Minimization stats:
  Stopping criterion = force tolerance
  Energy initial, next-to-last, final = 
        -17356.0215452     -17356.0215452     -17356.0215452
  Force two-norm initial, final = 8.50105e-11 8.50105e-11
  Force max component initial, final = 2.7994e-12 2.7994e-12
  Final line search alpha, max atom move = 0 0
  Iterations, force evaluations = 0 0

Pair  time (%) = 0.00204291 (96.9559)
Neigh time (%) = 0 (0)
Comm  time (%) = 3.38893e-05 (1.60838)
Outpt time (%) = 0 (0)
Other time (%) = 3.02509e-05 (1.4357)

Nlocal:    2912 ave 2912 max 2912 min
Histogram: 1 0 0 0 0 0 0 0 0 0
Nghost:    7129 ave 7129 max 7129 min
Histogram: 1 0 0 0 0 0 0 0 0 0
Neighs:    77664 ave 77664 max 77664 min
Histogram: 1 0 0 0 0 0 0 0 0 0

Total # of neighbors = 77664
Ave neighs/atom = 26.6703
Neighbor list builds = 0
Dangerous builds = 0
	# write_dump all atom ${dumpfile}
        next i
jump SELF loop1
        displace_atoms upper move 0.0 ${ystep1} 0.0 units lattice
        displace_atoms upper move 0.0 0.00288675134594812 0.0 units lattice
        min_style ${style}
        min_style hftn
        minimize ${etol} ${ftol} ${maxiter} ${maxeval}
        minimize 1e-12 ${ftol} ${maxiter} ${maxeval}
        minimize 1e-12 1e-08 ${maxiter} ${maxeval}
        minimize 1e-12 1e-08 10000 ${maxeval}
        minimize 1e-12 1e-08 10000 20000
WARNING: Resetting reneighboring criteria during minimization (../min.cpp:168)
Memory usage per processor = 5.28939 Mbytes
Step Temp PotEng Lx Ly Lz 
      15            0   -17353.738    7.7766452     82.61933    4.4898482 
Loop time of 0.00185505 on 1 procs for 0 steps with 2912 atoms

Minimization stats:
  Stopping criterion = force tolerance
  Energy initial, next-to-last, final = 
        -17353.7379625     -17353.7379625     -17353.7379625
  Force two-norm initial, final = 8.50064e-11 8.50064e-11
  Force max component initial, final = 2.7994e-12 2.7994e-12
  Final line search alpha, max atom move = 0 0
  Iterations, force evaluations = 0 0

Pair  time (%) = 0.00179191 (96.5963)
Neigh time (%) = 0 (0)
Comm  time (%) = 3.29368e-05 (1.77553)
Outpt time (%) = 0 (0)
Other time (%) = 3.02034e-05 (1.62817)

Nlocal:    2912 ave 2912 max 2912 min
Histogram: 1 0 0 0 0 0 0 0 0 0
Nghost:    7129 ave 7129 max 7129 min
Histogram: 1 0 0 0 0 0 0 0 0 0
Neighs:    77664 ave 77664 max 77664 min
Histogram: 1 0 0 0 0 0 0 0 0 0

Total # of neighbors = 77664
Ave neighs/atom = 26.6703
Neighbor list builds = 0
Dangerous builds = 0
	# write_dump all atom ${dumpfile}
        next i
jump SELF loop1
        displace_atoms upper move 0.0 ${ystep1} 0.0 units lattice
        displace_atoms upper move 0.0 0.00288675134594812 0.0 units lattice
        min_style ${style}
        min_style hftn
        minimize ${etol} ${ftol} ${maxiter} ${maxeval}
        minimize 1e-12 ${ftol} ${maxiter} ${maxeval}
        minimize 1e-12 1e-08 ${maxiter} ${maxeval}
        minimize 1e-12 1e-08 10000 ${maxeval}
        minimize 1e-12 1e-08 10000 20000
WARNING: Resetting reneighboring criteria during minimization (../min.cpp:168)
Memory usage per processor = 5.28939 Mbytes
Step Temp PotEng Lx Ly Lz 
      15            0   -17351.392    7.7766452    82.627267    4.4898482 
Loop time of 0.00283598 on 1 procs for 0 steps with 2912 atoms

Minimization stats:
  Stopping criterion = force tolerance
  Energy initial, next-to-last, final = 
        -17351.3916808     -17351.3916808     -17351.3916808
  Force two-norm initial, final = 8.50043e-11 8.50043e-11
  Force max component initial, final = 2.7994e-12 2.7994e-12
  Final line search alpha, max atom move = 0 0
  Iterations, force evaluations = 0 0

Pair  time (%) = 0.00277208 (97.7468)
Neigh time (%) = 0 (0)
Comm  time (%) = 3.3914e-05 (1.19585)
Outpt time (%) = 0 (0)
Other time (%) = 2.99878e-05 (1.0574)

Nlocal:    2912 ave 2912 max 2912 min
Histogram: 1 0 0 0 0 0 0 0 0 0
Nghost:    7129 ave 7129 max 7129 min
Histogram: 1 0 0 0 0 0 0 0 0 0
Neighs:    77664 ave 77664 max 77664 min
Histogram: 1 0 0 0 0 0 0 0 0 0

Total # of neighbors = 77664
Ave neighs/atom = 26.6703
Neighbor list builds = 0
Dangerous builds = 0
	# write_dump all atom ${dumpfile}
        next i
jump SELF loop1
        displace_atoms upper move 0.0 ${ystep1} 0.0 units lattice
        displace_atoms upper move 0.0 0.00288675134594812 0.0 units lattice
        min_style ${style}
        min_style hftn
        minimize ${etol} ${ftol} ${maxiter} ${maxeval}
        minimize 1e-12 ${ftol} ${maxiter} ${maxeval}
        minimize 1e-12 1e-08 ${maxiter} ${maxeval}
        minimize 1e-12 1e-08 10000 ${maxeval}
        minimize 1e-12 1e-08 10000 20000
WARNING: Resetting reneighboring criteria during minimization (../min.cpp:168)
Memory usage per processor = 5.28939 Mbytes
Step Temp PotEng Lx Ly Lz 
      15            0   -17348.991    7.7766452    82.635204    4.4898482 
Loop time of 0.00240202 on 1 procs for 0 steps with 2912 atoms

Minimization stats:
  Stopping criterion = force tolerance
  Energy initial, next-to-last, final = 
        -17348.9905398     -17348.9905398     -17348.9905398
  Force two-norm initial, final = 8.5002e-11 8.5002e-11
  Force max component initial, final = 2.7994e-12 2.7994e-12
  Final line search alpha, max atom move = 0 0
  Iterations, force evaluations = 0 0

Pair  time (%) = 0.00232712 (96.8817)
Neigh time (%) = 0 (0)
Comm  time (%) = 3.88752e-05 (1.61844)
Outpt time (%) = 0 (0)
Other time (%) = 3.60266e-05 (1.49985)

Nlocal:    2912 ave 2912 max 2912 min
Histogram: 1 0 0 0 0 0 0 0 0 0
Nghost:    7129 ave 7129 max 7129 min
Histogram: 1 0 0 0 0 0 0 0 0 0
Neighs:    77664 ave 77664 max 77664 min
Histogram: 1 0 0 0 0 0 0 0 0 0

Total # of neighbors = 77664
Ave neighs/atom = 26.6703
Neighbor list builds = 0
Dangerous builds = 0
	# write_dump all atom ${dumpfile}
        next i
jump SELF loop1
        displace_atoms upper move 0.0 ${ystep1} 0.0 units lattice
        displace_atoms upper move 0.0 0.00288675134594812 0.0 units lattice
        min_style ${style}
        min_style hftn
        minimize ${etol} ${ftol} ${maxiter} ${maxeval}
        minimize 1e-12 ${ftol} ${maxiter} ${maxeval}
        minimize 1e-12 1e-08 ${maxiter} ${maxeval}
        minimize 1e-12 1e-08 10000 ${maxeval}
        minimize 1e-12 1e-08 10000 20000
WARNING: Resetting reneighboring criteria during minimization (../min.cpp:168)
Memory usage per processor = 5.28939 Mbytes
Step Temp PotEng Lx Ly Lz 
      15            0   -17346.542    7.7766452    82.643141    4.4898482 
Loop time of 0.001685 on 1 procs for 0 steps with 2912 atoms

Minimization stats:
  Stopping criterion = force tolerance
  Energy initial, next-to-last, final = 
        -17346.5424314     -17346.5424314     -17346.5424314
  Force two-norm initial, final = 8.49982e-11 8.49982e-11
  Force max component initial, final = 2.7994e-12 2.7994e-12
  Final line search alpha, max atom move = 0 0
  Iterations, force evaluations = 0 0

Pair  time (%) = 0.0016441 (97.5726)
Neigh time (%) = 0 (0)
Comm  time (%) = 1.49442e-05 (0.8869)
Outpt time (%) = 0 (0)
Other time (%) = 2.59575e-05 (1.54051)

Nlocal:    2912 ave 2912 max 2912 min
Histogram: 1 0 0 0 0 0 0 0 0 0
Nghost:    7129 ave 7129 max 7129 min
Histogram: 1 0 0 0 0 0 0 0 0 0
Neighs:    77664 ave 77664 max 77664 min
Histogram: 1 0 0 0 0 0 0 0 0 0

Total # of neighbors = 77664
Ave neighs/atom = 26.6703
Neighbor list builds = 0
Dangerous builds = 0
	# write_dump all atom ${dumpfile}
        next i
jump SELF loop1
        displace_atoms upper move 0.0 ${ystep1} 0.0 units lattice
        displace_atoms upper move 0.0 0.00288675134594812 0.0 units lattice
        min_style ${style}
        min_style hftn
        minimize ${etol} ${ftol} ${maxiter} ${maxeval}
        minimize 1e-12 ${ftol} ${maxiter} ${maxeval}
        minimize 1e-12 1e-08 ${maxiter} ${maxeval}
        minimize 1e-12 1e-08 10000 ${maxeval}
        minimize 1e-12 1e-08 10000 20000
WARNING: Resetting reneighboring criteria during minimization (../min.cpp:168)
Memory usage per processor = 5.28939 Mbytes
Step Temp PotEng Lx Ly Lz 
      15            0   -17344.055    7.7766452    82.651078    4.4898482 
Loop time of 0.00191399 on 1 procs for 0 steps with 2912 atoms

Minimization stats:
  Stopping criterion = force tolerance
  Energy initial, next-to-last, final = 
        -17344.0554467     -17344.0554467     -17344.0554467
  Force two-norm initial, final = 8.49959e-11 8.49959e-11
  Force max component initial, final = 2.7994e-12 2.7994e-12
  Final line search alpha, max atom move = 0 0
  Iterations, force evaluations = 0 0

Pair  time (%) = 0.00180104 (94.0988)
Neigh time (%) = 0 (0)
Comm  time (%) = 5.99502e-05 (3.13222)
Outpt time (%) = 0 (0)
Other time (%) = 5.2998e-05 (2.76898)

Nlocal:    2912 ave 2912 max 2912 min
Histogram: 1 0 0 0 0 0 0 0 0 0
Nghost:    7129 ave 7129 max 7129 min
Histogram: 1 0 0 0 0 0 0 0 0 0
Neighs:    77664 ave 77664 max 77664 min
Histogram: 1 0 0 0 0 0 0 0 0 0

Total # of neighbors = 77664
Ave neighs/atom = 26.6703
Neighbor list builds = 0
Dangerous builds = 0
	# write_dump all atom ${dumpfile}
        next i
jump SELF loop1
        displace_atoms upper move 0.0 ${ystep1} 0.0 units lattice
        displace_atoms upper move 0.0 0.00288675134594812 0.0 units lattice
        min_style ${style}
        min_style hftn
        minimize ${etol} ${ftol} ${maxiter} ${maxeval}
        minimize 1e-12 ${ftol} ${maxiter} ${maxeval}
        minimize 1e-12 1e-08 ${maxiter} ${maxeval}
        minimize 1e-12 1e-08 10000 ${maxeval}
        minimize 1e-12 1e-08 10000 20000
WARNING: Resetting reneighboring criteria during minimization (../min.cpp:168)
Memory usage per processor = 5.28939 Mbytes
Step Temp PotEng Lx Ly Lz 
      15            0   -17341.538    7.7766452    82.659015    4.4898482 
Loop time of 0.00139989 on 1 procs for 0 steps with 2912 atoms

Minimization stats:
  Stopping criterion = force tolerance
  Energy initial, next-to-last, final = 
        -17341.5377257     -17341.5377257     -17341.5377257
  Force two-norm initial, final = 8.49936e-11 8.49936e-11
  Force max component initial, final = 2.7994e-12 2.7994e-12
  Final line search alpha, max atom move = 0 0
  Iterations, force evaluations = 0 0

Pair  time (%) = 0.00133599 (95.4352)
Neigh time (%) = 0 (0)
Comm  time (%) = 3.49631e-05 (2.49756)
Outpt time (%) = 0 (0)
Other time (%) = 2.89386e-05 (2.0672)

Nlocal:    2912 ave 2912 max 2912 min
Histogram: 1 0 0 0 0 0 0 0 0 0
Nghost:    7129 ave 7129 max 7129 min
Histogram: 1 0 0 0 0 0 0 0 0 0
Neighs:    77664 ave 77664 max 77664 min
Histogram: 1 0 0 0 0 0 0 0 0 0

Total # of neighbors = 77664
Ave neighs/atom = 26.6703
Neighbor list builds = 0
Dangerous builds = 0
	# write_dump all atom ${dumpfile}
        next i
jump SELF loop1
        displace_atoms upper move 0.0 ${ystep1} 0.0 units lattice
        displace_atoms upper move 0.0 0.00288675134594812 0.0 units lattice
        min_style ${style}
        min_style hftn
        minimize ${etol} ${ftol} ${maxiter} ${maxeval}
        minimize 1e-12 ${ftol} ${maxiter} ${maxeval}
        minimize 1e-12 1e-08 ${maxiter} ${maxeval}
        minimize 1e-12 1e-08 10000 ${maxeval}
        minimize 1e-12 1e-08 10000 20000
WARNING: Resetting reneighboring criteria during minimization (../min.cpp:168)
Memory usage per processor = 5.28939 Mbytes
Step Temp PotEng Lx Ly Lz 
      15            0   -17338.998    7.7766452    82.666952    4.4898482 
Loop time of 0.00215892 on 1 procs for 0 steps with 2912 atoms

Minimization stats:
  Stopping criterion = force tolerance
  Energy initial, next-to-last, final = 
        -17338.9975119     -17338.9975119     -17338.9975119
  Force two-norm initial, final = 8.49899e-11 8.49899e-11
  Force max component initial, final = 2.7994e-12 2.7994e-12
  Final line search alpha, max atom move = 0 0
  Iterations, force evaluations = 0 0

Pair  time (%) = 0.00209601 (97.0864)
Neigh time (%) = 0 (0)
Comm  time (%) = 3.29785e-05 (1.52755)
Outpt time (%) = 0 (0)
Other time (%) = 2.99233e-05 (1.38603)

Nlocal:    2912 ave 2912 max 2912 min
Histogram: 1 0 0 0 0 0 0 0 0 0
Nghost:    7129 ave 7129 max 7129 min
Histogram: 1 0 0 0 0 0 0 0 0 0
Neighs:    77664 ave 77664 max 77664 min
Histogram: 1 0 0 0 0 0 0 0 0 0

Total # of neighbors = 77664
Ave neighs/atom = 26.6703
Neighbor list builds = 0
Dangerous builds = 0
	# write_dump all atom ${dumpfile}
        next i
jump SELF loop1
        displace_atoms upper move 0.0 ${ystep1} 0.0 units lattice
        displace_atoms upper move 0.0 0.00288675134594812 0.0 units lattice
        min_style ${style}
        min_style hftn
        minimize ${etol} ${ftol} ${maxiter} ${maxeval}
        minimize 1e-12 ${ftol} ${maxiter} ${maxeval}
        minimize 1e-12 1e-08 ${maxiter} ${maxeval}
        minimize 1e-12 1e-08 10000 ${maxeval}
        minimize 1e-12 1e-08 10000 20000
WARNING: Resetting reneighboring criteria during minimization (../min.cpp:168)
Memory usage per processor = 5.28939 Mbytes
Step Temp PotEng Lx Ly Lz 
      15            0   -17336.443    7.7766452    82.674889    4.4898482 
Loop time of 0.00178594 on 1 procs for 0 steps with 2912 atoms

Minimization stats:
  Stopping criterion = force tolerance
  Energy initial, next-to-last, final = 
        -17336.4431713     -17336.4431713     -17336.4431713
  Force two-norm initial, final = 8.49873e-11 8.49873e-11
  Force max component initial, final = 2.7994e-12 2.7994e-12
  Final line search alpha, max atom move = 0 0
  Iterations, force evaluations = 0 0

Pair  time (%) = 0.00172404 (96.5339)
Neigh time (%) = 0 (0)
Comm  time (%) = 3.29179e-05 (1.84317)
Outpt time (%) = 0 (0)
Other time (%) = 2.89839e-05 (1.62289)

Nlocal:    2912 ave 2912 max 2912 min
Histogram: 1 0 0 0 0 0 0 0 0 0
Nghost:    7129 ave 7129 max 7129 min
Histogram: 1 0 0 0 0 0 0 0 0 0
Neighs:    77664 ave 77664 max 77664 min
Histogram: 1 0 0 0 0 0 0 0 0 0

Total # of neighbors = 77664
Ave neighs/atom = 26.6703
Neighbor list builds = 0
Dangerous builds = 0
	# write_dump all atom ${dumpfile}
        next i
jump SELF loop1
        displace_atoms upper move 0.0 ${ystep1} 0.0 units lattice
        displace_atoms upper move 0.0 0.00288675134594812 0.0 units lattice
        min_style ${style}
        min_style hftn
        minimize ${etol} ${ftol} ${maxiter} ${maxeval}
        minimize 1e-12 ${ftol} ${maxiter} ${maxeval}
        minimize 1e-12 1e-08 ${maxiter} ${maxeval}
        minimize 1e-12 1e-08 10000 ${maxeval}
        minimize 1e-12 1e-08 10000 20000
WARNING: Resetting reneighboring criteria during minimization (../min.cpp:168)
Memory usage per processor = 5.28939 Mbytes
Step Temp PotEng Lx Ly Lz 
      15            0   -17333.883    7.7766452    82.682826    4.4898482 
Loop time of 0.00213792 on 1 procs for 0 steps with 2912 atoms

Minimization stats:
  Stopping criterion = force tolerance
  Energy initial, next-to-last, final = 
        -17333.8831449     -17333.8831449     -17333.8831449
  Force two-norm initial, final = 8.49854e-11 8.49854e-11
  Force max component initial, final = 2.7994e-12 2.7994e-12
  Final line search alpha, max atom move = 0 0
  Iterations, force evaluations = 0 0

Pair  time (%) = 0.00207502 (97.0578)
Neigh time (%) = 0 (0)
Comm  time (%) = 3.41545e-05 (1.59756)
Outpt time (%) = 0 (0)
Other time (%) = 2.87473e-05 (1.34464)

Nlocal:    2912 ave 2912 max 2912 min
Histogram: 1 0 0 0 0 0 0 0 0 0
Nghost:    7129 ave 7129 max 7129 min
Histogram: 1 0 0 0 0 0 0 0 0 0
Neighs:    77664 ave 77664 max 77664 min
Histogram: 1 0 0 0 0 0 0 0 0 0

Total # of neighbors = 77664
Ave neighs/atom = 26.6703
Neighbor list builds = 0
Dangerous builds = 0
	# write_dump all atom ${dumpfile}
        next i
jump SELF loop1
        displace_atoms upper move 0.0 ${ystep1} 0.0 units lattice
        displace_atoms upper move 0.0 0.00288675134594812 0.0 units lattice
        min_style ${style}
        min_style hftn
        minimize ${etol} ${ftol} ${maxiter} ${maxeval}
        minimize 1e-12 ${ftol} ${maxiter} ${maxeval}
        minimize 1e-12 1e-08 ${maxiter} ${maxeval}
        minimize 1e-12 1e-08 10000 ${maxeval}
        minimize 1e-12 1e-08 10000 20000
WARNING: Resetting reneighboring criteria during minimization (../min.cpp:168)
Memory usage per processor = 5.28939 Mbytes
Step Temp PotEng Lx Ly Lz 
      15            0   -17331.326    7.7766452    82.690763    4.4898482 
Loop time of 0.00513189 on 1 procs for 0 steps with 2912 atoms

Minimization stats:
  Stopping criterion = force tolerance
  Energy initial, next-to-last, final = 
        -17331.3259716     -17331.3259716     -17331.3259716
  Force two-norm initial, final = 8.49813e-11 8.49813e-11
  Force max component initial, final = 2.7994e-12 2.7994e-12
  Final line search alpha, max atom move = 0 0
  Iterations, force evaluations = 0 0

Pair  time (%) = 0.00509899 (99.3589)
Neigh time (%) = 0 (0)
Comm  time (%) = 1.50523e-05 (0.293308)
Outpt time (%) = 0 (0)
Other time (%) = 1.78495e-05 (0.347815)

Nlocal:    2912 ave 2912 max 2912 min
Histogram: 1 0 0 0 0 0 0 0 0 0
Nghost:    7129 ave 7129 max 7129 min
Histogram: 1 0 0 0 0 0 0 0 0 0
Neighs:    77664 ave 77664 max 77664 min
Histogram: 1 0 0 0 0 0 0 0 0 0

Total # of neighbors = 77664
Ave neighs/atom = 26.6703
Neighbor list builds = 0
Dangerous builds = 0
	# write_dump all atom ${dumpfile}
        next i
jump SELF loop1
        displace_atoms upper move 0.0 ${ystep1} 0.0 units lattice
        displace_atoms upper move 0.0 0.00288675134594812 0.0 units lattice
        min_style ${style}
        min_style hftn
        minimize ${etol} ${ftol} ${maxiter} ${maxeval}
        minimize 1e-12 ${ftol} ${maxiter} ${maxeval}
        minimize 1e-12 1e-08 ${maxiter} ${maxeval}
        minimize 1e-12 1e-08 10000 ${maxeval}
        minimize 1e-12 1e-08 10000 20000
WARNING: Resetting reneighboring criteria during minimization (../min.cpp:168)
Memory usage per processor = 5.28939 Mbytes
Step Temp PotEng Lx Ly Lz 
      15            0    -17328.78    7.7766452      82.6987    4.4898482 
Loop time of 0.00149693 on 1 procs for 0 steps with 2912 atoms

Minimization stats:
  Stopping criterion = force tolerance
  Energy initial, next-to-last, final = 
        -17328.7803147     -17328.7803147     -17328.7803147
  Force two-norm initial, final = 8.49788e-11 8.49788e-11
  Force max component initial, final = 2.7994e-12 2.7994e-12
  Final line search alpha, max atom move = 0 0
  Iterations, force evaluations = 0 0

Pair  time (%) = 0.00143208 (95.6675)
Neigh time (%) = 0 (0)
Comm  time (%) = 3.38204e-05 (2.25931)
Outpt time (%) = 0 (0)
Other time (%) = 3.1035e-05 (2.07324)

Nlocal:    2912 ave 2912 max 2912 min
Histogram: 1 0 0 0 0 0 0 0 0 0
Nghost:    7129 ave 7129 max 7129 min
Histogram: 1 0 0 0 0 0 0 0 0 0
Neighs:    77664 ave 77664 max 77664 min
Histogram: 1 0 0 0 0 0 0 0 0 0

Total # of neighbors = 77664
Ave neighs/atom = 26.6703
Neighbor list builds = 0
Dangerous builds = 0
	# write_dump all atom ${dumpfile}
        next i
jump SELF loop1
        displace_atoms upper move 0.0 ${ystep1} 0.0 units lattice
        displace_atoms upper move 0.0 0.00288675134594812 0.0 units lattice
        min_style ${style}
        min_style hftn
        minimize ${etol} ${ftol} ${maxiter} ${maxeval}
        minimize 1e-12 ${ftol} ${maxiter} ${maxeval}
        minimize 1e-12 1e-08 ${maxiter} ${maxeval}
        minimize 1e-12 1e-08 10000 ${maxeval}
        minimize 1e-12 1e-08 10000 20000
WARNING: Resetting reneighboring criteria during minimization (../min.cpp:168)
Memory usage per processor = 5.28939 Mbytes
Step Temp PotEng Lx Ly Lz 
      15            0   -17326.255    7.7766452    82.706637    4.4898482 
Loop time of 0.004872 on 1 procs for 0 steps with 2912 atoms

Minimization stats:
  Stopping criterion = force tolerance
  Energy initial, next-to-last, final = 
        -17326.2548721     -17326.2548721     -17326.2548721
  Force two-norm initial, final = 8.49769e-11 8.49769e-11
  Force max component initial, final = 2.7994e-12 2.7994e-12
  Final line search alpha, max atom move = 0 0
  Iterations, force evaluations = 0 0

Pair  time (%) = 0.00196006 (40.231)
Neigh time (%) = 0 (0)
Comm  time (%) = 0.00288296 (59.174)
Outpt time (%) = 0 (0)
Other time (%) = 2.89871e-05 (0.594972)

Nlocal:    2912 ave 2912 max 2912 min
Histogram: 1 0 0 0 0 0 0 0 0 0
Nghost:    7129 ave 7129 max 7129 min
Histogram: 1 0 0 0 0 0 0 0 0 0
Neighs:    77664 ave 77664 max 77664 min
Histogram: 1 0 0 0 0 0 0 0 0 0

Total # of neighbors = 77664
Ave neighs/atom = 26.6703
Neighbor list builds = 0
Dangerous builds = 0
	# write_dump all atom ${dumpfile}
        next i
jump SELF loop1
        displace_atoms upper move 0.0 ${ystep1} 0.0 units lattice
        displace_atoms upper move 0.0 0.00288675134594812 0.0 units lattice
        min_style ${style}
        min_style hftn
        minimize ${etol} ${ftol} ${maxiter} ${maxeval}
        minimize 1e-12 ${ftol} ${maxiter} ${maxeval}
        minimize 1e-12 1e-08 ${maxiter} ${maxeval}
        minimize 1e-12 1e-08 10000 ${maxeval}
        minimize 1e-12 1e-08 10000 20000
WARNING: Resetting reneighboring criteria during minimization (../min.cpp:168)
Memory usage per processor = 5.28939 Mbytes
Step Temp PotEng Lx Ly Lz 
      15            0   -17323.758    7.7766452    82.714574    4.4898482 
Loop time of 0.00339107 on 1 procs for 0 steps with 2912 atoms

Minimization stats:
  Stopping criterion = force tolerance
  Energy initial, next-to-last, final = 
        -17323.7584211     -17323.7584211     -17323.7584211
  Force two-norm initial, final = 8.49731e-11 8.49731e-11
  Force max component initial, final = 2.7994e-12 2.7994e-12
  Final line search alpha, max atom move = 0 0
  Iterations, force evaluations = 0 0

Pair  time (%) = 0.00332888 (98.1662)
Neigh time (%) = 0 (0)
Comm  time (%) = 3.30945e-05 (0.975932)
Outpt time (%) = 0 (0)
Other time (%) = 2.9092e-05 (0.857899)

Nlocal:    2912 ave 2912 max 2912 min
Histogram: 1 0 0 0 0 0 0 0 0 0
Nghost:    7129 ave 7129 max 7129 min
Histogram: 1 0 0 0 0 0 0 0 0 0
Neighs:    77664 ave 77664 max 77664 min
Histogram: 1 0 0 0 0 0 0 0 0 0

Total # of neighbors = 77664
Ave neighs/atom = 26.6703
Neighbor list builds = 0
Dangerous builds = 0
	# write_dump all atom ${dumpfile}
        next i
jump SELF loop1
        displace_atoms upper move 0.0 ${ystep1} 0.0 units lattice
        displace_atoms upper move 0.0 0.00288675134594812 0.0 units lattice
        min_style ${style}
        min_style hftn
        minimize ${etol} ${ftol} ${maxiter} ${maxeval}
        minimize 1e-12 ${ftol} ${maxiter} ${maxeval}
        minimize 1e-12 1e-08 ${maxiter} ${maxeval}
        minimize 1e-12 1e-08 10000 ${maxeval}
        minimize 1e-12 1e-08 10000 20000
WARNING: Resetting reneighboring criteria during minimization (../min.cpp:168)
Memory usage per processor = 5.28939 Mbytes
Step Temp PotEng Lx Ly Lz 
      15            0     -17321.3    7.7766452    82.722511    4.4898482 
Loop time of 0.00254211 on 1 procs for 0 steps with 2912 atoms

Minimization stats:
  Stopping criterion = force tolerance
  Energy initial, next-to-last, final = 
        -17321.2999771     -17321.2999771     -17321.2999771
  Force two-norm initial, final = 8.49703e-11 8.49703e-11
  Force max component initial, final = 2.7994e-12 2.7994e-12
  Final line search alpha, max atom move = 0 0
  Iterations, force evaluations = 0 0

Pair  time (%) = 0.00246592 (97.003)
Neigh time (%) = 0 (0)
Comm  time (%) = 4.00114e-05 (1.57394)
Outpt time (%) = 0 (0)
Other time (%) = 3.61751e-05 (1.42304)

Nlocal:    2912 ave 2912 max 2912 min
Histogram: 1 0 0 0 0 0 0 0 0 0
Nghost:    7129 ave 7129 max 7129 min
Histogram: 1 0 0 0 0 0 0 0 0 0
Neighs:    77664 ave 77664 max 77664 min
Histogram: 1 0 0 0 0 0 0 0 0 0

Total # of neighbors = 77664
Ave neighs/atom = 26.6703
Neighbor list builds = 0
Dangerous builds = 0
	# write_dump all atom ${dumpfile}
        next i
jump SELF loop1
        displace_atoms upper move 0.0 ${ystep1} 0.0 units lattice
        displace_atoms upper move 0.0 0.00288675134594812 0.0 units lattice
        min_style ${style}
        min_style hftn
        minimize ${etol} ${ftol} ${maxiter} ${maxeval}
        minimize 1e-12 ${ftol} ${maxiter} ${maxeval}
        minimize 1e-12 1e-08 ${maxiter} ${maxeval}
        minimize 1e-12 1e-08 10000 ${maxeval}
        minimize 1e-12 1e-08 10000 20000
WARNING: Resetting reneighboring criteria during minimization (../min.cpp:168)
Memory usage per processor = 5.28939 Mbytes
Step Temp PotEng Lx Ly Lz 
      15            0   -17318.888    7.7766452    82.730448    4.4898482 
Loop time of 0.00213498 on 1 procs for 0 steps with 2912 atoms

Minimization stats:
  Stopping criterion = force tolerance
  Energy initial, next-to-last, final = 
        -17318.8883845     -17318.8883845     -17318.8883845
  Force two-norm initial, final = 8.49683e-11 8.49683e-11
  Force max component initial, final = 2.7994e-12 2.7994e-12
  Final line search alpha, max atom move = 0 0
  Iterations, force evaluations = 0 0

Pair  time (%) = 0.00207003 (96.9579)
Neigh time (%) = 0 (0)
Comm  time (%) = 3.40018e-05 (1.5926)
Outpt time (%) = 0 (0)
Other time (%) = 3.09463e-05 (1.44949)

Nlocal:    2912 ave 2912 max 2912 min
Histogram: 1 0 0 0 0 0 0 0 0 0
Nghost:    7129 ave 7129 max 7129 min
Histogram: 1 0 0 0 0 0 0 0 0 0
Neighs:    77664 ave 77664 max 77664 min
Histogram: 1 0 0 0 0 0 0 0 0 0

Total # of neighbors = 77664
Ave neighs/atom = 26.6703
Neighbor list builds = 0
Dangerous builds = 0
	# write_dump all atom ${dumpfile}
        next i
jump SELF loop1
        displace_atoms upper move 0.0 ${ystep1} 0.0 units lattice
        displace_atoms upper move 0.0 0.00288675134594812 0.0 units lattice
        min_style ${style}
        min_style hftn
        minimize ${etol} ${ftol} ${maxiter} ${maxeval}
        minimize 1e-12 ${ftol} ${maxiter} ${maxeval}
        minimize 1e-12 1e-08 ${maxiter} ${maxeval}
        minimize 1e-12 1e-08 10000 ${maxeval}
        minimize 1e-12 1e-08 10000 20000
WARNING: Resetting reneighboring criteria during minimization (../min.cpp:168)
Memory usage per processor = 5.28939 Mbytes
Step Temp PotEng Lx Ly Lz 
      15            0   -17316.533    7.7766452    82.738385    4.4898482 
Loop time of 0.0023251 on 1 procs for 0 steps with 2912 atoms

Minimization stats:
  Stopping criterion = force tolerance
  Energy initial, next-to-last, final = 
        -17316.5328228     -17316.5328228     -17316.5328228
  Force two-norm initial, final = 8.49644e-11 8.49644e-11
  Force max component initial, final = 2.7994e-12 2.7994e-12
  Final line search alpha, max atom move = 0 0
  Iterations, force evaluations = 0 0

Pair  time (%) = 0.00221996 (95.478)
Neigh time (%) = 0 (0)
Comm  time (%) = 5.80896e-05 (2.49837)
Outpt time (%) = 0 (0)
Other time (%) = 4.70506e-05 (2.02359)

Nlocal:    2912 ave 2912 max 2912 min
Histogram: 1 0 0 0 0 0 0 0 0 0
Nghost:    7129 ave 7129 max 7129 min
Histogram: 1 0 0 0 0 0 0 0 0 0
Neighs:    77664 ave 77664 max 77664 min
Histogram: 1 0 0 0 0 0 0 0 0 0

Total # of neighbors = 77664
Ave neighs/atom = 26.6703
Neighbor list builds = 0
Dangerous builds = 0
	# write_dump all atom ${dumpfile}
        next i
jump SELF loop1
        displace_atoms upper move 0.0 ${ystep1} 0.0 units lattice
        displace_atoms upper move 0.0 0.00288675134594812 0.0 units lattice
        min_style ${style}
        min_style hftn
        minimize ${etol} ${ftol} ${maxiter} ${maxeval}
        minimize 1e-12 ${ftol} ${maxiter} ${maxeval}
        minimize 1e-12 1e-08 ${maxiter} ${maxeval}
        minimize 1e-12 1e-08 10000 ${maxeval}
        minimize 1e-12 1e-08 10000 20000
WARNING: Resetting reneighboring criteria during minimization (../min.cpp:168)
Memory usage per processor = 5.28939 Mbytes
Step Temp PotEng Lx Ly Lz 
      15            0   -17314.242    7.7766452    82.746322    4.4898482 
Loop time of 0.00198208 on 1 procs for 0 steps with 2912 atoms

Minimization stats:
  Stopping criterion = force tolerance
  Energy initial, next-to-last, final = 
        -17314.2424022     -17314.2424022     -17314.2424022
  Force two-norm initial, final = 8.49617e-11 8.49617e-11
  Force max component initial, final = 2.7994e-12 2.7994e-12
  Final line search alpha, max atom move = 0 0
  Iterations, force evaluations = 0 0

Pair  time (%) = 0.00191799 (96.7663)
Neigh time (%) = 0 (0)
Comm  time (%) = 3.29781e-05 (1.66381)
Outpt time (%) = 0 (0)
Other time (%) = 3.11157e-05 (1.56985)

Nlocal:    2912 ave 2912 max 2912 min
Histogram: 1 0 0 0 0 0 0 0 0 0
Nghost:    7129 ave 7129 max 7129 min
Histogram: 1 0 0 0 0 0 0 0 0 0
Neighs:    77664 ave 77664 max 77664 min
Histogram: 1 0 0 0 0 0 0 0 0 0

Total # of neighbors = 77664
Ave neighs/atom = 26.6703
Neighbor list builds = 0
Dangerous builds = 0
	# write_dump all atom ${dumpfile}
        next i
jump SELF loop1
        displace_atoms upper move 0.0 ${ystep1} 0.0 units lattice
        displace_atoms upper move 0.0 0.00288675134594812 0.0 units lattice
        min_style ${style}
        min_style hftn
        minimize ${etol} ${ftol} ${maxiter} ${maxeval}
        minimize 1e-12 ${ftol} ${maxiter} ${maxeval}
        minimize 1e-12 1e-08 ${maxiter} ${maxeval}
        minimize 1e-12 1e-08 10000 ${maxeval}
        minimize 1e-12 1e-08 10000 20000
WARNING: Resetting reneighboring criteria during minimization (../min.cpp:168)
Memory usage per processor = 5.28939 Mbytes
Step Temp PotEng Lx Ly Lz 
      15            0   -17312.026    7.7766452    82.754259    4.4898482 
Loop time of 0.00290493 on 1 procs for 0 steps with 2912 atoms

Minimization stats:
  Stopping criterion = force tolerance
  Energy initial, next-to-last, final = 
        -17312.0262938     -17312.0262938     -17312.0262938
  Force two-norm initial, final = 8.49605e-11 8.49605e-11
  Force max component initial, final = 2.7994e-12 2.7994e-12
  Final line search alpha, max atom move = 0 0
  Iterations, force evaluations = 0 0

Pair  time (%) = 0.00279695 (96.2828)
Neigh time (%) = 0 (0)
Comm  time (%) = 4.51141e-05 (1.55302)
Outpt time (%) = 0 (0)
Other time (%) = 6.2868e-05 (2.16418)

Nlocal:    2912 ave 2912 max 2912 min
Histogram: 1 0 0 0 0 0 0 0 0 0
Nghost:    7129 ave 7129 max 7129 min
Histogram: 1 0 0 0 0 0 0 0 0 0
Neighs:    77664 ave 77664 max 77664 min
Histogram: 1 0 0 0 0 0 0 0 0 0

Total # of neighbors = 77664
Ave neighs/atom = 26.6703
Neighbor list builds = 0
Dangerous builds = 0
	# write_dump all atom ${dumpfile}
        next i
jump SELF loop1
        displace_atoms upper move 0.0 ${ystep1} 0.0 units lattice
        displace_atoms upper move 0.0 0.00288675134594812 0.0 units lattice
        min_style ${style}
        min_style hftn
        minimize ${etol} ${ftol} ${maxiter} ${maxeval}
        minimize 1e-12 ${ftol} ${maxiter} ${maxeval}
        minimize 1e-12 1e-08 ${maxiter} ${maxeval}
        minimize 1e-12 1e-08 10000 ${maxeval}
        minimize 1e-12 1e-08 10000 20000
WARNING: Resetting reneighboring criteria during minimization (../min.cpp:168)
Memory usage per processor = 5.28939 Mbytes
Step Temp PotEng Lx Ly Lz 
      15            0    -17309.89    7.7766452    82.762196    4.4898482 
Loop time of 0.00201401 on 1 procs for 0 steps with 2912 atoms

Minimization stats:
  Stopping criterion = force tolerance
  Energy initial, next-to-last, final = 
         -17309.890496      -17309.890496      -17309.890496
  Force two-norm initial, final = 8.49592e-11 8.49592e-11
  Force max component initial, final = 2.7994e-12 2.7994e-12
  Final line search alpha, max atom move = 0 0
  Iterations, force evaluations = 0 0

Pair  time (%) = 0.00195111 (96.8768)
Neigh time (%) = 0 (0)
Comm  time (%) = 3.28469e-05 (1.63092)
Outpt time (%) = 0 (0)
Other time (%) = 3.00548e-05 (1.49229)

Nlocal:    2912 ave 2912 max 2912 min
Histogram: 1 0 0 0 0 0 0 0 0 0
Nghost:    7129 ave 7129 max 7129 min
Histogram: 1 0 0 0 0 0 0 0 0 0
Neighs:    77664 ave 77664 max 77664 min
Histogram: 1 0 0 0 0 0 0 0 0 0

Total # of neighbors = 77664
Ave neighs/atom = 26.6703
Neighbor list builds = 0
Dangerous builds = 0
	# write_dump all atom ${dumpfile}
        next i
jump SELF loop1
        displace_atoms upper move 0.0 ${ystep1} 0.0 units lattice
        displace_atoms upper move 0.0 0.00288675134594812 0.0 units lattice
        min_style ${style}
        min_style hftn
        minimize ${etol} ${ftol} ${maxiter} ${maxeval}
        minimize 1e-12 ${ftol} ${maxiter} ${maxeval}
        minimize 1e-12 1e-08 ${maxiter} ${maxeval}
        minimize 1e-12 1e-08 10000 ${maxeval}
        minimize 1e-12 1e-08 10000 20000
WARNING: Resetting reneighboring criteria during minimization (../min.cpp:168)
Memory usage per processor = 5.28939 Mbytes
Step Temp PotEng Lx Ly Lz 
      15            0   -17307.835    7.7766452    82.770133    4.4898482 
Loop time of 0.00200901 on 1 procs for 0 steps with 2912 atoms

Minimization stats:
  Stopping criterion = force tolerance
  Energy initial, next-to-last, final = 
        -17307.8350629     -17307.8350629     -17307.8350629
  Force two-norm initial, final = 8.49592e-11 8.49592e-11
  Force max component initial, final = 2.7994e-12 2.7994e-12
  Final line search alpha, max atom move = 0 0
  Iterations, force evaluations = 0 0

Pair  time (%) = 0.0019461 (96.869)
Neigh time (%) = 0 (0)
Comm  time (%) = 3.38402e-05 (1.68442)
Outpt time (%) = 0 (0)
Other time (%) = 2.90616e-05 (1.44656)

Nlocal:    2912 ave 2912 max 2912 min
Histogram: 1 0 0 0 0 0 0 0 0 0
Nghost:    7129 ave 7129 max 7129 min
Histogram: 1 0 0 0 0 0 0 0 0 0
Neighs:    77664 ave 77664 max 77664 min
Histogram: 1 0 0 0 0 0 0 0 0 0

Total # of neighbors = 77664
Ave neighs/atom = 26.6703
Neighbor list builds = 0
Dangerous builds = 0
	# write_dump all atom ${dumpfile}
        next i
jump SELF loop1
        displace_atoms upper move 0.0 ${ystep1} 0.0 units lattice
        displace_atoms upper move 0.0 0.00288675134594812 0.0 units lattice
        min_style ${style}
        min_style hftn
        minimize ${etol} ${ftol} ${maxiter} ${maxeval}
        minimize 1e-12 ${ftol} ${maxiter} ${maxeval}
        minimize 1e-12 1e-08 ${maxiter} ${maxeval}
        minimize 1e-12 1e-08 10000 ${maxeval}
        minimize 1e-12 1e-08 10000 20000
WARNING: Resetting reneighboring criteria during minimization (../min.cpp:168)
Memory usage per processor = 5.28939 Mbytes
Step Temp PotEng Lx Ly Lz 
      15            0   -17305.859    7.7766452     82.77807    4.4898482 
Loop time of 0.00170998 on 1 procs for 0 steps with 2912 atoms

Minimization stats:
  Stopping criterion = force tolerance
  Energy initial, next-to-last, final = 
        -17305.8593864     -17305.8593864     -17305.8593864
  Force two-norm initial, final = 8.496e-11 8.496e-11
  Force max component initial, final = 2.7994e-12 2.7994e-12
  Final line search alpha, max atom move = 0 0
  Iterations, force evaluations = 0 0

Pair  time (%) = 0.00164298 (96.0818)
Neigh time (%) = 0 (0)
Comm  time (%) = 3.50538e-05 (2.04995)
Outpt time (%) = 0 (0)
Other time (%) = 3.19474e-05 (1.86829)

Nlocal:    2912 ave 2912 max 2912 min
Histogram: 1 0 0 0 0 0 0 0 0 0
Nghost:    7129 ave 7129 max 7129 min
Histogram: 1 0 0 0 0 0 0 0 0 0
Neighs:    77664 ave 77664 max 77664 min
Histogram: 1 0 0 0 0 0 0 0 0 0

Total # of neighbors = 77664
Ave neighs/atom = 26.6703
Neighbor list builds = 0
Dangerous builds = 0
	# write_dump all atom ${dumpfile}
        next i
jump SELF loop1
        displace_atoms upper move 0.0 ${ystep1} 0.0 units lattice
        displace_atoms upper move 0.0 0.00288675134594812 0.0 units lattice
        min_style ${style}
        min_style hftn
        minimize ${etol} ${ftol} ${maxiter} ${maxeval}
        minimize 1e-12 ${ftol} ${maxiter} ${maxeval}
        minimize 1e-12 1e-08 ${maxiter} ${maxeval}
        minimize 1e-12 1e-08 10000 ${maxeval}
        minimize 1e-12 1e-08 10000 20000
WARNING: Resetting reneighboring criteria during minimization (../min.cpp:168)
Memory usage per processor = 5.28939 Mbytes
Step Temp PotEng Lx Ly Lz 
      15            0   -17303.963    7.7766452    82.786007    4.4898482 
Loop time of 0.00193109 on 1 procs for 0 steps with 2912 atoms

Minimization stats:
  Stopping criterion = force tolerance
  Energy initial, next-to-last, final = 
         -17303.962826      -17303.962826      -17303.962826
  Force two-norm initial, final = 8.49587e-11 8.49587e-11
  Force max component initial, final = 2.7994e-12 2.7994e-12
  Final line search alpha, max atom move = 0 0
  Iterations, force evaluations = 0 0

Pair  time (%) = 0.0018989 (98.3332)
Neigh time (%) = 0 (0)
Comm  time (%) = 1.49256e-05 (0.772912)
Outpt time (%) = 0 (0)
Other time (%) = 1.72609e-05 (0.893843)

Nlocal:    2912 ave 2912 max 2912 min
Histogram: 1 0 0 0 0 0 0 0 0 0
Nghost:    7129 ave 7129 max 7129 min
Histogram: 1 0 0 0 0 0 0 0 0 0
Neighs:    77664 ave 77664 max 77664 min
Histogram: 1 0 0 0 0 0 0 0 0 0

Total # of neighbors = 77664
Ave neighs/atom = 26.6703
Neighbor list builds = 0
Dangerous builds = 0
	# write_dump all atom ${dumpfile}
        next i
jump SELF loop1
        displace_atoms upper move 0.0 ${ystep1} 0.0 units lattice
        displace_atoms upper move 0.0 0.00288675134594812 0.0 units lattice
        min_style ${style}
        min_style hftn
        minimize ${etol} ${ftol} ${maxiter} ${maxeval}
        minimize 1e-12 ${ftol} ${maxiter} ${maxeval}
        minimize 1e-12 1e-08 ${maxiter} ${maxeval}
        minimize 1e-12 1e-08 10000 ${maxeval}
        minimize 1e-12 1e-08 10000 20000
WARNING: Resetting reneighboring criteria during minimization (../min.cpp:168)
Memory usage per processor = 5.28939 Mbytes
Step Temp PotEng Lx Ly Lz 
      15            0   -17302.145    7.7766452    82.793944    4.4898482 
Loop time of 0.00213704 on 1 procs for 0 steps with 2912 atoms

Minimization stats:
  Stopping criterion = force tolerance
  Energy initial, next-to-last, final = 
        -17302.1448642     -17302.1448642     -17302.1448642
  Force two-norm initial, final = 8.49587e-11 8.49587e-11
  Force max component initial, final = 2.7994e-12 2.7994e-12
  Final line search alpha, max atom move = 0 0
  Iterations, force evaluations = 0 0

Pair  time (%) = 0.0020739 (97.0454)
Neigh time (%) = 0 (0)
Comm  time (%) = 3.2875e-05 (1.53834)
Outpt time (%) = 0 (0)
Other time (%) = 3.02652e-05 (1.41622)

Nlocal:    2912 ave 2912 max 2912 min
Histogram: 1 0 0 0 0 0 0 0 0 0
Nghost:    7129 ave 7129 max 7129 min
Histogram: 1 0 0 0 0 0 0 0 0 0
Neighs:    77664 ave 77664 max 77664 min
Histogram: 1 0 0 0 0 0 0 0 0 0

Total # of neighbors = 77664
Ave neighs/atom = 26.6703
Neighbor list builds = 0
Dangerous builds = 0
	# write_dump all atom ${dumpfile}
        next i
jump SELF loop1
        displace_atoms upper move 0.0 ${ystep1} 0.0 units lattice
        displace_atoms upper move 0.0 0.00288675134594812 0.0 units lattice
        min_style ${style}
        min_style hftn
        minimize ${etol} ${ftol} ${maxiter} ${maxeval}
        minimize 1e-12 ${ftol} ${maxiter} ${maxeval}
        minimize 1e-12 1e-08 ${maxiter} ${maxeval}
        minimize 1e-12 1e-08 10000 ${maxeval}
        minimize 1e-12 1e-08 10000 20000
WARNING: Resetting reneighboring criteria during minimization (../min.cpp:168)
Memory usage per processor = 5.29063 Mbytes
Step Temp PotEng Lx Ly Lz 
      15            0   -17300.405    7.7766452    82.801881    4.4898482 
Loop time of 0.00192506 on 1 procs for 0 steps with 2912 atoms

Minimization stats:
  Stopping criterion = force tolerance
  Energy initial, next-to-last, final = 
         -17300.404706      -17300.404706      -17300.404706
  Force two-norm initial, final = 8.49596e-11 8.49596e-11
  Force max component initial, final = 2.7994e-12 2.7994e-12
  Final line search alpha, max atom move = 0 0
  Iterations, force evaluations = 0 0

Pair  time (%) = 0.00185292 (96.2526)
Neigh time (%) = 0 (0)
Comm  time (%) = 3.39361e-05 (1.76286)
Outpt time (%) = 0 (0)
Other time (%) = 3.82041e-05 (1.98457)

Nlocal:    2912 ave 2912 max 2912 min
Histogram: 1 0 0 0 0 0 0 0 0 0
Nghost:    7129 ave 7129 max 7129 min
Histogram: 1 0 0 0 0 0 0 0 0 0
Neighs:    77664 ave 77664 max 77664 min
Histogram: 1 0 0 0 0 0 0 0 0 0

Total # of neighbors = 77664
Ave neighs/atom = 26.6703
Neighbor list builds = 0
Dangerous builds = 0
	# write_dump all atom ${dumpfile}
        next i
jump SELF loop1
        displace_atoms upper move 0.0 ${ystep1} 0.0 units lattice
        displace_atoms upper move 0.0 0.00288675134594812 0.0 units lattice
        min_style ${style}
        min_style hftn
        minimize ${etol} ${ftol} ${maxiter} ${maxeval}
        minimize 1e-12 ${ftol} ${maxiter} ${maxeval}
        minimize 1e-12 1e-08 ${maxiter} ${maxeval}
        minimize 1e-12 1e-08 10000 ${maxeval}
        minimize 1e-12 1e-08 10000 20000
WARNING: Resetting reneighboring criteria during minimization (../min.cpp:168)
Memory usage per processor = 5.29063 Mbytes
Step Temp PotEng Lx Ly Lz 
      15            0   -17298.742    7.7766452    82.809818    4.4898482 
Loop time of 0.00203209 on 1 procs for 0 steps with 2912 atoms

Minimization stats:
  Stopping criterion = force tolerance
  Energy initial, next-to-last, final = 
        -17298.7417648     -17298.7417648     -17298.7417648
  Force two-norm initial, final = 8.49581e-11 8.49581e-11
  Force max component initial, final = 2.7994e-12 2.7994e-12
  Final line search alpha, max atom move = 0 0
  Iterations, force evaluations = 0 0

Pair  time (%) = 0.00196995 (96.9421)
Neigh time (%) = 0 (0)
Comm  time (%) = 3.39278e-05 (1.6696)
Outpt time (%) = 0 (0)
Other time (%) = 2.82123e-05 (1.38834)

Nlocal:    2912 ave 2912 max 2912 min
Histogram: 1 0 0 0 0 0 0 0 0 0
Nghost:    7129 ave 7129 max 7129 min
Histogram: 1 0 0 0 0 0 0 0 0 0
Neighs:    77664 ave 77664 max 77664 min
Histogram: 1 0 0 0 0 0 0 0 0 0

Total # of neighbors = 77664
Ave neighs/atom = 26.6703
Neighbor list builds = 0
Dangerous builds = 0
	# write_dump all atom ${dumpfile}
        next i
jump SELF loop1
        displace_atoms upper move 0.0 ${ystep1} 0.0 units lattice
        displace_atoms upper move 0.0 0.00288675134594812 0.0 units lattice
        min_style ${style}
        min_style hftn
        minimize ${etol} ${ftol} ${maxiter} ${maxeval}
        minimize 1e-12 ${ftol} ${maxiter} ${maxeval}
        minimize 1e-12 1e-08 ${maxiter} ${maxeval}
        minimize 1e-12 1e-08 10000 ${maxeval}
        minimize 1e-12 1e-08 10000 20000
WARNING: Resetting reneighboring criteria during minimization (../min.cpp:168)
Memory usage per processor = 5.29063 Mbytes
Step Temp PotEng Lx Ly Lz 
      15            0   -17297.155    7.7766452    82.817755    4.4898482 
Loop time of 0.00217707 on 1 procs for 0 steps with 2912 atoms

Minimization stats:
  Stopping criterion = force tolerance
  Energy initial, next-to-last, final = 
        -17297.1552755     -17297.1552755     -17297.1552755
  Force two-norm initial, final = 8.49582e-11 8.49582e-11
  Force max component initial, final = 2.7994e-12 2.7994e-12
  Final line search alpha, max atom move = 0 0
  Iterations, force evaluations = 0 0

Pair  time (%) = 0.00211297 (97.056)
Neigh time (%) = 0 (0)
Comm  time (%) = 3.31621e-05 (1.52324)
Outpt time (%) = 0 (0)
Other time (%) = 3.09318e-05 (1.4208)

Nlocal:    2912 ave 2912 max 2912 min
Histogram: 1 0 0 0 0 0 0 0 0 0
Nghost:    7129 ave 7129 max 7129 min
Histogram: 1 0 0 0 0 0 0 0 0 0
Neighs:    77664 ave 77664 max 77664 min
Histogram: 1 0 0 0 0 0 0 0 0 0

Total # of neighbors = 77664
Ave neighs/atom = 26.6703
Neighbor list builds = 0
Dangerous builds = 0
	# write_dump all atom ${dumpfile}
        next i
jump SELF loop1
        displace_atoms upper move 0.0 ${ystep1} 0.0 units lattice
        displace_atoms upper move 0.0 0.00288675134594812 0.0 units lattice
        min_style ${style}
        min_style hftn
        minimize ${etol} ${ftol} ${maxiter} ${maxeval}
        minimize 1e-12 ${ftol} ${maxiter} ${maxeval}
        minimize 1e-12 1e-08 ${maxiter} ${maxeval}
        minimize 1e-12 1e-08 10000 ${maxeval}
        minimize 1e-12 1e-08 10000 20000
WARNING: Resetting reneighboring criteria during minimization (../min.cpp:168)
Memory usage per processor = 5.29063 Mbytes
Step Temp PotEng Lx Ly Lz 
      15            0   -17295.645    7.7766452    82.825692    4.4898482 
Loop time of 0.00518305 on 1 procs for 0 steps with 2912 atoms

Minimization stats:
  Stopping criterion = force tolerance
  Energy initial, next-to-last, final = 
        -17295.6446705     -17295.6446705     -17295.6446705
  Force two-norm initial, final = 8.4959e-11 8.4959e-11
  Force max component initial, final = 2.7994e-12 2.7994e-12
  Final line search alpha, max atom move = 0 0
  Iterations, force evaluations = 0 0

Pair  time (%) = 0.00506811 (97.7822)
Neigh time (%) = 0 (0)
Comm  time (%) = 6.10367e-05 (1.17762)
Outpt time (%) = 0 (0)
Other time (%) = 5.39114e-05 (1.04015)

Nlocal:    2912 ave 2912 max 2912 min
Histogram: 1 0 0 0 0 0 0 0 0 0
Nghost:    7129 ave 7129 max 7129 min
Histogram: 1 0 0 0 0 0 0 0 0 0
Neighs:    77664 ave 77664 max 77664 min
Histogram: 1 0 0 0 0 0 0 0 0 0

Total # of neighbors = 77664
Ave neighs/atom = 26.6703
Neighbor list builds = 0
Dangerous builds = 0
	# write_dump all atom ${dumpfile}
        next i
jump SELF loop1
        displace_atoms upper move 0.0 ${ystep1} 0.0 units lattice
        displace_atoms upper move 0.0 0.00288675134594812 0.0 units lattice
        min_style ${style}
        min_style hftn
        minimize ${etol} ${ftol} ${maxiter} ${maxeval}
        minimize 1e-12 ${ftol} ${maxiter} ${maxeval}
        minimize 1e-12 1e-08 ${maxiter} ${maxeval}
        minimize 1e-12 1e-08 10000 ${maxeval}
        minimize 1e-12 1e-08 10000 20000
WARNING: Resetting reneighboring criteria during minimization (../min.cpp:168)
Memory usage per processor = 5.29063 Mbytes
Step Temp PotEng Lx Ly Lz 
      15            0   -17294.209    7.7766452    82.833629    4.4898482 
Loop time of 0.00198388 on 1 procs for 0 steps with 2912 atoms

Minimization stats:
  Stopping criterion = force tolerance
  Energy initial, next-to-last, final = 
        -17294.2091265     -17294.2091265     -17294.2091265
  Force two-norm initial, final = 8.49577e-11 8.49577e-11
  Force max component initial, final = 2.7994e-12 2.7994e-12
  Final line search alpha, max atom move = 0 0
  Iterations, force evaluations = 0 0

Pair  time (%) = 0.00192003 (96.7813)
Neigh time (%) = 0 (0)
Comm  time (%) = 3.41545e-05 (1.7216)
Outpt time (%) = 0 (0)
Other time (%) = 2.97009e-05 (1.49711)

Nlocal:    2912 ave 2912 max 2912 min
Histogram: 1 0 0 0 0 0 0 0 0 0
Nghost:    7129 ave 7129 max 7129 min
Histogram: 1 0 0 0 0 0 0 0 0 0
Neighs:    77664 ave 77664 max 77664 min
Histogram: 1 0 0 0 0 0 0 0 0 0

Total # of neighbors = 77664
Ave neighs/atom = 26.6703
Neighbor list builds = 0
Dangerous builds = 0
	# write_dump all atom ${dumpfile}
        next i
jump SELF loop1
        displace_atoms upper move 0.0 ${ystep1} 0.0 units lattice
        displace_atoms upper move 0.0 0.00288675134594812 0.0 units lattice
        min_style ${style}
        min_style hftn
        minimize ${etol} ${ftol} ${maxiter} ${maxeval}
        minimize 1e-12 ${ftol} ${maxiter} ${maxeval}
        minimize 1e-12 1e-08 ${maxiter} ${maxeval}
        minimize 1e-12 1e-08 10000 ${maxeval}
        minimize 1e-12 1e-08 10000 20000
WARNING: Resetting reneighboring criteria during minimization (../min.cpp:168)
Memory usage per processor = 5.29063 Mbytes
Step Temp PotEng Lx Ly Lz 
      15            0   -17292.848    7.7766452    82.841566    4.4898482 
Loop time of 0.00576306 on 1 procs for 0 steps with 2912 atoms

Minimization stats:
  Stopping criterion = force tolerance
  Energy initial, next-to-last, final = 
        -17292.8479314     -17292.8479314     -17292.8479314
  Force two-norm initial, final = 8.49575e-11 8.49575e-11
  Force max component initial, final = 2.7994e-12 2.7994e-12
  Final line search alpha, max atom move = 0 0
  Iterations, force evaluations = 0 0

Pair  time (%) = 0.00570112 (98.9251)
Neigh time (%) = 0 (0)
Comm  time (%) = 3.30532e-05 (0.573536)
Outpt time (%) = 0 (0)
Other time (%) = 2.88949e-05 (0.50138)

Nlocal:    2912 ave 2912 max 2912 min
Histogram: 1 0 0 0 0 0 0 0 0 0
Nghost:    7129 ave 7129 max 7129 min
Histogram: 1 0 0 0 0 0 0 0 0 0
Neighs:    77664 ave 77664 max 77664 min
Histogram: 1 0 0 0 0 0 0 0 0 0

Total # of neighbors = 77664
Ave neighs/atom = 26.6703
Neighbor list builds = 0
Dangerous builds = 0
	# write_dump all atom ${dumpfile}
        next i
jump SELF loop1
        displace_atoms upper move 0.0 ${ystep1} 0.0 units lattice
        displace_atoms upper move 0.0 0.00288675134594812 0.0 units lattice
        min_style ${style}
        min_style hftn
        minimize ${etol} ${ftol} ${maxiter} ${maxeval}
        minimize 1e-12 ${ftol} ${maxiter} ${maxeval}
        minimize 1e-12 1e-08 ${maxiter} ${maxeval}
        minimize 1e-12 1e-08 10000 ${maxeval}
        minimize 1e-12 1e-08 10000 20000
WARNING: Resetting reneighboring criteria during minimization (../min.cpp:168)
Memory usage per processor = 5.29063 Mbytes
Step Temp PotEng Lx Ly Lz 
      15            0    -17291.56    7.7766452    82.849503    4.4898482 
Loop time of 0.00205598 on 1 procs for 0 steps with 2912 atoms

Minimization stats:
  Stopping criterion = force tolerance
  Energy initial, next-to-last, final = 
        -17291.5603462     -17291.5603462     -17291.5603462
  Force two-norm initial, final = 8.49575e-11 8.49575e-11
  Force max component initial, final = 2.7994e-12 2.7994e-12
  Final line search alpha, max atom move = 0 0
  Iterations, force evaluations = 0 0

Pair  time (%) = 0.00199108 (96.8433)
Neigh time (%) = 0 (0)
Comm  time (%) = 3.59691e-05 (1.74948)
Outpt time (%) = 0 (0)
Other time (%) = 2.89327e-05 (1.40724)

Nlocal:    2912 ave 2912 max 2912 min
Histogram: 1 0 0 0 0 0 0 0 0 0
Nghost:    7129 ave 7129 max 7129 min
Histogram: 1 0 0 0 0 0 0 0 0 0
Neighs:    77664 ave 77664 max 77664 min
Histogram: 1 0 0 0 0 0 0 0 0 0

Total # of neighbors = 77664
Ave neighs/atom = 26.6703
Neighbor list builds = 0
Dangerous builds = 0
	# write_dump all atom ${dumpfile}
        next i
jump SELF loop1
        displace_atoms upper move 0.0 ${ystep1} 0.0 units lattice
        displace_atoms upper move 0.0 0.00288675134594812 0.0 units lattice
        min_style ${style}
        min_style hftn
        minimize ${etol} ${ftol} ${maxiter} ${maxeval}
        minimize 1e-12 ${ftol} ${maxiter} ${maxeval}
        minimize 1e-12 1e-08 ${maxiter} ${maxeval}
        minimize 1e-12 1e-08 10000 ${maxeval}
        minimize 1e-12 1e-08 10000 20000
WARNING: Resetting reneighboring criteria during minimization (../min.cpp:168)
Memory usage per processor = 5.29063 Mbytes
Step Temp PotEng Lx Ly Lz 
      15            0   -17290.346    7.7766452     82.85744    4.4898482 
Loop time of 0.00280901 on 1 procs for 0 steps with 2912 atoms

Minimization stats:
  Stopping criterion = force tolerance
  Energy initial, next-to-last, final = 
         -17290.345607      -17290.345607      -17290.345607
  Force two-norm initial, final = 8.49574e-11 8.49574e-11
  Force max component initial, final = 2.7994e-12 2.7994e-12
  Final line search alpha, max atom move = 0 0
  Iterations, force evaluations = 0 0

[...]
Histogram: 1 0 0 0 0 0 0 0 0 0
Nghost:    7129 ave 7129 max 7129 min
Histogram: 1 0 0 0 0 0 0 0 0 0
Neighs:    77088 ave 77088 max 77088 min
Histogram: 1 0 0 0 0 0 0 0 0 0

Total # of neighbors = 77088
Ave neighs/atom = 26.4725
Neighbor list builds = 0
Dangerous builds = 0
	# write_dump all atom ${dumpfile}
        next i
jump SELF loop1
        displace_atoms upper move 0.0 ${ystep1} 0.0 units lattice
        displace_atoms upper move 0.0 0.00288675134594812 0.0 units lattice
        min_style ${style}
        min_style hftn
        minimize ${etol} ${ftol} ${maxiter} ${maxeval}
        minimize 1e-12 ${ftol} ${maxiter} ${maxeval}
        minimize 1e-12 1e-08 ${maxiter} ${maxeval}
        minimize 1e-12 1e-08 10000 ${maxeval}
        minimize 1e-12 1e-08 10000 20000
WARNING: Resetting reneighboring criteria during minimization (../min.cpp:168)
Memory usage per processor = 5.29104 Mbytes
Step Temp PotEng Lx Ly Lz 
      15            0   -17279.986    7.7766452    84.802007    4.4898482 
Loop time of 0.00191509 on 1 procs for 0 steps with 2912 atoms

Minimization stats:
  Stopping criterion = force tolerance
  Energy initial, next-to-last, final = 
        -17279.9856313     -17279.9856313     -17279.9856313
  Force two-norm initial, final = 8.49663e-11 8.49663e-11
  Force max component initial, final = 2.7994e-12 2.7994e-12
  Final line search alpha, max atom move = 0 0
  Iterations, force evaluations = 0 0

Pair  time (%) = 0.00185195 (96.703)
Neigh time (%) = 0 (0)
Comm  time (%) = 3.29445e-05 (1.72026)
Outpt time (%) = 0 (0)
Other time (%) = 3.01957e-05 (1.57672)

Nlocal:    2912 ave 2912 max 2912 min
Histogram: 1 0 0 0 0 0 0 0 0 0
Nghost:    7129 ave 7129 max 7129 min
Histogram: 1 0 0 0 0 0 0 0 0 0
Neighs:    77088 ave 77088 max 77088 min
Histogram: 1 0 0 0 0 0 0 0 0 0

Total # of neighbors = 77088
Ave neighs/atom = 26.4725
Neighbor list builds = 0
Dangerous builds = 0
	# write_dump all atom ${dumpfile}
        next i
jump SELF loop1
        displace_atoms upper move 0.0 ${ystep1} 0.0 units lattice
        displace_atoms upper move 0.0 0.00288675134594812 0.0 units lattice
        min_style ${style}
        min_style hftn
        minimize ${etol} ${ftol} ${maxiter} ${maxeval}
        minimize 1e-12 ${ftol} ${maxiter} ${maxeval}
        minimize 1e-12 1e-08 ${maxiter} ${maxeval}
        minimize 1e-12 1e-08 10000 ${maxeval}
        minimize 1e-12 1e-08 10000 20000
WARNING: Resetting reneighboring criteria during minimization (../min.cpp:168)
Memory usage per processor = 5.29104 Mbytes
Step Temp PotEng Lx Ly Lz 
      15            0   -17279.986    7.7766452    84.809944    4.4898482 
Loop time of 0.00197801 on 1 procs for 0 steps with 2912 atoms

Minimization stats:
  Stopping criterion = force tolerance
  Energy initial, next-to-last, final = 
        -17279.9856313     -17279.9856313     -17279.9856313
  Force two-norm initial, final = 8.49669e-11 8.49669e-11
  Force max component initial, final = 2.7994e-12 2.7994e-12
  Final line search alpha, max atom move = 0 0
  Iterations, force evaluations = 0 0

Pair  time (%) = 0.00193089 (97.6178)
Neigh time (%) = 0 (0)
Comm  time (%) = 2.6894e-05 (1.35965)
Outpt time (%) = 0 (0)
Other time (%) = 2.02258e-05 (1.02253)

Nlocal:    2912 ave 2912 max 2912 min
Histogram: 1 0 0 0 0 0 0 0 0 0
Nghost:    7129 ave 7129 max 7129 min
Histogram: 1 0 0 0 0 0 0 0 0 0
Neighs:    77088 ave 77088 max 77088 min
Histogram: 1 0 0 0 0 0 0 0 0 0

Total # of neighbors = 77088
Ave neighs/atom = 26.4725
Neighbor list builds = 0
Dangerous builds = 0
	# write_dump all atom ${dumpfile}
        next i
jump SELF loop1
        displace_atoms upper move 0.0 ${ystep1} 0.0 units lattice
        displace_atoms upper move 0.0 0.00288675134594812 0.0 units lattice
        min_style ${style}
        min_style hftn
        minimize ${etol} ${ftol} ${maxiter} ${maxeval}
        minimize 1e-12 ${ftol} ${maxiter} ${maxeval}
        minimize 1e-12 1e-08 ${maxiter} ${maxeval}
        minimize 1e-12 1e-08 10000 ${maxeval}
        minimize 1e-12 1e-08 10000 20000
WARNING: Resetting reneighboring criteria during minimization (../min.cpp:168)
Memory usage per processor = 5.29104 Mbytes
Step Temp PotEng Lx Ly Lz 
      15            0   -17279.986    7.7766452    84.817881    4.4898482 
Loop time of 0.00191701 on 1 procs for 0 steps with 2912 atoms

Minimization stats:
  Stopping criterion = force tolerance
  Energy initial, next-to-last, final = 
        -17279.9856313     -17279.9856313     -17279.9856313
  Force two-norm initial, final = 8.49674e-11 8.49674e-11
  Force max component initial, final = 2.7994e-12 2.7994e-12
  Final line search alpha, max atom move = 0 0
  Iterations, force evaluations = 0 0

Pair  time (%) = 0.00185096 (96.5547)
Neigh time (%) = 0 (0)
Comm  time (%) = 3.48814e-05 (1.81957)
Outpt time (%) = 0 (0)
Other time (%) = 3.11661e-05 (1.62577)

Nlocal:    2912 ave 2912 max 2912 min
Histogram: 1 0 0 0 0 0 0 0 0 0
Nghost:    7129 ave 7129 max 7129 min
Histogram: 1 0 0 0 0 0 0 0 0 0
Neighs:    77088 ave 77088 max 77088 min
Histogram: 1 0 0 0 0 0 0 0 0 0

Total # of neighbors = 77088
Ave neighs/atom = 26.4725
Neighbor list builds = 0
Dangerous builds = 0
	# write_dump all atom ${dumpfile}
        next i
jump SELF loop1
        displace_atoms upper move 0.0 ${ystep1} 0.0 units lattice
        displace_atoms upper move 0.0 0.00288675134594812 0.0 units lattice
        min_style ${style}
        min_style hftn
        minimize ${etol} ${ftol} ${maxiter} ${maxeval}
        minimize 1e-12 ${ftol} ${maxiter} ${maxeval}
        minimize 1e-12 1e-08 ${maxiter} ${maxeval}
        minimize 1e-12 1e-08 10000 ${maxeval}
        minimize 1e-12 1e-08 10000 20000
WARNING: Resetting reneighboring criteria during minimization (../min.cpp:168)
Memory usage per processor = 5.29104 Mbytes
Step Temp PotEng Lx Ly Lz 
      15            0   -17279.986    7.7766452    84.825818    4.4898482 
Loop time of 0.00275109 on 1 procs for 0 steps with 2912 atoms

Minimization stats:
  Stopping criterion = force tolerance
  Energy initial, next-to-last, final = 
        -17279.9856313     -17279.9856313     -17279.9856313
  Force two-norm initial, final = 8.49663e-11 8.49663e-11
  Force max component initial, final = 2.7994e-12 2.7994e-12
  Final line search alpha, max atom move = 0 0
  Iterations, force evaluations = 0 0

Pair  time (%) = 0.0026889 (97.7396)
Neigh time (%) = 0 (0)
Comm  time (%) = 3.39975e-05 (1.23578)
Outpt time (%) = 0 (0)
Other time (%) = 2.8189e-05 (1.02465)

Nlocal:    2912 ave 2912 max 2912 min
Histogram: 1 0 0 0 0 0 0 0 0 0
Nghost:    7129 ave 7129 max 7129 min
Histogram: 1 0 0 0 0 0 0 0 0 0
Neighs:    77088 ave 77088 max 77088 min
Histogram: 1 0 0 0 0 0 0 0 0 0

Total # of neighbors = 77088
Ave neighs/atom = 26.4725
Neighbor list builds = 0
Dangerous builds = 0
	# write_dump all atom ${dumpfile}
        next i
jump SELF loop1
        displace_atoms upper move 0.0 ${ystep1} 0.0 units lattice
        displace_atoms upper move 0.0 0.00288675134594812 0.0 units lattice
        min_style ${style}
        min_style hftn
        minimize ${etol} ${ftol} ${maxiter} ${maxeval}
        minimize 1e-12 ${ftol} ${maxiter} ${maxeval}
        minimize 1e-12 1e-08 ${maxiter} ${maxeval}
        minimize 1e-12 1e-08 10000 ${maxeval}
        minimize 1e-12 1e-08 10000 20000
WARNING: Resetting reneighboring criteria during minimization (../min.cpp:168)
Memory usage per processor = 5.29104 Mbytes
Step Temp PotEng Lx Ly Lz 
      15            0   -17279.986    7.7766452    84.833755    4.4898482 
Loop time of 0.00392009 on 1 procs for 0 steps with 2912 atoms

Minimization stats:
  Stopping criterion = force tolerance
  Energy initial, next-to-last, final = 
        -17279.9856313     -17279.9856313     -17279.9856313
  Force two-norm initial, final = 8.49669e-11 8.49669e-11
  Force max component initial, final = 2.7994e-12 2.7994e-12
  Final line search alpha, max atom move = 0 0
  Iterations, force evaluations = 0 0

Pair  time (%) = 0.00385695 (98.3893)
Neigh time (%) = 0 (0)
Comm  time (%) = 3.31255e-05 (0.84502)
Outpt time (%) = 0 (0)
Other time (%) = 3.00147e-05 (0.765663)

Nlocal:    2912 ave 2912 max 2912 min
Histogram: 1 0 0 0 0 0 0 0 0 0
Nghost:    7129 ave 7129 max 7129 min
Histogram: 1 0 0 0 0 0 0 0 0 0
Neighs:    77088 ave 77088 max 77088 min
Histogram: 1 0 0 0 0 0 0 0 0 0

Total # of neighbors = 77088
Ave neighs/atom = 26.4725
Neighbor list builds = 0
Dangerous builds = 0
	# write_dump all atom ${dumpfile}
        next i
jump SELF loop1
        displace_atoms upper move 0.0 ${ystep1} 0.0 units lattice
        displace_atoms upper move 0.0 0.00288675134594812 0.0 units lattice
        min_style ${style}
        min_style hftn
        minimize ${etol} ${ftol} ${maxiter} ${maxeval}
        minimize 1e-12 ${ftol} ${maxiter} ${maxeval}
        minimize 1e-12 1e-08 ${maxiter} ${maxeval}
        minimize 1e-12 1e-08 10000 ${maxeval}
        minimize 1e-12 1e-08 10000 20000
WARNING: Resetting reneighboring criteria during minimization (../min.cpp:168)
Memory usage per processor = 5.29104 Mbytes
Step Temp PotEng Lx Ly Lz 
      15            0   -17279.986    7.7766452    84.841692    4.4898482 
Loop time of 0.00268094 on 1 procs for 0 steps with 2912 atoms

Minimization stats:
  Stopping criterion = force tolerance
  Energy initial, next-to-last, final = 
        -17279.9856313     -17279.9856313     -17279.9856313
  Force two-norm initial, final = 8.49674e-11 8.49674e-11
  Force max component initial, final = 2.7994e-12 2.7994e-12
  Final line search alpha, max atom move = 0 0
  Iterations, force evaluations = 0 0

Pair  time (%) = 0.00261599 (97.5774)
Neigh time (%) = 0 (0)
Comm  time (%) = 3.51794e-05 (1.31221)
Outpt time (%) = 0 (0)
Other time (%) = 2.97687e-05 (1.11038)

Nlocal:    2912 ave 2912 max 2912 min
Histogram: 1 0 0 0 0 0 0 0 0 0
Nghost:    7129 ave 7129 max 7129 min
Histogram: 1 0 0 0 0 0 0 0 0 0
Neighs:    77088 ave 77088 max 77088 min
Histogram: 1 0 0 0 0 0 0 0 0 0

Total # of neighbors = 77088
Ave neighs/atom = 26.4725
Neighbor list builds = 0
Dangerous builds = 0
	# write_dump all atom ${dumpfile}
        next i
jump SELF loop1
        displace_atoms upper move 0.0 ${ystep1} 0.0 units lattice
        displace_atoms upper move 0.0 0.00288675134594812 0.0 units lattice
        min_style ${style}
        min_style hftn
        minimize ${etol} ${ftol} ${maxiter} ${maxeval}
        minimize 1e-12 ${ftol} ${maxiter} ${maxeval}
        minimize 1e-12 1e-08 ${maxiter} ${maxeval}
        minimize 1e-12 1e-08 10000 ${maxeval}
        minimize 1e-12 1e-08 10000 20000
WARNING: Resetting reneighboring criteria during minimization (../min.cpp:168)
Memory usage per processor = 5.29104 Mbytes
Step Temp PotEng Lx Ly Lz 
      15            0   -17279.986    7.7766452    84.849629    4.4898482 
Loop time of 0.00286697 on 1 procs for 0 steps with 2912 atoms

Minimization stats:
  Stopping criterion = force tolerance
  Energy initial, next-to-last, final = 
        -17279.9856313     -17279.9856313     -17279.9856313
  Force two-norm initial, final = 8.49663e-11 8.49663e-11
  Force max component initial, final = 2.7994e-12 2.7994e-12
  Final line search alpha, max atom move = 0 0
  Iterations, force evaluations = 0 0

Pair  time (%) = 0.0027921 (97.3886)
Neigh time (%) = 0 (0)
Comm  time (%) = 3.39303e-05 (1.18349)
Outpt time (%) = 0 (0)
Other time (%) = 4.09387e-05 (1.42795)

Nlocal:    2912 ave 2912 max 2912 min
Histogram: 1 0 0 0 0 0 0 0 0 0
Nghost:    7129 ave 7129 max 7129 min
Histogram: 1 0 0 0 0 0 0 0 0 0
Neighs:    77088 ave 77088 max 77088 min
Histogram: 1 0 0 0 0 0 0 0 0 0

Total # of neighbors = 77088
Ave neighs/atom = 26.4725
Neighbor list builds = 0
Dangerous builds = 0
	# write_dump all atom ${dumpfile}
        next i
jump SELF loop1
        displace_atoms upper move 0.0 ${ystep1} 0.0 units lattice
        displace_atoms upper move 0.0 0.00288675134594812 0.0 units lattice
        min_style ${style}
        min_style hftn
        minimize ${etol} ${ftol} ${maxiter} ${maxeval}
        minimize 1e-12 ${ftol} ${maxiter} ${maxeval}
        minimize 1e-12 1e-08 ${maxiter} ${maxeval}
        minimize 1e-12 1e-08 10000 ${maxeval}
        minimize 1e-12 1e-08 10000 20000
WARNING: Resetting reneighboring criteria during minimization (../min.cpp:168)
Memory usage per processor = 5.29104 Mbytes
Step Temp PotEng Lx Ly Lz 
      15            0   -17279.986    7.7766452    84.857566    4.4898482 
Loop time of 0.00179694 on 1 procs for 0 steps with 2912 atoms

Minimization stats:
  Stopping criterion = force tolerance
  Energy initial, next-to-last, final = 
        -17279.9856313     -17279.9856313     -17279.9856313
  Force two-norm initial, final = 8.49665e-11 8.49665e-11
  Force max component initial, final = 2.7994e-12 2.7994e-12
  Final line search alpha, max atom move = 0 0
  Iterations, force evaluations = 0 0

Pair  time (%) = 0.00173503 (96.5551)
Neigh time (%) = 0 (0)
Comm  time (%) = 3.41752e-05 (1.90186)
Outpt time (%) = 0 (0)
Other time (%) = 2.77265e-05 (1.54299)

Nlocal:    2912 ave 2912 max 2912 min
Histogram: 1 0 0 0 0 0 0 0 0 0
Nghost:    7129 ave 7129 max 7129 min
Histogram: 1 0 0 0 0 0 0 0 0 0
Neighs:    77088 ave 77088 max 77088 min
Histogram: 1 0 0 0 0 0 0 0 0 0

Total # of neighbors = 77088
Ave neighs/atom = 26.4725
Neighbor list builds = 0
Dangerous builds = 0
	# write_dump all atom ${dumpfile}
        next i
jump SELF loop1
        displace_atoms upper move 0.0 ${ystep1} 0.0 units lattice
        displace_atoms upper move 0.0 0.00288675134594812 0.0 units lattice
        min_style ${style}
        min_style hftn
        minimize ${etol} ${ftol} ${maxiter} ${maxeval}
        minimize 1e-12 ${ftol} ${maxiter} ${maxeval}
        minimize 1e-12 1e-08 ${maxiter} ${maxeval}
        minimize 1e-12 1e-08 10000 ${maxeval}
        minimize 1e-12 1e-08 10000 20000
WARNING: Resetting reneighboring criteria during minimization (../min.cpp:168)
Memory usage per processor = 5.29104 Mbytes
Step Temp PotEng Lx Ly Lz 
      15            0   -17279.986    7.7766452    84.865503    4.4898482 
Loop time of 0.00191699 on 1 procs for 0 steps with 2912 atoms

Minimization stats:
  Stopping criterion = force tolerance
  Energy initial, next-to-last, final = 
        -17279.9856313     -17279.9856313     -17279.9856313
  Force two-norm initial, final = 8.49674e-11 8.49674e-11
  Force max component initial, final = 2.7994e-12 2.7994e-12
  Final line search alpha, max atom move = 0 0
  Iterations, force evaluations = 0 0

Pair  time (%) = 0.00188699 (98.435)
Neigh time (%) = 0 (0)
Comm  time (%) = 1.79018e-05 (0.933847)
Outpt time (%) = 0 (0)
Other time (%) = 1.20982e-05 (0.631105)

Nlocal:    2912 ave 2912 max 2912 min
Histogram: 1 0 0 0 0 0 0 0 0 0
Nghost:    7129 ave 7129 max 7129 min
Histogram: 1 0 0 0 0 0 0 0 0 0
Neighs:    77088 ave 77088 max 77088 min
Histogram: 1 0 0 0 0 0 0 0 0 0

Total # of neighbors = 77088
Ave neighs/atom = 26.4725
Neighbor list builds = 0
Dangerous builds = 0
	# write_dump all atom ${dumpfile}
        next i
jump SELF loop1
        displace_atoms upper move 0.0 ${ystep1} 0.0 units lattice
        displace_atoms upper move 0.0 0.00288675134594812 0.0 units lattice
        min_style ${style}
        min_style hftn
        minimize ${etol} ${ftol} ${maxiter} ${maxeval}
        minimize 1e-12 ${ftol} ${maxiter} ${maxeval}
        minimize 1e-12 1e-08 ${maxiter} ${maxeval}
        minimize 1e-12 1e-08 10000 ${maxeval}
        minimize 1e-12 1e-08 10000 20000
WARNING: Resetting reneighboring criteria during minimization (../min.cpp:168)
Memory usage per processor = 5.29104 Mbytes
Step Temp PotEng Lx Ly Lz 
      15            0   -17279.986    7.7766452     84.87344    4.4898482 
Loop time of 0.00269408 on 1 procs for 0 steps with 2912 atoms

Minimization stats:
  Stopping criterion = force tolerance
  Energy initial, next-to-last, final = 
        -17279.9856313     -17279.9856313     -17279.9856313
  Force two-norm initial, final = 8.49663e-11 8.49663e-11
  Force max component initial, final = 2.7994e-12 2.7994e-12
  Final line search alpha, max atom move = 0 0
  Iterations, force evaluations = 0 0

Pair  time (%) = 0.00262189 (97.3205)
Neigh time (%) = 0 (0)
Comm  time (%) = 3.99792e-05 (1.48397)
Outpt time (%) = 0 (0)
Other time (%) = 3.22073e-05 (1.19549)

Nlocal:    2912 ave 2912 max 2912 min
Histogram: 1 0 0 0 0 0 0 0 0 0
Nghost:    7129 ave 7129 max 7129 min
Histogram: 1 0 0 0 0 0 0 0 0 0
Neighs:    77088 ave 77088 max 77088 min
Histogram: 1 0 0 0 0 0 0 0 0 0

Total # of neighbors = 77088
Ave neighs/atom = 26.4725
Neighbor list builds = 0
Dangerous builds = 0
	# write_dump all atom ${dumpfile}
        next i
jump SELF loop1
        displace_atoms upper move 0.0 ${ystep1} 0.0 units lattice
        displace_atoms upper move 0.0 0.00288675134594812 0.0 units lattice
        min_style ${style}
        min_style hftn
        minimize ${etol} ${ftol} ${maxiter} ${maxeval}
        minimize 1e-12 ${ftol} ${maxiter} ${maxeval}
        minimize 1e-12 1e-08 ${maxiter} ${maxeval}
        minimize 1e-12 1e-08 10000 ${maxeval}
        minimize 1e-12 1e-08 10000 20000
WARNING: Resetting reneighboring criteria during minimization (../min.cpp:168)
Memory usage per processor = 5.29104 Mbytes
Step Temp PotEng Lx Ly Lz 
      15            0   -17279.986    7.7766452    84.881377    4.4898482 
Loop time of 0.002132 on 1 procs for 0 steps with 2912 atoms

Minimization stats:
  Stopping criterion = force tolerance
  Energy initial, next-to-last, final = 
        -17279.9856313     -17279.9856313     -17279.9856313
  Force two-norm initial, final = 8.49665e-11 8.49665e-11
  Force max component initial, final = 2.7994e-12 2.7994e-12
  Final line search alpha, max atom move = 0 0
  Iterations, force evaluations = 0 0

Pair  time (%) = 0.0020691 (97.0496)
Neigh time (%) = 0 (0)
Comm  time (%) = 3.30404e-05 (1.54974)
Outpt time (%) = 0 (0)
Other time (%) = 2.98613e-05 (1.40063)

Nlocal:    2912 ave 2912 max 2912 min
Histogram: 1 0 0 0 0 0 0 0 0 0
Nghost:    7129 ave 7129 max 7129 min
Histogram: 1 0 0 0 0 0 0 0 0 0
Neighs:    77088 ave 77088 max 77088 min
Histogram: 1 0 0 0 0 0 0 0 0 0

Total # of neighbors = 77088
Ave neighs/atom = 26.4725
Neighbor list builds = 0
Dangerous builds = 0
	# write_dump all atom ${dumpfile}
        next i
jump SELF loop1

# allow atoms to relax in y-direction, now that two halves have separated
unfix 2
min_style ${style}
min_style hftn
minimize ${etol} ${ftol} ${maxiter} ${maxeval}
minimize 1e-12 ${ftol} ${maxiter} ${maxeval}
minimize 1e-12 1e-08 ${maxiter} ${maxeval}
minimize 1e-12 1e-08 10000 ${maxeval}
minimize 1e-12 1e-08 10000 20000
WARNING: Resetting reneighboring criteria during minimization (../min.cpp:168)
Memory usage per processor = 5.29104 Mbytes
Step Temp PotEng Lx Ly Lz 
      15            0   -17279.986    7.7766452    84.881377    4.4898482 
      16            0   -17279.986    7.7766452    84.881377    4.4898482 
      17            0   -17279.986    7.7766452    84.881377    4.4898482 
Loop time of 1.11504 on 1 procs for 1 steps with 2912 atoms

Minimization stats:
  Stopping criterion = force tolerance
  Energy initial, next-to-last, final = 
        -17279.9856313     -17279.9856313     -17279.9859193
  Force two-norm initial, final = 0.00357281 6.1525e-12
  Force max component initial, final = 0.000315795 5.69712e-13
  Final line search alpha, max atom move = 0 0
  Iterations, force evaluations = 1 495

Pair  time (%) = 1.01064 (90.6369)
Neigh time (%) = 0 (0)
Comm  time (%) = 0.0290591 (2.60611)
Outpt time (%) = 0.000189052 (0.0169548)
Other time (%) = 0.0751537 (6.74)

Nlocal:    2912 ave 2912 max 2912 min
Histogram: 1 0 0 0 0 0 0 0 0 0
Nghost:    7129 ave 7129 max 7129 min
Histogram: 1 0 0 0 0 0 0 0 0 0
Neighs:    77088 ave 77088 max 77088 min
Histogram: 1 0 0 0 0 0 0 0 0 0

Total # of neighbors = 77088
Ave neighs/atom = 26.4725
Neighbor list builds = 0
Dangerous builds = 0

write_dump all atom ${dumpfile}
write_dump all atom surf_V_brittle_3d.*.dump


