LAMMPS (28 Jun 2014)
# attempt at getting surface energy

#file prefix
variable prefix string surf_V_inter23_3d
variable dumpfile string ${prefix}.*.dump
variable dumpfile string surf_V_inter23_3d.*.dump
variable restartfile string ${prefix}.*.equil
variable restartfile string surf_V_inter23_3d.*.equil

#Mass (g/mol)
variable m equal 1.0

# lattice constant (in Angstroms) and orientation of axes (given by lattice vectors)
variable rho equal 1.414
variable x1 equal 1
variable x2 equal 1
variable x3 equal -2
variable y1 equal 1
variable y2 equal 1
variable y3 equal 1
variable z1 equal 1
variable z2 equal -1
variable z3 equal 0
# length of lattice in different directions (using orientation of lattice vectors)
variable ax equal sqrt(${x1}*${x1}+${x2}*${x2}+${x3}*${x3})
variable ax equal sqrt(1*${x1}+${x2}*${x2}+${x3}*${x3})
variable ax equal sqrt(1*1+${x2}*${x2}+${x3}*${x3})
variable ax equal sqrt(1*1+1*${x2}+${x3}*${x3})
variable ax equal sqrt(1*1+1*1+${x3}*${x3})
variable ax equal sqrt(1*1+1*1+-2*${x3})
variable ax equal sqrt(1*1+1*1+-2*-2)
variable ay equal sqrt(${y1}*${y1}+${y2}*${y2}+${y3}*${y3})
variable ay equal sqrt(1*${y1}+${y2}*${y2}+${y3}*${y3})
variable ay equal sqrt(1*1+${y2}*${y2}+${y3}*${y3})
variable ay equal sqrt(1*1+1*${y2}+${y3}*${y3})
variable ay equal sqrt(1*1+1*1+${y3}*${y3})
variable ay equal sqrt(1*1+1*1+1*${y3})
variable ay equal sqrt(1*1+1*1+1*1)
variable az equal sqrt(${z1}*${z1}+${z2}*${z2}+${z3}*${z3})
variable az equal sqrt(1*${z1}+${z2}*${z2}+${z3}*${z3})
variable az equal sqrt(1*1+${z2}*${z2}+${z3}*${z3})
variable az equal sqrt(1*1+-1*${z2}+${z3}*${z3})
variable az equal sqrt(1*1+-1*-1+${z3}*${z3})
variable az equal sqrt(1*1+-1*-1+0*${z3})
variable az equal sqrt(1*1+-1*-1+0*0)

# size of box in lattice units
variable lxpos equal 2
variable lxneg equal 0
variable lypos equal 15
variable lyneg equal -1*${lypos}
variable lyneg equal -1*15
variable lzpos equal 2
variable lzneg equal 0

# boundary conditions
dimension	3
boundary	p s p
atom_style	atomic

# Define minimization parameters and damping
variable etol equal 1.0e-12
variable ftol equal 1.0e-8
variable maxiter equal 10000
variable maxeval equal 20000
variable style string hftn

# create geometry
units		lj
lattice         fcc ${rho} orient x 1 1 -2 orient y 1 1 1 orient z 1 -1 0 spacing ${ax} ${ay} ${az}
lattice         fcc 1.414 orient x 1 1 -2 orient y 1 1 1 orient z 1 -1 0 spacing ${ax} ${ay} ${az}
lattice         fcc 1.414 orient x 1 1 -2 orient y 1 1 1 orient z 1 -1 0 spacing 2.44948974278318 ${ay} ${az}
lattice         fcc 1.414 orient x 1 1 -2 orient y 1 1 1 orient z 1 -1 0 spacing 2.44948974278318 1.73205080756888 ${az}
lattice         fcc 1.414 orient x 1 1 -2 orient y 1 1 1 orient z 1 -1 0 spacing 2.44948974278318 1.73205080756888 1.4142135623731
Lattice spacing in x,y,z = 3.46428 2.44961 2.0001
region		myregion block ${lxneg} ${lxpos} ${lyneg} ${lypos} ${lzneg} ${lzpos} units lattice
region		myregion block 0 ${lxpos} ${lyneg} ${lypos} ${lzneg} ${lzpos} units lattice
region		myregion block 0 2 ${lyneg} ${lypos} ${lzneg} ${lzpos} units lattice
region		myregion block 0 2 -15 ${lypos} ${lzneg} ${lzpos} units lattice
region		myregion block 0 2 -15 15 ${lzneg} ${lzpos} units lattice
region		myregion block 0 2 -15 15 0 ${lzpos} units lattice
region		myregion block 0 2 -15 15 0 2 units lattice
create_box	1 myregion
Created orthogonal box = (0 -36.7442 0) to (6.92855 36.7442 4.0002)
  1 by 1 by 1 MPI processor grid
create_atoms	1 box
Created 2912 atoms
write_dump all atom init.dump

# define masses
mass * $m
mass * 1

# my fake/morse potential
pair_style      table linear 3001
pair_coeff      * * vpotential_inter23dnorm dummy
neighbor	0.3 bin
neigh_modify	delay 5

# define groups. Nudge to separate planes cleanly
region	    upper block INF INF 0.01 ${lypos} INF INF units lattice
region	    upper block INF INF 0.01 15 INF INF units lattice
group		upper region upper
1440 atoms in group upper

# Setup output
thermo 1
thermo_style custom step temp pe lx ly lz
thermo_modify norm no

# Compute initial state by relaxing box
fix 3 all box/relax x 0.0
min_style ${style}
min_style hftn
minimize ${etol} ${ftol} ${maxiter} ${maxeval}
minimize 1e-12 ${ftol} ${maxiter} ${maxeval}
minimize 1e-12 1e-08 ${maxiter} ${maxeval}
minimize 1e-12 1e-08 10000 ${maxeval}
minimize 1e-12 1e-08 10000 20000
WARNING: Resetting reneighboring criteria during minimization (../min.cpp:168)
Memory usage per processor = 5.2861 Mbytes
Step Temp PotEng Lx Ly Lz 
       0            0    -17375.99     6.928552    73.503089    4.0002014 
       1            0    -17375.99     6.928552    73.503089    4.0002014 
       2            0    -17375.99     6.928552    73.503089    4.0002014 
       3            0    -17375.99     6.928552    73.503089    4.0002014 
       4            0    -17375.99     6.928552    73.503089    4.0002014 
       5            0    -17375.99     6.928552    73.503089    4.0002014 
       6            0    -17375.99     6.928552    73.503089    4.0002014 
       7            0    -17375.99     6.928552    73.503089    4.0002014 
       8            0    -17375.99     6.928552    73.503089    4.0002014 
       9            0    -17375.99     6.928552    73.503089    4.0002014 
      10            0    -17375.99     6.928552    73.503089    4.0002014 
      11            0    -17375.99     6.928552    73.503089    4.0002014 
      12            0    -17375.99     6.928552    73.503089    4.0002014 
      13            0    -17375.99     6.928552    73.503089    4.0002014 
      14            0    -17375.99     6.928552    73.503089    4.0002014 
      15            0    -17375.99     6.928552    73.503089    4.0002014 
      16            0    -17375.99     6.928552    73.503089    4.0002014 
Loop time of 3.38862 on 1 procs for 15 steps with 2912 atoms

Minimization stats:
  Stopping criterion = trust region too small
  Energy initial, next-to-last, final = 
        -17375.9899537     -17375.9899537     -17375.9899537
  Force two-norm initial, final = 31.0474 31.0474
  Force max component initial, final = 31.0472 31.0472
  Final line search alpha, max atom move = 0 0
  Iterations, force evaluations = 15 94

Pair  time (%) = 3.31622 (97.8635)
Neigh time (%) = 0 (0)
Comm  time (%) = 0.0447038 (1.31924)
Outpt time (%) = 0.00187504 (0.0553335)
Other time (%) = 0.0258183 (0.761914)

Nlocal:    2912 ave 2912 max 2912 min
Histogram: 1 0 0 0 0 0 0 0 0 0
Nghost:    7129 ave 7129 max 7129 min
Histogram: 1 0 0 0 0 0 0 0 0 0
Neighs:    112224 ave 112224 max 112224 min
Histogram: 1 0 0 0 0 0 0 0 0 0

Total # of neighbors = 112224
Ave neighs/atom = 38.5385
Neighbor list builds = 0
Dangerous builds = 0
unfix 3

# don't allow atoms to relax in y-direction
fix 2 all setforce NULL 0.0 NULL

# GSF energy curve will have 100*2 steps
variable nsteps equal 300
variable sstep1 equal 1.5
variable ystep1 equal ${sstep1}/(${ay}*${nsteps})
variable ystep1 equal 1.5/(${ay}*${nsteps})
variable ystep1 equal 1.5/(1.73205080756888*${nsteps})
variable ystep1 equal 1.5/(1.73205080756888*300)

variable i loop ${nsteps}
variable i loop 300
label loop1
        displace_atoms upper move 0.0 ${ystep1} 0.0 units lattice
        displace_atoms upper move 0.0 0.00288675134594812 0.0 units lattice
        min_style ${style}
        min_style hftn
        minimize ${etol} ${ftol} ${maxiter} ${maxeval}
        minimize 1e-12 ${ftol} ${maxiter} ${maxeval}
        minimize 1e-12 1e-08 ${maxiter} ${maxeval}
        minimize 1e-12 1e-08 10000 ${maxeval}
        minimize 1e-12 1e-08 10000 20000
WARNING: Resetting reneighboring criteria during minimization (../min.cpp:168)
Memory usage per processor = 5.2861 Mbytes
Step Temp PotEng Lx Ly Lz 
      16            0   -17375.823     6.928552    73.510161    4.0002014 
Loop time of 0.036957 on 1 procs for 0 steps with 2912 atoms

Minimization stats:
  Stopping criterion = force tolerance
  Energy initial, next-to-last, final = 
        -17375.8229928     -17375.8229928     -17375.8229928
  Force two-norm initial, final = 9.88556e-11 9.88556e-11
  Force max component initial, final = 3.19188e-12 3.19188e-12
  Final line search alpha, max atom move = 0 0
  Iterations, force evaluations = 0 0

Pair  time (%) = 0.0363961 (98.4822)
Neigh time (%) = 0 (0)
Comm  time (%) = 0.000525958 (1.42316)
Outpt time (%) = 0 (0)
Other time (%) = 3.49842e-05 (0.0946618)

Nlocal:    2912 ave 2912 max 2912 min
Histogram: 1 0 0 0 0 0 0 0 0 0
Nghost:    7129 ave 7129 max 7129 min
Histogram: 1 0 0 0 0 0 0 0 0 0
Neighs:    112224 ave 112224 max 112224 min
Histogram: 1 0 0 0 0 0 0 0 0 0

Total # of neighbors = 112224
Ave neighs/atom = 38.5385
Neighbor list builds = 0
Dangerous builds = 0
	# write_dump all atom ${dumpfile}
        next i
jump SELF loop1
        displace_atoms upper move 0.0 ${ystep1} 0.0 units lattice
        displace_atoms upper move 0.0 0.00288675134594812 0.0 units lattice
        min_style ${style}
        min_style hftn
        minimize ${etol} ${ftol} ${maxiter} ${maxeval}
        minimize 1e-12 ${ftol} ${maxiter} ${maxeval}
        minimize 1e-12 1e-08 ${maxiter} ${maxeval}
        minimize 1e-12 1e-08 10000 ${maxeval}
        minimize 1e-12 1e-08 10000 20000
WARNING: Resetting reneighboring criteria during minimization (../min.cpp:168)
Memory usage per processor = 5.2861 Mbytes
Step Temp PotEng Lx Ly Lz 
      16            0   -17375.354     6.928552    73.517232    4.0002014 
Loop time of 0.0354999 on 1 procs for 0 steps with 2912 atoms

Minimization stats:
  Stopping criterion = force tolerance
  Energy initial, next-to-last, final = 
        -17375.3541499     -17375.3541499     -17375.3541499
  Force two-norm initial, final = 9.88337e-11 9.88337e-11
  Force max component initial, final = 3.19188e-12 3.19188e-12
  Final line search alpha, max atom move = 0 0
  Iterations, force evaluations = 0 0

Pair  time (%) = 0.0349791 (98.5329)
Neigh time (%) = 0 (0)
Comm  time (%) = 0.000487915 (1.37441)
Outpt time (%) = 0 (0)
Other time (%) = 3.28941e-05 (0.0926596)

Nlocal:    2912 ave 2912 max 2912 min
Histogram: 1 0 0 0 0 0 0 0 0 0
Nghost:    7129 ave 7129 max 7129 min
Histogram: 1 0 0 0 0 0 0 0 0 0
Neighs:    112224 ave 112224 max 112224 min
Histogram: 1 0 0 0 0 0 0 0 0 0

Total # of neighbors = 112224
Ave neighs/atom = 38.5385
Neighbor list builds = 0
Dangerous builds = 0
	# write_dump all atom ${dumpfile}
        next i
jump SELF loop1
        displace_atoms upper move 0.0 ${ystep1} 0.0 units lattice
        displace_atoms upper move 0.0 0.00288675134594812 0.0 units lattice
        min_style ${style}
        min_style hftn
        minimize ${etol} ${ftol} ${maxiter} ${maxeval}
        minimize 1e-12 ${ftol} ${maxiter} ${maxeval}
        minimize 1e-12 1e-08 ${maxiter} ${maxeval}
        minimize 1e-12 1e-08 10000 ${maxeval}
        minimize 1e-12 1e-08 10000 20000
WARNING: Resetting reneighboring criteria during minimization (../min.cpp:168)
Memory usage per processor = 5.2861 Mbytes
Step Temp PotEng Lx Ly Lz 
      16            0   -17374.618     6.928552    73.524304    4.0002014 
Loop time of 0.0369051 on 1 procs for 0 steps with 2912 atoms

Minimization stats:
  Stopping criterion = force tolerance
  Energy initial, next-to-last, final = 
        -17374.6184459     -17374.6184459     -17374.6184459
  Force two-norm initial, final = 9.88145e-11 9.88145e-11
  Force max component initial, final = 3.19188e-12 3.19188e-12
  Final line search alpha, max atom move = 0 0
  Iterations, force evaluations = 0 0

Pair  time (%) = 0.0364851 (98.8618)
Neigh time (%) = 0 (0)
Comm  time (%) = 0.000386027 (1.046)
Outpt time (%) = 0 (0)
Other time (%) = 3.40203e-05 (0.0921831)

Nlocal:    2912 ave 2912 max 2912 min
Histogram: 1 0 0 0 0 0 0 0 0 0
Nghost:    7129 ave 7129 max 7129 min
Histogram: 1 0 0 0 0 0 0 0 0 0
Neighs:    112224 ave 112224 max 112224 min
Histogram: 1 0 0 0 0 0 0 0 0 0

Total # of neighbors = 112224
Ave neighs/atom = 38.5385
Neighbor list builds = 0
Dangerous builds = 0
	# write_dump all atom ${dumpfile}
        next i
jump SELF loop1
        displace_atoms upper move 0.0 ${ystep1} 0.0 units lattice
        displace_atoms upper move 0.0 0.00288675134594812 0.0 units lattice
        min_style ${style}
        min_style hftn
        minimize ${etol} ${ftol} ${maxiter} ${maxeval}
        minimize 1e-12 ${ftol} ${maxiter} ${maxeval}
        minimize 1e-12 1e-08 ${maxiter} ${maxeval}
        minimize 1e-12 1e-08 10000 ${maxeval}
        minimize 1e-12 1e-08 10000 20000
WARNING: Resetting reneighboring criteria during minimization (../min.cpp:168)
Memory usage per processor = 5.2861 Mbytes
Step Temp PotEng Lx Ly Lz 
      16            0   -17373.648     6.928552    73.531375    4.0002014 
Loop time of 0.0362469 on 1 procs for 0 steps with 2912 atoms

Minimization stats:
  Stopping criterion = force tolerance
  Energy initial, next-to-last, final = 
        -17373.6480082     -17373.6480082     -17373.6480082
  Force two-norm initial, final = 9.87975e-11 9.87975e-11
  Force max component initial, final = 3.19188e-12 3.19188e-12
  Final line search alpha, max atom move = 0 0
  Iterations, force evaluations = 0 0

Pair  time (%) = 0.0357541 (98.6403)
Neigh time (%) = 0 (0)
Comm  time (%) = 0.000460026 (1.26915)
Outpt time (%) = 0 (0)
Other time (%) = 3.28294e-05 (0.0905715)

Nlocal:    2912 ave 2912 max 2912 min
Histogram: 1 0 0 0 0 0 0 0 0 0
Nghost:    7129 ave 7129 max 7129 min
Histogram: 1 0 0 0 0 0 0 0 0 0
Neighs:    112224 ave 112224 max 112224 min
Histogram: 1 0 0 0 0 0 0 0 0 0

Total # of neighbors = 112224
Ave neighs/atom = 38.5385
Neighbor list builds = 0
Dangerous builds = 0
	# write_dump all atom ${dumpfile}
        next i
jump SELF loop1
        displace_atoms upper move 0.0 ${ystep1} 0.0 units lattice
        displace_atoms upper move 0.0 0.00288675134594812 0.0 units lattice
        min_style ${style}
        min_style hftn
        minimize ${etol} ${ftol} ${maxiter} ${maxeval}
        minimize 1e-12 ${ftol} ${maxiter} ${maxeval}
        minimize 1e-12 1e-08 ${maxiter} ${maxeval}
        minimize 1e-12 1e-08 10000 ${maxeval}
        minimize 1e-12 1e-08 10000 20000
WARNING: Resetting reneighboring criteria during minimization (../min.cpp:168)
Memory usage per processor = 5.2861 Mbytes
Step Temp PotEng Lx Ly Lz 
      16            0   -17372.472     6.928552    73.538446    4.0002014 
Loop time of 0.0364861 on 1 procs for 0 steps with 2912 atoms

Minimization stats:
  Stopping criterion = force tolerance
  Energy initial, next-to-last, final = 
        -17372.4723047     -17372.4723047     -17372.4723047
  Force two-norm initial, final = 9.8783e-11 9.8783e-11
  Force max component initial, final = 3.19188e-12 3.19188e-12
  Final line search alpha, max atom move = 0 0
  Iterations, force evaluations = 0 0

Pair  time (%) = 0.036033 (98.7582)
Neigh time (%) = 0 (0)
Comm  time (%) = 0.000419125 (1.14873)
Outpt time (%) = 0 (0)
Other time (%) = 3.39692e-05 (0.0931018)

Nlocal:    2912 ave 2912 max 2912 min
Histogram: 1 0 0 0 0 0 0 0 0 0
Nghost:    7129 ave 7129 max 7129 min
Histogram: 1 0 0 0 0 0 0 0 0 0
Neighs:    112224 ave 112224 max 112224 min
Histogram: 1 0 0 0 0 0 0 0 0 0

Total # of neighbors = 112224
Ave neighs/atom = 38.5385
Neighbor list builds = 0
Dangerous builds = 0
	# write_dump all atom ${dumpfile}
        next i
jump SELF loop1
        displace_atoms upper move 0.0 ${ystep1} 0.0 units lattice
        displace_atoms upper move 0.0 0.00288675134594812 0.0 units lattice
        min_style ${style}
        min_style hftn
        minimize ${etol} ${ftol} ${maxiter} ${maxeval}
        minimize 1e-12 ${ftol} ${maxiter} ${maxeval}
        minimize 1e-12 1e-08 ${maxiter} ${maxeval}
        minimize 1e-12 1e-08 10000 ${maxeval}
        minimize 1e-12 1e-08 10000 20000
WARNING: Resetting reneighboring criteria during minimization (../min.cpp:168)
Memory usage per processor = 5.2861 Mbytes
Step Temp PotEng Lx Ly Lz 
      16            0   -17371.118     6.928552    73.545518    4.0002014 
Loop time of 0.0373619 on 1 procs for 0 steps with 2912 atoms

Minimization stats:
  Stopping criterion = force tolerance
  Energy initial, next-to-last, final = 
        -17371.1182941     -17371.1182941     -17371.1182941
  Force two-norm initial, final = 9.87701e-11 9.87701e-11
  Force max component initial, final = 3.19188e-12 3.19188e-12
  Final line search alpha, max atom move = 0 0
  Iterations, force evaluations = 0 0

Pair  time (%) = 0.0367961 (98.4855)
Neigh time (%) = 0 (0)
Comm  time (%) = 0.00051293 (1.37287)
Outpt time (%) = 0 (0)
Other time (%) = 5.29251e-05 (0.141655)

Nlocal:    2912 ave 2912 max 2912 min
Histogram: 1 0 0 0 0 0 0 0 0 0
Nghost:    7129 ave 7129 max 7129 min
Histogram: 1 0 0 0 0 0 0 0 0 0
Neighs:    112224 ave 112224 max 112224 min
Histogram: 1 0 0 0 0 0 0 0 0 0

Total # of neighbors = 112224
Ave neighs/atom = 38.5385
Neighbor list builds = 0
Dangerous builds = 0
	# write_dump all atom ${dumpfile}
        next i
jump SELF loop1
        displace_atoms upper move 0.0 ${ystep1} 0.0 units lattice
        displace_atoms upper move 0.0 0.00288675134594812 0.0 units lattice
        min_style ${style}
        min_style hftn
        minimize ${etol} ${ftol} ${maxiter} ${maxeval}
        minimize 1e-12 ${ftol} ${maxiter} ${maxeval}
        minimize 1e-12 1e-08 ${maxiter} ${maxeval}
        minimize 1e-12 1e-08 10000 ${maxeval}
        minimize 1e-12 1e-08 10000 20000
WARNING: Resetting reneighboring criteria during minimization (../min.cpp:168)
Memory usage per processor = 5.2861 Mbytes
Step Temp PotEng Lx Ly Lz 
      16            0   -17369.611     6.928552    73.552589    4.0002014 
Loop time of 0.0366271 on 1 procs for 0 steps with 2912 atoms

Minimization stats:
  Stopping criterion = force tolerance
  Energy initial, next-to-last, final = 
        -17369.6105794     -17369.6105794     -17369.6105794
  Force two-norm initial, final = 9.87596e-11 9.87596e-11
  Force max component initial, final = 3.19188e-12 3.19188e-12
  Final line search alpha, max atom move = 0 0
  Iterations, force evaluations = 0 0

Pair  time (%) = 0.036157 (98.7165)
Neigh time (%) = 0 (0)
Comm  time (%) = 0.000437012 (1.19314)
Outpt time (%) = 0 (0)
Other time (%) = 3.30816e-05 (0.0903201)

Nlocal:    2912 ave 2912 max 2912 min
Histogram: 1 0 0 0 0 0 0 0 0 0
Nghost:    7129 ave 7129 max 7129 min
Histogram: 1 0 0 0 0 0 0 0 0 0
Neighs:    112224 ave 112224 max 112224 min
Histogram: 1 0 0 0 0 0 0 0 0 0

Total # of neighbors = 112224
Ave neighs/atom = 38.5385
Neighbor list builds = 0
Dangerous builds = 0
	# write_dump all atom ${dumpfile}
        next i
jump SELF loop1
        displace_atoms upper move 0.0 ${ystep1} 0.0 units lattice
        displace_atoms upper move 0.0 0.00288675134594812 0.0 units lattice
        min_style ${style}
        min_style hftn
        minimize ${etol} ${ftol} ${maxiter} ${maxeval}
        minimize 1e-12 ${ftol} ${maxiter} ${maxeval}
        minimize 1e-12 1e-08 ${maxiter} ${maxeval}
        minimize 1e-12 1e-08 10000 ${maxeval}
        minimize 1e-12 1e-08 10000 20000
WARNING: Resetting reneighboring criteria during minimization (../min.cpp:168)
Memory usage per processor = 5.2861 Mbytes
Step Temp PotEng Lx Ly Lz 
      16            0   -17367.972     6.928552    73.559661    4.0002014 
Loop time of 0.0356601 on 1 procs for 0 steps with 2912 atoms

Minimization stats:
  Stopping criterion = force tolerance
  Energy initial, next-to-last, final = 
        -17367.9715592     -17367.9715592     -17367.9715592
  Force two-norm initial, final = 9.87498e-11 9.87498e-11
  Force max component initial, final = 3.19188e-12 3.19188e-12
  Final line search alpha, max atom move = 0 0
  Iterations, force evaluations = 0 0

Pair  time (%) = 0.035088 (98.3958)
Neigh time (%) = 0 (0)
Comm  time (%) = 0.00052 (1.45821)
Outpt time (%) = 0 (0)
Other time (%) = 5.2061e-05 (0.145993)

Nlocal:    2912 ave 2912 max 2912 min
Histogram: 1 0 0 0 0 0 0 0 0 0
Nghost:    7129 ave 7129 max 7129 min
Histogram: 1 0 0 0 0 0 0 0 0 0
Neighs:    112224 ave 112224 max 112224 min
Histogram: 1 0 0 0 0 0 0 0 0 0

Total # of neighbors = 112224
Ave neighs/atom = 38.5385
Neighbor list builds = 0
Dangerous builds = 0
	# write_dump all atom ${dumpfile}
        next i
jump SELF loop1
        displace_atoms upper move 0.0 ${ystep1} 0.0 units lattice
        displace_atoms upper move 0.0 0.00288675134594812 0.0 units lattice
        min_style ${style}
        min_style hftn
        minimize ${etol} ${ftol} ${maxiter} ${maxeval}
        minimize 1e-12 ${ftol} ${maxiter} ${maxeval}
        minimize 1e-12 1e-08 ${maxiter} ${maxeval}
        minimize 1e-12 1e-08 10000 ${maxeval}
        minimize 1e-12 1e-08 10000 20000
WARNING: Resetting reneighboring criteria during minimization (../min.cpp:168)
Memory usage per processor = 5.2861 Mbytes
Step Temp PotEng Lx Ly Lz 
      16            0   -17366.221     6.928552    73.566732    4.0002014 
Loop time of 0.036179 on 1 procs for 0 steps with 2912 atoms

Minimization stats:
  Stopping criterion = force tolerance
  Energy initial, next-to-last, final = 
        -17366.2207053     -17366.2207053     -17366.2207053
  Force two-norm initial, final = 9.87463e-11 9.87463e-11
  Force max component initial, final = 3.19188e-12 3.19188e-12
  Final line search alpha, max atom move = 0 0
  Iterations, force evaluations = 0 0

Pair  time (%) = 0.0356899 (98.6481)
Neigh time (%) = 0 (0)
Comm  time (%) = 0.000455121 (1.25797)
Outpt time (%) = 0 (0)
Other time (%) = 3.39733e-05 (0.0939032)

Nlocal:    2912 ave 2912 max 2912 min
Histogram: 1 0 0 0 0 0 0 0 0 0
Nghost:    7129 ave 7129 max 7129 min
Histogram: 1 0 0 0 0 0 0 0 0 0
Neighs:    112224 ave 112224 max 112224 min
Histogram: 1 0 0 0 0 0 0 0 0 0

Total # of neighbors = 112224
Ave neighs/atom = 38.5385
Neighbor list builds = 0
Dangerous builds = 0
	# write_dump all atom ${dumpfile}
        next i
jump SELF loop1
        displace_atoms upper move 0.0 ${ystep1} 0.0 units lattice
        displace_atoms upper move 0.0 0.00288675134594812 0.0 units lattice
        min_style ${style}
        min_style hftn
        minimize ${etol} ${ftol} ${maxiter} ${maxeval}
        minimize 1e-12 ${ftol} ${maxiter} ${maxeval}
        minimize 1e-12 1e-08 ${maxiter} ${maxeval}
        minimize 1e-12 1e-08 10000 ${maxeval}
        minimize 1e-12 1e-08 10000 20000
WARNING: Resetting reneighboring criteria during minimization (../min.cpp:168)
Memory usage per processor = 5.2861 Mbytes
Step Temp PotEng Lx Ly Lz 
      16            0   -17364.366     6.928552    73.573804    4.0002014 
Loop time of 0.037083 on 1 procs for 0 steps with 2912 atoms

Minimization stats:
  Stopping criterion = force tolerance
  Energy initial, next-to-last, final = 
        -17364.3658974     -17364.3658974     -17364.3658974
  Force two-norm initial, final = 9.87434e-11 9.87434e-11
  Force max component initial, final = 3.19188e-12 3.19188e-12
  Final line search alpha, max atom move = 0 0
  Iterations, force evaluations = 0 0

Pair  time (%) = 0.0365469 (98.5543)
Neigh time (%) = 0 (0)
Comm  time (%) = 0.000495015 (1.33488)
Outpt time (%) = 0 (0)
Other time (%) = 4.10789e-05 (0.110776)

Nlocal:    2912 ave 2912 max 2912 min
Histogram: 1 0 0 0 0 0 0 0 0 0
Nghost:    7129 ave 7129 max 7129 min
Histogram: 1 0 0 0 0 0 0 0 0 0
Neighs:    112224 ave 112224 max 112224 min
Histogram: 1 0 0 0 0 0 0 0 0 0

Total # of neighbors = 112224
Ave neighs/atom = 38.5385
Neighbor list builds = 0
Dangerous builds = 0
	# write_dump all atom ${dumpfile}
        next i
jump SELF loop1
        displace_atoms upper move 0.0 ${ystep1} 0.0 units lattice
        displace_atoms upper move 0.0 0.00288675134594812 0.0 units lattice
        min_style ${style}
        min_style hftn
        minimize ${etol} ${ftol} ${maxiter} ${maxeval}
        minimize 1e-12 ${ftol} ${maxiter} ${maxeval}
        minimize 1e-12 1e-08 ${maxiter} ${maxeval}
        minimize 1e-12 1e-08 10000 ${maxeval}
        minimize 1e-12 1e-08 10000 20000
WARNING: Resetting reneighboring criteria during minimization (../min.cpp:168)
Memory usage per processor = 5.2861 Mbytes
Step Temp PotEng Lx Ly Lz 
      16            0   -17362.413     6.928552    73.580875    4.0002014 
Loop time of 0.0435421 on 1 procs for 0 steps with 2912 atoms

Minimization stats:
  Stopping criterion = force tolerance
  Energy initial, next-to-last, final = 
        -17362.4131767     -17362.4131767     -17362.4131767
  Force two-norm initial, final = 9.87403e-11 9.87403e-11
  Force max component initial, final = 3.19188e-12 3.19188e-12
  Final line search alpha, max atom move = 0 0
  Iterations, force evaluations = 0 0

Pair  time (%) = 0.0430551 (98.8815)
Neigh time (%) = 0 (0)
Comm  time (%) = 0.000449902 (1.03326)
Outpt time (%) = 0 (0)
Other time (%) = 3.7099e-05 (0.0852027)

Nlocal:    2912 ave 2912 max 2912 min
Histogram: 1 0 0 0 0 0 0 0 0 0
Nghost:    7129 ave 7129 max 7129 min
Histogram: 1 0 0 0 0 0 0 0 0 0
Neighs:    112224 ave 112224 max 112224 min
Histogram: 1 0 0 0 0 0 0 0 0 0

Total # of neighbors = 112224
Ave neighs/atom = 38.5385
Neighbor list builds = 0
Dangerous builds = 0
	# write_dump all atom ${dumpfile}
        next i
jump SELF loop1
        displace_atoms upper move 0.0 ${ystep1} 0.0 units lattice
        displace_atoms upper move 0.0 0.00288675134594812 0.0 units lattice
        min_style ${style}
        min_style hftn
        minimize ${etol} ${ftol} ${maxiter} ${maxeval}
        minimize 1e-12 ${ftol} ${maxiter} ${maxeval}
        minimize 1e-12 1e-08 ${maxiter} ${maxeval}
        minimize 1e-12 1e-08 10000 ${maxeval}
        minimize 1e-12 1e-08 10000 20000
WARNING: Resetting reneighboring criteria during minimization (../min.cpp:168)
Memory usage per processor = 5.2861 Mbytes
Step Temp PotEng Lx Ly Lz 
      16            0   -17360.369     6.928552    73.587946    4.0002014 
Loop time of 0.0388679 on 1 procs for 0 steps with 2912 atoms

Minimization stats:
  Stopping criterion = force tolerance
  Energy initial, next-to-last, final = 
        -17360.3687618     -17360.3687618     -17360.3687618
  Force two-norm initial, final = 9.87373e-11 9.87373e-11
  Force max component initial, final = 3.19188e-12 3.19188e-12
  Final line search alpha, max atom move = 0 0
  Iterations, force evaluations = 0 0

Pair  time (%) = 0.0369589 (95.0884)
Neigh time (%) = 0 (0)
Comm  time (%) = 0.00187492 (4.82383)
Outpt time (%) = 0 (0)
Other time (%) = 3.41242e-05 (0.0877954)

Nlocal:    2912 ave 2912 max 2912 min
Histogram: 1 0 0 0 0 0 0 0 0 0
Nghost:    7129 ave 7129 max 7129 min
Histogram: 1 0 0 0 0 0 0 0 0 0
Neighs:    112224 ave 112224 max 112224 min
Histogram: 1 0 0 0 0 0 0 0 0 0

Total # of neighbors = 112224
Ave neighs/atom = 38.5385
Neighbor list builds = 0
Dangerous builds = 0
	# write_dump all atom ${dumpfile}
        next i
jump SELF loop1
        displace_atoms upper move 0.0 ${ystep1} 0.0 units lattice
        displace_atoms upper move 0.0 0.00288675134594812 0.0 units lattice
        min_style ${style}
        min_style hftn
        minimize ${etol} ${ftol} ${maxiter} ${maxeval}
        minimize 1e-12 ${ftol} ${maxiter} ${maxeval}
        minimize 1e-12 1e-08 ${maxiter} ${maxeval}
        minimize 1e-12 1e-08 10000 ${maxeval}
        minimize 1e-12 1e-08 10000 20000
WARNING: Resetting reneighboring criteria during minimization (../min.cpp:168)
Memory usage per processor = 5.2861 Mbytes
Step Temp PotEng Lx Ly Lz 
      16            0   -17358.239     6.928552    73.595018    4.0002014 
Loop time of 0.061569 on 1 procs for 0 steps with 2912 atoms

Minimization stats:
  Stopping criterion = force tolerance
  Energy initial, next-to-last, final = 
        -17358.2393943     -17358.2393943     -17358.2393943
  Force two-norm initial, final = 9.87348e-11 9.87348e-11
  Force max component initial, final = 3.19188e-12 3.19188e-12
  Final line search alpha, max atom move = 0 0
  Iterations, force evaluations = 0 0

Pair  time (%) = 0.059789 (97.1088)
Neigh time (%) = 0 (0)
Comm  time (%) = 0.00174709 (2.83761)
Outpt time (%) = 0 (0)
Other time (%) = 3.30018e-05 (0.0536012)

Nlocal:    2912 ave 2912 max 2912 min
Histogram: 1 0 0 0 0 0 0 0 0 0
Nghost:    7129 ave 7129 max 7129 min
Histogram: 1 0 0 0 0 0 0 0 0 0
Neighs:    111840 ave 111840 max 111840 min
Histogram: 1 0 0 0 0 0 0 0 0 0

Total # of neighbors = 111840
Ave neighs/atom = 38.4066
Neighbor list builds = 0
Dangerous builds = 0
	# write_dump all atom ${dumpfile}
        next i
jump SELF loop1
        displace_atoms upper move 0.0 ${ystep1} 0.0 units lattice
        displace_atoms upper move 0.0 0.00288675134594812 0.0 units lattice
        min_style ${style}
        min_style hftn
        minimize ${etol} ${ftol} ${maxiter} ${maxeval}
        minimize 1e-12 ${ftol} ${maxiter} ${maxeval}
        minimize 1e-12 1e-08 ${maxiter} ${maxeval}
        minimize 1e-12 1e-08 10000 ${maxeval}
        minimize 1e-12 1e-08 10000 20000
WARNING: Resetting reneighboring criteria during minimization (../min.cpp:168)
Memory usage per processor = 5.28733 Mbytes
Step Temp PotEng Lx Ly Lz 
      16            0   -17356.032     6.928552    73.602089    4.0002014 
Loop time of 0.0376549 on 1 procs for 0 steps with 2912 atoms

Minimization stats:
  Stopping criterion = force tolerance
  Energy initial, next-to-last, final = 
        -17356.0315184     -17356.0315184     -17356.0315184
  Force two-norm initial, final = 9.8732e-11 9.8732e-11
  Force max component initial, final = 3.19188e-12 3.19188e-12
  Final line search alpha, max atom move = 0 0
  Iterations, force evaluations = 0 0

Pair  time (%) = 0.0371431 (98.6407)
Neigh time (%) = 0 (0)
Comm  time (%) = 0.000474007 (1.25882)
Outpt time (%) = 0 (0)
Other time (%) = 3.78485e-05 (0.100514)

Nlocal:    2912 ave 2912 max 2912 min
Histogram: 1 0 0 0 0 0 0 0 0 0
Nghost:    7129 ave 7129 max 7129 min
Histogram: 1 0 0 0 0 0 0 0 0 0
Neighs:    111840 ave 111840 max 111840 min
Histogram: 1 0 0 0 0 0 0 0 0 0

Total # of neighbors = 111840
Ave neighs/atom = 38.4066
Neighbor list builds = 0
Dangerous builds = 0
	# write_dump all atom ${dumpfile}
        next i
jump SELF loop1
        displace_atoms upper move 0.0 ${ystep1} 0.0 units lattice
        displace_atoms upper move 0.0 0.00288675134594812 0.0 units lattice
        min_style ${style}
        min_style hftn
        minimize ${etol} ${ftol} ${maxiter} ${maxeval}
        minimize 1e-12 ${ftol} ${maxiter} ${maxeval}
        minimize 1e-12 1e-08 ${maxiter} ${maxeval}
        minimize 1e-12 1e-08 10000 ${maxeval}
        minimize 1e-12 1e-08 10000 20000
WARNING: Resetting reneighboring criteria during minimization (../min.cpp:168)
Memory usage per processor = 5.28733 Mbytes
Step Temp PotEng Lx Ly Lz 
      16            0   -17353.752     6.928552    73.609161    4.0002014 
Loop time of 0.0366721 on 1 procs for 0 steps with 2912 atoms

Minimization stats:
  Stopping criterion = force tolerance
  Energy initial, next-to-last, final = 
        -17353.7520974     -17353.7520974     -17353.7520974
  Force two-norm initial, final = 9.87287e-11 9.87287e-11
  Force max component initial, final = 3.19188e-12 3.19188e-12
  Final line search alpha, max atom move = 0 0
  Iterations, force evaluations = 0 0

Pair  time (%) = 0.0361781 (98.6529)
Neigh time (%) = 0 (0)
Comm  time (%) = 0.000444857 (1.21307)
Outpt time (%) = 0 (0)
Other time (%) = 4.91648e-05 (0.134066)

Nlocal:    2912 ave 2912 max 2912 min
Histogram: 1 0 0 0 0 0 0 0 0 0
Nghost:    7129 ave 7129 max 7129 min
Histogram: 1 0 0 0 0 0 0 0 0 0
Neighs:    111840 ave 111840 max 111840 min
Histogram: 1 0 0 0 0 0 0 0 0 0

Total # of neighbors = 111840
Ave neighs/atom = 38.4066
Neighbor list builds = 0
Dangerous builds = 0
	# write_dump all atom ${dumpfile}
        next i
jump SELF loop1
        displace_atoms upper move 0.0 ${ystep1} 0.0 units lattice
        displace_atoms upper move 0.0 0.00288675134594812 0.0 units lattice
        min_style ${style}
        min_style hftn
        minimize ${etol} ${ftol} ${maxiter} ${maxeval}
        minimize 1e-12 ${ftol} ${maxiter} ${maxeval}
        minimize 1e-12 1e-08 ${maxiter} ${maxeval}
        minimize 1e-12 1e-08 10000 ${maxeval}
        minimize 1e-12 1e-08 10000 20000
WARNING: Resetting reneighboring criteria during minimization (../min.cpp:168)
Memory usage per processor = 5.28733 Mbytes
Step Temp PotEng Lx Ly Lz 
      16            0   -17351.408     6.928552    73.616232    4.0002014 
Loop time of 0.035826 on 1 procs for 0 steps with 2912 atoms

Minimization stats:
  Stopping criterion = force tolerance
  Energy initial, next-to-last, final = 
        -17351.4079598     -17351.4079598     -17351.4079598
  Force two-norm initial, final = 9.87258e-11 9.87258e-11
  Force max component initial, final = 3.19188e-12 3.19188e-12
  Final line search alpha, max atom move = 0 0
  Iterations, force evaluations = 0 0

Pair  time (%) = 0.0353309 (98.6181)
Neigh time (%) = 0 (0)
Comm  time (%) = 0.000462958 (1.29224)
Outpt time (%) = 0 (0)
Other time (%) = 3.21354e-05 (0.0896985)

Nlocal:    2912 ave 2912 max 2912 min
Histogram: 1 0 0 0 0 0 0 0 0 0
Nghost:    7129 ave 7129 max 7129 min
Histogram: 1 0 0 0 0 0 0 0 0 0
Neighs:    111840 ave 111840 max 111840 min
Histogram: 1 0 0 0 0 0 0 0 0 0

Total # of neighbors = 111840
Ave neighs/atom = 38.4066
Neighbor list builds = 0
Dangerous builds = 0
	# write_dump all atom ${dumpfile}
        next i
jump SELF loop1
        displace_atoms upper move 0.0 ${ystep1} 0.0 units lattice
        displace_atoms upper move 0.0 0.00288675134594812 0.0 units lattice
        min_style ${style}
        min_style hftn
        minimize ${etol} ${ftol} ${maxiter} ${maxeval}
        minimize 1e-12 ${ftol} ${maxiter} ${maxeval}
        minimize 1e-12 1e-08 ${maxiter} ${maxeval}
        minimize 1e-12 1e-08 10000 ${maxeval}
        minimize 1e-12 1e-08 10000 20000
WARNING: Resetting reneighboring criteria during minimization (../min.cpp:168)
Memory usage per processor = 5.28733 Mbytes
Step Temp PotEng Lx Ly Lz 
      16            0   -17349.006     6.928552    73.623304    4.0002014 
Loop time of 0.0380291 on 1 procs for 0 steps with 2912 atoms

Minimization stats:
  Stopping criterion = force tolerance
  Energy initial, next-to-last, final = 
        -17349.0060603     -17349.0060603     -17349.0060603
  Force two-norm initial, final = 9.87227e-11 9.87227e-11
  Force max component initial, final = 3.19188e-12 3.19188e-12
  Final line search alpha, max atom move = 0 0
  Iterations, force evaluations = 0 0

Pair  time (%) = 0.037557 (98.7586)
Neigh time (%) = 0 (0)
Comm  time (%) = 0.000440007 (1.15703)
Outpt time (%) = 0 (0)
Other time (%) = 3.20871e-05 (0.0843751)

Nlocal:    2912 ave 2912 max 2912 min
Histogram: 1 0 0 0 0 0 0 0 0 0
Nghost:    7129 ave 7129 max 7129 min
Histogram: 1 0 0 0 0 0 0 0 0 0
Neighs:    111840 ave 111840 max 111840 min
Histogram: 1 0 0 0 0 0 0 0 0 0

Total # of neighbors = 111840
Ave neighs/atom = 38.4066
Neighbor list builds = 0
Dangerous builds = 0
	# write_dump all atom ${dumpfile}
        next i
jump SELF loop1
        displace_atoms upper move 0.0 ${ystep1} 0.0 units lattice
        displace_atoms upper move 0.0 0.00288675134594812 0.0 units lattice
        min_style ${style}
        min_style hftn
        minimize ${etol} ${ftol} ${maxiter} ${maxeval}
        minimize 1e-12 ${ftol} ${maxiter} ${maxeval}
        minimize 1e-12 1e-08 ${maxiter} ${maxeval}
        minimize 1e-12 1e-08 10000 ${maxeval}
        minimize 1e-12 1e-08 10000 20000
WARNING: Resetting reneighboring criteria during minimization (../min.cpp:168)
Memory usage per processor = 5.28733 Mbytes
Step Temp PotEng Lx Ly Lz 
      16            0   -17346.553     6.928552    73.630375    4.0002014 
Loop time of 0.0379561 on 1 procs for 0 steps with 2912 atoms

Minimization stats:
  Stopping criterion = force tolerance
  Energy initial, next-to-last, final = 
         -17346.553463      -17346.553463      -17346.553463
  Force two-norm initial, final = 9.87204e-11 9.87204e-11
  Force max component initial, final = 3.19188e-12 3.19188e-12
  Final line search alpha, max atom move = 0 0
  Iterations, force evaluations = 0 0

Pair  time (%) = 0.0374831 (98.7537)
Neigh time (%) = 0 (0)
Comm  time (%) = 0.000440028 (1.15931)
Outpt time (%) = 0 (0)
Other time (%) = 3.30192e-05 (0.0869932)

Nlocal:    2912 ave 2912 max 2912 min
Histogram: 1 0 0 0 0 0 0 0 0 0
Nghost:    7129 ave 7129 max 7129 min
Histogram: 1 0 0 0 0 0 0 0 0 0
Neighs:    111840 ave 111840 max 111840 min
Histogram: 1 0 0 0 0 0 0 0 0 0

Total # of neighbors = 111840
Ave neighs/atom = 38.4066
Neighbor list builds = 0
Dangerous builds = 0
	# write_dump all atom ${dumpfile}
        next i
jump SELF loop1
        displace_atoms upper move 0.0 ${ystep1} 0.0 units lattice
        displace_atoms upper move 0.0 0.00288675134594812 0.0 units lattice
        min_style ${style}
        min_style hftn
        minimize ${etol} ${ftol} ${maxiter} ${maxeval}
        minimize 1e-12 ${ftol} ${maxiter} ${maxeval}
        minimize 1e-12 1e-08 ${maxiter} ${maxeval}
        minimize 1e-12 1e-08 10000 ${maxeval}
        minimize 1e-12 1e-08 10000 20000
WARNING: Resetting reneighboring criteria during minimization (../min.cpp:168)
Memory usage per processor = 5.28733 Mbytes
Step Temp PotEng Lx Ly Lz 
      16            0   -17344.057     6.928552    73.637446    4.0002014 
Loop time of 0.0360051 on 1 procs for 0 steps with 2912 atoms

Minimization stats:
  Stopping criterion = force tolerance
  Energy initial, next-to-last, final = 
        -17344.0573444     -17344.0573444     -17344.0573444
  Force two-norm initial, final = 9.87172e-11 9.87172e-11
  Force max component initial, final = 3.19188e-12 3.19188e-12
  Final line search alpha, max atom move = 0 0
  Iterations, force evaluations = 0 0

Pair  time (%) = 0.035505 (98.6112)
Neigh time (%) = 0 (0)
Comm  time (%) = 0.000463098 (1.2862)
Outpt time (%) = 0 (0)
Other time (%) = 3.69498e-05 (0.102624)

Nlocal:    2912 ave 2912 max 2912 min
Histogram: 1 0 0 0 0 0 0 0 0 0
Nghost:    7129 ave 7129 max 7129 min
Histogram: 1 0 0 0 0 0 0 0 0 0
Neighs:    111840 ave 111840 max 111840 min
Histogram: 1 0 0 0 0 0 0 0 0 0

Total # of neighbors = 111840
Ave neighs/atom = 38.4066
Neighbor list builds = 0
Dangerous builds = 0
	# write_dump all atom ${dumpfile}
        next i
jump SELF loop1
        displace_atoms upper move 0.0 ${ystep1} 0.0 units lattice
        displace_atoms upper move 0.0 0.00288675134594812 0.0 units lattice
        min_style ${style}
        min_style hftn
        minimize ${etol} ${ftol} ${maxiter} ${maxeval}
        minimize 1e-12 ${ftol} ${maxiter} ${maxeval}
        minimize 1e-12 1e-08 ${maxiter} ${maxeval}
        minimize 1e-12 1e-08 10000 ${maxeval}
        minimize 1e-12 1e-08 10000 20000
WARNING: Resetting reneighboring criteria during minimization (../min.cpp:168)
Memory usage per processor = 5.28733 Mbytes
Step Temp PotEng Lx Ly Lz 
      16            0   -17341.525     6.928552    73.644518    4.0002014 
Loop time of 0.036542 on 1 procs for 0 steps with 2912 atoms

Minimization stats:
  Stopping criterion = force tolerance
  Energy initial, next-to-last, final = 
        -17341.5249775     -17341.5249775     -17341.5249775
  Force two-norm initial, final = 9.87146e-11 9.87146e-11
  Force max component initial, final = 3.19188e-12 3.19188e-12
  Final line search alpha, max atom move = 0 0
  Iterations, force evaluations = 0 0

Pair  time (%) = 0.0360601 (98.6812)
Neigh time (%) = 0 (0)
Comm  time (%) = 0.000448957 (1.22861)
Outpt time (%) = 0 (0)
Other time (%) = 3.29451e-05 (0.0901568)

Nlocal:    2912 ave 2912 max 2912 min
Histogram: 1 0 0 0 0 0 0 0 0 0
Nghost:    7129 ave 7129 max 7129 min
Histogram: 1 0 0 0 0 0 0 0 0 0
Neighs:    111840 ave 111840 max 111840 min
Histogram: 1 0 0 0 0 0 0 0 0 0

Total # of neighbors = 111840
Ave neighs/atom = 38.4066
Neighbor list builds = 0
Dangerous builds = 0
	# write_dump all atom ${dumpfile}
        next i
jump SELF loop1
        displace_atoms upper move 0.0 ${ystep1} 0.0 units lattice
        displace_atoms upper move 0.0 0.00288675134594812 0.0 units lattice
        min_style ${style}
        min_style hftn
        minimize ${etol} ${ftol} ${maxiter} ${maxeval}
        minimize 1e-12 ${ftol} ${maxiter} ${maxeval}
        minimize 1e-12 1e-08 ${maxiter} ${maxeval}
        minimize 1e-12 1e-08 10000 ${maxeval}
        minimize 1e-12 1e-08 10000 20000
WARNING: Resetting reneighboring criteria during minimization (../min.cpp:168)
Memory usage per processor = 5.28733 Mbytes
Step Temp PotEng Lx Ly Lz 
      16            0   -17338.964     6.928552    73.651589    4.0002014 
Loop time of 0.064188 on 1 procs for 0 steps with 2912 atoms

Minimization stats:
  Stopping criterion = force tolerance
  Energy initial, next-to-last, final = 
        -17338.9637125     -17338.9637125     -17338.9637125
  Force two-norm initial, final = 9.87113e-11 9.87113e-11
  Force max component initial, final = 3.19188e-12 3.19188e-12
  Final line search alpha, max atom move = 0 0
  Iterations, force evaluations = 0 0

Pair  time (%) = 0.063715 (99.263)
Neigh time (%) = 0 (0)
Comm  time (%) = 0.000440005 (0.685494)
Outpt time (%) = 0 (0)
Other time (%) = 3.30423e-05 (0.0514773)

Nlocal:    2912 ave 2912 max 2912 min
Histogram: 1 0 0 0 0 0 0 0 0 0
Nghost:    7129 ave 7129 max 7129 min
Histogram: 1 0 0 0 0 0 0 0 0 0
Neighs:    111840 ave 111840 max 111840 min
Histogram: 1 0 0 0 0 0 0 0 0 0

Total # of neighbors = 111840
Ave neighs/atom = 38.4066
Neighbor list builds = 0
Dangerous builds = 0
	# write_dump all atom ${dumpfile}
        next i
jump SELF loop1
        displace_atoms upper move 0.0 ${ystep1} 0.0 units lattice
        displace_atoms upper move 0.0 0.00288675134594812 0.0 units lattice
        min_style ${style}
        min_style hftn
        minimize ${etol} ${ftol} ${maxiter} ${maxeval}
        minimize 1e-12 ${ftol} ${maxiter} ${maxeval}
        minimize 1e-12 1e-08 ${maxiter} ${maxeval}
        minimize 1e-12 1e-08 10000 ${maxeval}
        minimize 1e-12 1e-08 10000 20000
WARNING: Resetting reneighboring criteria during minimization (../min.cpp:168)
Memory usage per processor = 5.28733 Mbytes
Step Temp PotEng Lx Ly Lz 
      16            0   -17336.381     6.928552    73.658661    4.0002014 
Loop time of 0.0372971 on 1 procs for 0 steps with 2912 atoms

Minimization stats:
  Stopping criterion = force tolerance
  Energy initial, next-to-last, final = 
        -17336.3809909     -17336.3809909     -17336.3809909
  Force two-norm initial, final = 9.87085e-11 9.87085e-11
  Force max component initial, final = 3.19188e-12 3.19188e-12
  Final line search alpha, max atom move = 0 0
  Iterations, force evaluations = 0 0

Pair  time (%) = 0.0368211 (98.7238)
Neigh time (%) = 0 (0)
Comm  time (%) = 0.000440883 (1.18209)
Outpt time (%) = 0 (0)
Other time (%) = 3.51177e-05 (0.0941568)

Nlocal:    2912 ave 2912 max 2912 min
Histogram: 1 0 0 0 0 0 0 0 0 0
Nghost:    7129 ave 7129 max 7129 min
Histogram: 1 0 0 0 0 0 0 0 0 0
Neighs:    111840 ave 111840 max 111840 min
Histogram: 1 0 0 0 0 0 0 0 0 0

Total # of neighbors = 111840
Ave neighs/atom = 38.4066
Neighbor list builds = 0
Dangerous builds = 0
	# write_dump all atom ${dumpfile}
        next i
jump SELF loop1
        displace_atoms upper move 0.0 ${ystep1} 0.0 units lattice
        displace_atoms upper move 0.0 0.00288675134594812 0.0 units lattice
        min_style ${style}
        min_style hftn
        minimize ${etol} ${ftol} ${maxiter} ${maxeval}
        minimize 1e-12 ${ftol} ${maxiter} ${maxeval}
        minimize 1e-12 1e-08 ${maxiter} ${maxeval}
        minimize 1e-12 1e-08 10000 ${maxeval}
        minimize 1e-12 1e-08 10000 20000
WARNING: Resetting reneighboring criteria during minimization (../min.cpp:168)
Memory usage per processor = 5.28733 Mbytes
Step Temp PotEng Lx Ly Lz 
      16            0   -17333.784     6.928552    73.665732    4.0002014 
Loop time of 0.036483 on 1 procs for 0 steps with 2912 atoms

Minimization stats:
  Stopping criterion = force tolerance
  Energy initial, next-to-last, final = 
        -17333.7843314     -17333.7843314     -17333.7843314
  Force two-norm initial, final = 9.8705e-11 9.8705e-11
  Force max component initial, final = 3.19188e-12 3.19188e-12
  Final line search alpha, max atom move = 0 0
  Iterations, force evaluations = 0 0

Pair  time (%) = 0.0360079 (98.6979)
Neigh time (%) = 0 (0)
Comm  time (%) = 0.000441091 (1.20903)
Outpt time (%) = 0 (0)
Other time (%) = 3.39566e-05 (0.0930752)

Nlocal:    2912 ave 2912 max 2912 min
Histogram: 1 0 0 0 0 0 0 0 0 0
Nghost:    7129 ave 7129 max 7129 min
Histogram: 1 0 0 0 0 0 0 0 0 0
Neighs:    111648 ave 111648 max 111648 min
Histogram: 1 0 0 0 0 0 0 0 0 0

Total # of neighbors = 111648
Ave neighs/atom = 38.3407
Neighbor list builds = 0
Dangerous builds = 0
	# write_dump all atom ${dumpfile}
        next i
jump SELF loop1
        displace_atoms upper move 0.0 ${ystep1} 0.0 units lattice
        displace_atoms upper move 0.0 0.00288675134594812 0.0 units lattice
        min_style ${style}
        min_style hftn
        minimize ${etol} ${ftol} ${maxiter} ${maxeval}
        minimize 1e-12 ${ftol} ${maxiter} ${maxeval}
        minimize 1e-12 1e-08 ${maxiter} ${maxeval}
        minimize 1e-12 1e-08 10000 ${maxeval}
        minimize 1e-12 1e-08 10000 20000
WARNING: Resetting reneighboring criteria during minimization (../min.cpp:168)
Memory usage per processor = 5.28733 Mbytes
Step Temp PotEng Lx Ly Lz 
      16            0   -17331.181     6.928552    73.672804    4.0002014 
Loop time of 0.035877 on 1 procs for 0 steps with 2912 atoms

Minimization stats:
  Stopping criterion = force tolerance
  Energy initial, next-to-last, final = 
        -17331.1813764     -17331.1813764     -17331.1813764
  Force two-norm initial, final = 9.87029e-11 9.87029e-11
  Force max component initial, final = 3.19188e-12 3.19188e-12
  Final line search alpha, max atom move = 0 0
  Iterations, force evaluations = 0 0

Pair  time (%) = 0.03493 (97.3603)
Neigh time (%) = 0 (0)
Comm  time (%) = 0.000900071 (2.50877)
Outpt time (%) = 0 (0)
Other time (%) = 4.6976e-05 (0.130936)

Nlocal:    2912 ave 2912 max 2912 min
Histogram: 1 0 0 0 0 0 0 0 0 0
Nghost:    7129 ave 7129 max 7129 min
Histogram: 1 0 0 0 0 0 0 0 0 0
Neighs:    111648 ave 111648 max 111648 min
Histogram: 1 0 0 0 0 0 0 0 0 0

Total # of neighbors = 111648
Ave neighs/atom = 38.3407
Neighbor list builds = 0
Dangerous builds = 0
	# write_dump all atom ${dumpfile}
        next i
jump SELF loop1
        displace_atoms upper move 0.0 ${ystep1} 0.0 units lattice
        displace_atoms upper move 0.0 0.00288675134594812 0.0 units lattice
        min_style ${style}
        min_style hftn
        minimize ${etol} ${ftol} ${maxiter} ${maxeval}
        minimize 1e-12 ${ftol} ${maxiter} ${maxeval}
        minimize 1e-12 1e-08 ${maxiter} ${maxeval}
        minimize 1e-12 1e-08 10000 ${maxeval}
        minimize 1e-12 1e-08 10000 20000
WARNING: Resetting reneighboring criteria during minimization (../min.cpp:168)
Memory usage per processor = 5.28733 Mbytes
Step Temp PotEng Lx Ly Lz 
      16            0    -17328.58     6.928552    73.679875    4.0002014 
Loop time of 0.036023 on 1 procs for 0 steps with 2912 atoms

Minimization stats:
  Stopping criterion = force tolerance
  Energy initial, next-to-last, final = 
        -17328.5797645     -17328.5797645     -17328.5797645
  Force two-norm initial, final = 9.87004e-11 9.87004e-11
  Force max component initial, final = 3.19188e-12 3.19188e-12
  Final line search alpha, max atom move = 0 0
  Iterations, force evaluations = 0 0

Pair  time (%) = 0.0357599 (99.2697)
Neigh time (%) = 0 (0)
Comm  time (%) = 0.000168985 (0.469104)
Outpt time (%) = 0 (0)
Other time (%) = 9.41086e-05 (0.261246)

Nlocal:    2912 ave 2912 max 2912 min
Histogram: 1 0 0 0 0 0 0 0 0 0
Nghost:    7129 ave 7129 max 7129 min
Histogram: 1 0 0 0 0 0 0 0 0 0
Neighs:    111648 ave 111648 max 111648 min
Histogram: 1 0 0 0 0 0 0 0 0 0

Total # of neighbors = 111648
Ave neighs/atom = 38.3407
Neighbor list builds = 0
Dangerous builds = 0
	# write_dump all atom ${dumpfile}
        next i
jump SELF loop1
        displace_atoms upper move 0.0 ${ystep1} 0.0 units lattice
        displace_atoms upper move 0.0 0.00288675134594812 0.0 units lattice
        min_style ${style}
        min_style hftn
        minimize ${etol} ${ftol} ${maxiter} ${maxeval}
        minimize 1e-12 ${ftol} ${maxiter} ${maxeval}
        minimize 1e-12 1e-08 ${maxiter} ${maxeval}
        minimize 1e-12 1e-08 10000 ${maxeval}
        minimize 1e-12 1e-08 10000 20000
WARNING: Resetting reneighboring criteria during minimization (../min.cpp:168)
Memory usage per processor = 5.28733 Mbytes
Step Temp PotEng Lx Ly Lz 
      16            0   -17325.987     6.928552    73.686946    4.0002014 
Loop time of 0.037554 on 1 procs for 0 steps with 2912 atoms

Minimization stats:
  Stopping criterion = force tolerance
  Energy initial, next-to-last, final = 
        -17325.9873745     -17325.9873745     -17325.9873745
  Force two-norm initial, final = 9.86968e-11 9.86968e-11
  Force max component initial, final = 3.19188e-12 3.19188e-12
  Final line search alpha, max atom move = 0 0
  Iterations, force evaluations = 0 0

Pair  time (%) = 0.037291 (99.2997)
Neigh time (%) = 0 (0)
Comm  time (%) = 0.000229984 (0.61241)
Outpt time (%) = 0 (0)
Other time (%) = 3.30169e-05 (0.0879186)

Nlocal:    2912 ave 2912 max 2912 min
Histogram: 1 0 0 0 0 0 0 0 0 0
Nghost:    7129 ave 7129 max 7129 min
Histogram: 1 0 0 0 0 0 0 0 0 0
Neighs:    111648 ave 111648 max 111648 min
Histogram: 1 0 0 0 0 0 0 0 0 0

Total # of neighbors = 111648
Ave neighs/atom = 38.3407
Neighbor list builds = 0
Dangerous builds = 0
	# write_dump all atom ${dumpfile}
        next i
jump SELF loop1
        displace_atoms upper move 0.0 ${ystep1} 0.0 units lattice
        displace_atoms upper move 0.0 0.00288675134594812 0.0 units lattice
        min_style ${style}
        min_style hftn
        minimize ${etol} ${ftol} ${maxiter} ${maxeval}
        minimize 1e-12 ${ftol} ${maxiter} ${maxeval}
        minimize 1e-12 1e-08 ${maxiter} ${maxeval}
        minimize 1e-12 1e-08 10000 ${maxeval}
        minimize 1e-12 1e-08 10000 20000
WARNING: Resetting reneighboring criteria during minimization (../min.cpp:168)
Memory usage per processor = 5.28733 Mbytes
Step Temp PotEng Lx Ly Lz 
      16            0   -17323.412     6.928552    73.694018    4.0002014 
Loop time of 0.0356459 on 1 procs for 0 steps with 2912 atoms

Minimization stats:
  Stopping criterion = force tolerance
  Energy initial, next-to-last, final = 
         -17323.411962      -17323.411962      -17323.411962
  Force two-norm initial, final = 9.86938e-11 9.86938e-11
  Force max component initial, final = 3.19188e-12 3.19188e-12
  Final line search alpha, max atom move = 0 0
  Iterations, force evaluations = 0 0

Pair  time (%) = 0.0351901 (98.7212)
Neigh time (%) = 0 (0)
Comm  time (%) = 0.000421945 (1.18371)
Outpt time (%) = 0 (0)
Other time (%) = 3.39107e-05 (0.0951321)

Nlocal:    2912 ave 2912 max 2912 min
Histogram: 1 0 0 0 0 0 0 0 0 0
Nghost:    7129 ave 7129 max 7129 min
Histogram: 1 0 0 0 0 0 0 0 0 0
Neighs:    111648 ave 111648 max 111648 min
Histogram: 1 0 0 0 0 0 0 0 0 0

Total # of neighbors = 111648
Ave neighs/atom = 38.3407
Neighbor list builds = 0
Dangerous builds = 0
	# write_dump all atom ${dumpfile}
        next i
jump SELF loop1
        displace_atoms upper move 0.0 ${ystep1} 0.0 units lattice
        displace_atoms upper move 0.0 0.00288675134594812 0.0 units lattice
        min_style ${style}
        min_style hftn
        minimize ${etol} ${ftol} ${maxiter} ${maxeval}
        minimize 1e-12 ${ftol} ${maxiter} ${maxeval}
        minimize 1e-12 1e-08 ${maxiter} ${maxeval}
        minimize 1e-12 1e-08 10000 ${maxeval}
        minimize 1e-12 1e-08 10000 20000
WARNING: Resetting reneighboring criteria during minimization (../min.cpp:168)
Memory usage per processor = 5.28733 Mbytes
Step Temp PotEng Lx Ly Lz 
      16            0   -17320.861     6.928552    73.701089    4.0002014 
Loop time of 0.0366499 on 1 procs for 0 steps with 2912 atoms

Minimization stats:
  Stopping criterion = force tolerance
  Energy initial, next-to-last, final = 
        -17320.8614983     -17320.8614983     -17320.8614983
  Force two-norm initial, final = 9.8691e-11 9.8691e-11
  Force max component initial, final = 3.19188e-12 3.19188e-12
  Final line search alpha, max atom move = 0 0
  Iterations, force evaluations = 0 0

Pair  time (%) = 0.036169 (98.688)
Neigh time (%) = 0 (0)
Comm  time (%) = 0.000446936 (1.21947)
Outpt time (%) = 0 (0)
Other time (%) = 3.39199e-05 (0.0925512)

Nlocal:    2912 ave 2912 max 2912 min
Histogram: 1 0 0 0 0 0 0 0 0 0
Nghost:    7129 ave 7129 max 7129 min
Histogram: 1 0 0 0 0 0 0 0 0 0
Neighs:    111648 ave 111648 max 111648 min
Histogram: 1 0 0 0 0 0 0 0 0 0

Total # of neighbors = 111648
Ave neighs/atom = 38.3407
Neighbor list builds = 0
Dangerous builds = 0
	# write_dump all atom ${dumpfile}
        next i
jump SELF loop1
        displace_atoms upper move 0.0 ${ystep1} 0.0 units lattice
        displace_atoms upper move 0.0 0.00288675134594812 0.0 units lattice
        min_style ${style}
        min_style hftn
        minimize ${etol} ${ftol} ${maxiter} ${maxeval}
        minimize 1e-12 ${ftol} ${maxiter} ${maxeval}
        minimize 1e-12 1e-08 ${maxiter} ${maxeval}
        minimize 1e-12 1e-08 10000 ${maxeval}
        minimize 1e-12 1e-08 10000 20000
WARNING: Resetting reneighboring criteria during minimization (../min.cpp:168)
Memory usage per processor = 5.28733 Mbytes
Step Temp PotEng Lx Ly Lz 
      16            0   -17318.344     6.928552    73.708161    4.0002014 
Loop time of 0.0373431 on 1 procs for 0 steps with 2912 atoms

Minimization stats:
  Stopping criterion = force tolerance
  Energy initial, next-to-last, final = 
         -17318.344063      -17318.344063      -17318.344063
  Force two-norm initial, final = 9.86881e-11 9.86881e-11
  Force max component initial, final = 3.19188e-12 3.19188e-12
  Final line search alpha, max atom move = 0 0
  Iterations, force evaluations = 0 0

Pair  time (%) = 0.036807 (98.5644)
Neigh time (%) = 0 (0)
Comm  time (%) = 0.000492049 (1.31764)
Outpt time (%) = 0 (0)
Other time (%) = 4.40448e-05 (0.117946)

Nlocal:    2912 ave 2912 max 2912 min
Histogram: 1 0 0 0 0 0 0 0 0 0
Nghost:    7129 ave 7129 max 7129 min
Histogram: 1 0 0 0 0 0 0 0 0 0
Neighs:    111648 ave 111648 max 111648 min
Histogram: 1 0 0 0 0 0 0 0 0 0

Total # of neighbors = 111648
Ave neighs/atom = 38.3407
Neighbor list builds = 0
Dangerous builds = 0
	# write_dump all atom ${dumpfile}
        next i
jump SELF loop1
        displace_atoms upper move 0.0 ${ystep1} 0.0 units lattice
        displace_atoms upper move 0.0 0.00288675134594812 0.0 units lattice
        min_style ${style}
        min_style hftn
        minimize ${etol} ${ftol} ${maxiter} ${maxeval}
        minimize 1e-12 ${ftol} ${maxiter} ${maxeval}
        minimize 1e-12 1e-08 ${maxiter} ${maxeval}
        minimize 1e-12 1e-08 10000 ${maxeval}
        minimize 1e-12 1e-08 10000 20000
WARNING: Resetting reneighboring criteria during minimization (../min.cpp:168)
Memory usage per processor = 5.28733 Mbytes
Step Temp PotEng Lx Ly Lz 
      16            0   -17315.868     6.928552    73.715232    4.0002014 
Loop time of 0.036334 on 1 procs for 0 steps with 2912 atoms

Minimization stats:
  Stopping criterion = force tolerance
  Energy initial, next-to-last, final = 
        -17315.8676721     -17315.8676721     -17315.8676721
  Force two-norm initial, final = 9.8685e-11 9.8685e-11
  Force max component initial, final = 3.19188e-12 3.19188e-12
  Final line search alpha, max atom move = 0 0
  Iterations, force evaluations = 0 0

Pair  time (%) = 0.0354509 (97.5696)
Neigh time (%) = 0 (0)
Comm  time (%) = 0.000830034 (2.28446)
Outpt time (%) = 0 (0)
Other time (%) = 5.30139e-05 (0.145907)

Nlocal:    2912 ave 2912 max 2912 min
Histogram: 1 0 0 0 0 0 0 0 0 0
Nghost:    7129 ave 7129 max 7129 min
Histogram: 1 0 0 0 0 0 0 0 0 0
Neighs:    111648 ave 111648 max 111648 min
Histogram: 1 0 0 0 0 0 0 0 0 0

Total # of neighbors = 111648
Ave neighs/atom = 38.3407
Neighbor list builds = 0
Dangerous builds = 0
	# write_dump all atom ${dumpfile}
        next i
jump SELF loop1
        displace_atoms upper move 0.0 ${ystep1} 0.0 units lattice
        displace_atoms upper move 0.0 0.00288675134594812 0.0 units lattice
        min_style ${style}
        min_style hftn
        minimize ${etol} ${ftol} ${maxiter} ${maxeval}
        minimize 1e-12 ${ftol} ${maxiter} ${maxeval}
        minimize 1e-12 1e-08 ${maxiter} ${maxeval}
        minimize 1e-12 1e-08 10000 ${maxeval}
        minimize 1e-12 1e-08 10000 20000
WARNING: Resetting reneighboring criteria during minimization (../min.cpp:168)
Memory usage per processor = 5.28733 Mbytes
Step Temp PotEng Lx Ly Lz 
      16            0    -17313.44     6.928552    73.722303    4.0002014 
Loop time of 0.036806 on 1 procs for 0 steps with 2912 atoms

Minimization stats:
  Stopping criterion = force tolerance
  Energy initial, next-to-last, final = 
        -17313.4404984     -17313.4404984     -17313.4404984
  Force two-norm initial, final = 9.8682e-11 9.8682e-11
  Force max component initial, final = 3.19188e-12 3.19188e-12
  Final line search alpha, max atom move = 0 0
  Iterations, force evaluations = 0 0

Pair  time (%) = 0.0362879 (98.5924)
Neigh time (%) = 0 (0)
Comm  time (%) = 0.000474924 (1.29035)
Outpt time (%) = 0 (0)
Other time (%) = 4.31694e-05 (0.117289)

Nlocal:    2912 ave 2912 max 2912 min
Histogram: 1 0 0 0 0 0 0 0 0 0
Nghost:    7129 ave 7129 max 7129 min
Histogram: 1 0 0 0 0 0 0 0 0 0
Neighs:    111648 ave 111648 max 111648 min
Histogram: 1 0 0 0 0 0 0 0 0 0

Total # of neighbors = 111648
Ave neighs/atom = 38.3407
Neighbor list builds = 0
Dangerous builds = 0
	# write_dump all atom ${dumpfile}
        next i
jump SELF loop1
        displace_atoms upper move 0.0 ${ystep1} 0.0 units lattice
        displace_atoms upper move 0.0 0.00288675134594812 0.0 units lattice
        min_style ${style}
        min_style hftn
        minimize ${etol} ${ftol} ${maxiter} ${maxeval}
        minimize 1e-12 ${ftol} ${maxiter} ${maxeval}
        minimize 1e-12 1e-08 ${maxiter} ${maxeval}
        minimize 1e-12 1e-08 10000 ${maxeval}
        minimize 1e-12 1e-08 10000 20000
WARNING: Resetting reneighboring criteria during minimization (../min.cpp:168)
Memory usage per processor = 5.28733 Mbytes
Step Temp PotEng Lx Ly Lz 
      16            0   -17311.071     6.928552    73.729375    4.0002014 
Loop time of 0.0368519 on 1 procs for 0 steps with 2912 atoms

Minimization stats:
  Stopping criterion = force tolerance
  Energy initial, next-to-last, final = 
        -17311.0707778     -17311.0707778     -17311.0707778
  Force two-norm initial, final = 9.86791e-11 9.86791e-11
  Force max component initial, final = 3.19188e-12 3.19188e-12
  Final line search alpha, max atom move = 0 0
  Iterations, force evaluations = 0 0

Pair  time (%) = 0.0363771 (98.7115)
Neigh time (%) = 0 (0)
Comm  time (%) = 0.000441858 (1.19901)
Outpt time (%) = 0 (0)
Other time (%) = 3.29973e-05 (0.0895403)

Nlocal:    2912 ave 2912 max 2912 min
Histogram: 1 0 0 0 0 0 0 0 0 0
Nghost:    7129 ave 7129 max 7129 min
Histogram: 1 0 0 0 0 0 0 0 0 0
Neighs:    111648 ave 111648 max 111648 min
Histogram: 1 0 0 0 0 0 0 0 0 0

Total # of neighbors = 111648
Ave neighs/atom = 38.3407
Neighbor list builds = 0
Dangerous builds = 0
	# write_dump all atom ${dumpfile}
        next i
jump SELF loop1
        displace_atoms upper move 0.0 ${ystep1} 0.0 units lattice
        displace_atoms upper move 0.0 0.00288675134594812 0.0 units lattice
        min_style ${style}
        min_style hftn
        minimize ${etol} ${ftol} ${maxiter} ${maxeval}
        minimize 1e-12 ${ftol} ${maxiter} ${maxeval}
        minimize 1e-12 1e-08 ${maxiter} ${maxeval}
        minimize 1e-12 1e-08 10000 ${maxeval}
        minimize 1e-12 1e-08 10000 20000
WARNING: Resetting reneighboring criteria during minimization (../min.cpp:168)
Memory usage per processor = 5.28733 Mbytes
Step Temp PotEng Lx Ly Lz 
      16            0   -17308.767     6.928552    73.736446    4.0002014 
Loop time of 0.036598 on 1 procs for 0 steps with 2912 atoms

Minimization stats:
  Stopping criterion = force tolerance
  Energy initial, next-to-last, final = 
        -17308.7668102     -17308.7668102     -17308.7668102
  Force two-norm initial, final = 9.86761e-11 9.86761e-11
  Force max component initial, final = 3.19188e-12 3.19188e-12
  Final line search alpha, max atom move = 0 0
  Iterations, force evaluations = 0 0

Pair  time (%) = 0.0360749 (98.5707)
Neigh time (%) = 0 (0)
Comm  time (%) = 0.000488069 (1.33359)
Outpt time (%) = 0 (0)
Other time (%) = 3.50248e-05 (0.0957015)

Nlocal:    2912 ave 2912 max 2912 min
Histogram: 1 0 0 0 0 0 0 0 0 0
Nghost:    7129 ave 7129 max 7129 min
Histogram: 1 0 0 0 0 0 0 0 0 0
Neighs:    111648 ave 111648 max 111648 min
Histogram: 1 0 0 0 0 0 0 0 0 0

Total # of neighbors = 111648
Ave neighs/atom = 38.3407
Neighbor list builds = 0
Dangerous builds = 0
	# write_dump all atom ${dumpfile}
        next i
jump SELF loop1
        displace_atoms upper move 0.0 ${ystep1} 0.0 units lattice
        displace_atoms upper move 0.0 0.00288675134594812 0.0 units lattice
        min_style ${style}
        min_style hftn
        minimize ${etol} ${ftol} ${maxiter} ${maxeval}
        minimize 1e-12 ${ftol} ${maxiter} ${maxeval}
        minimize 1e-12 1e-08 ${maxiter} ${maxeval}
        minimize 1e-12 1e-08 10000 ${maxeval}
        minimize 1e-12 1e-08 10000 20000
WARNING: Resetting reneighboring criteria during minimization (../min.cpp:168)
Memory usage per processor = 5.28733 Mbytes
Step Temp PotEng Lx Ly Lz 
      16            0   -17306.537     6.928552    73.743518    4.0002014 
Loop time of 0.0433891 on 1 procs for 0 steps with 2912 atoms

Minimization stats:
  Stopping criterion = force tolerance
  Energy initial, next-to-last, final = 
        -17306.5369477     -17306.5369477     -17306.5369477
  Force two-norm initial, final = 9.8673e-11 9.8673e-11
  Force max component initial, final = 3.19188e-12 3.19188e-12
  Final line search alpha, max atom move = 0 0
  Iterations, force evaluations = 0 0

Pair  time (%) = 0.042898 (98.8683)
Neigh time (%) = 0 (0)
Comm  time (%) = 0.000456993 (1.05324)
Outpt time (%) = 0 (0)
Other time (%) = 3.40545e-05 (0.0784863)

Nlocal:    2912 ave 2912 max 2912 min
Histogram: 1 0 0 0 0 0 0 0 0 0
Nghost:    7129 ave 7129 max 7129 min
Histogram: 1 0 0 0 0 0 0 0 0 0
Neighs:    111648 ave 111648 max 111648 min
Histogram: 1 0 0 0 0 0 0 0 0 0

Total # of neighbors = 111648
Ave neighs/atom = 38.3407
Neighbor list builds = 0
Dangerous builds = 0
	# write_dump all atom ${dumpfile}
        next i
jump SELF loop1
        displace_atoms upper move 0.0 ${ystep1} 0.0 units lattice
        displace_atoms upper move 0.0 0.00288675134594812 0.0 units lattice
        min_style ${style}
        min_style hftn
        minimize ${etol} ${ftol} ${maxiter} ${maxeval}
        minimize 1e-12 ${ftol} ${maxiter} ${maxeval}
        minimize 1e-12 1e-08 ${maxiter} ${maxeval}
        minimize 1e-12 1e-08 10000 ${maxeval}
        minimize 1e-12 1e-08 10000 20000
WARNING: Resetting reneighboring criteria during minimization (../min.cpp:168)
Memory usage per processor = 5.28733 Mbytes
Step Temp PotEng Lx Ly Lz 
      16            0    -17304.39     6.928552    73.750589    4.0002014 
Loop time of 0.0348801 on 1 procs for 0 steps with 2912 atoms

Minimization stats:
  Stopping criterion = force tolerance
  Energy initial, next-to-last, final = 
        -17304.3896798     -17304.3896798     -17304.3896798
  Force two-norm initial, final = 9.86699e-11 9.86699e-11
  Force max component initial, final = 3.19188e-12 3.19188e-12
  Final line search alpha, max atom move = 0 0
  Iterations, force evaluations = 0 0

Pair  time (%) = 0.034456 (98.7841)
Neigh time (%) = 0 (0)
Comm  time (%) = 0.000391072 (1.12119)
Outpt time (%) = 0 (0)
Other time (%) = 3.30213e-05 (0.094671)

Nlocal:    2912 ave 2912 max 2912 min
Histogram: 1 0 0 0 0 0 0 0 0 0
Nghost:    7129 ave 7129 max 7129 min
Histogram: 1 0 0 0 0 0 0 0 0 0
Neighs:    111648 ave 111648 max 111648 min
Histogram: 1 0 0 0 0 0 0 0 0 0

Total # of neighbors = 111648
Ave neighs/atom = 38.3407
Neighbor list builds = 0
Dangerous builds = 0
	# write_dump all atom ${dumpfile}
        next i
jump SELF loop1
        displace_atoms upper move 0.0 ${ystep1} 0.0 units lattice
        displace_atoms upper move 0.0 0.00288675134594812 0.0 units lattice
        min_style ${style}
        min_style hftn
        minimize ${etol} ${ftol} ${maxiter} ${maxeval}
        minimize 1e-12 ${ftol} ${maxiter} ${maxeval}
        minimize 1e-12 1e-08 ${maxiter} ${maxeval}
        minimize 1e-12 1e-08 10000 ${maxeval}
        minimize 1e-12 1e-08 10000 20000
WARNING: Resetting reneighboring criteria during minimization (../min.cpp:168)
Memory usage per processor = 5.28733 Mbytes
Step Temp PotEng Lx Ly Lz 
      16            0   -17302.334     6.928552    73.757661    4.0002014 
Loop time of 0.0361141 on 1 procs for 0 steps with 2912 atoms

Minimization stats:
  Stopping criterion = force tolerance
  Energy initial, next-to-last, final = 
        -17302.3335636     -17302.3335636     -17302.3335636
  Force two-norm initial, final = 9.86667e-11 9.86667e-11
  Force max component initial, final = 3.19188e-12 3.19188e-12
  Final line search alpha, max atom move = 0 0
  Iterations, force evaluations = 0 0

Pair  time (%) = 0.035713 (98.8894)
Neigh time (%) = 0 (0)
Comm  time (%) = 0.000366937 (1.01605)
Outpt time (%) = 0 (0)
Other time (%) = 3.4157e-05 (0.0945807)

Nlocal:    2912 ave 2912 max 2912 min
Histogram: 1 0 0 0 0 0 0 0 0 0
Nghost:    7129 ave 7129 max 7129 min
Histogram: 1 0 0 0 0 0 0 0 0 0
Neighs:    111648 ave 111648 max 111648 min
Histogram: 1 0 0 0 0 0 0 0 0 0

Total # of neighbors = 111648
Ave neighs/atom = 38.3407
Neighbor list builds = 0
Dangerous builds = 0
	# write_dump all atom ${dumpfile}
        next i
jump SELF loop1
        displace_atoms upper move 0.0 ${ystep1} 0.0 units lattice
        displace_atoms upper move 0.0 0.00288675134594812 0.0 units lattice
        min_style ${style}
        min_style hftn
        minimize ${etol} ${ftol} ${maxiter} ${maxeval}
        minimize 1e-12 ${ftol} ${maxiter} ${maxeval}
        minimize 1e-12 1e-08 ${maxiter} ${maxeval}
        minimize 1e-12 1e-08 10000 ${maxeval}
        minimize 1e-12 1e-08 10000 20000
WARNING: Resetting reneighboring criteria during minimization (../min.cpp:168)
Memory usage per processor = 5.28733 Mbytes
Step Temp PotEng Lx Ly Lz 
      16            0   -17300.377     6.928552    73.764732    4.0002014 
Loop time of 0.038458 on 1 procs for 0 steps with 2912 atoms

Minimization stats:
  Stopping criterion = force tolerance
  Energy initial, next-to-last, final = 
        -17300.3769766     -17300.3769766     -17300.3769766
  Force two-norm initial, final = 9.86639e-11 9.86639e-11
  Force max component initial, final = 3.19188e-12 3.19188e-12
  Final line search alpha, max atom move = 0 0
  Iterations, force evaluations = 0 0

Pair  time (%) = 0.037982 (98.7623)
Neigh time (%) = 0 (0)
Comm  time (%) = 0.000441969 (1.14923)
Outpt time (%) = 0 (0)
Other time (%) = 3.40318e-05 (0.0884908)

Nlocal:    2912 ave 2912 max 2912 min
Histogram: 1 0 0 0 0 0 0 0 0 0
Nghost:    7129 ave 7129 max 7129 min
Histogram: 1 0 0 0 0 0 0 0 0 0
Neighs:    111648 ave 111648 max 111648 min
Histogram: 1 0 0 0 0 0 0 0 0 0

Total # of neighbors = 111648
Ave neighs/atom = 38.3407
Neighbor list builds = 0
Dangerous builds = 0
	# write_dump all atom ${dumpfile}
        next i
jump SELF loop1
        displace_atoms upper move 0.0 ${ystep1} 0.0 units lattice
        displace_atoms upper move 0.0 0.00288675134594812 0.0 units lattice
        min_style ${style}
        min_style hftn
        minimize ${etol} ${ftol} ${maxiter} ${maxeval}
        minimize 1e-12 ${ftol} ${maxiter} ${maxeval}
        minimize 1e-12 1e-08 ${maxiter} ${maxeval}
        minimize 1e-12 1e-08 10000 ${maxeval}
        minimize 1e-12 1e-08 10000 20000
WARNING: Resetting reneighboring criteria during minimization (../min.cpp:168)
Memory usage per processor = 5.28733 Mbytes
Step Temp PotEng Lx Ly Lz 
      16            0   -17298.528     6.928552    73.771803    4.0002014 
Loop time of 0.0356509 on 1 procs for 0 steps with 2912 atoms

Minimization stats:
  Stopping criterion = force tolerance
  Energy initial, next-to-last, final = 
        -17298.5280131     -17298.5280131     -17298.5280131
  Force two-norm initial, final = 9.86631e-11 9.86631e-11
  Force max component initial, final = 3.19188e-12 3.19188e-12
  Final line search alpha, max atom move = 0 0
  Iterations, force evaluations = 0 0

Pair  time (%) = 0.035179 (98.6765)
Neigh time (%) = 0 (0)
Comm  time (%) = 0.000440838 (1.23654)
Outpt time (%) = 0 (0)
Other time (%) = 3.10173e-05 (0.087003)

Nlocal:    2912 ave 2912 max 2912 min
Histogram: 1 0 0 0 0 0 0 0 0 0
Nghost:    7129 ave 7129 max 7129 min
Histogram: 1 0 0 0 0 0 0 0 0 0
Neighs:    111648 ave 111648 max 111648 min
Histogram: 1 0 0 0 0 0 0 0 0 0

Total # of neighbors = 111648
Ave neighs/atom = 38.3407
Neighbor list builds = 0
Dangerous builds = 0
	# write_dump all atom ${dumpfile}
        next i
jump SELF loop1
        displace_atoms upper move 0.0 ${ystep1} 0.0 units lattice
        displace_atoms upper move 0.0 0.00288675134594812 0.0 units lattice
        min_style ${style}
        min_style hftn
        minimize ${etol} ${ftol} ${maxiter} ${maxeval}
        minimize 1e-12 ${ftol} ${maxiter} ${maxeval}
        minimize 1e-12 1e-08 ${maxiter} ${maxeval}
        minimize 1e-12 1e-08 10000 ${maxeval}
        minimize 1e-12 1e-08 10000 20000
WARNING: Resetting reneighboring criteria during minimization (../min.cpp:168)
Memory usage per processor = 5.28733 Mbytes
Step Temp PotEng Lx Ly Lz 
      16            0   -17296.788     6.928552    73.778875    4.0002014 
Loop time of 0.058039 on 1 procs for 0 steps with 2912 atoms

Minimization stats:
  Stopping criterion = force tolerance
  Energy initial, next-to-last, final = 
        -17296.7875938     -17296.7875938     -17296.7875938
  Force two-norm initial, final = 9.86635e-11 9.86635e-11
  Force max component initial, final = 3.19188e-12 3.19188e-12
  Final line search alpha, max atom move = 0 0
  Iterations, force evaluations = 0 0

Pair  time (%) = 0.057532 (99.1264)
Neigh time (%) = 0 (0)
Comm  time (%) = 0.000472958 (0.814897)
Outpt time (%) = 0 (0)
Other time (%) = 3.40894e-05 (0.0587354)

Nlocal:    2912 ave 2912 max 2912 min
Histogram: 1 0 0 0 0 0 0 0 0 0
Nghost:    7129 ave 7129 max 7129 min
Histogram: 1 0 0 0 0 0 0 0 0 0
Neighs:    111648 ave 111648 max 111648 min
Histogram: 1 0 0 0 0 0 0 0 0 0

Total # of neighbors = 111648
Ave neighs/atom = 38.3407
Neighbor list builds = 0
Dangerous builds = 0
	# write_dump all atom ${dumpfile}
        next i
jump SELF loop1
        displace_atoms upper move 0.0 ${ystep1} 0.0 units lattice
        displace_atoms upper move 0.0 0.00288675134594812 0.0 units lattice
        min_style ${style}
        min_style hftn
        minimize ${etol} ${ftol} ${maxiter} ${maxeval}
        minimize 1e-12 ${ftol} ${maxiter} ${maxeval}
        minimize 1e-12 1e-08 ${maxiter} ${maxeval}
        minimize 1e-12 1e-08 10000 ${maxeval}
        minimize 1e-12 1e-08 10000 20000
WARNING: Resetting reneighboring criteria during minimization (../min.cpp:168)
Memory usage per processor = 5.28733 Mbytes
Step Temp PotEng Lx Ly Lz 
      16            0   -17295.153     6.928552    73.785946    4.0002014 
Loop time of 0.0368189 on 1 procs for 0 steps with 2912 atoms

Minimization stats:
  Stopping criterion = force tolerance
  Energy initial, next-to-last, final = 
        -17295.1531918     -17295.1531918     -17295.1531918
  Force two-norm initial, final = 9.86639e-11 9.86639e-11
  Force max component initial, final = 3.19188e-12 3.19188e-12
  Final line search alpha, max atom move = 0 0
  Iterations, force evaluations = 0 0

Pair  time (%) = 0.036343 (98.7076)
Neigh time (%) = 0 (0)
Comm  time (%) = 0.00044285 (1.20278)
Outpt time (%) = 0 (0)
Other time (%) = 3.30053e-05 (0.0896422)

Nlocal:    2912 ave 2912 max 2912 min
Histogram: 1 0 0 0 0 0 0 0 0 0
Nghost:    7129 ave 7129 max 7129 min
Histogram: 1 0 0 0 0 0 0 0 0 0
Neighs:    111648 ave 111648 max 111648 min
Histogram: 1 0 0 0 0 0 0 0 0 0

Total # of neighbors = 111648
Ave neighs/atom = 38.3407
Neighbor list builds = 0
Dangerous builds = 0
	# write_dump all atom ${dumpfile}
        next i
jump SELF loop1
        displace_atoms upper move 0.0 ${ystep1} 0.0 units lattice
        displace_atoms upper move 0.0 0.00288675134594812 0.0 units lattice
        min_style ${style}
        min_style hftn
        minimize ${etol} ${ftol} ${maxiter} ${maxeval}
        minimize 1e-12 ${ftol} ${maxiter} ${maxeval}
        minimize 1e-12 1e-08 ${maxiter} ${maxeval}
        minimize 1e-12 1e-08 10000 ${maxeval}
        minimize 1e-12 1e-08 10000 20000
WARNING: Resetting reneighboring criteria during minimization (../min.cpp:168)
Memory usage per processor = 5.28733 Mbytes
Step Temp PotEng Lx Ly Lz 
      16            0   -17293.622     6.928552    73.793018    4.0002014 
Loop time of 0.0372589 on 1 procs for 0 steps with 2912 atoms

Minimization stats:
  Stopping criterion = force tolerance
  Energy initial, next-to-last, final = 
        -17293.6218399     -17293.6218399     -17293.6218399
  Force two-norm initial, final = 9.8664e-11 9.8664e-11
  Force max component initial, final = 3.19188e-12 3.19188e-12
  Final line search alpha, max atom move = 0 0
  Iterations, force evaluations = 0 0

Pair  time (%) = 0.0367761 (98.7042)
Neigh time (%) = 0 (0)
Comm  time (%) = 0.000449011 (1.20511)
Outpt time (%) = 0 (0)
Other time (%) = 3.37983e-05 (0.0907119)

Nlocal:    2912 ave 2912 max 2912 min
Histogram: 1 0 0 0 0 0 0 0 0 0
Nghost:    7129 ave 7129 max 7129 min
Histogram: 1 0 0 0 0 0 0 0 0 0
Neighs:    111648 ave 111648 max 111648 min
Histogram: 1 0 0 0 0 0 0 0 0 0

Total # of neighbors = 111648
Ave neighs/atom = 38.3407
Neighbor list builds = 0
Dangerous builds = 0
	# write_dump all atom ${dumpfile}
        next i
jump SELF loop1
        displace_atoms upper move 0.0 ${ystep1} 0.0 units lattice
        displace_atoms upper move 0.0 0.00288675134594812 0.0 units lattice
        min_style ${style}
        min_style hftn
        minimize ${etol} ${ftol} ${maxiter} ${maxeval}
        minimize 1e-12 ${ftol} ${maxiter} ${maxeval}
        minimize 1e-12 1e-08 ${maxiter} ${maxeval}
        minimize 1e-12 1e-08 10000 ${maxeval}
        minimize 1e-12 1e-08 10000 20000
WARNING: Resetting reneighboring criteria during minimization (../min.cpp:168)
Memory usage per processor = 5.28733 Mbytes
Step Temp PotEng Lx Ly Lz 
      16            0   -17292.191     6.928552    73.800089    4.0002014 
Loop time of 0.036979 on 1 procs for 0 steps with 2912 atoms

Minimization stats:
  Stopping criterion = force tolerance
  Energy initial, next-to-last, final = 
        -17292.1908287     -17292.1908287     -17292.1908287
  Force two-norm initial, final = 9.86643e-11 9.86643e-11
  Force max component initial, final = 3.19188e-12 3.19188e-12
  Final line search alpha, max atom move = 0 0
  Iterations, force evaluations = 0 0

Pair  time (%) = 0.0363389 (98.2689)
Neigh time (%) = 0 (0)
Comm  time (%) = 0.000595139 (1.6094)
Outpt time (%) = 0 (0)
Other time (%) = 4.50007e-05 (0.121692)

Nlocal:    2912 ave 2912 max 2912 min
Histogram: 1 0 0 0 0 0 0 0 0 0
Nghost:    7129 ave 7129 max 7129 min
Histogram: 1 0 0 0 0 0 0 0 0 0
Neighs:    111648 ave 111648 max 111648 min
Histogram: 1 0 0 0 0 0 0 0 0 0

Total # of neighbors = 111648
Ave neighs/atom = 38.3407
Neighbor list builds = 0
Dangerous builds = 0
	# write_dump all atom ${dumpfile}
        next i
jump SELF loop1
        displace_atoms upper move 0.0 ${ystep1} 0.0 units lattice
        displace_atoms upper move 0.0 0.00288675134594812 0.0 units lattice
        min_style ${style}
        min_style hftn
        minimize ${etol} ${ftol} ${maxiter} ${maxeval}
        minimize 1e-12 ${ftol} ${maxiter} ${maxeval}
        minimize 1e-12 1e-08 ${maxiter} ${maxeval}
        minimize 1e-12 1e-08 10000 ${maxeval}
        minimize 1e-12 1e-08 10000 20000
WARNING: Resetting reneighboring criteria during minimization (../min.cpp:168)
Memory usage per processor = 5.28733 Mbytes
Step Temp PotEng Lx Ly Lz 
      16            0   -17290.857     6.928552    73.807161    4.0002014 
Loop time of 0.0355419 on 1 procs for 0 steps with 2912 atoms

Minimization stats:
  Stopping criterion = force tolerance
  Energy initial, next-to-last, final = 
        -17290.8573874     -17290.8573874     -17290.8573874
  Force two-norm initial, final = 9.86646e-11 9.86646e-11
  Force max component initial, final = 3.19188e-12 3.19188e-12
  Final line search alpha, max atom move = 0 0
  Iterations, force evaluations = 0 0

Pair  time (%) = 0.035053 (98.6244)
Neigh time (%) = 0 (0)
Comm  time (%) = 0.000453101 (1.27483)
Outpt time (%) = 0 (0)
Other time (%) = 3.58081e-05 (0.100749)

Nlocal:    2912 ave 2912 max 2912 min
Histogram: 1 0 0 0 0 0 0 0 0 0
Nghost:    7129 ave 7129 max 7129 min
Histogram: 1 0 0 0 0 0 0 0 0 0
Neighs:    111648 ave 111648 max 111648 min
Histogram: 1 0 0 0 0 0 0 0 0 0

Total # of neighbors = 111648
Ave neighs/atom = 38.3407
Neighbor list builds = 0
Dangerous builds = 0
	# write_dump all atom ${dumpfile}
        next i
jump SELF loop1
        displace_atoms upper move 0.0 ${ystep1} 0.0 units lattice
        displace_atoms upper move 0.0 0.00288675134594812 0.0 units lattice
        min_style ${style}
        min_style hftn
        minimize ${etol} ${ftol} ${maxiter} ${maxeval}
        minimize 1e-12 ${ftol} ${maxiter} ${maxeval}
        minimize 1e-12 1e-08 ${maxiter} ${maxeval}
        minimize 1e-12 1e-08 10000 ${maxeval}
        minimize 1e-12 1e-08 10000 20000
WARNING: Resetting reneighboring criteria during minimization (../min.cpp:168)
Memory usage per processor = 5.28733 Mbytes
Step Temp PotEng Lx Ly Lz 
      16            0   -17289.619     6.928552    73.814232    4.0002014 
Loop time of 0.0450989 on 1 procs for 0 steps with 2912 atoms

Minimization stats:
  Stopping criterion = force tolerance
  Energy initial, next-to-last, final = 
        -17289.6185255     -17289.6185255     -17289.6185255
  Force two-norm initial, final = 9.8665e-11 9.8665e-11
  Force max component initial, final = 3.19188e-12 3.19188e-12
  Final line search alpha, max atom move = 0 0
  Iterations, force evaluations = 0 0

Pair  time (%) = 0.0446161 (98.9294)
Neigh time (%) = 0 (0)
Comm  time (%) = 0.000449011 (0.995614)
Outpt time (%) = 0 (0)
Other time (%) = 3.37982e-05 (0.0749423)

Nlocal:    2912 ave 2912 max 2912 min
Histogram: 1 0 0 0 0 0 0 0 0 0
Nghost:    7129 ave 7129 max 7129 min
Histogram: 1 0 0 0 0 0 0 0 0 0
Neighs:    111648 ave 111648 max 111648 min
Histogram: 1 0 0 0 0 0 0 0 0 0

Total # of neighbors = 111648
Ave neighs/atom = 38.3407
Neighbor list builds = 0
Dangerous builds = 0
	# write_dump all atom ${dumpfile}
        next i
jump SELF loop1
        displace_atoms upper move 0.0 ${ystep1} 0.0 units lattice
        displace_atoms upper move 0.0 0.00288675134594812 0.0 units lattice
        min_style ${style}
        min_style hftn
        minimize ${etol} ${ftol} ${maxiter} ${maxeval}
        minimize 1e-12 ${ftol} ${maxiter} ${maxeval}
        minimize 1e-12 1e-08 ${maxiter} ${maxeval}
        minimize 1e-12 1e-08 10000 ${maxeval}
        minimize 1e-12 1e-08 10000 20000
WARNING: Resetting reneighboring criteria during minimization (../min.cpp:168)
Memory usage per processor = 5.28733 Mbytes
Step Temp PotEng Lx Ly Lz 
      16            0   -17288.471     6.928552    73.821303    4.0002014 
Loop time of 0.0702131 on 1 procs for 0 steps with 2912 atoms

Minimization stats:
  Stopping criterion = force tolerance
[...]
  Force max component initial, final = 3.19188e-12 3.19188e-12
  Final line search alpha, max atom move = 0 0
  Iterations, force evaluations = 0 0

Pair  time (%) = 0.0354811 (98.7976)
Neigh time (%) = 0 (0)
Comm  time (%) = 0.000400056 (1.11396)
Outpt time (%) = 0 (0)
Other time (%) = 3.17536e-05 (0.0884182)

Nlocal:    2912 ave 2912 max 2912 min
Histogram: 1 0 0 0 0 0 0 0 0 0
Nghost:    7129 ave 7129 max 7129 min
Histogram: 1 0 0 0 0 0 0 0 0 0
Neighs:    110880 ave 110880 max 110880 min
Histogram: 1 0 0 0 0 0 0 0 0 0

Total # of neighbors = 110880
Ave neighs/atom = 38.0769
Neighbor list builds = 0
Dangerous builds = 0
	# write_dump all atom ${dumpfile}
        next i
jump SELF loop1
        displace_atoms upper move 0.0 ${ystep1} 0.0 units lattice
        displace_atoms upper move 0.0 0.00288675134594812 0.0 units lattice
        min_style ${style}
        min_style hftn
        minimize ${etol} ${ftol} ${maxiter} ${maxeval}
        minimize 1e-12 ${ftol} ${maxiter} ${maxeval}
        minimize 1e-12 1e-08 ${maxiter} ${maxeval}
        minimize 1e-12 1e-08 10000 ${maxeval}
        minimize 1e-12 1e-08 10000 20000
WARNING: Resetting reneighboring criteria during minimization (../min.cpp:168)
Memory usage per processor = 5.28733 Mbytes
Step Temp PotEng Lx Ly Lz 
      16            0    -17279.99     6.928552    75.560874    4.0002014 
Loop time of 0.0358399 on 1 procs for 0 steps with 2912 atoms

Minimization stats:
  Stopping criterion = force tolerance
  Energy initial, next-to-last, final = 
        -17279.9900092     -17279.9900092     -17279.9900092
  Force two-norm initial, final = 9.86798e-11 9.86798e-11
  Force max component initial, final = 3.19188e-12 3.19188e-12
  Final line search alpha, max atom move = 0 0
  Iterations, force evaluations = 0 0

Pair  time (%) = 0.035431 (98.8592)
Neigh time (%) = 0 (0)
Comm  time (%) = 0.000375798 (1.04855)
Outpt time (%) = 0 (0)
Other time (%) = 3.30574e-05 (0.0922364)

Nlocal:    2912 ave 2912 max 2912 min
Histogram: 1 0 0 0 0 0 0 0 0 0
Nghost:    7129 ave 7129 max 7129 min
Histogram: 1 0 0 0 0 0 0 0 0 0
Neighs:    110880 ave 110880 max 110880 min
Histogram: 1 0 0 0 0 0 0 0 0 0

Total # of neighbors = 110880
Ave neighs/atom = 38.0769
Neighbor list builds = 0
Dangerous builds = 0
	# write_dump all atom ${dumpfile}
        next i
jump SELF loop1
        displace_atoms upper move 0.0 ${ystep1} 0.0 units lattice
        displace_atoms upper move 0.0 0.00288675134594812 0.0 units lattice
        min_style ${style}
        min_style hftn
        minimize ${etol} ${ftol} ${maxiter} ${maxeval}
        minimize 1e-12 ${ftol} ${maxiter} ${maxeval}
        minimize 1e-12 1e-08 ${maxiter} ${maxeval}
        minimize 1e-12 1e-08 10000 ${maxeval}
        minimize 1e-12 1e-08 10000 20000
WARNING: Resetting reneighboring criteria during minimization (../min.cpp:168)
Memory usage per processor = 5.28733 Mbytes
Step Temp PotEng Lx Ly Lz 
      16            0    -17279.99     6.928552    75.567945    4.0002014 
Loop time of 0.044574 on 1 procs for 0 steps with 2912 atoms

Minimization stats:
  Stopping criterion = force tolerance
  Energy initial, next-to-last, final = 
        -17279.9900092     -17279.9900092     -17279.9900092
  Force two-norm initial, final = 9.86802e-11 9.86802e-11
  Force max component initial, final = 3.19188e-12 3.19188e-12
  Final line search alpha, max atom move = 0 0
  Iterations, force evaluations = 0 0

Pair  time (%) = 0.0441409 (99.0284)
Neigh time (%) = 0 (0)
Comm  time (%) = 0.000414092 (0.928999)
Outpt time (%) = 0 (0)
Other time (%) = 1.9002e-05 (0.0426303)

Nlocal:    2912 ave 2912 max 2912 min
Histogram: 1 0 0 0 0 0 0 0 0 0
Nghost:    7129 ave 7129 max 7129 min
Histogram: 1 0 0 0 0 0 0 0 0 0
Neighs:    110880 ave 110880 max 110880 min
Histogram: 1 0 0 0 0 0 0 0 0 0

Total # of neighbors = 110880
Ave neighs/atom = 38.0769
Neighbor list builds = 0
Dangerous builds = 0
	# write_dump all atom ${dumpfile}
        next i
jump SELF loop1
        displace_atoms upper move 0.0 ${ystep1} 0.0 units lattice
        displace_atoms upper move 0.0 0.00288675134594812 0.0 units lattice
        min_style ${style}
        min_style hftn
        minimize ${etol} ${ftol} ${maxiter} ${maxeval}
        minimize 1e-12 ${ftol} ${maxiter} ${maxeval}
        minimize 1e-12 1e-08 ${maxiter} ${maxeval}
        minimize 1e-12 1e-08 10000 ${maxeval}
        minimize 1e-12 1e-08 10000 20000
WARNING: Resetting reneighboring criteria during minimization (../min.cpp:168)
Memory usage per processor = 5.28733 Mbytes
Step Temp PotEng Lx Ly Lz 
      16            0    -17279.99     6.928552    75.575017    4.0002014 
Loop time of 0.050168 on 1 procs for 0 steps with 2912 atoms

Minimization stats:
  Stopping criterion = force tolerance
  Energy initial, next-to-last, final = 
        -17279.9900092     -17279.9900092     -17279.9900092
  Force two-norm initial, final = 9.86798e-11 9.86798e-11
  Force max component initial, final = 3.19188e-12 3.19188e-12
  Final line search alpha, max atom move = 0 0
  Iterations, force evaluations = 0 0

Pair  time (%) = 0.049629 (98.9256)
Neigh time (%) = 0 (0)
Comm  time (%) = 0.000494924 (0.986533)
Outpt time (%) = 0 (0)
Other time (%) = 4.40907e-05 (0.087886)

Nlocal:    2912 ave 2912 max 2912 min
Histogram: 1 0 0 0 0 0 0 0 0 0
Nghost:    7129 ave 7129 max 7129 min
Histogram: 1 0 0 0 0 0 0 0 0 0
Neighs:    110880 ave 110880 max 110880 min
Histogram: 1 0 0 0 0 0 0 0 0 0

Total # of neighbors = 110880
Ave neighs/atom = 38.0769
Neighbor list builds = 0
Dangerous builds = 0
	# write_dump all atom ${dumpfile}
        next i
jump SELF loop1
        displace_atoms upper move 0.0 ${ystep1} 0.0 units lattice
        displace_atoms upper move 0.0 0.00288675134594812 0.0 units lattice
        min_style ${style}
        min_style hftn
        minimize ${etol} ${ftol} ${maxiter} ${maxeval}
        minimize 1e-12 ${ftol} ${maxiter} ${maxeval}
        minimize 1e-12 1e-08 ${maxiter} ${maxeval}
        minimize 1e-12 1e-08 10000 ${maxeval}
        minimize 1e-12 1e-08 10000 20000
WARNING: Resetting reneighboring criteria during minimization (../min.cpp:168)
Memory usage per processor = 5.28733 Mbytes
Step Temp PotEng Lx Ly Lz 
      16            0    -17279.99     6.928552    75.582088    4.0002014 
Loop time of 0.0357381 on 1 procs for 0 steps with 2912 atoms

Minimization stats:
  Stopping criterion = force tolerance
  Energy initial, next-to-last, final = 
        -17279.9900092     -17279.9900092     -17279.9900092
  Force two-norm initial, final = 9.868e-11 9.868e-11
  Force max component initial, final = 3.19188e-12 3.19188e-12
  Final line search alpha, max atom move = 0 0
  Iterations, force evaluations = 0 0

Pair  time (%) = 0.035284 (98.7294)
Neigh time (%) = 0 (0)
Comm  time (%) = 0.000400848 (1.12163)
Outpt time (%) = 0 (0)
Other time (%) = 5.32459e-05 (0.148989)

Nlocal:    2912 ave 2912 max 2912 min
Histogram: 1 0 0 0 0 0 0 0 0 0
Nghost:    7129 ave 7129 max 7129 min
Histogram: 1 0 0 0 0 0 0 0 0 0
Neighs:    110880 ave 110880 max 110880 min
Histogram: 1 0 0 0 0 0 0 0 0 0

Total # of neighbors = 110880
Ave neighs/atom = 38.0769
Neighbor list builds = 0
Dangerous builds = 0
	# write_dump all atom ${dumpfile}
        next i
jump SELF loop1
        displace_atoms upper move 0.0 ${ystep1} 0.0 units lattice
        displace_atoms upper move 0.0 0.00288675134594812 0.0 units lattice
        min_style ${style}
        min_style hftn
        minimize ${etol} ${ftol} ${maxiter} ${maxeval}
        minimize 1e-12 ${ftol} ${maxiter} ${maxeval}
        minimize 1e-12 1e-08 ${maxiter} ${maxeval}
        minimize 1e-12 1e-08 10000 ${maxeval}
        minimize 1e-12 1e-08 10000 20000
WARNING: Resetting reneighboring criteria during minimization (../min.cpp:168)
Memory usage per processor = 5.28733 Mbytes
Step Temp PotEng Lx Ly Lz 
      16            0    -17279.99     6.928552    75.589159    4.0002014 
Loop time of 0.03647 on 1 procs for 0 steps with 2912 atoms

Minimization stats:
  Stopping criterion = force tolerance
  Energy initial, next-to-last, final = 
        -17279.9900092     -17279.9900092     -17279.9900092
  Force two-norm initial, final = 9.86798e-11 9.86798e-11
  Force max component initial, final = 3.19188e-12 3.19188e-12
  Final line search alpha, max atom move = 0 0
  Iterations, force evaluations = 0 0

Pair  time (%) = 0.0359699 (98.6288)
Neigh time (%) = 0 (0)
Comm  time (%) = 0.000467052 (1.28065)
Outpt time (%) = 0 (0)
Other time (%) = 3.30419e-05 (0.0906002)

Nlocal:    2912 ave 2912 max 2912 min
Histogram: 1 0 0 0 0 0 0 0 0 0
Nghost:    7129 ave 7129 max 7129 min
Histogram: 1 0 0 0 0 0 0 0 0 0
Neighs:    110880 ave 110880 max 110880 min
Histogram: 1 0 0 0 0 0 0 0 0 0

Total # of neighbors = 110880
Ave neighs/atom = 38.0769
Neighbor list builds = 0
Dangerous builds = 0
	# write_dump all atom ${dumpfile}
        next i
jump SELF loop1
        displace_atoms upper move 0.0 ${ystep1} 0.0 units lattice
        displace_atoms upper move 0.0 0.00288675134594812 0.0 units lattice
        min_style ${style}
        min_style hftn
        minimize ${etol} ${ftol} ${maxiter} ${maxeval}
        minimize 1e-12 ${ftol} ${maxiter} ${maxeval}
        minimize 1e-12 1e-08 ${maxiter} ${maxeval}
        minimize 1e-12 1e-08 10000 ${maxeval}
        minimize 1e-12 1e-08 10000 20000
WARNING: Resetting reneighboring criteria during minimization (../min.cpp:168)
Memory usage per processor = 5.28733 Mbytes
Step Temp PotEng Lx Ly Lz 
      16            0    -17279.99     6.928552    75.596231    4.0002014 
Loop time of 0.0373801 on 1 procs for 0 steps with 2912 atoms

Minimization stats:
  Stopping criterion = force tolerance
  Energy initial, next-to-last, final = 
        -17279.9900092     -17279.9900092     -17279.9900092
  Force two-norm initial, final = 9.86801e-11 9.86801e-11
  Force max component initial, final = 3.19188e-12 3.19188e-12
  Final line search alpha, max atom move = 0 0
  Iterations, force evaluations = 0 0

Pair  time (%) = 0.0368401 (98.5554)
Neigh time (%) = 0 (0)
Comm  time (%) = 0.000491087 (1.31377)
Outpt time (%) = 0 (0)
Other time (%) = 4.89205e-05 (0.130873)

Nlocal:    2912 ave 2912 max 2912 min
Histogram: 1 0 0 0 0 0 0 0 0 0
Nghost:    7129 ave 7129 max 7129 min
Histogram: 1 0 0 0 0 0 0 0 0 0
Neighs:    110880 ave 110880 max 110880 min
Histogram: 1 0 0 0 0 0 0 0 0 0

Total # of neighbors = 110880
Ave neighs/atom = 38.0769
Neighbor list builds = 0
Dangerous builds = 0
	# write_dump all atom ${dumpfile}
        next i
jump SELF loop1
        displace_atoms upper move 0.0 ${ystep1} 0.0 units lattice
        displace_atoms upper move 0.0 0.00288675134594812 0.0 units lattice
        min_style ${style}
        min_style hftn
        minimize ${etol} ${ftol} ${maxiter} ${maxeval}
        minimize 1e-12 ${ftol} ${maxiter} ${maxeval}
        minimize 1e-12 1e-08 ${maxiter} ${maxeval}
        minimize 1e-12 1e-08 10000 ${maxeval}
        minimize 1e-12 1e-08 10000 20000
WARNING: Resetting reneighboring criteria during minimization (../min.cpp:168)
Memory usage per processor = 5.28733 Mbytes
Step Temp PotEng Lx Ly Lz 
      16            0    -17279.99     6.928552    75.603302    4.0002014 
Loop time of 0.035735 on 1 procs for 0 steps with 2912 atoms

Minimization stats:
  Stopping criterion = force tolerance
  Energy initial, next-to-last, final = 
        -17279.9900092     -17279.9900092     -17279.9900092
  Force two-norm initial, final = 9.86797e-11 9.86797e-11
  Force max component initial, final = 3.19188e-12 3.19188e-12
  Final line search alpha, max atom move = 0 0
  Iterations, force evaluations = 0 0

Pair  time (%) = 0.035207 (98.5225)
Neigh time (%) = 0 (0)
Comm  time (%) = 0.000458043 (1.28178)
Outpt time (%) = 0 (0)
Other time (%) = 6.99336e-05 (0.195701)

Nlocal:    2912 ave 2912 max 2912 min
Histogram: 1 0 0 0 0 0 0 0 0 0
Nghost:    7129 ave 7129 max 7129 min
Histogram: 1 0 0 0 0 0 0 0 0 0
Neighs:    110880 ave 110880 max 110880 min
Histogram: 1 0 0 0 0 0 0 0 0 0

Total # of neighbors = 110880
Ave neighs/atom = 38.0769
Neighbor list builds = 0
Dangerous builds = 0
	# write_dump all atom ${dumpfile}
        next i
jump SELF loop1
        displace_atoms upper move 0.0 ${ystep1} 0.0 units lattice
        displace_atoms upper move 0.0 0.00288675134594812 0.0 units lattice
        min_style ${style}
        min_style hftn
        minimize ${etol} ${ftol} ${maxiter} ${maxeval}
        minimize 1e-12 ${ftol} ${maxiter} ${maxeval}
        minimize 1e-12 1e-08 ${maxiter} ${maxeval}
        minimize 1e-12 1e-08 10000 ${maxeval}
        minimize 1e-12 1e-08 10000 20000
WARNING: Resetting reneighboring criteria during minimization (../min.cpp:168)
Memory usage per processor = 5.28733 Mbytes
Step Temp PotEng Lx Ly Lz 
      16            0    -17279.99     6.928552    75.610374    4.0002014 
Loop time of 0.0367001 on 1 procs for 0 steps with 2912 atoms

Minimization stats:
  Stopping criterion = force tolerance
  Energy initial, next-to-last, final = 
        -17279.9900092     -17279.9900092     -17279.9900092
  Force two-norm initial, final = 9.86801e-11 9.86801e-11
  Force max component initial, final = 3.19188e-12 3.19188e-12
  Final line search alpha, max atom move = 0 0
  Iterations, force evaluations = 0 0

Pair  time (%) = 0.036373 (99.1086)
Neigh time (%) = 0 (0)
Comm  time (%) = 0.000292132 (0.795998)
Outpt time (%) = 0 (0)
Other time (%) = 3.50083e-05 (0.0953902)

Nlocal:    2912 ave 2912 max 2912 min
Histogram: 1 0 0 0 0 0 0 0 0 0
Nghost:    7129 ave 7129 max 7129 min
Histogram: 1 0 0 0 0 0 0 0 0 0
Neighs:    110880 ave 110880 max 110880 min
Histogram: 1 0 0 0 0 0 0 0 0 0

Total # of neighbors = 110880
Ave neighs/atom = 38.0769
Neighbor list builds = 0
Dangerous builds = 0
	# write_dump all atom ${dumpfile}
        next i
jump SELF loop1
        displace_atoms upper move 0.0 ${ystep1} 0.0 units lattice
        displace_atoms upper move 0.0 0.00288675134594812 0.0 units lattice
        min_style ${style}
        min_style hftn
        minimize ${etol} ${ftol} ${maxiter} ${maxeval}
        minimize 1e-12 ${ftol} ${maxiter} ${maxeval}
        minimize 1e-12 1e-08 ${maxiter} ${maxeval}
        minimize 1e-12 1e-08 10000 ${maxeval}
        minimize 1e-12 1e-08 10000 20000
WARNING: Resetting reneighboring criteria during minimization (../min.cpp:168)
Memory usage per processor = 5.28733 Mbytes
Step Temp PotEng Lx Ly Lz 
      16            0    -17279.99     6.928552    75.617445    4.0002014 
Loop time of 0.0356391 on 1 procs for 0 steps with 2912 atoms

Minimization stats:
  Stopping criterion = force tolerance
  Energy initial, next-to-last, final = 
        -17279.9900092     -17279.9900092     -17279.9900092
  Force two-norm initial, final = 9.86797e-11 9.86797e-11
  Force max component initial, final = 3.19188e-12 3.19188e-12
  Final line search alpha, max atom move = 0 0
  Iterations, force evaluations = 0 0

Pair  time (%) = 0.035173 (98.6922)
Neigh time (%) = 0 (0)
Comm  time (%) = 0.000431964 (1.21205)
Outpt time (%) = 0 (0)
Other time (%) = 3.41301e-05 (0.0957658)

Nlocal:    2912 ave 2912 max 2912 min
Histogram: 1 0 0 0 0 0 0 0 0 0
Nghost:    7129 ave 7129 max 7129 min
Histogram: 1 0 0 0 0 0 0 0 0 0
Neighs:    110880 ave 110880 max 110880 min
Histogram: 1 0 0 0 0 0 0 0 0 0

Total # of neighbors = 110880
Ave neighs/atom = 38.0769
Neighbor list builds = 0
Dangerous builds = 0
	# write_dump all atom ${dumpfile}
        next i
jump SELF loop1
        displace_atoms upper move 0.0 ${ystep1} 0.0 units lattice
        displace_atoms upper move 0.0 0.00288675134594812 0.0 units lattice
        min_style ${style}
        min_style hftn
        minimize ${etol} ${ftol} ${maxiter} ${maxeval}
        minimize 1e-12 ${ftol} ${maxiter} ${maxeval}
        minimize 1e-12 1e-08 ${maxiter} ${maxeval}
        minimize 1e-12 1e-08 10000 ${maxeval}
        minimize 1e-12 1e-08 10000 20000
WARNING: Resetting reneighboring criteria during minimization (../min.cpp:168)
Memory usage per processor = 5.28733 Mbytes
Step Temp PotEng Lx Ly Lz 
      16            0    -17279.99     6.928552    75.624516    4.0002014 
Loop time of 0.0367839 on 1 procs for 0 steps with 2912 atoms

Minimization stats:
  Stopping criterion = force tolerance
  Energy initial, next-to-last, final = 
        -17279.9900092     -17279.9900092     -17279.9900092
  Force two-norm initial, final = 9.868e-11 9.868e-11
  Force max component initial, final = 3.19188e-12 3.19188e-12
  Final line search alpha, max atom move = 0 0
  Iterations, force evaluations = 0 0

Pair  time (%) = 0.036303 (98.6928)
Neigh time (%) = 0 (0)
Comm  time (%) = 0.000448943 (1.22049)
Outpt time (%) = 0 (0)
Other time (%) = 3.19122e-05 (0.086756)

Nlocal:    2912 ave 2912 max 2912 min
Histogram: 1 0 0 0 0 0 0 0 0 0
Nghost:    7129 ave 7129 max 7129 min
Histogram: 1 0 0 0 0 0 0 0 0 0
Neighs:    110880 ave 110880 max 110880 min
Histogram: 1 0 0 0 0 0 0 0 0 0

Total # of neighbors = 110880
Ave neighs/atom = 38.0769
Neighbor list builds = 0
Dangerous builds = 0
	# write_dump all atom ${dumpfile}
        next i
jump SELF loop1

# allow atoms to relax in y-direction, now that two halves have separated
unfix 2
min_style ${style}
min_style hftn
minimize ${etol} ${ftol} ${maxiter} ${maxeval}
minimize 1e-12 ${ftol} ${maxiter} ${maxeval}
minimize 1e-12 1e-08 ${maxiter} ${maxeval}
minimize 1e-12 1e-08 10000 ${maxeval}
minimize 1e-12 1e-08 10000 20000
WARNING: Resetting reneighboring criteria during minimization (../min.cpp:168)
Memory usage per processor = 5.28733 Mbytes
Step Temp PotEng Lx Ly Lz 
      16            0    -17279.99     6.928552    75.624516    4.0002014 
      17            0    -17279.99     6.928552    75.624516    4.0002014 
      18            0    -17279.99     6.928552    75.624516    4.0002014 
      19            0    -17279.99     6.928552    75.624516    4.0002014 
      20            0    -17279.99     6.928552    75.624516    4.0002014 
      21            0    -17279.99     6.928552    75.624516    4.0002014 
      22            0    -17279.99     6.928552    75.624516    4.0002014 
      23            0    -17279.99     6.928552    75.624516    4.0002014 
      24            0    -17279.99     6.928552    75.624516    4.0002014 
      25            0    -17279.99     6.928552    75.624516    4.0002014 
      26            0    -17279.99     6.928552    75.624516    4.0002014 
      27            0    -17279.99     6.928552    75.624516    4.0002014 
      28            0    -17279.99     6.928552    75.624516    4.0002014 
      29            0    -17279.99     6.928552    75.624516    4.0002014 
      30            0    -17279.99     6.928552    75.624516    4.0002014 
      31            0    -17279.99     6.928552    75.624516    4.0002014 
      32            0    -17279.99     6.928552    75.624516    4.0002014 
      33            0    -17279.99     6.928552    75.624516    4.0002014 
      34            0    -17279.99     6.928552    75.624516    4.0002014 
Loop time of 6.19648 on 1 procs for 17 steps with 2912 atoms

Minimization stats:
  Stopping criterion = energy tolerance
  Energy initial, next-to-last, final = 
        -17279.9900092     -17279.9902772     -17279.9903331
  Force two-norm initial, final = 0.148134 0.0651415
  Force max component initial, final = 0.0130933 0.00329485
  Final line search alpha, max atom move = 0 0
  Iterations, force evaluations = 17 180

Pair  time (%) = 6.08464 (98.1952)
Neigh time (%) = 0 (0)
Comm  time (%) = 0.0895993 (1.44597)
Outpt time (%) = 0.00196766 (0.0317545)
Other time (%) = 0.0202645 (0.327033)

Nlocal:    2912 ave 2912 max 2912 min
Histogram: 1 0 0 0 0 0 0 0 0 0
Nghost:    7129 ave 7129 max 7129 min
Histogram: 1 0 0 0 0 0 0 0 0 0
Neighs:    110880 ave 110880 max 110880 min
Histogram: 1 0 0 0 0 0 0 0 0 0

Total # of neighbors = 110880
Ave neighs/atom = 38.0769
Neighbor list builds = 0
Dangerous builds = 0

write_dump all atom ${dumpfile}
write_dump all atom surf_V_inter23_3d.*.dump


