LAMMPS (28 Jun 2014)
# attempt at getting surface energy

#file prefix
variable prefix string surf_V_inter2newnorm
variable dumpfile string ${prefix}.*.dump
variable dumpfile string surf_V_inter2newnorm.*.dump
variable restartfile string ${prefix}.*.equil
variable restartfile string surf_V_inter2newnorm.*.equil

#Mass (g/mol)
variable m equal 1

# lattice constant (in Angstroms) and orientation of axes (given by lattice vectors)
variable rho equal 1.1547
variable x1 equal 1
variable x2 equal 0
variable x3 equal 0
variable y1 equal 0
variable y2 equal 1
variable y3 equal 0
# length of lattice in different directions (using orientation of lattice vectors)
variable ax equal sqrt(${x1}*${x1}+${x2}*${x2}+${x3}*${x3})
variable ax equal sqrt(1*${x1}+${x2}*${x2}+${x3}*${x3})
variable ax equal sqrt(1*1+${x2}*${x2}+${x3}*${x3})
variable ax equal sqrt(1*1+0*${x2}+${x3}*${x3})
variable ax equal sqrt(1*1+0*0+${x3}*${x3})
variable ax equal sqrt(1*1+0*0+0*${x3})
variable ax equal sqrt(1*1+0*0+0*0)
variable ay equal sqrt(${y1}*${y1}+${y2}*${y2}+${y3}*${y3})
variable ay equal sqrt(0*${y1}+${y2}*${y2}+${y3}*${y3})
variable ay equal sqrt(0*0+${y2}*${y2}+${y3}*${y3})
variable ay equal sqrt(0*0+1*${y2}+${y3}*${y3})
variable ay equal sqrt(0*0+1*1+${y3}*${y3})
variable ay equal sqrt(0*0+1*1+0*${y3})
variable ay equal sqrt(0*0+1*1+0*0)
variable az equal 1

# size of box in lattice units
variable lxpos equal 1
variable lxneg equal 0
variable lypos equal 10
variable lyneg equal -1*${lypos}
variable lyneg equal -1*10
variable lzpos equal 1
variable lzneg equal 0

# Define minimization parameters and damping
variable etol equal 1.0e-12
variable ftol equal 1.0e-8
variable maxiter equal 10000
variable maxeval equal 20000
variable style string cg

# boundary conditions
dimension	2
boundary	p s p
atom_style	atomic

# create geometry
units		lj
lattice         hex ${rho}
lattice         hex 1.1547
Lattice spacing in x,y,z = 1 1.73205 1
region		myregion block ${lxneg} ${lxpos} ${lyneg} ${lypos} ${lzneg} ${lzpos} units lattice
region		myregion block 0 ${lxpos} ${lyneg} ${lypos} ${lzneg} ${lzpos} units lattice
region		myregion block 0 1 ${lyneg} ${lypos} ${lzneg} ${lzpos} units lattice
region		myregion block 0 1 -10 ${lypos} ${lzneg} ${lzpos} units lattice
region		myregion block 0 1 -10 10 ${lzneg} ${lzpos} units lattice
region		myregion block 0 1 -10 10 0 ${lzpos} units lattice
region		myregion block 0 1 -10 10 0 1 units lattice
create_box	1 myregion
Created orthogonal box = (0 -17.3205 0) to (1 17.3205 1)
  1 by 1 by 1 MPI processor grid
create_atoms	1 box
Created 41 atoms

# define masses
mass * $m
mass * 1

# my fake/morse potential
pair_style      table linear 3001
pair_coeff      * * vpotential_inter2newnorm dummy
neighbor	0.3 bin
neigh_modify	delay 5

# define groups
region	    upper block INF INF 0.01 ${lypos} INF INF units lattice
region	    upper block INF INF 0.01 10 INF INF units lattice
group		upper region upper
20 atoms in group upper

# Setup output
thermo 1
thermo_style custom step temp pe lx ly lz
thermo_modify norm no

# Compute initial state by relaxing box
min_style ${style}
min_style cg
minimize ${etol} ${ftol} ${maxiter} ${maxeval}
minimize 1e-12 ${ftol} ${maxiter} ${maxeval}
minimize 1e-12 1e-08 ${maxiter} ${maxeval}
minimize 1e-12 1e-08 10000 ${maxeval}
minimize 1e-12 1e-08 10000 20000
WARNING: Resetting reneighboring criteria during minimization (../min.cpp:168)
Memory usage per processor = 3.35952 Mbytes
Step Temp PotEng Lx Ly Lz 
       0            0   -120.99996    1.0000002    34.647952    1.0000002 
       1            0   -120.99996    1.0000002    34.647952    1.0000002 
Loop time of 4.39258e-05 on 1 procs for 1 steps with 41 atoms

Minimization stats:
  Stopping criterion = linesearch alpha is zero
  Energy initial, next-to-last, final = 
        -120.999955904     -120.999955904     -120.999955904
  Force two-norm initial, final = 4.32358e-06 4.32358e-06
  Force max component initial, final = 3.05723e-06 3.05723e-06
  Final line search alpha, max atom move = 0.5 1.52862e-06
  Iterations, force evaluations = 1 2

Pair  time (%) = 2.48553e-05 (56.5846)
Neigh time (%) = 0 (0)
Comm  time (%) = 5.20656e-06 (11.8531)
Outpt time (%) = 0 (0)
Other time (%) = 1.3864e-05 (31.5623)

Nlocal:    41 ave 41 max 41 min
Histogram: 1 0 0 0 0 0 0 0 0 0
Nghost:    185 ave 185 max 185 min
Histogram: 1 0 0 0 0 0 0 0 0 0
Neighs:    359 ave 359 max 359 min
Histogram: 1 0 0 0 0 0 0 0 0 0

Total # of neighbors = 359
Ave neighs/atom = 8.7561
Neighbor list builds = 0
Dangerous builds = 0

# don't allow atoms to relax in y-direction
fix 2 all setforce NULL 0.0 NULL

# Energy curve will have nstep steps
variable nsteps equal 500
variable sstep1 equal 1.0
variable ystep1 equal ${sstep1}/(${ay}*${nsteps})
variable ystep1 equal 1/(${ay}*${nsteps})
variable ystep1 equal 1/(1*${nsteps})
variable ystep1 equal 1/(1*500)

variable i loop ${nsteps}
variable i loop 500
label loop1
        displace_atoms upper move 0.0 ${ystep1} 0.0 units lattice
        displace_atoms upper move 0.0 0.002 0.0 units lattice
        min_style ${style}
        min_style cg
        minimize ${etol} ${ftol} ${maxiter} ${maxeval}
        minimize 1e-12 ${ftol} ${maxiter} ${maxeval}
        minimize 1e-12 1e-08 ${maxiter} ${maxeval}
        minimize 1e-12 1e-08 10000 ${maxeval}
        minimize 1e-12 1e-08 10000 20000
WARNING: Resetting reneighboring criteria during minimization (../min.cpp:168)
Memory usage per processor = 3.35952 Mbytes
Step Temp PotEng Lx Ly Lz 
       1            0   -120.99968    1.0000002    34.651417    1.0000002 
       2            0   -120.99968    1.0000002    34.651417    1.0000002 
Loop time of 0.00013803 on 1 procs for 1 steps with 41 atoms

Minimization stats:
  Stopping criterion = linesearch alpha is zero
  Energy initial, next-to-last, final = 
        -120.999678504     -120.999678504     -120.999678504
  Force two-norm initial, final = 2.15316e-18 2.15316e-18
  Force max component initial, final = 1.89905e-18 1.89905e-18
  Final line search alpha, max atom move = 0.5 9.49524e-19
  Iterations, force evaluations = 1 2

Pair  time (%) = 2.18897e-05 (15.8587)
Neigh time (%) = 0 (0)
Comm  time (%) = 2.94438e-06 (2.13314)
Outpt time (%) = 0 (0)
Other time (%) = 0.000113196 (82.0082)

Nlocal:    41 ave 41 max 41 min
Histogram: 1 0 0 0 0 0 0 0 0 0
Nghost:    185 ave 185 max 185 min
Histogram: 1 0 0 0 0 0 0 0 0 0
Neighs:    359 ave 359 max 359 min
Histogram: 1 0 0 0 0 0 0 0 0 0

Total # of neighbors = 359
Ave neighs/atom = 8.7561
Neighbor list builds = 0
Dangerous builds = 0
	# write_dump all atom ${dumpfile}
        next i
jump SELF loop1
        displace_atoms upper move 0.0 ${ystep1} 0.0 units lattice
        displace_atoms upper move 0.0 0.002 0.0 units lattice
        min_style ${style}
        min_style cg
        minimize ${etol} ${ftol} ${maxiter} ${maxeval}
        minimize 1e-12 ${ftol} ${maxiter} ${maxeval}
        minimize 1e-12 1e-08 ${maxiter} ${maxeval}
        minimize 1e-12 1e-08 10000 ${maxeval}
        minimize 1e-12 1e-08 10000 20000
WARNING: Resetting reneighboring criteria during minimization (../min.cpp:168)
Memory usage per processor = 3.35952 Mbytes
Step Temp PotEng Lx Ly Lz 
       2            0   -120.99887    1.0000002    34.654881    1.0000002 
       3            0   -120.99887    1.0000002    34.654881    1.0000002 
Loop time of 3.80279e-05 on 1 procs for 1 steps with 41 atoms

Minimization stats:
  Stopping criterion = linesearch alpha is zero
  Energy initial, next-to-last, final = 
        -120.998868755     -120.998868755     -120.998868755
  Force two-norm initial, final = 6.03425e-18 6.03425e-18
  Force max component initial, final = 5.72764e-18 5.72764e-18
  Final line search alpha, max atom move = 0.5 2.86382e-18
  Iterations, force evaluations = 1 2

Pair  time (%) = 2.38834e-05 (62.805)
Neigh time (%) = 0 (0)
Comm  time (%) = 2.02446e-06 (5.32363)
Outpt time (%) = 0 (0)
Other time (%) = 1.212e-05 (31.8714)

Nlocal:    41 ave 41 max 41 min
Histogram: 1 0 0 0 0 0 0 0 0 0
Nghost:    185 ave 185 max 185 min
Histogram: 1 0 0 0 0 0 0 0 0 0
Neighs:    359 ave 359 max 359 min
Histogram: 1 0 0 0 0 0 0 0 0 0

Total # of neighbors = 359
Ave neighs/atom = 8.7561
Neighbor list builds = 0
Dangerous builds = 0
	# write_dump all atom ${dumpfile}
        next i
jump SELF loop1
        displace_atoms upper move 0.0 ${ystep1} 0.0 units lattice
        displace_atoms upper move 0.0 0.002 0.0 units lattice
        min_style ${style}
        min_style cg
        minimize ${etol} ${ftol} ${maxiter} ${maxeval}
        minimize 1e-12 ${ftol} ${maxiter} ${maxeval}
        minimize 1e-12 1e-08 ${maxiter} ${maxeval}
        minimize 1e-12 1e-08 10000 ${maxeval}
        minimize 1e-12 1e-08 10000 20000
WARNING: Resetting reneighboring criteria during minimization (../min.cpp:168)
Memory usage per processor = 3.35952 Mbytes
Step Temp PotEng Lx Ly Lz 
       3            0   -120.99753    1.0000002    34.658345    1.0000002 
       4            0   -120.99753    1.0000002    34.658345    1.0000002 
Loop time of 3.80825e-05 on 1 procs for 1 steps with 41 atoms

Minimization stats:
  Stopping criterion = linesearch alpha is zero
  Energy initial, next-to-last, final = 
        -120.997532764     -120.997532764     -120.997532764
  Force two-norm initial, final = 4.90096e-18 4.90096e-18
  Force max component initial, final = 4.51807e-18 4.51807e-18
  Final line search alpha, max atom move = 0.5 2.25904e-18
  Iterations, force evaluations = 1 2

Pair  time (%) = 2.49083e-05 (65.4063)
Neigh time (%) = 0 (0)
Comm  time (%) = 4.88223e-06 (12.8201)
Outpt time (%) = 0 (0)
Other time (%) = 8.29191e-06 (21.7736)

Nlocal:    41 ave 41 max 41 min
Histogram: 1 0 0 0 0 0 0 0 0 0
Nghost:    185 ave 185 max 185 min
Histogram: 1 0 0 0 0 0 0 0 0 0
Neighs:    359 ave 359 max 359 min
Histogram: 1 0 0 0 0 0 0 0 0 0

Total # of neighbors = 359
Ave neighs/atom = 8.7561
Neighbor list builds = 0
Dangerous builds = 0
	# write_dump all atom ${dumpfile}
        next i
jump SELF loop1
        displace_atoms upper move 0.0 ${ystep1} 0.0 units lattice
        displace_atoms upper move 0.0 0.002 0.0 units lattice
        min_style ${style}
        min_style cg
        minimize ${etol} ${ftol} ${maxiter} ${maxeval}
        minimize 1e-12 ${ftol} ${maxiter} ${maxeval}
        minimize 1e-12 1e-08 ${maxiter} ${maxeval}
        minimize 1e-12 1e-08 10000 ${maxeval}
        minimize 1e-12 1e-08 10000 20000
WARNING: Resetting reneighboring criteria during minimization (../min.cpp:168)
Memory usage per processor = 3.35952 Mbytes
Step Temp PotEng Lx Ly Lz 
       4            0    -120.9957    1.0000002    34.661809    1.0000002 
       5            0    -120.9957    1.0000002    34.661809    1.0000002 
Loop time of 3.78963e-05 on 1 procs for 1 steps with 41 atoms

Minimization stats:
  Stopping criterion = linesearch alpha is zero
  Energy initial, next-to-last, final = 
        -120.995698063     -120.995698063     -120.995698063
  Force two-norm initial, final = 2.2616e-18 2.2616e-18
  Force max component initial, final = 1.89905e-18 1.89905e-18
  Final line search alpha, max atom move = 0.5 9.49524e-19
  Iterations, force evaluations = 1 2

Pair  time (%) = 2.31578e-05 (61.1083)
Neigh time (%) = 0 (0)
Comm  time (%) = 2.81143e-06 (7.41874)
Outpt time (%) = 0 (0)
Other time (%) = 1.19271e-05 (31.473)

Nlocal:    41 ave 41 max 41 min
Histogram: 1 0 0 0 0 0 0 0 0 0
Nghost:    185 ave 185 max 185 min
Histogram: 1 0 0 0 0 0 0 0 0 0
Neighs:    359 ave 359 max 359 min
Histogram: 1 0 0 0 0 0 0 0 0 0

Total # of neighbors = 359
Ave neighs/atom = 8.7561
Neighbor list builds = 0
Dangerous builds = 0
	# write_dump all atom ${dumpfile}
        next i
jump SELF loop1
        displace_atoms upper move 0.0 ${ystep1} 0.0 units lattice
        displace_atoms upper move 0.0 0.002 0.0 units lattice
        min_style ${style}
        min_style cg
        minimize ${etol} ${ftol} ${maxiter} ${maxeval}
        minimize 1e-12 ${ftol} ${maxiter} ${maxeval}
        minimize 1e-12 1e-08 ${maxiter} ${maxeval}
        minimize 1e-12 1e-08 10000 ${maxeval}
        minimize 1e-12 1e-08 10000 20000
WARNING: Resetting reneighboring criteria during minimization (../min.cpp:168)
Memory usage per processor = 3.35952 Mbytes
Step Temp PotEng Lx Ly Lz 
       5            0   -120.99337    1.0000002    34.665273    1.0000002 
       6            0   -120.99337    1.0000002    34.665273    1.0000002 
Loop time of 3.80503e-05 on 1 procs for 1 steps with 41 atoms

Minimization stats:
  Stopping criterion = linesearch alpha is zero
  Energy initial, next-to-last, final = 
        -120.993372898     -120.993372898     -120.993372898
  Force two-norm initial, final = 4.52888e-18 4.52888e-18
  Force max component initial, final = 4.1115e-18 4.1115e-18
  Final line search alpha, max atom move = 0.5 2.05575e-18
  Iterations, force evaluations = 1 2

Pair  time (%) = 2.38121e-05 (62.5804)
Neigh time (%) = 0 (0)
Comm  time (%) = 4.12017e-06 (10.8282)
Outpt time (%) = 0 (0)
Other time (%) = 1.01181e-05 (26.5914)

Nlocal:    41 ave 41 max 41 min
Histogram: 1 0 0 0 0 0 0 0 0 0
Nghost:    185 ave 185 max 185 min
Histogram: 1 0 0 0 0 0 0 0 0 0
Neighs:    359 ave 359 max 359 min
Histogram: 1 0 0 0 0 0 0 0 0 0

Total # of neighbors = 359
Ave neighs/atom = 8.7561
Neighbor list builds = 0
Dangerous builds = 0
	# write_dump all atom ${dumpfile}
        next i
jump SELF loop1
        displace_atoms upper move 0.0 ${ystep1} 0.0 units lattice
        displace_atoms upper move 0.0 0.002 0.0 units lattice
        min_style ${style}
        min_style cg
        minimize ${etol} ${ftol} ${maxiter} ${maxeval}
        minimize 1e-12 ${ftol} ${maxiter} ${maxeval}
        minimize 1e-12 1e-08 ${maxiter} ${maxeval}
        minimize 1e-12 1e-08 10000 ${maxeval}
        minimize 1e-12 1e-08 10000 20000
WARNING: Resetting reneighboring criteria during minimization (../min.cpp:168)
Memory usage per processor = 3.35952 Mbytes
Step Temp PotEng Lx Ly Lz 
       6            0   -120.99058    1.0000002    34.668737    1.0000002 
       7            0   -120.99058    1.0000002    34.668737    1.0000002 
Loop time of 3.99702e-05 on 1 procs for 1 steps with 41 atoms

Minimization stats:
  Stopping criterion = linesearch alpha is zero
  Energy initial, next-to-last, final = 
        -120.990578934     -120.990578934     -120.990578934
  Force two-norm initial, final = 3.92401e-18 3.92401e-18
  Force max component initial, final = 3.43387e-18 3.43387e-18
  Final line search alpha, max atom move = 0.5 1.71694e-18
  Iterations, force evaluations = 1 2

Pair  time (%) = 2.37568e-05 (59.4362)
Neigh time (%) = 0 (0)
Comm  time (%) = 4.05591e-06 (10.1473)
Outpt time (%) = 0 (0)
Other time (%) = 1.21575e-05 (30.4164)

Nlocal:    41 ave 41 max 41 min
Histogram: 1 0 0 0 0 0 0 0 0 0
Nghost:    185 ave 185 max 185 min
Histogram: 1 0 0 0 0 0 0 0 0 0
Neighs:    359 ave 359 max 359 min
Histogram: 1 0 0 0 0 0 0 0 0 0

Total # of neighbors = 359
Ave neighs/atom = 8.7561
Neighbor list builds = 0
Dangerous builds = 0
	# write_dump all atom ${dumpfile}
        next i
jump SELF loop1
        displace_atoms upper move 0.0 ${ystep1} 0.0 units lattice
        displace_atoms upper move 0.0 0.002 0.0 units lattice
        min_style ${style}
        min_style cg
        minimize ${etol} ${ftol} ${maxiter} ${maxeval}
        minimize 1e-12 ${ftol} ${maxiter} ${maxeval}
        minimize 1e-12 1e-08 ${maxiter} ${maxeval}
        minimize 1e-12 1e-08 10000 ${maxeval}
        minimize 1e-12 1e-08 10000 20000
WARNING: Resetting reneighboring criteria during minimization (../min.cpp:168)
Memory usage per processor = 3.35952 Mbytes
Step Temp PotEng Lx Ly Lz 
       7            0   -120.98733    1.0000002    34.672201    1.0000002 
       8            0   -120.98733    1.0000002    34.672201    1.0000002 
Loop time of 3.80508e-05 on 1 procs for 1 steps with 41 atoms

Minimization stats:
  Stopping criterion = linesearch alpha is zero
  Energy initial, next-to-last, final = 
        -120.987330804     -120.987330804     -120.987330804
  Force two-norm initial, final = 3.09892e-17 3.09892e-17
  Force max component initial, final = 2.58565e-17 2.58565e-17
  Final line search alpha, max atom move = 0.5 1.29283e-17
  Iterations, force evaluations = 1 2

Pair  time (%) = 2.29059e-05 (60.1981)
Neigh time (%) = 0 (0)
Comm  time (%) = 4.21517e-06 (11.0777)
Outpt time (%) = 0 (0)
Other time (%) = 1.09298e-05 (28.7241)

Nlocal:    41 ave 41 max 41 min
Histogram: 1 0 0 0 0 0 0 0 0 0
Nghost:    185 ave 185 max 185 min
Histogram: 1 0 0 0 0 0 0 0 0 0
Neighs:    359 ave 359 max 359 min
Histogram: 1 0 0 0 0 0 0 0 0 0

Total # of neighbors = 359
Ave neighs/atom = 8.7561
Neighbor list builds = 0
Dangerous builds = 0
	# write_dump all atom ${dumpfile}
        next i
jump SELF loop1
        displace_atoms upper move 0.0 ${ystep1} 0.0 units lattice
        displace_atoms upper move 0.0 0.002 0.0 units lattice
        min_style ${style}
        min_style cg
        minimize ${etol} ${ftol} ${maxiter} ${maxeval}
        minimize 1e-12 ${ftol} ${maxiter} ${maxeval}
        minimize 1e-12 1e-08 ${maxiter} ${maxeval}
        minimize 1e-12 1e-08 10000 ${maxeval}
        minimize 1e-12 1e-08 10000 20000
WARNING: Resetting reneighboring criteria during minimization (../min.cpp:168)
Memory usage per processor = 3.35952 Mbytes
Step Temp PotEng Lx Ly Lz 
       8            0   -120.98364    1.0000002    34.675665    1.0000002 
       9            0   -120.98364    1.0000002    34.675665    1.0000002 
Loop time of 3.80259e-05 on 1 procs for 1 steps with 41 atoms

Minimization stats:
  Stopping criterion = linesearch alpha is zero
  Energy initial, next-to-last, final = 
        -120.983640945     -120.983640945     -120.983640945
  Force two-norm initial, final = 2.74209e-17 2.74209e-17
  Force max component initial, final = 2.58565e-17 2.58565e-17
  Final line search alpha, max atom move = 0.5 1.29283e-17
  Iterations, force evaluations = 1 2

Pair  time (%) = 2.37387e-05 (62.4277)
Neigh time (%) = 0 (0)
Comm  time (%) = 5.4501e-06 (14.3326)
Outpt time (%) = 0 (0)
Other time (%) = 8.83709e-06 (23.2397)

Nlocal:    41 ave 41 max 41 min
Histogram: 1 0 0 0 0 0 0 0 0 0
Nghost:    185 ave 185 max 185 min
Histogram: 1 0 0 0 0 0 0 0 0 0
Neighs:    359 ave 359 max 359 min
Histogram: 1 0 0 0 0 0 0 0 0 0

Total # of neighbors = 359
Ave neighs/atom = 8.7561
Neighbor list builds = 0
Dangerous builds = 0
	# write_dump all atom ${dumpfile}
        next i
jump SELF loop1
        displace_atoms upper move 0.0 ${ystep1} 0.0 units lattice
        displace_atoms upper move 0.0 0.002 0.0 units lattice
        min_style ${style}
        min_style cg
        minimize ${etol} ${ftol} ${maxiter} ${maxeval}
        minimize 1e-12 ${ftol} ${maxiter} ${maxeval}
        minimize 1e-12 1e-08 ${maxiter} ${maxeval}
        minimize 1e-12 1e-08 10000 ${maxeval}
        minimize 1e-12 1e-08 10000 20000
WARNING: Resetting reneighboring criteria during minimization (../min.cpp:168)
Memory usage per processor = 3.35952 Mbytes
Step Temp PotEng Lx Ly Lz 
       9            0   -120.97953    1.0000002    34.679129    1.0000002 
      10            0   -120.97953    1.0000002    34.679129    1.0000002 
Loop time of 3.69347e-05 on 1 procs for 1 steps with 41 atoms

Minimization stats:
  Stopping criterion = linesearch alpha is zero
  Energy initial, next-to-last, final = 
        -120.979529325     -120.979529325     -120.979529325
  Force two-norm initial, final = 3.47618e-17 3.47618e-17
  Force max component initial, final = 2.58565e-17 2.58565e-17
  Final line search alpha, max atom move = 0.5 1.29283e-17
  Iterations, force evaluations = 1 2

Pair  time (%) = 2.31805e-05 (62.7607)
Neigh time (%) = 0 (0)
Comm  time (%) = 3.85707e-06 (10.4429)
Outpt time (%) = 0 (0)
Other time (%) = 9.89717e-06 (26.7964)

Nlocal:    41 ave 41 max 41 min
Histogram: 1 0 0 0 0 0 0 0 0 0
Nghost:    185 ave 185 max 185 min
Histogram: 1 0 0 0 0 0 0 0 0 0
Neighs:    359 ave 359 max 359 min
Histogram: 1 0 0 0 0 0 0 0 0 0

Total # of neighbors = 359
Ave neighs/atom = 8.7561
Neighbor list builds = 0
Dangerous builds = 0
	# write_dump all atom ${dumpfile}
        next i
jump SELF loop1
        displace_atoms upper move 0.0 ${ystep1} 0.0 units lattice
        displace_atoms upper move 0.0 0.002 0.0 units lattice
        min_style ${style}
        min_style cg
        minimize ${etol} ${ftol} ${maxiter} ${maxeval}
        minimize 1e-12 ${ftol} ${maxiter} ${maxeval}
        minimize 1e-12 1e-08 ${maxiter} ${maxeval}
        minimize 1e-12 1e-08 10000 ${maxeval}
        minimize 1e-12 1e-08 10000 20000
WARNING: Resetting reneighboring criteria during minimization (../min.cpp:168)
Memory usage per processor = 3.35952 Mbytes
Step Temp PotEng Lx Ly Lz 
      10            0   -120.97501    1.0000002    34.682593    1.0000002 
      11            0   -120.97501    1.0000002    34.682593    1.0000002 
Loop time of 3.88827e-05 on 1 procs for 1 steps with 41 atoms

Minimization stats:
  Stopping criterion = linesearch alpha is zero
  Energy initial, next-to-last, final = 
        -120.975007363     -120.975007363     -120.975007363
  Force two-norm initial, final = 3.46646e-17 3.46646e-17
  Force max component initial, final = 2.58565e-17 2.58565e-17
  Final line search alpha, max atom move = 0.5 1.29283e-17
  Iterations, force evaluations = 1 2

Pair  time (%) = 2.41634e-05 (62.1443)
Neigh time (%) = 0 (0)
Comm  time (%) = 2.86917e-06 (7.37904)
Outpt time (%) = 0 (0)
Other time (%) = 1.18501e-05 (30.4766)

Nlocal:    41 ave 41 max 41 min
Histogram: 1 0 0 0 0 0 0 0 0 0
Nghost:    185 ave 185 max 185 min
Histogram: 1 0 0 0 0 0 0 0 0 0
Neighs:    359 ave 359 max 359 min
Histogram: 1 0 0 0 0 0 0 0 0 0

Total # of neighbors = 359
Ave neighs/atom = 8.7561
Neighbor list builds = 0
Dangerous builds = 0
	# write_dump all atom ${dumpfile}
        next i
jump SELF loop1
        displace_atoms upper move 0.0 ${ystep1} 0.0 units lattice
        displace_atoms upper move 0.0 0.002 0.0 units lattice
        min_style ${style}
        min_style cg
        minimize ${etol} ${ftol} ${maxiter} ${maxeval}
        minimize 1e-12 ${ftol} ${maxiter} ${maxeval}
        minimize 1e-12 1e-08 ${maxiter} ${maxeval}
        minimize 1e-12 1e-08 10000 ${maxeval}
        minimize 1e-12 1e-08 10000 20000
WARNING: Resetting reneighboring criteria during minimization (../min.cpp:168)
Memory usage per processor = 3.35952 Mbytes
Step Temp PotEng Lx Ly Lz 
      11            0   -120.97009    1.0000002    34.686058    1.0000002 
      12            0   -120.97009    1.0000002    34.686058    1.0000002 
Loop time of 3.70232e-05 on 1 procs for 1 steps with 41 atoms

Minimization stats:
  Stopping criterion = linesearch alpha is zero
  Energy initial, next-to-last, final = 
        -120.970089341     -120.970089341     -120.970089341
  Force two-norm initial, final = 3.69495e-17 3.69495e-17
  Force max component initial, final = 2.63952e-17 2.63952e-17
  Final line search alpha, max atom move = 0.5 1.31976e-17
  Iterations, force evaluations = 1 2

Pair  time (%) = 2.27307e-05 (61.3957)
Neigh time (%) = 0 (0)
Comm  time (%) = 4.38793e-06 (11.8518)
Outpt time (%) = 0 (0)
Other time (%) = 9.90462e-06 (26.7524)

Nlocal:    41 ave 41 max 41 min
Histogram: 1 0 0 0 0 0 0 0 0 0
Nghost:    185 ave 185 max 185 min
Histogram: 1 0 0 0 0 0 0 0 0 0
Neighs:    359 ave 359 max 359 min
Histogram: 1 0 0 0 0 0 0 0 0 0

Total # of neighbors = 359
Ave neighs/atom = 8.7561
Neighbor list builds = 0
Dangerous builds = 0
	# write_dump all atom ${dumpfile}
        next i
jump SELF loop1
        displace_atoms upper move 0.0 ${ystep1} 0.0 units lattice
        displace_atoms upper move 0.0 0.002 0.0 units lattice
        min_style ${style}
        min_style cg
        minimize ${etol} ${ftol} ${maxiter} ${maxeval}
        minimize 1e-12 ${ftol} ${maxiter} ${maxeval}
        minimize 1e-12 1e-08 ${maxiter} ${maxeval}
        minimize 1e-12 1e-08 10000 ${maxeval}
        minimize 1e-12 1e-08 10000 20000
WARNING: Resetting reneighboring criteria during minimization (../min.cpp:168)
Memory usage per processor = 3.35952 Mbytes
Step Temp PotEng Lx Ly Lz 
      12            0   -120.96479    1.0000002    34.689522    1.0000002 
      13            0   -120.96479    1.0000002    34.689522    1.0000002 
Loop time of 3.70631e-05 on 1 procs for 1 steps with 41 atoms

Minimization stats:
  Stopping criterion = linesearch alpha is zero
  Energy initial, next-to-last, final = 
        -120.964791927     -120.964791927     -120.964791927
  Force two-norm initial, final = 3.71437e-17 3.71437e-17
  Force max component initial, final = 2.66663e-17 2.66663e-17
  Final line search alpha, max atom move = 0.5 1.33331e-17
  Iterations, force evaluations = 1 2

Pair  time (%) = 2.38502e-05 (64.3503)
Neigh time (%) = 0 (0)
Comm  time (%) = 2.95811e-06 (7.98128)
Outpt time (%) = 0 (0)
Other time (%) = 1.02548e-05 (27.6684)

Nlocal:    41 ave 41 max 41 min
Histogram: 1 0 0 0 0 0 0 0 0 0
Nghost:    185 ave 185 max 185 min
Histogram: 1 0 0 0 0 0 0 0 0 0
Neighs:    359 ave 359 max 359 min
Histogram: 1 0 0 0 0 0 0 0 0 0

Total # of neighbors = 359
Ave neighs/atom = 8.7561
Neighbor list builds = 0
Dangerous builds = 0
	# write_dump all atom ${dumpfile}
        next i
jump SELF loop1
        displace_atoms upper move 0.0 ${ystep1} 0.0 units lattice
        displace_atoms upper move 0.0 0.002 0.0 units lattice
        min_style ${style}
        min_style cg
        minimize ${etol} ${ftol} ${maxiter} ${maxeval}
        minimize 1e-12 ${ftol} ${maxiter} ${maxeval}
        minimize 1e-12 1e-08 ${maxiter} ${maxeval}
        minimize 1e-12 1e-08 10000 ${maxeval}
        minimize 1e-12 1e-08 10000 20000
WARNING: Resetting reneighboring criteria during minimization (../min.cpp:168)
Memory usage per processor = 3.35952 Mbytes
Step Temp PotEng Lx Ly Lz 
      13            0   -120.95913    1.0000002    34.692986    1.0000002 
      14            0   -120.95913    1.0000002    34.692986    1.0000002 
Loop time of 3.79257e-05 on 1 procs for 1 steps with 41 atoms

Minimization stats:
  Stopping criterion = linesearch alpha is zero
  Energy initial, next-to-last, final = 
        -120.959127939     -120.959127939     -120.959127939
  Force two-norm initial, final = 2.66877e-17 2.66877e-17
  Force max component initial, final = 2.58565e-17 2.58565e-17
  Final line search alpha, max atom move = 0.5 1.29283e-17
  Iterations, force evaluations = 1 2

Pair  time (%) = 2.41532e-05 (63.6855)
Neigh time (%) = 0 (0)
Comm  time (%) = 4.8487e-06 (12.7847)
Outpt time (%) = 0 (0)
Other time (%) = 8.92382e-06 (23.5298)

Nlocal:    41 ave 41 max 41 min
Histogram: 1 0 0 0 0 0 0 0 0 0
Nghost:    185 ave 185 max 185 min
Histogram: 1 0 0 0 0 0 0 0 0 0
Neighs:    359 ave 359 max 359 min
Histogram: 1 0 0 0 0 0 0 0 0 0

Total # of neighbors = 359
Ave neighs/atom = 8.7561
Neighbor list builds = 0
Dangerous builds = 0
	# write_dump all atom ${dumpfile}
        next i
jump SELF loop1
        displace_atoms upper move 0.0 ${ystep1} 0.0 units lattice
        displace_atoms upper move 0.0 0.002 0.0 units lattice
        min_style ${style}
        min_style cg
        minimize ${etol} ${ftol} ${maxiter} ${maxeval}
        minimize 1e-12 ${ftol} ${maxiter} ${maxeval}
        minimize 1e-12 1e-08 ${maxiter} ${maxeval}
        minimize 1e-12 1e-08 10000 ${maxeval}
        minimize 1e-12 1e-08 10000 20000
WARNING: Resetting reneighboring criteria during minimization (../min.cpp:168)
Memory usage per processor = 3.35952 Mbytes
Step Temp PotEng Lx Ly Lz 
      14            0   -120.95311    1.0000002     34.69645    1.0000002 
      15            0   -120.95311    1.0000002     34.69645    1.0000002 
Loop time of 3.79408e-05 on 1 procs for 1 steps with 41 atoms

Minimization stats:
  Stopping criterion = linesearch alpha is zero
  Energy initial, next-to-last, final = 
        -120.953107839     -120.953107839     -120.953107839
  Force two-norm initial, final = 2.97495e-17 2.97495e-17
  Force max component initial, final = 2.58565e-17 2.58565e-17
  Final line search alpha, max atom move = 0.5 1.29283e-17
  Iterations, force evaluations = 1 2

Pair  time (%) = 2.3099e-05 (60.8817)
Neigh time (%) = 0 (0)
Comm  time (%) = 2.17091e-06 (5.72184)
Outpt time (%) = 0 (0)
Other time (%) = 1.26709e-05 (33.3964)

Nlocal:    41 ave 41 max 41 min
Histogram: 1 0 0 0 0 0 0 0 0 0
Nghost:    185 ave 185 max 185 min
Histogram: 1 0 0 0 0 0 0 0 0 0
Neighs:    359 ave 359 max 359 min
Histogram: 1 0 0 0 0 0 0 0 0 0

Total # of neighbors = 359
Ave neighs/atom = 8.7561
Neighbor list builds = 0
Dangerous builds = 0
	# write_dump all atom ${dumpfile}
        next i
jump SELF loop1
        displace_atoms upper move 0.0 ${ystep1} 0.0 units lattice
        displace_atoms upper move 0.0 0.002 0.0 units lattice
        min_style ${style}
        min_style cg
        minimize ${etol} ${ftol} ${maxiter} ${maxeval}
        minimize 1e-12 ${ftol} ${maxiter} ${maxeval}
        minimize 1e-12 1e-08 ${maxiter} ${maxeval}
        minimize 1e-12 1e-08 10000 ${maxeval}
        minimize 1e-12 1e-08 10000 20000
WARNING: Resetting reneighboring criteria during minimization (../min.cpp:168)
Memory usage per processor = 3.35952 Mbytes
Step Temp PotEng Lx Ly Lz 
      15            0   -120.94675    1.0000002    34.699914    1.0000002 
      16            0   -120.94675    1.0000002    34.699914    1.0000002 
Loop time of 3.8962e-05 on 1 procs for 1 steps with 41 atoms

Minimization stats:
  Stopping criterion = linesearch alpha is zero
  Energy initial, next-to-last, final = 
        -120.946748121     -120.946748121     -120.946748121
  Force two-norm initial, final = 5.08985e-17 5.08985e-17
  Force max component initial, final = 4.13674e-17 4.13674e-17
  Final line search alpha, max atom move = 0.5 2.06837e-17
  Iterations, force evaluations = 1 2

Pair  time (%) = 2.37322e-05 (60.9111)
Neigh time (%) = 0 (0)
Comm  time (%) = 4.19887e-06 (10.7768)
Outpt time (%) = 0 (0)
Other time (%) = 1.10309e-05 (28.312)

Nlocal:    41 ave 41 max 41 min
Histogram: 1 0 0 0 0 0 0 0 0 0
Nghost:    185 ave 185 max 185 min
Histogram: 1 0 0 0 0 0 0 0 0 0
Neighs:    359 ave 359 max 359 min
Histogram: 1 0 0 0 0 0 0 0 0 0

Total # of neighbors = 359
Ave neighs/atom = 8.7561
Neighbor list builds = 0
Dangerous builds = 0
	# write_dump all atom ${dumpfile}
        next i
jump SELF loop1
        displace_atoms upper move 0.0 ${ystep1} 0.0 units lattice
        displace_atoms upper move 0.0 0.002 0.0 units lattice
        min_style ${style}
        min_style cg
        minimize ${etol} ${ftol} ${maxiter} ${maxeval}
        minimize 1e-12 ${ftol} ${maxiter} ${maxeval}
        minimize 1e-12 1e-08 ${maxiter} ${maxeval}
        minimize 1e-12 1e-08 10000 ${maxeval}
        minimize 1e-12 1e-08 10000 20000
WARNING: Resetting reneighboring criteria during minimization (../min.cpp:168)
Memory usage per processor = 3.35952 Mbytes
Step Temp PotEng Lx Ly Lz 
      16            0   -120.94006    1.0000002    34.703378    1.0000002 
      17            0   -120.94006    1.0000002    34.703378    1.0000002 
Loop time of 3.90307e-05 on 1 procs for 1 steps with 41 atoms

Minimization stats:
  Stopping criterion = linesearch alpha is zero
  Energy initial, next-to-last, final = 
        -120.940061249     -120.940061249     -120.940061249
  Force two-norm initial, final = 4.75179e-17 4.75179e-17
  Force max component initial, final = 3.71288e-17 3.71288e-17
  Final line search alpha, max atom move = 0.5 1.85644e-17
  Iterations, force evaluations = 1 2

Pair  time (%) = 2.38919e-05 (61.2132)
Neigh time (%) = 0 (0)
Comm  time (%) = 3.04135e-06 (7.7922)
Outpt time (%) = 0 (0)
Other time (%) = 1.20974e-05 (30.9946)

Nlocal:    41 ave 41 max 41 min
Histogram: 1 0 0 0 0 0 0 0 0 0
Nghost:    185 ave 185 max 185 min
Histogram: 1 0 0 0 0 0 0 0 0 0
Neighs:    359 ave 359 max 359 min
Histogram: 1 0 0 0 0 0 0 0 0 0

Total # of neighbors = 359
Ave neighs/atom = 8.7561
Neighbor list builds = 0
Dangerous builds = 0
	# write_dump all atom ${dumpfile}
        next i
jump SELF loop1
        displace_atoms upper move 0.0 ${ystep1} 0.0 units lattice
        displace_atoms upper move 0.0 0.002 0.0 units lattice
        min_style ${style}
        min_style cg
        minimize ${etol} ${ftol} ${maxiter} ${maxeval}
        minimize 1e-12 ${ftol} ${maxiter} ${maxeval}
        minimize 1e-12 1e-08 ${maxiter} ${maxeval}
        minimize 1e-12 1e-08 10000 ${maxeval}
        minimize 1e-12 1e-08 10000 20000
WARNING: Resetting reneighboring criteria during minimization (../min.cpp:168)
Memory usage per processor = 3.35952 Mbytes
Step Temp PotEng Lx Ly Lz 
      17            0   -120.93308    1.0000002    34.706842    1.0000002 
      18            0   -120.93308    1.0000002    34.706842    1.0000002 
Loop time of 3.79328e-05 on 1 procs for 1 steps with 41 atoms

Minimization stats:
  Stopping criterion = linesearch alpha is zero
  Energy initial, next-to-last, final = 
        -120.933077734     -120.933077734     -120.933077734
  Force two-norm initial, final = 2.96675e-17 2.96675e-17
  Force max component initial, final = 2.96546e-17 2.96546e-17
  Final line search alpha, max atom move = 0.5 1.48273e-17
  Iterations, force evaluations = 1 2

Pair  time (%) = 2.32671e-05 (61.3378)
Neigh time (%) = 0 (0)
Comm  time (%) = 3.98373e-06 (10.5021)
Outpt time (%) = 0 (0)
Other time (%) = 1.06819e-05 (28.1601)

Nlocal:    41 ave 41 max 41 min
Histogram: 1 0 0 0 0 0 0 0 0 0
Nghost:    185 ave 185 max 185 min
Histogram: 1 0 0 0 0 0 0 0 0 0
Neighs:    359 ave 359 max 359 min
Histogram: 1 0 0 0 0 0 0 0 0 0

Total # of neighbors = 359
Ave neighs/atom = 8.7561
Neighbor list builds = 0
Dangerous builds = 0
	# write_dump all atom ${dumpfile}
        next i
jump SELF loop1
        displace_atoms upper move 0.0 ${ystep1} 0.0 units lattice
        displace_atoms upper move 0.0 0.002 0.0 units lattice
        min_style ${style}
        min_style cg
        minimize ${etol} ${ftol} ${maxiter} ${maxeval}
        minimize 1e-12 ${ftol} ${maxiter} ${maxeval}
        minimize 1e-12 1e-08 ${maxiter} ${maxeval}
        minimize 1e-12 1e-08 10000 ${maxeval}
        minimize 1e-12 1e-08 10000 20000
WARNING: Resetting reneighboring criteria during minimization (../min.cpp:168)
Memory usage per processor = 3.35952 Mbytes
Step Temp PotEng Lx Ly Lz 
      18            0   -120.92593    1.0000002    34.710306    1.0000002 
      19            0   -120.92593    1.0000002    34.710306    1.0000002 
Loop time of 3.7993e-05 on 1 procs for 1 steps with 41 atoms

Minimization stats:
  Stopping criterion = linesearch alpha is zero
  Energy initial, next-to-last, final = 
        -120.925930082     -120.925930082     -120.925930082
  Force two-norm initial, final = 5.95639e-17 5.95639e-17
  Force max component initial, final = 5.16572e-17 5.16572e-17
  Final line search alpha, max atom move = 0.5 2.58286e-17
  Iterations, force evaluations = 1 2

Pair  time (%) = 2.51166e-05 (66.1086)
Neigh time (%) = 0 (0)
Comm  time (%) = 4.34509e-06 (11.4366)
Outpt time (%) = 0 (0)
Other time (%) = 8.53126e-06 (22.4549)

Nlocal:    41 ave 41 max 41 min
Histogram: 1 0 0 0 0 0 0 0 0 0
Nghost:    185 ave 185 max 185 min
Histogram: 1 0 0 0 0 0 0 0 0 0
Neighs:    359 ave 359 max 359 min
Histogram: 1 0 0 0 0 0 0 0 0 0

Total # of neighbors = 359
Ave neighs/atom = 8.7561
Neighbor list builds = 0
Dangerous builds = 0
	# write_dump all atom ${dumpfile}
        next i
jump SELF loop1
        displace_atoms upper move 0.0 ${ystep1} 0.0 units lattice
        displace_atoms upper move 0.0 0.002 0.0 units lattice
        min_style ${style}
        min_style cg
        minimize ${etol} ${ftol} ${maxiter} ${maxeval}
        minimize 1e-12 ${ftol} ${maxiter} ${maxeval}
        minimize 1e-12 1e-08 ${maxiter} ${maxeval}
        minimize 1e-12 1e-08 10000 ${maxeval}
        minimize 1e-12 1e-08 10000 20000
WARNING: Resetting reneighboring criteria during minimization (../min.cpp:168)
Memory usage per processor = 3.35952 Mbytes
Step Temp PotEng Lx Ly Lz 
      19            0   -120.91865    1.0000002     34.71377    1.0000002 
      20            0   -120.91865    1.0000002     34.71377    1.0000002 
Loop time of 3.88958e-05 on 1 procs for 1 steps with 41 atoms

Minimization stats:
  Stopping criterion = linesearch alpha is zero
  Energy initial, next-to-last, final = 
        -120.918645656     -120.918645656     -120.918645656
  Force two-norm initial, final = 5.5945e-17 5.5945e-17
  Force max component initial, final = 4.74389e-17 4.74389e-17
  Final line search alpha, max atom move = 0.5 2.37195e-17
  Iterations, force evaluations = 1 2

Pair  time (%) = 2.32026e-05 (59.6533)
Neigh time (%) = 0 (0)
Comm  time (%) = 2.9013e-06 (7.45918)
Outpt time (%) = 0 (0)
Other time (%) = 1.27918e-05 (32.8875)

Nlocal:    41 ave 41 max 41 min
Histogram: 1 0 0 0 0 0 0 0 0 0
Nghost:    185 ave 185 max 185 min
Histogram: 1 0 0 0 0 0 0 0 0 0
Neighs:    359 ave 359 max 359 min
Histogram: 1 0 0 0 0 0 0 0 0 0

Total # of neighbors = 359
Ave neighs/atom = 8.7561
Neighbor list builds = 0
Dangerous builds = 0
	# write_dump all atom ${dumpfile}
        next i
jump SELF loop1
        displace_atoms upper move 0.0 ${ystep1} 0.0 units lattice
        displace_atoms upper move 0.0 0.002 0.0 units lattice
        min_style ${style}
        min_style cg
        minimize ${etol} ${ftol} ${maxiter} ${maxeval}
        minimize 1e-12 ${ftol} ${maxiter} ${maxeval}
        minimize 1e-12 1e-08 ${maxiter} ${maxeval}
        minimize 1e-12 1e-08 10000 ${maxeval}
        minimize 1e-12 1e-08 10000 20000
WARNING: Resetting reneighboring criteria during minimization (../min.cpp:168)
Memory usage per processor = 3.35952 Mbytes
Step Temp PotEng Lx Ly Lz 
      20            0   -120.91123    1.0000002    34.717234    1.0000002 
      21            0   -120.91123    1.0000002    34.717234    1.0000002 
Loop time of 8.2089e-05 on 1 procs for 1 steps with 41 atoms

Minimization stats:
  Stopping criterion = linesearch alpha is zero
  Energy initial, next-to-last, final = 
        -120.911225966     -120.911225966     -120.911225966
  Force two-norm initial, final = 2.97589e-17 2.97589e-17
  Force max component initial, final = 2.96546e-17 2.96546e-17
  Final line search alpha, max atom move = 0.5 1.48273e-17
  Iterations, force evaluations = 1 2

Pair  time (%) = 5.69854e-05 (69.4191)
Neigh time (%) = 0 (0)
Comm  time (%) = 4.80341e-06 (5.85147)
Outpt time (%) = 0 (0)
Other time (%) = 2.03002e-05 (24.7295)

Nlocal:    41 ave 41 max 41 min
Histogram: 1 0 0 0 0 0 0 0 0 0
Nghost:    185 ave 185 max 185 min
Histogram: 1 0 0 0 0 0 0 0 0 0
Neighs:    359 ave 359 max 359 min
Histogram: 1 0 0 0 0 0 0 0 0 0

Total # of neighbors = 359
Ave neighs/atom = 8.7561
Neighbor list builds = 0
Dangerous builds = 0
	# write_dump all atom ${dumpfile}
        next i
jump SELF loop1
        displace_atoms upper move 0.0 ${ystep1} 0.0 units lattice
        displace_atoms upper move 0.0 0.002 0.0 units lattice
        min_style ${style}
        min_style cg
        minimize ${etol} ${ftol} ${maxiter} ${maxeval}
        minimize 1e-12 ${ftol} ${maxiter} ${maxeval}
        minimize 1e-12 1e-08 ${maxiter} ${maxeval}
        minimize 1e-12 1e-08 10000 ${maxeval}
        minimize 1e-12 1e-08 10000 20000
WARNING: Resetting reneighboring criteria during minimization (../min.cpp:168)
Memory usage per processor = 3.35952 Mbytes
Step Temp PotEng Lx Ly Lz 
      21            0   -120.90367    1.0000002    34.720699    1.0000002 
      22            0   -120.90367    1.0000002    34.720699    1.0000002 
Loop time of 3.70461e-05 on 1 procs for 1 steps with 41 atoms

Minimization stats:
  Stopping criterion = linesearch alpha is zero
  Energy initial, next-to-last, final = 
        -120.903672386     -120.903672386     -120.903672386
  Force two-norm initial, final = 4.08811e-17 4.08811e-17
  Force max component initial, final = 2.96546e-17 2.96546e-17
  Final line search alpha, max atom move = 0.5 1.48273e-17
  Iterations, force evaluations = 1 2

Pair  time (%) = 2.37994e-05 (64.2425)
Neigh time (%) = 0 (0)
Comm  time (%) = 2.09478e-06 (5.65451)
Outpt time (%) = 0 (0)
Other time (%) = 1.1152e-05 (30.103)

Nlocal:    41 ave 41 max 41 min
Histogram: 1 0 0 0 0 0 0 0 0 0
Nghost:    185 ave 185 max 185 min
Histogram: 1 0 0 0 0 0 0 0 0 0
Neighs:    359 ave 359 max 359 min
Histogram: 1 0 0 0 0 0 0 0 0 0

Total # of neighbors = 359
Ave neighs/atom = 8.7561
Neighbor list builds = 0
Dangerous builds = 0
	# write_dump all atom ${dumpfile}
        next i
jump SELF loop1
        displace_atoms upper move 0.0 ${ystep1} 0.0 units lattice
        displace_atoms upper move 0.0 0.002 0.0 units lattice
        min_style ${style}
        min_style cg
        minimize ${etol} ${ftol} ${maxiter} ${maxeval}
        minimize 1e-12 ${ftol} ${maxiter} ${maxeval}
        minimize 1e-12 1e-08 ${maxiter} ${maxeval}
        minimize 1e-12 1e-08 10000 ${maxeval}
        minimize 1e-12 1e-08 10000 20000
WARNING: Resetting reneighboring criteria during minimization (../min.cpp:168)
Memory usage per processor = 3.35952 Mbytes
Step Temp PotEng Lx Ly Lz 
      22            0   -120.89599    1.0000002    34.724163    1.0000002 
      23            0   -120.89599    1.0000002    34.724163    1.0000002 
Loop time of 0.000362935 on 1 procs for 1 steps with 41 atoms

Minimization stats:
  Stopping criterion = linesearch alpha is zero
  Energy initial, next-to-last, final = 
         -120.89598626      -120.89598626      -120.89598626
  Force two-norm initial, final = 4.58513e-17 4.58513e-17
  Force max component initial, final = 3.49706e-17 3.49706e-17
  Final line search alpha, max atom move = 0.5 1.74853e-17
  Iterations, force evaluations = 1 2

Pair  time (%) = 0.000343081 (94.5296)
Neigh time (%) = 0 (0)
Comm  time (%) = 3.17662e-06 (0.875261)
Outpt time (%) = 0 (0)
Other time (%) = 1.66773e-05 (4.59513)

Nlocal:    41 ave 41 max 41 min
Histogram: 1 0 0 0 0 0 0 0 0 0
Nghost:    185 ave 185 max 185 min
Histogram: 1 0 0 0 0 0 0 0 0 0
Neighs:    359 ave 359 max 359 min
Histogram: 1 0 0 0 0 0 0 0 0 0

Total # of neighbors = 359
Ave neighs/atom = 8.7561
Neighbor list builds = 0
Dangerous builds = 0
	# write_dump all atom ${dumpfile}
        next i
jump SELF loop1
        displace_atoms upper move 0.0 ${ystep1} 0.0 units lattice
        displace_atoms upper move 0.0 0.002 0.0 units lattice
        min_style ${style}
        min_style cg
        minimize ${etol} ${ftol} ${maxiter} ${maxeval}
        minimize 1e-12 ${ftol} ${maxiter} ${maxeval}
        minimize 1e-12 1e-08 ${maxiter} ${maxeval}
        minimize 1e-12 1e-08 10000 ${maxeval}
        minimize 1e-12 1e-08 10000 20000
WARNING: Resetting reneighboring criteria during minimization (../min.cpp:168)
Memory usage per processor = 3.35952 Mbytes
Step Temp PotEng Lx Ly Lz 
      23            0   -120.88817    1.0000002    34.727627    1.0000002 
      24            0   -120.88817    1.0000002    34.727627    1.0000002 
Loop time of 3.90903e-05 on 1 procs for 1 steps with 41 atoms

Minimization stats:
  Stopping criterion = linesearch alpha is zero
  Energy initial, next-to-last, final = 
        -120.888168972     -120.888168972     -120.888168972
  Force two-norm initial, final = 6.20721e-17 6.20721e-17
  Force max component initial, final = 5.45303e-17 5.45303e-17
  Final line search alpha, max atom move = 0.5 2.72651e-17
  Iterations, force evaluations = 1 2

Pair  time (%) = 2.50707e-05 (64.1355)
Neigh time (%) = 0 (0)
Comm  time (%) = 1.73016e-06 (4.42607)
Outpt time (%) = 0 (0)
Other time (%) = 1.22894e-05 (31.4385)

Nlocal:    41 ave 41 max 41 min
Histogram: 1 0 0 0 0 0 0 0 0 0
Nghost:    185 ave 185 max 185 min
Histogram: 1 0 0 0 0 0 0 0 0 0
Neighs:    359 ave 359 max 359 min
Histogram: 1 0 0 0 0 0 0 0 0 0

Total # of neighbors = 359
Ave neighs/atom = 8.7561
Neighbor list builds = 0
Dangerous builds = 0
	# write_dump all atom ${dumpfile}
        next i
jump SELF loop1
        displace_atoms upper move 0.0 ${ystep1} 0.0 units lattice
        displace_atoms upper move 0.0 0.002 0.0 units lattice
        min_style ${style}
        min_style cg
        minimize ${etol} ${ftol} ${maxiter} ${maxeval}
        minimize 1e-12 ${ftol} ${maxiter} ${maxeval}
        minimize 1e-12 1e-08 ${maxiter} ${maxeval}
        minimize 1e-12 1e-08 10000 ${maxeval}
        minimize 1e-12 1e-08 10000 20000
WARNING: Resetting reneighboring criteria during minimization (../min.cpp:168)
Memory usage per processor = 3.35952 Mbytes
Step Temp PotEng Lx Ly Lz 
      24            0   -120.88022    1.0000002    34.731091    1.0000002 
      25            0   -120.88022    1.0000002    34.731091    1.0000002 
Loop time of 3.78985e-05 on 1 procs for 1 steps with 41 atoms

Minimization stats:
  Stopping criterion = linesearch alpha is zero
  Energy initial, next-to-last, final = 
        -120.880221891     -120.880221891     -120.880221891
  Force two-norm initial, final = 4.01722e-17 4.01722e-17
  Force max component initial, final = 2.96546e-17 2.96546e-17
  Final line search alpha, max atom move = 0.5 1.48273e-17
  Iterations, force evaluations = 1 2

Pair  time (%) = 2.31643e-05 (61.1219)
Neigh time (%) = 0 (0)
Comm  time (%) = 3.77838e-06 (9.96971)
Outpt time (%) = 0 (0)
Other time (%) = 1.09558e-05 (28.9084)

Nlocal:    41 ave 41 max 41 min
Histogram: 1 0 0 0 0 0 0 0 0 0
Nghost:    185 ave 185 max 185 min
Histogram: 1 0 0 0 0 0 0 0 0 0
Neighs:    359 ave 359 max 359 min
Histogram: 1 0 0 0 0 0 0 0 0 0

Total # of neighbors = 359
Ave neighs/atom = 8.7561
Neighbor list builds = 0
Dangerous builds = 0
	# write_dump all atom ${dumpfile}
        next i
jump SELF loop1
        displace_atoms upper move 0.0 ${ystep1} 0.0 units lattice
        displace_atoms upper move 0.0 0.002 0.0 units lattice
        min_style ${style}
        min_style cg
        minimize ${etol} ${ftol} ${maxiter} ${maxeval}
        minimize 1e-12 ${ftol} ${maxiter} ${maxeval}
        minimize 1e-12 1e-08 ${maxiter} ${maxeval}
        minimize 1e-12 1e-08 10000 ${maxeval}
        minimize 1e-12 1e-08 10000 20000
WARNING: Resetting reneighboring criteria during minimization (../min.cpp:168)
Memory usage per processor = 3.35952 Mbytes
Step Temp PotEng Lx Ly Lz 
      25            0   -120.87215    1.0000002    34.734555    1.0000002 
      26            0   -120.87215    1.0000002    34.734555    1.0000002 
Loop time of 3.98984e-05 on 1 procs for 1 steps with 41 atoms

Minimization stats:
  Stopping criterion = linesearch alpha is zero
  Energy initial, next-to-last, final = 
         -120.87214648      -120.87214648      -120.87214648
  Force two-norm initial, final = 4.40917e-17 4.40917e-17
  Force max component initial, final = 3.26294e-17 3.26294e-17
  Final line search alpha, max atom move = 0.5 1.63147e-17
  Iterations, force evaluations = 1 2

Pair  time (%) = 2.31111e-05 (57.9249)
Neigh time (%) = 0 (0)
Comm  time (%) = 4.14881e-06 (10.3984)
Outpt time (%) = 0 (0)
Other time (%) = 1.26385e-05 (31.6767)

Nlocal:    41 ave 41 max 41 min
Histogram: 1 0 0 0 0 0 0 0 0 0
Nghost:    185 ave 185 max 185 min
Histogram: 1 0 0 0 0 0 0 0 0 0
Neighs:    359 ave 359 max 359 min
Histogram: 1 0 0 0 0 0 0 0 0 0

Total # of neighbors = 359
Ave neighs/atom = 8.7561
Neighbor list builds = 0
Dangerous builds = 0
	# write_dump all atom ${dumpfile}
        next i
jump SELF loop1
        displace_atoms upper move 0.0 ${ystep1} 0.0 units lattice
        displace_atoms upper move 0.0 0.002 0.0 units lattice
        min_style ${style}
        min_style cg
        minimize ${etol} ${ftol} ${maxiter} ${maxeval}
        minimize 1e-12 ${ftol} ${maxiter} ${maxeval}
        minimize 1e-12 1e-08 ${maxiter} ${maxeval}
        minimize 1e-12 1e-08 10000 ${maxeval}
        minimize 1e-12 1e-08 10000 20000
WARNING: Resetting reneighboring criteria during minimization (../min.cpp:168)
Memory usage per processor = 3.35952 Mbytes
Step Temp PotEng Lx Ly Lz 
      26            0   -120.86394    1.0000002    34.738019    1.0000002 
      27            0   -120.86394    1.0000002    34.738019    1.0000002 
Loop time of 3.81168e-05 on 1 procs for 1 steps with 41 atoms

Minimization stats:
  Stopping criterion = linesearch alpha is zero
  Energy initial, next-to-last, final = 
        -120.863944145     -120.863944145     -120.863944145
  Force two-norm initial, final = 3.63224e-17 3.63224e-17
  Force max component initial, final = 2.96546e-17 2.96546e-17
  Final line search alpha, max atom move = 0.5 1.48273e-17
  Iterations, force evaluations = 1 2

Pair  time (%) = 2.31041e-05 (60.614)
Neigh time (%) = 0 (0)
Comm  time (%) = 3.65789e-06 (9.59651)
Outpt time (%) = 0 (0)
Other time (%) = 1.13548e-05 (29.7895)

Nlocal:    41 ave 41 max 41 min
Histogram: 1 0 0 0 0 0 0 0 0 0
Nghost:    185 ave 185 max 185 min
Histogram: 1 0 0 0 0 0 0 0 0 0
Neighs:    359 ave 359 max 359 min
Histogram: 1 0 0 0 0 0 0 0 0 0

Total # of neighbors = 359
Ave neighs/atom = 8.7561
Neighbor list builds = 0
Dangerous builds = 0
	# write_dump all atom ${dumpfile}
        next i
jump SELF loop1
        displace_atoms upper move 0.0 ${ystep1} 0.0 units lattice
        displace_atoms upper move 0.0 0.002 0.0 units lattice
        min_style ${style}
        min_style cg
        minimize ${etol} ${ftol} ${maxiter} ${maxeval}
        minimize 1e-12 ${ftol} ${maxiter} ${maxeval}
        minimize 1e-12 1e-08 ${maxiter} ${maxeval}
        minimize 1e-12 1e-08 10000 ${maxeval}
        minimize 1e-12 1e-08 10000 20000
WARNING: Resetting reneighboring criteria during minimization (../min.cpp:168)
Memory usage per processor = 3.35952 Mbytes
Step Temp PotEng Lx Ly Lz 
      27            0   -120.85562    1.0000002    34.741483    1.0000002 
      28            0   -120.85562    1.0000002    34.741483    1.0000002 
Loop time of 3.89486e-05 on 1 procs for 1 steps with 41 atoms

Minimization stats:
  Stopping criterion = linesearch alpha is zero
  Energy initial, next-to-last, final = 
        -120.855616314     -120.855616314     -120.855616314
  Force two-norm initial, final = 5.9705e-17 5.9705e-17
  Force max component initial, final = 5.18198e-17 5.18198e-17
  Final line search alpha, max atom move = 0.5 2.59099e-17
  Iterations, force evaluations = 1 2

Pair  time (%) = 2.38841e-05 (61.3221)
Neigh time (%) = 0 (0)
Comm  time (%) = 4.21796e-06 (10.8296)
Outpt time (%) = 0 (0)
Other time (%) = 1.08465e-05 (27.8483)

Nlocal:    41 ave 41 max 41 min
Histogram: 1 0 0 0 0 0 0 0 0 0
Nghost:    185 ave 185 max 185 min
Histogram: 1 0 0 0 0 0 0 0 0 0
Neighs:    359 ave 359 max 359 min
Histogram: 1 0 0 0 0 0 0 0 0 0

Total # of neighbors = 359
Ave neighs/atom = 8.7561
Neighbor list builds = 0
Dangerous builds = 0
	# write_dump all atom ${dumpfile}
        next i
jump SELF loop1
        displace_atoms upper move 0.0 ${ystep1} 0.0 units lattice
        displace_atoms upper move 0.0 0.002 0.0 units lattice
        min_style ${style}
        min_style cg
        minimize ${etol} ${ftol} ${maxiter} ${maxeval}
        minimize 1e-12 ${ftol} ${maxiter} ${maxeval}
        minimize 1e-12 1e-08 ${maxiter} ${maxeval}
        minimize 1e-12 1e-08 10000 ${maxeval}
        minimize 1e-12 1e-08 10000 20000
WARNING: Resetting reneighboring criteria during minimization (../min.cpp:168)
Memory usage per processor = 3.35952 Mbytes
Step Temp PotEng Lx Ly Lz 
      28            0   -120.84716    1.0000002    34.744947    1.0000002 
      29            0   -120.84716    1.0000002    34.744947    1.0000002 
Loop time of 0.000719943 on 1 procs for 1 steps with 41 atoms

Minimization stats:
  Stopping criterion = linesearch alpha is zero
  Energy initial, next-to-last, final = 
        -120.847164467     -120.847164467     -120.847164467
  Force two-norm initial, final = 5.41554e-17 5.41554e-17
  Force max component initial, final = 4.53146e-17 4.53146e-17
  Final line search alpha, max atom move = 0.5 2.26573e-17
  Iterations, force evaluations = 1 2

Pair  time (%) = 0.00044825 (62.2619)
Neigh time (%) = 0 (0)
Comm  time (%) = 9.60379e-05 (13.3396)
Outpt time (%) = 0 (0)
Other time (%) = 0.000175655 (24.3985)

Nlocal:    41 ave 41 max 41 min
Histogram: 1 0 0 0 0 0 0 0 0 0
Nghost:    185 ave 185 max 185 min
Histogram: 1 0 0 0 0 0 0 0 0 0
Neighs:    359 ave 359 max 359 min
Histogram: 1 0 0 0 0 0 0 0 0 0

Total # of neighbors = 359
Ave neighs/atom = 8.7561
Neighbor list builds = 0
Dangerous builds = 0
	# write_dump all atom ${dumpfile}
        next i
jump SELF loop1
        displace_atoms upper move 0.0 ${ystep1} 0.0 units lattice
        displace_atoms upper move 0.0 0.002 0.0 units lattice
        min_style ${style}
        min_style cg
        minimize ${etol} ${ftol} ${maxiter} ${maxeval}
        minimize 1e-12 ${ftol} ${maxiter} ${maxeval}
        minimize 1e-12 1e-08 ${maxiter} ${maxeval}
        minimize 1e-12 1e-08 10000 ${maxeval}
        minimize 1e-12 1e-08 10000 20000
WARNING: Resetting reneighboring criteria during minimization (../min.cpp:168)
Memory usage per processor = 3.35952 Mbytes
Step Temp PotEng Lx Ly Lz 
      29            0   -120.83859    1.0000002    34.748411    1.0000002 
      30            0   -120.83859    1.0000002    34.748411    1.0000002 
Loop time of 3.81073e-05 on 1 procs for 1 steps with 41 atoms

Minimization stats:
  Stopping criterion = linesearch alpha is zero
  Energy initial, next-to-last, final = 
        -120.838590073     -120.838590073     -120.838590073
  Force two-norm initial, final = 4.46968e-17 4.46968e-17
  Force max component initial, final = 3.34426e-17 3.34426e-17
  Final line search alpha, max atom move = 0.5 1.67213e-17
  Iterations, force evaluations = 1 2

Pair  time (%) = 2.39827e-05 (62.9348)
Neigh time (%) = 0 (0)
Comm  time (%) = 5.74626e-06 (15.0792)
Outpt time (%) = 0 (0)
Other time (%) = 8.37829e-06 (21.9861)

Nlocal:    41 ave 41 max 41 min
Histogram: 1 0 0 0 0 0 0 0 0 0
Nghost:    185 ave 185 max 185 min
Histogram: 1 0 0 0 0 0 0 0 0 0
Neighs:    359 ave 359 max 359 min
Histogram: 1 0 0 0 0 0 0 0 0 0

Total # of neighbors = 359
Ave neighs/atom = 8.7561
Neighbor list builds = 0
Dangerous builds = 0
	# write_dump all atom ${dumpfile}
        next i
jump SELF loop1
        displace_atoms upper move 0.0 ${ystep1} 0.0 units lattice
        displace_atoms upper move 0.0 0.002 0.0 units lattice
        min_style ${style}
        min_style cg
        minimize ${etol} ${ftol} ${maxiter} ${maxeval}
        minimize 1e-12 ${ftol} ${maxiter} ${maxeval}
        minimize 1e-12 1e-08 ${maxiter} ${maxeval}
        minimize 1e-12 1e-08 10000 ${maxeval}
        minimize 1e-12 1e-08 10000 20000
WARNING: Resetting reneighboring criteria during minimization (../min.cpp:168)
Memory usage per processor = 3.35952 Mbytes
Step Temp PotEng Lx Ly Lz 
      30            0   -120.82989    1.0000002    34.751876    1.0000002 
      31            0   -120.82989    1.0000002    34.751876    1.0000002 
Loop time of 3.81088e-05 on 1 procs for 1 steps with 41 atoms

Minimization stats:
  Stopping criterion = linesearch alpha is zero
  Energy initial, next-to-last, final = 
        -120.829894622     -120.829894622     -120.829894622
  Force two-norm initial, final = 4.57609e-17 4.57609e-17
  Force max component initial, final = 3.4852e-17 3.4852e-17
  Final line search alpha, max atom move = 0.5 1.7426e-17
  Iterations, force evaluations = 1 2

Pair  time (%) = 2.31263e-05 (60.6848)
Neigh time (%) = 0 (0)
Comm  time (%) = 2.74857e-06 (7.21242)
Outpt time (%) = 0 (0)
Other time (%) = 1.2234e-05 (32.1028)

Nlocal:    41 ave 41 max 41 min
Histogram: 1 0 0 0 0 0 0 0 0 0
Nghost:    185 ave 185 max 185 min
Histogram: 1 0 0 0 0 0 0 0 0 0
Neighs:    359 ave 359 max 359 min
Histogram: 1 0 0 0 0 0 0 0 0 0

Total # of neighbors = 359
Ave neighs/atom = 8.7561
Neighbor list builds = 0
Dangerous builds = 0
	# write_dump all atom ${dumpfile}
        next i
jump SELF loop1
        displace_atoms upper move 0.0 ${ystep1} 0.0 units lattice
        displace_atoms upper move 0.0 0.002 0.0 units lattice
        min_style ${style}
        min_style cg
        minimize ${etol} ${ftol} ${maxiter} ${maxeval}
        minimize 1e-12 ${ftol} ${maxiter} ${maxeval}
        minimize 1e-12 1e-08 ${maxiter} ${maxeval}
        minimize 1e-12 1e-08 10000 ${maxeval}
        minimize 1e-12 1e-08 10000 20000
WARNING: Resetting reneighboring criteria during minimization (../min.cpp:168)
Memory usage per processor = 3.35952 Mbytes
Step Temp PotEng Lx Ly Lz 
      31            0   -120.82108    1.0000002     34.75534    1.0000002 
      32            0   -120.82108    1.0000002     34.75534    1.0000002 
Loop time of 4.80457e-05 on 1 procs for 1 steps with 41 atoms

Minimization stats:
  Stopping criterion = linesearch alpha is zero
  Energy initial, next-to-last, final = 
        -120.821079601     -120.821079601     -120.821079601
  Force two-norm initial, final = 3.37459e-17 3.37459e-17
  Force max component initial, final = 2.96546e-17 2.96546e-17
  Final line search alpha, max atom move = 0.5 1.48273e-17
  Iterations, force evaluations = 1 2

Pair  time (%) = 3.30689e-05 (68.8282)
Neigh time (%) = 0 (0)
Comm  time (%) = 3.8587e-06 (8.03132)
Outpt time (%) = 0 (0)
Other time (%) = 1.1118e-05 (23.1405)

Nlocal:    41 ave 41 max 41 min
Histogram: 1 0 0 0 0 0 0 0 0 0
Nghost:    185 ave 185 max 185 min
Histogram: 1 0 0 0 0 0 0 0 0 0
Neighs:    359 ave 359 max 359 min
Histogram: 1 0 0 0 0 0 0 0 0 0

Total # of neighbors = 359
Ave neighs/atom = 8.7561
Neighbor list builds = 0
Dangerous builds = 0
	# write_dump all atom ${dumpfile}
        next i
jump SELF loop1
        displace_atoms upper move 0.0 ${ystep1} 0.0 units lattice
        displace_atoms upper move 0.0 0.002 0.0 units lattice
        min_style ${style}
        min_style cg
        minimize ${etol} ${ftol} ${maxiter} ${maxeval}
        minimize 1e-12 ${ftol} ${maxiter} ${maxeval}
        minimize 1e-12 1e-08 ${maxiter} ${maxeval}
        minimize 1e-12 1e-08 10000 ${maxeval}
        minimize 1e-12 1e-08 10000 20000
WARNING: Resetting reneighboring criteria during minimization (../min.cpp:168)
Memory usage per processor = 3.35952 Mbytes
Step Temp PotEng Lx Ly Lz 
      32            0   -120.81215    1.0000002    34.758804    1.0000002 
      33            0   -120.81215    1.0000002    34.758804    1.0000002 
Loop time of 3.78946e-05 on 1 procs for 1 steps with 41 atoms

Minimization stats:
  Stopping criterion = linesearch alpha is zero
  Energy initial, next-to-last, final = 
        -120.812146546     -120.812146546     -120.812146546
  Force two-norm initial, final = 3.43807e-17 3.43807e-17
  Force max component initial, final = 2.96546e-17 2.96546e-17
  Final line search alpha, max atom move = 0.5 1.48273e-17
  Iterations, force evaluations = 1 2

Pair  time (%) = 2.50599e-05 (66.1306)
Neigh time (%) = 0 (0)
Comm  time (%) = 4.70842e-06 (12.425)
Outpt time (%) = 0 (0)
Other time (%) = 8.12626e-06 (21.4444)

Nlocal:    41 ave 41 max 41 min
Histogram: 1 0 0 0 0 0 0 0 0 0
Nghost:    185 ave 185 max 185 min
Histogram: 1 0 0 0 0 0 0 0 0 0
Neighs:    359 ave 359 max 359 min
Histogram: 1 0 0 0 0 0 0 0 0 0

Total # of neighbors = 359
Ave neighs/atom = 8.7561
Neighbor list builds = 0
Dangerous builds = 0
	# write_dump all atom ${dumpfile}
        next i
jump SELF loop1
        displace_atoms upper move 0.0 ${ystep1} 0.0 units lattice
        displace_atoms upper move 0.0 0.002 0.0 units lattice
        min_style ${style}
        min_style cg
        minimize ${etol} ${ftol} ${maxiter} ${maxeval}
        minimize 1e-12 ${ftol} ${maxiter} ${maxeval}
        minimize 1e-12 1e-08 ${maxiter} ${maxeval}
        minimize 1e-12 1e-08 10000 ${maxeval}
        minimize 1e-12 1e-08 10000 20000
WARNING: Resetting reneighboring criteria during minimization (../min.cpp:168)
Memory usage per processor = 3.35952 Mbytes
Step Temp PotEng Lx Ly Lz 
      33            0    -120.8031    1.0000002    34.762268    1.0000002 
      34            0    -120.8031    1.0000002    34.762268    1.0000002 
Loop time of 3.80154e-05 on 1 procs for 1 steps with 41 atoms

Minimization stats:
  Stopping criterion = linesearch alpha is zero
  Energy initial, next-to-last, final = 
         -120.80309694      -120.80309694      -120.80309694
  Force two-norm initial, final = 4.68433e-17 4.68433e-17
  Force max component initial, final = 3.62615e-17 3.62615e-17
  Final line search alpha, max atom move = 0.5 1.81307e-17
  Iterations, force evaluations = 1 2

Pair  time (%) = 2.27999e-05 (59.9755)
Neigh time (%) = 0 (0)
Comm  time (%) = 5.24172e-06 (13.7884)
Outpt time (%) = 0 (0)
Other time (%) = 9.97377e-06 (26.2361)

Nlocal:    41 ave 41 max 41 min
Histogram: 1 0 0 0 0 0 0 0 0 0
Nghost:    185 ave 185 max 185 min
Histogram: 1 0 0 0 0 0 0 0 0 0
Neighs:    359 ave 359 max 359 min
Histogram: 1 0 0 0 0 0 0 0 0 0

Total # of neighbors = 359
Ave neighs/atom = 8.7561
Neighbor list builds = 0
Dangerous builds = 0
	# write_dump all atom ${dumpfile}
        next i
jump SELF loop1
        displace_atoms upper move 0.0 ${ystep1} 0.0 units lattice
        displace_atoms upper move 0.0 0.002 0.0 units lattice
        min_style ${style}
        min_style cg
        minimize ${etol} ${ftol} ${maxiter} ${maxeval}
        minimize 1e-12 ${ftol} ${maxiter} ${maxeval}
        minimize 1e-12 1e-08 ${maxiter} ${maxeval}
        minimize 1e-12 1e-08 10000 ${maxeval}
        minimize 1e-12 1e-08 10000 20000
WARNING: Resetting reneighboring criteria during minimization (../min.cpp:168)
Memory usage per processor = 3.35952 Mbytes
Step Temp PotEng Lx Ly Lz 
      34            0   -120.79393    1.0000002    34.765732    1.0000002 
      35            0   -120.79393    1.0000002    34.765732    1.0000002 
Loop time of 3.80633e-05 on 1 procs for 1 steps with 41 atoms

Minimization stats:
  Stopping criterion = linesearch alpha is zero
  Energy initial, next-to-last, final = 
        -120.793932358     -120.793932358     -120.793932358
  Force two-norm initial, final = 3.09291e-17 3.09291e-17
  Force max component initial, final = 2.96546e-17 2.96546e-17
  Final line search alpha, max atom move = 0.5 1.48273e-17
  Iterations, force evaluations = 1 2

Pair  time (%) = 2.29898e-05 (60.3989)
Neigh time (%) = 0 (0)
Comm  time (%) = 1.95252e-06 (5.12966)
Outpt time (%) = 0 (0)
Other time (%) = 1.31209e-05 (34.4714)

Nlocal:    41 ave 41 max 41 min
Histogram: 1 0 0 0 0 0 0 0 0 0
Nghost:    185 ave 185 max 185 min
Histogram: 1 0 0 0 0 0 0 0 0 0
Neighs:    359 ave 359 max 359 min
Histogram: 1 0 0 0 0 0 0 0 0 0

Total # of neighbors = 359
Ave neighs/atom = 8.7561
Neighbor list builds = 0
Dangerous builds = 0
	# write_dump all atom ${dumpfile}
        next i
jump SELF loop1
        displace_atoms upper move 0.0 ${ystep1} 0.0 units lattice
        displace_atoms upper move 0.0 0.002 0.0 units lattice
        min_style ${style}
        min_style cg
        minimize ${etol} ${ftol} ${maxiter} ${maxeval}
        minimize 1e-12 ${ftol} ${maxiter} ${maxeval}
        minimize 1e-12 1e-08 ${maxiter} ${maxeval}
        minimize 1e-12 1e-08 10000 ${maxeval}
        minimize 1e-12 1e-08 10000 20000
WARNING: Resetting reneighboring criteria during minimization (../min.cpp:168)
Memory usage per processor = 3.35952 Mbytes
Step Temp PotEng Lx Ly Lz 
      35            0   -120.78465    1.0000002    34.769196    1.0000002 
      36            0   -120.78465    1.0000002    34.769196    1.0000002 
Loop time of 4.00569e-05 on 1 procs for 1 steps with 41 atoms

Minimization stats:
  Stopping criterion = linesearch alpha is zero
  Energy initial, next-to-last, final = 
        -120.784654309     -120.784654309     -120.784654309
  Force two-norm initial, final = 5.19169e-17 5.19169e-17
  Force max component initial, final = 4.26142e-17 4.26142e-17
  Final line search alpha, max atom move = 0.5 2.13071e-17
  Iterations, force evaluations = 1 2

Pair  time (%) = 2.49704e-05 (62.3373)
Neigh time (%) = 0 (0)
Comm  time (%) = 2.57581e-06 (6.43037)
Outpt time (%) = 0 (0)
Other time (%) = 1.25107e-05 (31.2323)

Nlocal:    41 ave 41 max 41 min
Histogram: 1 0 0 0 0 0 0 0 0 0
Nghost:    185 ave 185 max 185 min
Histogram: 1 0 0 0 0 0 0 0 0 0
Neighs:    359 ave 359 max 359 min
Histogram: 1 0 0 0 0 0 0 0 0 0

Total # of neighbors = 359
Ave neighs/atom = 8.7561
Neighbor list builds = 0
Dangerous builds = 0
	# write_dump all atom ${dumpfile}
        next i
jump SELF loop1
        displace_atoms upper move 0.0 ${ystep1} 0.0 units lattice
        displace_atoms upper move 0.0 0.002 0.0 units lattice
        min_style ${style}
        min_style cg
        minimize ${etol} ${ftol} ${maxiter} ${maxeval}
        minimize 1e-12 ${ftol} ${maxiter} ${maxeval}
        minimize 1e-12 1e-08 ${maxiter} ${maxeval}
        minimize 1e-12 1e-08 10000 ${maxeval}
        minimize 1e-12 1e-08 10000 20000
WARNING: Resetting reneighboring criteria during minimization (../min.cpp:168)
Memory usage per processor = 3.35952 Mbytes
Step Temp PotEng Lx Ly Lz 
      36            0   -120.77526    1.0000002     34.77266    1.0000002 
      37            0   -120.77526    1.0000002     34.77266    1.0000002 
Loop time of 3.70651e-05 on 1 procs for 1 steps with 41 atoms

Minimization stats:
  Stopping criterion = linesearch alpha is zero
  Energy initial, next-to-last, final = 
        -120.775264384     -120.775264384     -120.775264384
  Force two-norm initial, final = 4.17038e-17 4.17038e-17
  Force max component initial, final = 2.96546e-17 2.96546e-17
  Final line search alpha, max atom move = 0.5 1.48273e-17
  Iterations, force evaluations = 1 2

Pair  time (%) = 2.38564e-05 (64.3635)
Neigh time (%) = 0 (0)
Comm  time (%) = 2.97034e-06 (8.01383)
Outpt time (%) = 0 (0)
Other time (%) = 1.02384e-05 (27.6227)

Nlocal:    41 ave 41 max 41 min
Histogram: 1 0 0 0 0 0 0 0 0 0
Nghost:    185 ave 185 max 185 min
Histogram: 1 0 0 0 0 0 0 0 0 0
Neighs:    359 ave 359 max 359 min
Histogram: 1 0 0 0 0 0 0 0 0 0

Total # of neighbors = 359
Ave neighs/atom = 8.7561
Neighbor list builds = 0
Dangerous builds = 0
	# write_dump all atom ${dumpfile}
        next i
jump SELF loop1
        displace_atoms upper move 0.0 ${ystep1} 0.0 units lattice
        displace_atoms upper move 0.0 0.002 0.0 units lattice
        min_style ${style}
        min_style cg
        minimize ${etol} ${ftol} ${maxiter} ${maxeval}
        minimize 1e-12 ${ftol} ${maxiter} ${maxeval}
        minimize 1e-12 1e-08 ${maxiter} ${maxeval}
        minimize 1e-12 1e-08 10000 ${maxeval}
        minimize 1e-12 1e-08 10000 20000
WARNING: Resetting reneighboring criteria during minimization (../min.cpp:168)
Memory usage per processor = 3.35952 Mbytes
Step Temp PotEng Lx Ly Lz 
      37            0   -120.76576    1.0000002    34.776124    1.0000002 
      38            0   -120.76576    1.0000002    34.776124    1.0000002 
Loop time of 0.000119915 on 1 procs for 1 steps with 41 atoms

Minimization stats:
  Stopping criterion = linesearch alpha is zero
  Energy initial, next-to-last, final = 
        -120.765764114     -120.765764114     -120.765764114
  Force two-norm initial, final = 3.51203e-17 3.51203e-17
  Force max component initial, final = 2.96546e-17 2.96546e-17
  Final line search alpha, max atom move = 0.5 1.48273e-17
  Iterations, force evaluations = 1 2

Pair  time (%) = 2.42601e-05 (20.2311)
Neigh time (%) = 0 (0)
Comm  time (%) = 2.06253e-06 (1.71999)
Outpt time (%) = 0 (0)
Other time (%) = 9.35923e-05 (78.0489)

Nlocal:    41 ave 41 max 41 min
Histogram: 1 0 0 0 0 0 0 0 0 0
Nghost:    185 ave 185 max 185 min
Histogram: 1 0 0 0 0 0 0 0 0 0
Neighs:    359 ave 359 max 359 min
Histogram: 1 0 0 0 0 0 0 0 0 0

Total # of neighbors = 359
Ave neighs/atom = 8.7561
Neighbor list builds = 0
Dangerous builds = 0
	# write_dump all atom ${dumpfile}
        next i
jump SELF loop1
        displace_atoms upper move 0.0 ${ystep1} 0.0 units lattice
        displace_atoms upper move 0.0 0.002 0.0 units lattice
        min_style ${style}
        min_style cg
        minimize ${etol} ${ftol} ${maxiter} ${maxeval}
        minimize 1e-12 ${ftol} ${maxiter} ${maxeval}
        minimize 1e-12 1e-08 ${maxiter} ${maxeval}
        minimize 1e-12 1e-08 10000 ${maxeval}
        minimize 1e-12 1e-08 10000 20000
WARNING: Resetting reneighboring criteria during minimization (../min.cpp:168)
Memory usage per processor = 3.35952 Mbytes
Step Temp PotEng Lx Ly Lz 
      38            0   -120.75616    1.0000002    34.779588    1.0000002 
      39            0   -120.75616    1.0000002    34.779588    1.0000002 
Loop time of 3.81174e-05 on 1 procs for 1 steps with 41 atoms

Minimization stats:
  Stopping criterion = linesearch alpha is zero
  Energy initial, next-to-last, final = 
        -120.756155104     -120.756155104     -120.756155104
  Force two-norm initial, final = 2.98091e-17 2.98091e-17
  Force max component initial, final = 2.96546e-17 2.96546e-17
  Final line search alpha, max atom move = 0.5 1.48273e-17
  Iterations, force evaluations = 1 2

Pair  time (%) = 2.4013e-05 (62.9974)
Neigh time (%) = 0 (0)
Comm  time (%) = 2.56835e-06 (6.73801)
Outpt time (%) = 0 (0)
Other time (%) = 1.15361e-05 (30.2645)

Nlocal:    41 ave 41 max 41 min
Histogram: 1 0 0 0 0 0 0 0 0 0
Nghost:    185 ave 185 max 185 min
Histogram: 1 0 0 0 0 0 0 0 0 0
Neighs:    359 ave 359 max 359 min
Histogram: 1 0 0 0 0 0 0 0 0 0

Total # of neighbors = 359
Ave neighs/atom = 8.7561
Neighbor list builds = 0
Dangerous builds = 0
	# write_dump all atom ${dumpfile}
        next i
jump SELF loop1
        displace_atoms upper move 0.0 ${ystep1} 0.0 units lattice
        displace_atoms upper move 0.0 0.002 0.0 units lattice
        min_style ${style}
        min_style cg
        minimize ${etol} ${ftol} ${maxiter} ${maxeval}
        minimize 1e-12 ${ftol} ${maxiter} ${maxeval}
        minimize 1e-12 1e-08 ${maxiter} ${maxeval}
        minimize 1e-12 1e-08 10000 ${maxeval}
        minimize 1e-12 1e-08 10000 20000
WARNING: Resetting reneighboring criteria during minimization (../min.cpp:168)
Memory usage per processor = 3.35952 Mbytes
Step Temp PotEng Lx Ly Lz 
      39            0   -120.74644    1.0000002    34.783052    1.0000002 
      40            0   -120.74644    1.0000002    34.783052    1.0000002 
Loop time of 4.79572e-05 on 1 procs for 1 steps with 41 atoms

Minimization stats:
  Stopping criterion = linesearch alpha is zero
  Energy initial, next-to-last, final = 
        -120.746438541     -120.746438541     -120.746438541
  Force two-norm initial, final = 3.44961e-17 3.44961e-17
  Force max component initial, final = 2.96546e-17 2.96546e-17
  Final line search alpha, max atom move = 0.5 1.48273e-17
  Iterations, force evaluations = 1 2

Pair  time (%) = 3.09956e-05 (64.6318)
Neigh time (%) = 0 (0)
Comm  time (%) = 5.00353e-06 (10.4333)
Outpt time (%) = 0 (0)
Other time (%) = 1.19581e-05 (24.9349)

Nlocal:    41 ave 41 max 41 min
Histogram: 1 0 0 0 0 0 0 0 0 0
Nghost:    185 ave 185 max 185 min
Histogram: 1 0 0 0 0 0 0 0 0 0
Neighs:    359 ave 359 max 359 min
Histogram: 1 0 0 0 0 0 0 0 0 0

Total # of neighbors = 359
Ave neighs/atom = 8.7561
Neighbor list builds = 0
Dangerous builds = 0
	# write_dump all atom ${dumpfile}
        next i
jump SELF loop1
        displace_atoms upper move 0.0 ${ystep1} 0.0 units lattice
        displace_atoms upper move 0.0 0.002 0.0 units lattice
        min_style ${style}
        min_style cg
        minimize ${etol} ${ftol} ${maxiter} ${maxeval}
        minimize 1e-12 ${ftol} ${maxiter} ${maxeval}
        minimize 1e-12 1e-08 ${maxiter} ${maxeval}
        minimize 1e-12 1e-08 10000 ${maxeval}
        minimize 1e-12 1e-08 10000 20000
WARNING: Resetting reneighboring criteria during minimization (../min.cpp:168)
Memory usage per processor = 3.35952 Mbytes
Step Temp PotEng Lx Ly Lz 
      40            0   -120.73662    1.0000002    34.786517    1.0000002 
      41            0   -120.73662    1.0000002    34.786517    1.0000002 
Loop time of 3.79574e-05 on 1 procs for 1 steps with 41 atoms

Minimization stats:
  Stopping criterion = linesearch alpha is zero
  Energy initial, next-to-last, final = 
        -120.736616256     -120.736616256     -120.736616256
  Force two-norm initial, final = 5.20422e-17 5.20422e-17
  Force max component initial, final = 4.27667e-17 4.27667e-17
  Final line search alpha, max atom move = 0.5 2.13833e-17
  Iterations, force evaluations = 1 2

Pair  time (%) = 2.32485e-05 (61.2488)
Neigh time (%) = 0 (0)
Comm  time (%) = 3.99305e-06 (10.5198)
Outpt time (%) = 0 (0)
Other time (%) = 1.07159e-05 (28.2314)

Nlocal:    41 ave 41 max 41 min
Histogram: 1 0 0 0 0 0 0 0 0 0
Nghost:    185 ave 185 max 185 min
Histogram: 1 0 0 0 0 0 0 0 0 0
Neighs:    359 ave 359 max 359 min
Histogram: 1 0 0 0 0 0 0 0 0 0

Total # of neighbors = 359
Ave neighs/atom = 8.7561
Neighbor list builds = 0
Dangerous builds = 0
	# write_dump all atom ${dumpfile}
        next i
jump SELF loop1
        displace_atoms upper move 0.0 ${ystep1} 0.0 units lattice
        displace_atoms upper move 0.0 0.002 0.0 units lattice
        min_style ${style}
        min_style cg
        minimize ${etol} ${ftol} ${maxiter} ${maxeval}
        minimize 1e-12 ${ftol} ${maxiter} ${maxeval}
        minimize 1e-12 1e-08 ${maxiter} ${maxeval}
        minimize 1e-12 1e-08 10000 ${maxeval}
        minimize 1e-12 1e-08 10000 20000
WARNING: Resetting reneighboring criteria during minimization (../min.cpp:168)
Memory usage per processor = 3.35952 Mbytes
Step Temp PotEng Lx Ly Lz 
      41            0   -120.72669    1.0000002    34.789981    1.0000002 
      42            0   -120.72669    1.0000002    34.789981    1.0000002 
Loop time of 3.70109e-05 on 1 procs for 1 steps with 41 atoms

Minimization stats:
  Stopping criterion = linesearch alpha is zero
  Energy initial, next-to-last, final = 
        -120.726689974     -120.726689974     -120.726689974
  Force two-norm initial, final = 3.19045e-17 3.19045e-17
  Force max component initial, final = 2.96546e-17 2.96546e-17
  Final line search alpha, max atom move = 0.5 1.48273e-17
  Iterations, force evaluations = 1 2

Pair  time (%) = 2.26935e-05 (61.3159)
Neigh time (%) = 0 (0)
Comm  time (%) = 2.31364e-06 (6.25124)
Outpt time (%) = 0 (0)
Other time (%) = 1.20037e-05 (32.4329)

Nlocal:    41 ave 41 max 41 min
Histogram: 1 0 0 0 0 0 0 0 0 0
Nghost:    185 ave 185 max 185 min
Histogram: 1 0 0 0 0 0 0 0 0 0
Neighs:    359 ave 359 max 359 min
Histogram: 1 0 0 0 0 0 0 0 0 0

Total # of neighbors = 359
Ave neighs/atom = 8.7561
Neighbor list builds = 0
Dangerous builds = 0
	# write_dump all atom ${dumpfile}
        next i
jump SELF loop1
        displace_atoms upper move 0.0 ${ystep1} 0.0 units lattice
        displace_atoms upper move 0.0 0.002 0.0 units lattice
        min_style ${style}
        min_style cg
        minimize ${etol} ${ftol} ${maxiter} ${maxeval}
        minimize 1e-12 ${ftol} ${maxiter} ${maxeval}
        minimize 1e-12 1e-08 ${maxiter} ${maxeval}
        minimize 1e-12 1e-08 10000 ${maxeval}
        minimize 1e-12 1e-08 10000 20000
WARNING: Resetting reneighboring criteria during minimization (../min.cpp:168)
Memory usage per processor = 3.35952 Mbytes
Step Temp PotEng Lx Ly Lz 
      42            0   -120.71666    1.0000002    34.793445    1.0000002 
      43            0   -120.71666    1.0000002    34.793445    1.0000002 
Loop time of 3.69105e-05 on 1 procs for 1 steps with 41 atoms

Minimization stats:
  Stopping criterion = linesearch alpha is zero
  Energy initial, next-to-last, final = 
        -120.716661278     -120.716661278     -120.716661278
  Force two-norm initial, final = 3.35871e-17 3.35871e-17
  Force max component initial, final = 2.96546e-17 2.96546e-17
  Final line search alpha, max atom move = 0.5 1.48273e-17
  Iterations, force evaluations = 1 2

Pair  time (%) = 2.41079e-05 (65.3143)
Neigh time (%) = 0 (0)
Comm  time (%) = 2.758e-06 (7.47211)
Outpt time (%) = 0 (0)
Other time (%) = 1.00447e-05 (27.2135)

Nlocal:    41 ave 41 max 41 min
Histogram: 1 0 0 0 0 0 0 0 0 0
Nghost:    185 ave 185 max 185 min
Histogram: 1 0 0 0 0 0 0 0 0 0
Neighs:    359 ave 359 max 359 min
Histogram: 1 0 0 0 0 0 0 0 0 0

Total # of neighbors = 359
Ave neighs/atom = 8.7561
Neighbor list builds = 0
Dangerous builds = 0
	# write_dump all atom ${dumpfile}
        next i
jump SELF loop1
        displace_atoms upper move 0.0 ${ystep1} 0.0 units lattice
        displace_atoms upper move 0.0 0.002 0.0 units lattice
        min_style ${style}
        min_style cg
        minimize ${etol} ${ftol} ${maxiter} ${maxeval}
        minimize 1e-12 ${ftol} ${maxiter} ${maxeval}
        minimize 1e-12 1e-08 ${maxiter} ${maxeval}
        minimize 1e-12 1e-08 10000 ${maxeval}
        minimize 1e-12 1e-08 10000 20000
WARNING: Resetting reneighboring criteria during minimization (../min.cpp:168)
Memory usage per processor = 3.35952 Mbytes
Step Temp PotEng Lx Ly Lz 
      43            0   -120.70653    1.0000002    34.796909    1.0000002 
      44            0   -120.70653    1.0000002    34.796909    1.0000002 
Loop time of 3.6972e-05 on 1 procs for 1 steps with 41 atoms

Minimization stats:
  Stopping criterion = linesearch alpha is zero
  Energy initial, next-to-last, final = 
        -120.706531628     -120.706531628     -120.706531628
  Force two-norm initial, final = 5.36207e-17 5.36207e-17
  Force max component initial, final = 4.46742e-17 4.46742e-17
  Final line search alpha, max atom move = 0.5 2.23371e-17
  Iterations, force evaluations = 1 2

Pair  time (%) = 2.42922e-05 (65.7042)
Neigh time (%) = 0 (0)
Comm  time (%) = 3.12668e-06 (8.4569)
Outpt time (%) = 0 (0)
Other time (%) = 9.55316e-06 (25.8389)

Nlocal:    41 ave 41 max 41 min
Histogram: 1 0 0 0 0 0 0 0 0 0
Nghost:    185 ave 185 max 185 min
Histogram: 1 0 0 0 0 0 0 0 0 0
Neighs:    359 ave 359 max 359 min
Histogram: 1 0 0 0 0 0 0 0 0 0

Total # of neighbors = 359
Ave neighs/atom = 8.7561
Neighbor list builds = 0
Dangerous builds = 0
	# write_dump all atom ${dumpfile}
        next i
jump SELF loop1
        displace_atoms upper move 0.0 ${ystep1} 0.0 units lattice
        displace_atoms upper move 0.0 0.002 0.0 units lattice
        min_style ${style}
        min_style cg
        minimize ${etol} ${ftol} ${maxiter} ${maxeval}
        minimize 1e-12 ${ftol} ${maxiter} ${maxeval}
        minimize 1e-12 1e-08 ${maxiter} ${maxeval}
        minimize 1e-12 1e-08 10000 ${maxeval}
        minimize 1e-12 1e-08 10000 20000
WARNING: Resetting reneighboring criteria during minimization (../min.cpp:168)
Memory usage per processor = 3.35952 Mbytes
Step Temp PotEng Lx Ly Lz 
      44            0    -120.6963    1.0000002    34.800373    1.0000002 
      45            0    -120.6963    1.0000002    34.800373    1.0000002 
Loop time of 4.00142e-05 on 1 procs for 1 steps with 41 atoms

Minimization stats:
  Stopping criterion = linesearch alpha is zero
  Energy initial, next-to-last, final = 
        -120.696302425     -120.696302425     -120.696302425
  Force two-norm initial, final = 2.98319e-17 2.98319e-17
  Force max component initial, final = 2.96546e-17 2.96546e-17
  Final line search alpha, max atom move = 0.5 1.48273e-17
  Iterations, force evaluations = 1 2

Pair  time (%) = 2.3935e-05 (59.8163)
Neigh time (%) = 0 (0)
Comm  time (%) = 3.88909e-06 (9.71928)
Outpt time (%) = 0 (0)
Other time (%) = 1.21901e-05 (30.4644)

Nlocal:    41 ave 41 max 41 min
Histogram: 1 0 0 0 0 0 0 0 0 0
Nghost:    185 ave 185 max 185 min
Histogram: 1 0 0 0 0 0 0 0 0 0
Neighs:    359 ave 359 max 359 min
Histogram: 1 0 0 0 0 0 0 0 0 0

Total # of neighbors = 359
Ave neighs/atom = 8.7561
Neighbor list builds = 0
Dangerous builds = 0
	# write_dump all atom ${dumpfile}
        next i
jump SELF loop1
        displace_atoms upper move 0.0 ${ystep1} 0.0 units lattice
        displace_atoms upper move 0.0 0.002 0.0 units lattice
        min_style ${style}
        min_style cg
        minimize ${etol} ${ftol} ${maxiter} ${maxeval}
        minimize 1e-12 ${ftol} ${maxiter} ${maxeval}
        minimize 1e-12 1e-08 ${maxiter} ${maxeval}
        minimize 1e-12 1e-08 10000 ${maxeval}
[...]
Histogram: 1 0 0 0 0 0 0 0 0 0
Nghost:    185 ave 185 max 185 min
Histogram: 1 0 0 0 0 0 0 0 0 0
Neighs:    349 ave 349 max 349 min
Histogram: 1 0 0 0 0 0 0 0 0 0

Total # of neighbors = 349
Ave neighs/atom = 8.5122
Neighbor list builds = 0
Dangerous builds = 0
	# write_dump all atom ${dumpfile}
        next i
jump SELF loop1
        displace_atoms upper move 0.0 ${ystep1} 0.0 units lattice
        displace_atoms upper move 0.0 0.002 0.0 units lattice
        min_style ${style}
        min_style cg
        minimize ${etol} ${ftol} ${maxiter} ${maxeval}
        minimize 1e-12 ${ftol} ${maxiter} ${maxeval}
        minimize 1e-12 1e-08 ${maxiter} ${maxeval}
        minimize 1e-12 1e-08 10000 ${maxeval}
        minimize 1e-12 1e-08 10000 20000
WARNING: Resetting reneighboring criteria during minimization (../min.cpp:168)
Memory usage per processor = 3.35955 Mbytes
Step Temp PotEng Lx Ly Lz 
     490            0   -118.99996    1.0000002    36.345363    1.0000002 
     491            0   -118.99996    1.0000002    36.345363    1.0000002 
Loop time of 0.029039 on 1 procs for 1 steps with 41 atoms

Minimization stats:
  Stopping criterion = search direction is not downhill
  Energy initial, next-to-last, final = 
        -118.999956633     -118.999956633     -118.999956633
  Force two-norm initial, final = 0 0
  Force max component initial, final = 0 0
  Final line search alpha, max atom move = 0.5 0
  Iterations, force evaluations = 1 0

Pair  time (%) = 7.91112e-06 (0.0272431)
Neigh time (%) = 0 (0)
Comm  time (%) = 2.14647e-06 (0.00739166)
Outpt time (%) = 0 (0)
Other time (%) = 0.029029 (99.9654)

Nlocal:    41 ave 41 max 41 min
Histogram: 1 0 0 0 0 0 0 0 0 0
Nghost:    185 ave 185 max 185 min
Histogram: 1 0 0 0 0 0 0 0 0 0
Neighs:    349 ave 349 max 349 min
Histogram: 1 0 0 0 0 0 0 0 0 0

Total # of neighbors = 349
Ave neighs/atom = 8.5122
Neighbor list builds = 0
Dangerous builds = 0
	# write_dump all atom ${dumpfile}
        next i
jump SELF loop1
        displace_atoms upper move 0.0 ${ystep1} 0.0 units lattice
        displace_atoms upper move 0.0 0.002 0.0 units lattice
        min_style ${style}
        min_style cg
        minimize ${etol} ${ftol} ${maxiter} ${maxeval}
        minimize 1e-12 ${ftol} ${maxiter} ${maxeval}
        minimize 1e-12 1e-08 ${maxiter} ${maxeval}
        minimize 1e-12 1e-08 10000 ${maxeval}
        minimize 1e-12 1e-08 10000 20000
WARNING: Resetting reneighboring criteria during minimization (../min.cpp:168)
Memory usage per processor = 3.35955 Mbytes
Step Temp PotEng Lx Ly Lz 
     491            0   -118.99996    1.0000002    36.348827    1.0000002 
     492            0   -118.99996    1.0000002    36.348827    1.0000002 
Loop time of 1.79184e-05 on 1 procs for 1 steps with 41 atoms

Minimization stats:
  Stopping criterion = search direction is not downhill
  Energy initial, next-to-last, final = 
        -118.999956633     -118.999956633     -118.999956633
  Force two-norm initial, final = 0 0
  Force max component initial, final = 0 0
  Final line search alpha, max atom move = 0.5 0
  Iterations, force evaluations = 1 0

Pair  time (%) = 9.05746e-06 (50.5483)
Neigh time (%) = 0 (0)
Comm  time (%) = 1.00862e-06 (5.62897)
Outpt time (%) = 0 (0)
Other time (%) = 7.85233e-06 (43.8227)

Nlocal:    41 ave 41 max 41 min
Histogram: 1 0 0 0 0 0 0 0 0 0
Nghost:    185 ave 185 max 185 min
Histogram: 1 0 0 0 0 0 0 0 0 0
Neighs:    349 ave 349 max 349 min
Histogram: 1 0 0 0 0 0 0 0 0 0

Total # of neighbors = 349
Ave neighs/atom = 8.5122
Neighbor list builds = 0
Dangerous builds = 0
	# write_dump all atom ${dumpfile}
        next i
jump SELF loop1
        displace_atoms upper move 0.0 ${ystep1} 0.0 units lattice
        displace_atoms upper move 0.0 0.002 0.0 units lattice
        min_style ${style}
        min_style cg
        minimize ${etol} ${ftol} ${maxiter} ${maxeval}
        minimize 1e-12 ${ftol} ${maxiter} ${maxeval}
        minimize 1e-12 1e-08 ${maxiter} ${maxeval}
        minimize 1e-12 1e-08 10000 ${maxeval}
        minimize 1e-12 1e-08 10000 20000
WARNING: Resetting reneighboring criteria during minimization (../min.cpp:168)
Memory usage per processor = 3.35955 Mbytes
Step Temp PotEng Lx Ly Lz 
     492            0   -118.99996    1.0000002    36.352291    1.0000002 
     493            0   -118.99996    1.0000002    36.352291    1.0000002 
Loop time of 1.80861e-05 on 1 procs for 1 steps with 41 atoms

Minimization stats:
  Stopping criterion = search direction is not downhill
  Energy initial, next-to-last, final = 
        -118.999956633     -118.999956633     -118.999956633
  Force two-norm initial, final = 0 0
  Force max component initial, final = 0 0
  Final line search alpha, max atom move = 0.5 0
  Iterations, force evaluations = 1 0

Pair  time (%) = 8.98668e-06 (49.6885)
Neigh time (%) = 0 (0)
Comm  time (%) = 8.67061e-07 (4.79409)
Outpt time (%) = 0 (0)
Other time (%) = 8.23231e-06 (45.5175)

Nlocal:    41 ave 41 max 41 min
Histogram: 1 0 0 0 0 0 0 0 0 0
Nghost:    185 ave 185 max 185 min
Histogram: 1 0 0 0 0 0 0 0 0 0
Neighs:    349 ave 349 max 349 min
Histogram: 1 0 0 0 0 0 0 0 0 0

Total # of neighbors = 349
Ave neighs/atom = 8.5122
Neighbor list builds = 0
Dangerous builds = 0
	# write_dump all atom ${dumpfile}
        next i
jump SELF loop1
        displace_atoms upper move 0.0 ${ystep1} 0.0 units lattice
        displace_atoms upper move 0.0 0.002 0.0 units lattice
        min_style ${style}
        min_style cg
        minimize ${etol} ${ftol} ${maxiter} ${maxeval}
        minimize 1e-12 ${ftol} ${maxiter} ${maxeval}
        minimize 1e-12 1e-08 ${maxiter} ${maxeval}
        minimize 1e-12 1e-08 10000 ${maxeval}
        minimize 1e-12 1e-08 10000 20000
WARNING: Resetting reneighboring criteria during minimization (../min.cpp:168)
Memory usage per processor = 3.35955 Mbytes
Step Temp PotEng Lx Ly Lz 
     493            0   -118.99996    1.0000002    36.355755    1.0000002 
     494            0   -118.99996    1.0000002    36.355755    1.0000002 
Loop time of 1.70548e-05 on 1 procs for 1 steps with 41 atoms

Minimization stats:
  Stopping criterion = search direction is not downhill
  Energy initial, next-to-last, final = 
        -118.999956633     -118.999956633     -118.999956633
  Force two-norm initial, final = 0 0
  Force max component initial, final = 0 0
  Final line search alpha, max atom move = 0.5 0
  Iterations, force evaluations = 1 0

Pair  time (%) = 8.90915e-06 (52.2382)
Neigh time (%) = 0 (0)
Comm  time (%) = 2.18884e-06 (12.8341)
Outpt time (%) = 0 (0)
Other time (%) = 5.95686e-06 (34.9276)

Nlocal:    41 ave 41 max 41 min
Histogram: 1 0 0 0 0 0 0 0 0 0
Nghost:    185 ave 185 max 185 min
Histogram: 1 0 0 0 0 0 0 0 0 0
Neighs:    349 ave 349 max 349 min
Histogram: 1 0 0 0 0 0 0 0 0 0

Total # of neighbors = 349
Ave neighs/atom = 8.5122
Neighbor list builds = 0
Dangerous builds = 0
	# write_dump all atom ${dumpfile}
        next i
jump SELF loop1
        displace_atoms upper move 0.0 ${ystep1} 0.0 units lattice
        displace_atoms upper move 0.0 0.002 0.0 units lattice
        min_style ${style}
        min_style cg
        minimize ${etol} ${ftol} ${maxiter} ${maxeval}
        minimize 1e-12 ${ftol} ${maxiter} ${maxeval}
        minimize 1e-12 1e-08 ${maxiter} ${maxeval}
        minimize 1e-12 1e-08 10000 ${maxeval}
        minimize 1e-12 1e-08 10000 20000
WARNING: Resetting reneighboring criteria during minimization (../min.cpp:168)
Memory usage per processor = 3.35955 Mbytes
Step Temp PotEng Lx Ly Lz 
     494            0   -118.99996    1.0000002    36.359219    1.0000002 
     495            0   -118.99996    1.0000002    36.359219    1.0000002 
Loop time of 1.80856e-05 on 1 procs for 1 steps with 41 atoms

Minimization stats:
  Stopping criterion = search direction is not downhill
  Energy initial, next-to-last, final = 
        -118.999956633     -118.999956633     -118.999956633
  Force two-norm initial, final = 0 0
  Force max component initial, final = 0 0
  Final line search alpha, max atom move = 0.5 0
  Iterations, force evaluations = 1 0

Pair  time (%) = 7.98609e-06 (44.1572)
Neigh time (%) = 0 (0)
Comm  time (%) = 1.0581e-06 (5.85051)
Outpt time (%) = 0 (0)
Other time (%) = 9.0414e-06 (49.9923)

Nlocal:    41 ave 41 max 41 min
Histogram: 1 0 0 0 0 0 0 0 0 0
Nghost:    185 ave 185 max 185 min
Histogram: 1 0 0 0 0 0 0 0 0 0
Neighs:    349 ave 349 max 349 min
Histogram: 1 0 0 0 0 0 0 0 0 0

Total # of neighbors = 349
Ave neighs/atom = 8.5122
Neighbor list builds = 0
Dangerous builds = 0
	# write_dump all atom ${dumpfile}
        next i
jump SELF loop1
        displace_atoms upper move 0.0 ${ystep1} 0.0 units lattice
        displace_atoms upper move 0.0 0.002 0.0 units lattice
        min_style ${style}
        min_style cg
        minimize ${etol} ${ftol} ${maxiter} ${maxeval}
        minimize 1e-12 ${ftol} ${maxiter} ${maxeval}
        minimize 1e-12 1e-08 ${maxiter} ${maxeval}
        minimize 1e-12 1e-08 10000 ${maxeval}
        minimize 1e-12 1e-08 10000 20000
WARNING: Resetting reneighboring criteria during minimization (../min.cpp:168)
Memory usage per processor = 3.35955 Mbytes
Step Temp PotEng Lx Ly Lz 
     495            0   -118.99996    1.0000002    36.362683    1.0000002 
     496            0   -118.99996    1.0000002    36.362683    1.0000002 
Loop time of 1.79018e-05 on 1 procs for 1 steps with 41 atoms

Minimization stats:
  Stopping criterion = search direction is not downhill
  Energy initial, next-to-last, final = 
        -118.999956633     -118.999956633     -118.999956633
  Force two-norm initial, final = 0 0
  Force max component initial, final = 0 0
  Final line search alpha, max atom move = 0.5 0
  Iterations, force evaluations = 1 0

Pair  time (%) = 8.04069e-06 (44.9156)
Neigh time (%) = 0 (0)
Comm  time (%) = 9.28878e-07 (5.18875)
Outpt time (%) = 0 (0)
Other time (%) = 8.9322e-06 (49.8956)

Nlocal:    41 ave 41 max 41 min
Histogram: 1 0 0 0 0 0 0 0 0 0
Nghost:    185 ave 185 max 185 min
Histogram: 1 0 0 0 0 0 0 0 0 0
Neighs:    349 ave 349 max 349 min
Histogram: 1 0 0 0 0 0 0 0 0 0

Total # of neighbors = 349
Ave neighs/atom = 8.5122
Neighbor list builds = 0
Dangerous builds = 0
	# write_dump all atom ${dumpfile}
        next i
jump SELF loop1
        displace_atoms upper move 0.0 ${ystep1} 0.0 units lattice
        displace_atoms upper move 0.0 0.002 0.0 units lattice
        min_style ${style}
        min_style cg
        minimize ${etol} ${ftol} ${maxiter} ${maxeval}
        minimize 1e-12 ${ftol} ${maxiter} ${maxeval}
        minimize 1e-12 1e-08 ${maxiter} ${maxeval}
        minimize 1e-12 1e-08 10000 ${maxeval}
        minimize 1e-12 1e-08 10000 20000
WARNING: Resetting reneighboring criteria during minimization (../min.cpp:168)
Memory usage per processor = 3.35955 Mbytes
Step Temp PotEng Lx Ly Lz 
     496            0   -118.99996    1.0000002    36.366147    1.0000002 
     497            0   -118.99996    1.0000002    36.366147    1.0000002 
Loop time of 1.798e-05 on 1 procs for 1 steps with 41 atoms

Minimization stats:
  Stopping criterion = search direction is not downhill
  Energy initial, next-to-last, final = 
        -118.999956633     -118.999956633     -118.999956633
  Force two-norm initial, final = 0 0
  Force max component initial, final = 0 0
  Final line search alpha, max atom move = 0.5 0
  Iterations, force evaluations = 1 0

Pair  time (%) = 9.11893e-06 (50.7171)
Neigh time (%) = 0 (0)
Comm  time (%) = 1.13167e-06 (6.29407)
Outpt time (%) = 0 (0)
Other time (%) = 7.7294e-06 (42.9889)

Nlocal:    41 ave 41 max 41 min
Histogram: 1 0 0 0 0 0 0 0 0 0
Nghost:    185 ave 185 max 185 min
Histogram: 1 0 0 0 0 0 0 0 0 0
Neighs:    349 ave 349 max 349 min
Histogram: 1 0 0 0 0 0 0 0 0 0

Total # of neighbors = 349
Ave neighs/atom = 8.5122
Neighbor list builds = 0
Dangerous builds = 0
	# write_dump all atom ${dumpfile}
        next i
jump SELF loop1
        displace_atoms upper move 0.0 ${ystep1} 0.0 units lattice
        displace_atoms upper move 0.0 0.002 0.0 units lattice
        min_style ${style}
        min_style cg
        minimize ${etol} ${ftol} ${maxiter} ${maxeval}
        minimize 1e-12 ${ftol} ${maxiter} ${maxeval}
        minimize 1e-12 1e-08 ${maxiter} ${maxeval}
        minimize 1e-12 1e-08 10000 ${maxeval}
        minimize 1e-12 1e-08 10000 20000
WARNING: Resetting reneighboring criteria during minimization (../min.cpp:168)
Memory usage per processor = 3.35955 Mbytes
Step Temp PotEng Lx Ly Lz 
     497            0   -118.99996    1.0000002    36.369611    1.0000002 
     498            0   -118.99996    1.0000002    36.369611    1.0000002 
Loop time of 1.70222e-05 on 1 procs for 1 steps with 41 atoms

Minimization stats:
  Stopping criterion = search direction is not downhill
  Energy initial, next-to-last, final = 
        -118.999956633     -118.999956633     -118.999956633
  Force two-norm initial, final = 0 0
  Force max component initial, final = 0 0
  Final line search alpha, max atom move = 0.5 0
  Iterations, force evaluations = 1 0

Pair  time (%) = 9.11485e-06 (53.5467)
Neigh time (%) = 0 (0)
Comm  time (%) = 1.12352e-06 (6.60033)
Outpt time (%) = 0 (0)
Other time (%) = 6.78387e-06 (39.853)

Nlocal:    41 ave 41 max 41 min
Histogram: 1 0 0 0 0 0 0 0 0 0
Nghost:    185 ave 185 max 185 min
Histogram: 1 0 0 0 0 0 0 0 0 0
Neighs:    349 ave 349 max 349 min
Histogram: 1 0 0 0 0 0 0 0 0 0

Total # of neighbors = 349
Ave neighs/atom = 8.5122
Neighbor list builds = 0
Dangerous builds = 0
	# write_dump all atom ${dumpfile}
        next i
jump SELF loop1
        displace_atoms upper move 0.0 ${ystep1} 0.0 units lattice
        displace_atoms upper move 0.0 0.002 0.0 units lattice
        min_style ${style}
        min_style cg
        minimize ${etol} ${ftol} ${maxiter} ${maxeval}
        minimize 1e-12 ${ftol} ${maxiter} ${maxeval}
        minimize 1e-12 1e-08 ${maxiter} ${maxeval}
        minimize 1e-12 1e-08 10000 ${maxeval}
        minimize 1e-12 1e-08 10000 20000
WARNING: Resetting reneighboring criteria during minimization (../min.cpp:168)
Memory usage per processor = 3.35955 Mbytes
Step Temp PotEng Lx Ly Lz 
     498            0   -118.99996    1.0000002    36.373075    1.0000002 
     499            0   -118.99996    1.0000002    36.373075    1.0000002 
Loop time of 1.70182e-05 on 1 procs for 1 steps with 41 atoms

Minimization stats:
  Stopping criterion = search direction is not downhill
  Energy initial, next-to-last, final = 
        -118.999956633     -118.999956633     -118.999956633
  Force two-norm initial, final = 0 0
  Force max component initial, final = 0 0
  Final line search alpha, max atom move = 0.5 0
  Iterations, force evaluations = 1 0

Pair  time (%) = 9.11078e-06 (53.5356)
Neigh time (%) = 0 (0)
Comm  time (%) = 2.11538e-06 (12.4301)
Outpt time (%) = 0 (0)
Other time (%) = 5.79201e-06 (34.0343)

Nlocal:    41 ave 41 max 41 min
Histogram: 1 0 0 0 0 0 0 0 0 0
Nghost:    185 ave 185 max 185 min
Histogram: 1 0 0 0 0 0 0 0 0 0
Neighs:    349 ave 349 max 349 min
Histogram: 1 0 0 0 0 0 0 0 0 0

Total # of neighbors = 349
Ave neighs/atom = 8.5122
Neighbor list builds = 0
Dangerous builds = 0
	# write_dump all atom ${dumpfile}
        next i
jump SELF loop1
        displace_atoms upper move 0.0 ${ystep1} 0.0 units lattice
        displace_atoms upper move 0.0 0.002 0.0 units lattice
        min_style ${style}
        min_style cg
        minimize ${etol} ${ftol} ${maxiter} ${maxeval}
        minimize 1e-12 ${ftol} ${maxiter} ${maxeval}
        minimize 1e-12 1e-08 ${maxiter} ${maxeval}
        minimize 1e-12 1e-08 10000 ${maxeval}
        minimize 1e-12 1e-08 10000 20000
WARNING: Resetting reneighboring criteria during minimization (../min.cpp:168)
Memory usage per processor = 3.35955 Mbytes
Step Temp PotEng Lx Ly Lz 
     499            0   -118.99996    1.0000002     36.37654    1.0000002 
     500            0   -118.99996    1.0000002     36.37654    1.0000002 
Loop time of 1.79561e-05 on 1 procs for 1 steps with 41 atoms

Minimization stats:
  Stopping criterion = search direction is not downhill
  Energy initial, next-to-last, final = 
        -118.999956633     -118.999956633     -118.999956633
  Force two-norm initial, final = 0 0
  Force max component initial, final = 0 0
  Final line search alpha, max atom move = 0.5 0
  Iterations, force evaluations = 1 0

Pair  time (%) = 8.09517e-06 (45.0831)
Neigh time (%) = 0 (0)
Comm  time (%) = 1.03773e-06 (5.77923)
Outpt time (%) = 0 (0)
Other time (%) = 8.82323e-06 (49.1377)

Nlocal:    41 ave 41 max 41 min
Histogram: 1 0 0 0 0 0 0 0 0 0
Nghost:    185 ave 185 max 185 min
Histogram: 1 0 0 0 0 0 0 0 0 0
Neighs:    349 ave 349 max 349 min
Histogram: 1 0 0 0 0 0 0 0 0 0

Total # of neighbors = 349
Ave neighs/atom = 8.5122
Neighbor list builds = 0
Dangerous builds = 0
	# write_dump all atom ${dumpfile}
        next i
jump SELF loop1
        displace_atoms upper move 0.0 ${ystep1} 0.0 units lattice
        displace_atoms upper move 0.0 0.002 0.0 units lattice
        min_style ${style}
        min_style cg
        minimize ${etol} ${ftol} ${maxiter} ${maxeval}
        minimize 1e-12 ${ftol} ${maxiter} ${maxeval}
        minimize 1e-12 1e-08 ${maxiter} ${maxeval}
        minimize 1e-12 1e-08 10000 ${maxeval}
        minimize 1e-12 1e-08 10000 20000
WARNING: Resetting reneighboring criteria during minimization (../min.cpp:168)
Memory usage per processor = 3.35955 Mbytes
Step Temp PotEng Lx Ly Lz 
     500            0   -118.99996    1.0000002    36.380004    1.0000002 
     501            0   -118.99996    1.0000002    36.380004    1.0000002 
Loop time of 1.90941e-05 on 1 procs for 1 steps with 41 atoms

Minimization stats:
  Stopping criterion = search direction is not downhill
  Energy initial, next-to-last, final = 
        -118.999956633     -118.999956633     -118.999956633
  Force two-norm initial, final = 0 0
  Force max component initial, final = 0 0
  Final line search alpha, max atom move = 0.5 0
  Iterations, force evaluations = 1 0

Pair  time (%) = 8.04104e-06 (42.1127)
Neigh time (%) = 0 (0)
Comm  time (%) = 1.88325e-06 (9.863)
Outpt time (%) = 0 (0)
Other time (%) = 9.1698e-06 (48.0243)

Nlocal:    41 ave 41 max 41 min
Histogram: 1 0 0 0 0 0 0 0 0 0
Nghost:    185 ave 185 max 185 min
Histogram: 1 0 0 0 0 0 0 0 0 0
Neighs:    349 ave 349 max 349 min
Histogram: 1 0 0 0 0 0 0 0 0 0

Total # of neighbors = 349
Ave neighs/atom = 8.5122
Neighbor list builds = 0
Dangerous builds = 0
	# write_dump all atom ${dumpfile}
        next i
jump SELF loop1

unfix 2
min_style ${style}
min_style cg
minimize ${etol} ${ftol} ${maxiter} ${maxeval}
minimize 1e-12 ${ftol} ${maxiter} ${maxeval}
minimize 1e-12 1e-08 ${maxiter} ${maxeval}
minimize 1e-12 1e-08 10000 ${maxeval}
minimize 1e-12 1e-08 10000 20000
WARNING: Resetting reneighboring criteria during minimization (../min.cpp:168)
Memory usage per processor = 3.35955 Mbytes
Step Temp PotEng Lx Ly Lz 
     501            0   -118.99996    1.0000002    36.380004    1.0000002 
     502            0   -118.99996    1.0000002    36.380004    1.0000002 
Loop time of 3.79083e-05 on 1 procs for 1 steps with 41 atoms

Minimization stats:
  Stopping criterion = linesearch alpha is zero
  Energy initial, next-to-last, final = 
        -118.999956633     -118.999956633     -118.999956633
  Force two-norm initial, final = 6.11446e-06 6.11446e-06
  Force max component initial, final = 3.05723e-06 3.05723e-06
  Final line search alpha, max atom move = 0.5 1.52862e-06
  Iterations, force evaluations = 1 2

Pair  time (%) = 2.41937e-05 (63.8215)
Neigh time (%) = 0 (0)
Comm  time (%) = 1.97603e-06 (5.21266)
Outpt time (%) = 0 (0)
Other time (%) = 1.17386e-05 (30.9658)

Nlocal:    41 ave 41 max 41 min
Histogram: 1 0 0 0 0 0 0 0 0 0
Nghost:    185 ave 185 max 185 min
Histogram: 1 0 0 0 0 0 0 0 0 0
Neighs:    349 ave 349 max 349 min
Histogram: 1 0 0 0 0 0 0 0 0 0

Total # of neighbors = 349
Ave neighs/atom = 8.5122
Neighbor list builds = 0
Dangerous builds = 0

