LAMMPS (28 Jun 2014)
# attempt at getting tensile strain-stress curve for infinite slab

#file prefix
variable prefix string tension_V_brittle
variable dumpfile string ${prefix}.*.dump
variable dumpfile string tension_V_brittle.*.dump
variable restartfile string ${prefix}.*.equil
variable restartfile string tension_V_brittle.*.equil

#Mass (g/mol)
variable m equal 1

# lattice constant (in Angstroms) and orientation of axes (given by lattice vectors)
variable rho equal 1.0
variable x1 equal 1
variable x2 equal 1
variable x3 equal -2
variable y1 equal 1
variable y2 equal 1
variable y3 equal 1
variable z1 equal 1
variable z2 equal -1
variable z3 equal 0
# length of lattice in different directions (using orientation of lattice vectors)
variable ax equal sqrt(${x1}*${x1}+${x2}*${x2}+${x3}*${x3})
variable ax equal sqrt(1*${x1}+${x2}*${x2}+${x3}*${x3})
variable ax equal sqrt(1*1+${x2}*${x2}+${x3}*${x3})
variable ax equal sqrt(1*1+1*${x2}+${x3}*${x3})
variable ax equal sqrt(1*1+1*1+${x3}*${x3})
variable ax equal sqrt(1*1+1*1+-2*${x3})
variable ax equal sqrt(1*1+1*1+-2*-2)
variable ay equal sqrt(${y1}*${y1}+${y2}*${y2}+${y3}*${y3})
variable ay equal sqrt(1*${y1}+${y2}*${y2}+${y3}*${y3})
variable ay equal sqrt(1*1+${y2}*${y2}+${y3}*${y3})
variable ay equal sqrt(1*1+1*${y2}+${y3}*${y3})
variable ay equal sqrt(1*1+1*1+${y3}*${y3})
variable ay equal sqrt(1*1+1*1+1*${y3})
variable ay equal sqrt(1*1+1*1+1*1)
variable az equal sqrt(${z1}*${z1}+${z2}*${z2}+${z3}*${z3})
variable az equal sqrt(1*${z1}+${z2}*${z2}+${z3}*${z3})
variable az equal sqrt(1*1+${z2}*${z2}+${z3}*${z3})
variable az equal sqrt(1*1+-1*${z2}+${z3}*${z3})
variable az equal sqrt(1*1+-1*-1+${z3}*${z3})
variable az equal sqrt(1*1+-1*-1+0*${z3})
variable az equal sqrt(1*1+-1*-1+0*0)

# size of box in lattice units
variable lxpos equal 2
variable lxneg equal -2
variable lypos equal 79
variable bdthickness equal 3
variable lyposless equal ${lypos}-${bdthickness}
variable lyposless equal 79-${bdthickness}
variable lyposless equal 79-3
variable lyneg equal -1*${lypos}
variable lyneg equal -1*79
variable lynegless equal -1*${lyposless}
variable lynegless equal -1*76
variable lzpos equal 2
variable lzneg equal -2

# Define minimization parameters and damping
variable etol equal 1.0e-12
variable ftol equal 1.0e-8
variable maxiter equal 10000
variable maxeval equal 20000
variable style string hftn

# boundary conditions
dimension	3
boundary	p s p
atom_style	atomic

# create geometry
units		lj
lattice         fcc ${rho} orient x 1 1 -2 orient y 1 1 1 orient z 1 -1 0 spacing ${ax} 1.0 ${az}
lattice         fcc 1 orient x 1 1 -2 orient y 1 1 1 orient z 1 -1 0 spacing ${ax} 1.0 ${az}
lattice         fcc 1 orient x 1 1 -2 orient y 1 1 1 orient z 1 -1 0 spacing 2.44948974278318 1.0 ${az}
lattice         fcc 1 orient x 1 1 -2 orient y 1 1 1 orient z 1 -1 0 spacing 2.44948974278318 1.0 1.4142135623731
Lattice spacing in x,y,z = 3.88832 1.5874 2.24492
region		myregion block ${lxneg} ${lxpos} ${lyneg} ${lypos} ${lzneg} ${lzpos} units lattice
region		myregion block -2 ${lxpos} ${lyneg} ${lypos} ${lzneg} ${lzpos} units lattice
region		myregion block -2 2 ${lyneg} ${lypos} ${lzneg} ${lzpos} units lattice
region		myregion block -2 2 -79 ${lypos} ${lzneg} ${lzpos} units lattice
region		myregion block -2 2 -79 79 ${lzneg} ${lzpos} units lattice
region		myregion block -2 2 -79 79 -2 ${lzpos} units lattice
region		myregion block -2 2 -79 79 -2 2 units lattice
create_box	2 myregion
Created orthogonal box = (-7.77665 -125.405 -4.48985) to (7.77665 125.405 4.48985)
  1 by 1 by 1 MPI processor grid

region		upper block INF INF 0.01 INF INF INF
create_atoms	1 region upper
Created 17408 atoms

region		lower block INF INF INF 0.01 INF INF
lattice         fcc ${rho} orient x 1 1 -2 orient y -1 -1 -1 orient z -1 1 0 spacing ${ax} 1.0 ${az}
lattice         fcc 1 orient x 1 1 -2 orient y -1 -1 -1 orient z -1 1 0 spacing ${ax} 1.0 ${az}
lattice         fcc 1 orient x 1 1 -2 orient y -1 -1 -1 orient z -1 1 0 spacing 2.44948974278318 1.0 ${az}
lattice         fcc 1 orient x 1 1 -2 orient y -1 -1 -1 orient z -1 1 0 spacing 2.44948974278318 1.0 1.4142135623731
Lattice spacing in x,y,z = 3.88832 1.5874 2.24492
create_atoms	1 region lower
Created 17536 atoms

region uppermost block INF INF ${lyposless} INF INF INF units lattice
region uppermost block INF INF 76 INF INF INF units lattice
group uppermost region uppermost
640 atoms in group uppermost
region lowermost block INF INF INF ${lynegless} INF INF units lattice
region lowermost block INF INF INF -76 INF INF units lattice
group lowermost region lowermost
640 atoms in group lowermost
group boundary union uppermost lowermost
1280 atoms in group boundary
set group boundary type 2
  1280 settings made for type
fix 2 boundary setforce NULL 0.0 NULL

# define masses
mass * $m
mass * 1

# my fake/morse potential
pair_style      table linear 3001
pair_coeff      * * vpotential_brittle3d_3 dummy
neighbor	0.3 bin
neigh_modify	delay 5

# Setup output
thermo 1
thermo_style custom step pe pxx pyy pxy lx ly lz
thermo_modify norm no

# Compute initial state by relaxing box
min_style ${style}
min_style hftn
minimize ${etol} ${ftol} ${maxiter} ${maxeval}
minimize 1e-12 ${ftol} ${maxiter} ${maxeval}
minimize 1e-12 1e-08 ${maxiter} ${maxeval}
minimize 1e-12 1e-08 10000 ${maxeval}
minimize 1e-12 1e-08 10000 20000
WARNING: Resetting reneighboring criteria during minimization (../min.cpp:168)
Memory usage per processor = 25.3046 Mbytes
Step PotEng Pxx Pyy Pxy Lx Ly Lz 
       0   -209279.83 0.00029016138 0.0002893635 -1.8471117e-16     15.55329    249.33447    8.9796964 
Loop time of 0.028929 on 1 procs for 0 steps with 34944 atoms

Minimization stats:
  Stopping criterion = force tolerance
  Energy initial, next-to-last, final = 
        -209279.825978     -209279.825978     -209279.825978
  Force two-norm initial, final = 4.30089e-10 4.30089e-10
  Force max component initial, final = 5.51474e-12 5.51474e-12
  Final line search alpha, max atom move = 0 0
  Iterations, force evaluations = 0 0

Pair  time (%) = 0.0285049 (98.5341)
Neigh time (%) = 0 (0)
Comm  time (%) = 0.000200062 (0.691561)
Outpt time (%) = 0 (0)
Other time (%) = 0.000224013 (0.774355)

Nlocal:    34944 ave 34944 max 34944 min
Histogram: 1 0 0 0 0 0 0 0 0 0
Nghost:    36673 ave 36673 max 36673 min
Histogram: 1 0 0 0 0 0 0 0 0 0
Neighs:    940544 ave 940544 max 940544 min
Histogram: 1 0 0 0 0 0 0 0 0 0

Total # of neighbors = 940544
Ave neighs/atom = 26.9158
Neighbor list builds = 0
Dangerous builds = 0
reset_timestep 0
write_dump all atom orig.dump

# Energy curve will have nstep steps
variable strainmax equal 0.05
variable strainstep equal 0.0005
variable nsteps equal round(${strainmax}/${strainstep})
variable nsteps equal round(0.05/${strainstep})
variable nsteps equal round(0.05/0.0005)
variable direction string y

variable i loop ${nsteps}
variable i loop 100
label loop1
	read_dump orig.dump 0 x y z
  orthogonal box = (-7.77665 -124.667 -4.48985) to (7.77665 124.667 4.48985)
  34944 atoms before read
  34944 atoms in snapshot
  0 atoms purged
  34944 atoms replaced
  0 atoms trimmed
  0 atoms added
  34944 atoms after read
        variable stretch equal 1+$i*${strainstep}
        variable stretch equal 1+1*${strainstep}
        variable stretch equal 1+1*0.0005
        change_box all ${direction} scale ${stretch} remap
        change_box all y scale ${stretch} remap
        change_box all y scale 1.0005 remap
  orthogonal box = (-7.77665 -124.754 -4.48985) to (7.77665 124.754 4.48985)
        min_style ${style}
        min_style hftn
        minimize ${etol} ${ftol} ${maxiter} ${maxeval}
        minimize 1e-12 ${ftol} ${maxiter} ${maxeval}
        minimize 1e-12 1e-08 ${maxiter} ${maxeval}
        minimize 1e-12 1e-08 10000 ${maxeval}
        minimize 1e-12 1e-08 10000 20000
WARNING: Resetting reneighboring criteria during minimization (../min.cpp:168)
Memory usage per processor = 25.3046 Mbytes
Step PotEng Pxx Pyy Pxy Lx Ly Lz 
       0   -209278.49 -0.024402713 -0.098252544 1.0589992e-09      15.5533    249.50815       8.9797 
       1   -209278.49 -0.024402255 -0.098248036 4.0297602e-10      15.5533    249.50815       8.9797 
       2   -209278.49 -0.024401953 -0.098247984 6.1742064e-11      15.5533    249.50815       8.9797 
Loop time of 1.07375 on 1 procs for 1 steps with 34944 atoms

Minimization stats:
  Stopping criterion = energy tolerance
  Energy initial, next-to-last, final = 
         -209278.48673      -209278.48673     -209278.486744
  Force two-norm initial, final = 5.39511 0.0138013
  Force max component initial, final = 0.0423078 0.000357813
  Final line search alpha, max atom move = 0 0
  Iterations, force evaluations = 1 38

Pair  time (%) = 0.996703 (92.8248)
Neigh time (%) = 0 (0)
Comm  time (%) = 0.00860261 (0.801177)
Outpt time (%) = 0.000387063 (0.036048)
Other time (%) = 0.0680538 (6.33798)

Nlocal:    34944 ave 34944 max 34944 min
Histogram: 1 0 0 0 0 0 0 0 0 0
Nghost:    36673 ave 36673 max 36673 min
Histogram: 1 0 0 0 0 0 0 0 0 0
Neighs:    940544 ave 940544 max 940544 min
Histogram: 1 0 0 0 0 0 0 0 0 0

Total # of neighbors = 940544
Ave neighs/atom = 26.9158
Neighbor list builds = 0
Dangerous builds = 0
        next i
jump SELF loop1
	read_dump orig.dump 0 x y z
  orthogonal box = (-7.77665 -124.667 -4.48985) to (7.77665 124.667 4.48985)
  34944 atoms before read
  34944 atoms in snapshot
  0 atoms purged
  34944 atoms replaced
  0 atoms trimmed
  0 atoms added
  34944 atoms after read
        variable stretch equal 1+$i*${strainstep}
        variable stretch equal 1+2*${strainstep}
        variable stretch equal 1+2*0.0005
        change_box all ${direction} scale ${stretch} remap
        change_box all y scale ${stretch} remap
        change_box all y scale 1.001 remap
  orthogonal box = (-7.77665 -124.816 -4.48985) to (7.77665 124.816 4.48985)
        min_style ${style}
        min_style hftn
        minimize ${etol} ${ftol} ${maxiter} ${maxeval}
        minimize 1e-12 ${ftol} ${maxiter} ${maxeval}
        minimize 1e-12 1e-08 ${maxiter} ${maxeval}
        minimize 1e-12 1e-08 10000 ${maxeval}
        minimize 1e-12 1e-08 10000 20000
WARNING: Resetting reneighboring criteria during minimization (../min.cpp:168)
Memory usage per processor = 25.3055 Mbytes
Step PotEng Pxx Pyy Pxy Lx Ly Lz 
       0   -209276.01 -0.041834881  -0.16824629 1.0463593e-09      15.5533    249.63284       8.9797 
       1   -209276.01 -0.041834428  -0.16824184 3.9810288e-10      15.5533    249.63284       8.9797 
       2   -209276.01 -0.041834131  -0.16824178 6.1271053e-11      15.5533    249.63284       8.9797 
       3   -209276.01 -0.041833265  -0.16824178 6.2600353e-12      15.5533    249.63284       8.9797 
Loop time of 14.8902 on 1 procs for 2 steps with 34944 atoms

Minimization stats:
  Stopping criterion = energy tolerance
  Energy initial, next-to-last, final = 
        -209276.008034     -209276.008072     -209276.008073
  Force two-norm initial, final = 5.335 8.34126e-05
  Force max component initial, final = 0.0418358 1.37965e-06
  Final line search alpha, max atom move = 0 0
  Iterations, force evaluations = 2 557

Pair  time (%) = 13.7688 (92.4686)
Neigh time (%) = 0 (0)
Comm  time (%) = 0.11898 (0.799048)
Outpt time (%) = 0.000621952 (0.00417693)
Other time (%) = 1.00183 (6.72813)

Nlocal:    34944 ave 34944 max 34944 min
Histogram: 1 0 0 0 0 0 0 0 0 0
Nghost:    36673 ave 36673 max 36673 min
Histogram: 1 0 0 0 0 0 0 0 0 0
Neighs:    940544 ave 940544 max 940544 min
Histogram: 1 0 0 0 0 0 0 0 0 0

Total # of neighbors = 940544
Ave neighs/atom = 26.9158
Neighbor list builds = 0
Dangerous builds = 0
        next i
jump SELF loop1
	read_dump orig.dump 0 x y z
  orthogonal box = (-7.77665 -124.667 -4.48985) to (7.77665 124.667 4.48985)
  34944 atoms before read
  34944 atoms in snapshot
  0 atoms purged
  34944 atoms replaced
  0 atoms trimmed
  0 atoms added
  34944 atoms after read
        variable stretch equal 1+$i*${strainstep}
        variable stretch equal 1+3*${strainstep}
        variable stretch equal 1+3*0.0005
        change_box all ${direction} scale ${stretch} remap
        change_box all y scale ${stretch} remap
        change_box all y scale 1.0015 remap
  orthogonal box = (-7.77665 -124.879 -4.48985) to (7.77665 124.879 4.48985)
        min_style ${style}
        min_style hftn
        minimize ${etol} ${ftol} ${maxiter} ${maxeval}
        minimize 1e-12 ${ftol} ${maxiter} ${maxeval}
        minimize 1e-12 1e-08 ${maxiter} ${maxeval}
        minimize 1e-12 1e-08 10000 ${maxeval}
        minimize 1e-12 1e-08 10000 20000
WARNING: Resetting reneighboring criteria during minimization (../min.cpp:168)
Memory usage per processor = 25.3055 Mbytes
Step PotEng Pxx Pyy Pxy Lx Ly Lz 
       0    -209272.6 -0.059148063  -0.23790223 -1.7358053e-08      15.5533    249.75753       8.9797 
       1   -209272.73  -0.05916218  -0.23795625 -9.726586e-09      15.5533    249.75753       8.9797 
       2   -209272.73 -0.059161889  -0.23795621 -1.0674269e-08      15.5533    249.75753       8.9797 
       3   -209272.73 -0.059161034  -0.23795621 -3.4434126e-10      15.5533    249.75753       8.9797 
Loop time of 14.834 on 1 procs for 2 steps with 34944 atoms

Minimization stats:
  Stopping criterion = energy tolerance
  Energy initial, next-to-last, final = 
        -209272.603799     -209272.725878     -209272.725906
  Force two-norm initial, final = 5.30987 8.8198e-05
  Force max component initial, final = 0.0416387 1.73985e-06
  Final line search alpha, max atom move = 0 0
  Iterations, force evaluations = 2 559

Pair  time (%) = 13.7242 (92.5187)
Neigh time (%) = 0 (0)
Comm  time (%) = 0.116814 (0.787476)
Outpt time (%) = 0.000588003 (0.0039639)
Other time (%) = 0.992376 (6.68989)

Nlocal:    34944 ave 34944 max 34944 min
Histogram: 1 0 0 0 0 0 0 0 0 0
Nghost:    36673 ave 36673 max 36673 min
Histogram: 1 0 0 0 0 0 0 0 0 0
Neighs:    940544 ave 940544 max 940544 min
Histogram: 1 0 0 0 0 0 0 0 0 0

Total # of neighbors = 940544
Ave neighs/atom = 26.9158
Neighbor list builds = 0
Dangerous builds = 0
        next i
jump SELF loop1
	read_dump orig.dump 0 x y z
  orthogonal box = (-7.77665 -124.667 -4.48985) to (7.77665 124.667 4.48985)
  34944 atoms before read
  34944 atoms in snapshot
  0 atoms purged
  34944 atoms replaced
  0 atoms trimmed
  0 atoms added
  34944 atoms after read
        variable stretch equal 1+$i*${strainstep}
        variable stretch equal 1+4*${strainstep}
        variable stretch equal 1+4*0.0005
        change_box all ${direction} scale ${stretch} remap
        change_box all y scale ${stretch} remap
        change_box all y scale 1.002 remap
  orthogonal box = (-7.77665 -124.941 -4.48985) to (7.77665 124.941 4.48985)
        min_style ${style}
        min_style hftn
        minimize ${etol} ${ftol} ${maxiter} ${maxeval}
        minimize 1e-12 ${ftol} ${maxiter} ${maxeval}
        minimize 1e-12 1e-08 ${maxiter} ${maxeval}
        minimize 1e-12 1e-08 10000 ${maxeval}
        minimize 1e-12 1e-08 10000 20000
WARNING: Resetting reneighboring criteria during minimization (../min.cpp:168)
Memory usage per processor = 25.3055 Mbytes
Step PotEng Pxx Pyy Pxy Lx Ly Lz 
       0   -209267.78 -0.076283808  -0.30698413 1.0351143e-09      15.5533    249.88223       8.9797 
       1   -209267.78 -0.076283361  -0.30697972 3.9364833e-10      15.5533    249.88223       8.9797 
       2   -209267.78 -0.076283068  -0.30697966 6.0988879e-11      15.5533    249.88223       8.9797 
       3   -209267.78 -0.076282218  -0.30697966 5.5712724e-12      15.5533    249.88223       8.9797 
Loop time of 14.8504 on 1 procs for 2 steps with 34944 atoms

Minimization stats:
  Stopping criterion = energy tolerance
  Energy initial, next-to-last, final = 
        -209267.782615     -209267.782678     -209267.782679
  Force two-norm initial, final = 5.28613 7.48352e-05
  Force max component initial, final = 0.0414514 1.21852e-06
  Final line search alpha, max atom move = 0 0
  Iterations, force evaluations = 2 559

Pair  time (%) = 13.7293 (92.4503)
Neigh time (%) = 0 (0)
Comm  time (%) = 0.119122 (0.802144)
Outpt time (%) = 0.000652129 (0.00439132)
Other time (%) = 1.00138 (6.74312)

Nlocal:    34944 ave 34944 max 34944 min
Histogram: 1 0 0 0 0 0 0 0 0 0
Nghost:    36673 ave 36673 max 36673 min
Histogram: 1 0 0 0 0 0 0 0 0 0
Neighs:    940544 ave 940544 max 940544 min
Histogram: 1 0 0 0 0 0 0 0 0 0

Total # of neighbors = 940544
Ave neighs/atom = 26.9158
Neighbor list builds = 0
Dangerous builds = 0
        next i
jump SELF loop1
	read_dump orig.dump 0 x y z
  orthogonal box = (-7.77665 -124.667 -4.48985) to (7.77665 124.667 4.48985)
  34944 atoms before read
  34944 atoms in snapshot
  0 atoms purged
  34944 atoms replaced
  0 atoms trimmed
  0 atoms added
  34944 atoms after read
        variable stretch equal 1+$i*${strainstep}
        variable stretch equal 1+5*${strainstep}
        variable stretch equal 1+5*0.0005
        change_box all ${direction} scale ${stretch} remap
        change_box all y scale ${stretch} remap
        change_box all y scale 1.0025 remap
  orthogonal box = (-7.77665 -125.004 -4.48985) to (7.77665 125.003 4.48985)
        min_style ${style}
        min_style hftn
        minimize ${etol} ${ftol} ${maxiter} ${maxeval}
        minimize 1e-12 ${ftol} ${maxiter} ${maxeval}
        minimize 1e-12 1e-08 ${maxiter} ${maxeval}
        minimize 1e-12 1e-08 10000 ${maxeval}
        minimize 1e-12 1e-08 10000 20000
WARNING: Resetting reneighboring criteria during minimization (../min.cpp:168)
Memory usage per processor = 25.3055 Mbytes
Step PotEng Pxx Pyy Pxy Lx Ly Lz 
       0    -209261.8 -0.093272684  -0.37561298 1.0227201e-09      15.5533    250.00692       8.9797 
       1    -209261.8 -0.093272243  -0.37560862 3.8887121e-10      15.5533    250.00692       8.9797 
       2    -209261.8 -0.093271954  -0.37560857 6.0106359e-11      15.5533    250.00692       8.9797 
       3    -209261.8 -0.093271117  -0.37560857 6.0029462e-12      15.5533    250.00692       8.9797 
Loop time of 14.9951 on 1 procs for 2 steps with 34944 atoms

Minimization stats:
  Stopping criterion = energy tolerance
  Energy initial, next-to-last, final = 
        -209261.802797     -209261.802884     -209261.802885
  Force two-norm initial, final = 5.22704 7.24139e-05
  Force max component initial, final = 0.0409875 1.22e-06
  Final line search alpha, max atom move = 0 0
  Iterations, force evaluations = 2 561

Pair  time (%) = 13.8657 (92.4686)
Neigh time (%) = 0 (0)
Comm  time (%) = 0.121569 (0.810728)
Outpt time (%) = 0.000578852 (0.00386028)
Other time (%) = 1.0072 (6.71685)

Nlocal:    34944 ave 34944 max 34944 min
Histogram: 1 0 0 0 0 0 0 0 0 0
Nghost:    36673 ave 36673 max 36673 min
Histogram: 1 0 0 0 0 0 0 0 0 0
Neighs:    940544 ave 940544 max 940544 min
Histogram: 1 0 0 0 0 0 0 0 0 0

Total # of neighbors = 940544
Ave neighs/atom = 26.9158
Neighbor list builds = 0
Dangerous builds = 0
        next i
jump SELF loop1
	read_dump orig.dump 0 x y z
  orthogonal box = (-7.77665 -124.667 -4.48985) to (7.77665 124.667 4.48985)
  34944 atoms before read
  34944 atoms in snapshot
  0 atoms purged
  34944 atoms replaced
  0 atoms trimmed
  0 atoms added
  34944 atoms after read
        variable stretch equal 1+$i*${strainstep}
        variable stretch equal 1+6*${strainstep}
        variable stretch equal 1+6*0.0005
        change_box all ${direction} scale ${stretch} remap
        change_box all y scale ${stretch} remap
        change_box all y scale 1.003 remap
  orthogonal box = (-7.77665 -125.066 -4.48985) to (7.77665 125.066 4.48985)
        min_style ${style}
        min_style hftn
        minimize ${etol} ${ftol} ${maxiter} ${maxeval}
        minimize 1e-12 ${ftol} ${maxiter} ${maxeval}
        minimize 1e-12 1e-08 ${maxiter} ${maxeval}
        minimize 1e-12 1e-08 10000 ${maxeval}
        minimize 1e-12 1e-08 10000 20000
WARNING: Resetting reneighboring criteria during minimization (../min.cpp:168)
Memory usage per processor = 25.3055 Mbytes
Step PotEng Pxx Pyy Pxy Lx Ly Lz 
       0   -209254.83   -0.1101343  -0.44386602 1.9699979e-09      15.5533    250.13161       8.9797 
       1   -209254.96  -0.11014992  -0.44392628 -3.8136746e-09      15.5533    250.13161       8.9797 
       2   -209254.96  -0.11014963  -0.44392625 1.0733009e-10      15.5533    250.13161       8.9797 
       3   -209254.96   -0.1101488  -0.44392625 -3.727439e-11      15.5533    250.13161       8.9797 
Loop time of 14.9881 on 1 procs for 2 steps with 34944 atoms

Minimization stats:
  Stopping criterion = energy tolerance
  Energy initial, next-to-last, final = 
        -209254.826834     -209254.960955     -209254.961003
  Force two-norm initial, final = 5.22334 8.10848e-05
  Force max component initial, final = 0.0409568 1.3538e-06
  Final line search alpha, max atom move = 0 0
  Iterations, force evaluations = 2 559

Pair  time (%) = 13.8605 (92.477)
Neigh time (%) = 0 (0)
Comm  time (%) = 0.125664 (0.838426)
Outpt time (%) = 0.0007491 (0.00499797)
Other time (%) = 1.00114 (6.67961)

Nlocal:    34944 ave 34944 max 34944 min
Histogram: 1 0 0 0 0 0 0 0 0 0
Nghost:    36673 ave 36673 max 36673 min
Histogram: 1 0 0 0 0 0 0 0 0 0
Neighs:    940544 ave 940544 max 940544 min
Histogram: 1 0 0 0 0 0 0 0 0 0

Total # of neighbors = 940544
Ave neighs/atom = 26.9158
Neighbor list builds = 0
Dangerous builds = 0
        next i
jump SELF loop1
	read_dump orig.dump 0 x y z
  orthogonal box = (-7.77665 -124.667 -4.48985) to (7.77665 124.667 4.48985)
  34944 atoms before read
  34944 atoms in snapshot
  0 atoms purged
  34944 atoms replaced
  0 atoms trimmed
  0 atoms added
  34944 atoms after read
        variable stretch equal 1+$i*${strainstep}
        variable stretch equal 1+7*${strainstep}
        variable stretch equal 1+7*0.0005
        change_box all ${direction} scale ${stretch} remap
        change_box all y scale ${stretch} remap
        change_box all y scale 1.0035 remap
  orthogonal box = (-7.77665 -125.128 -4.48985) to (7.77665 125.128 4.48985)
        min_style ${style}
        min_style hftn
        minimize ${etol} ${ftol} ${maxiter} ${maxeval}
        minimize 1e-12 ${ftol} ${maxiter} ${maxeval}
        minimize 1e-12 1e-08 ${maxiter} ${maxeval}
        minimize 1e-12 1e-08 10000 ${maxeval}
        minimize 1e-12 1e-08 10000 20000
WARNING: Resetting reneighboring criteria during minimization (../min.cpp:168)
Memory usage per processor = 25.3055 Mbytes
Step PotEng Pxx Pyy Pxy Lx Ly Lz 
       0   -209246.32  -0.12680495   -0.5114851 1.0116735e-09      15.5533     250.2563       8.9797 
       1   -209246.32  -0.12680452  -0.51148078 3.8455261e-10      15.5533     250.2563       8.9797 
       2   -209246.32  -0.12680423  -0.51148073 5.8996091e-11      15.5533     250.2563       8.9797 
       3   -209246.32  -0.12680341  -0.51148073 6.9023367e-12      15.5533     250.2563       8.9797 
Loop time of 15.3842 on 1 procs for 2 steps with 34944 atoms

Minimization stats:
  Stopping criterion = energy tolerance
  Energy initial, next-to-last, final = 
        -209246.321965     -209246.322077     -209246.322079
  Force two-norm initial, final = 5.17886 8.46533e-05
  Force max component initial, final = 0.0406086 1.45859e-06
  Final line search alpha, max atom move = 0 0
  Iterations, force evaluations = 2 561

Pair  time (%) = 14.2042 (92.3303)
Neigh time (%) = 0 (0)
Comm  time (%) = 0.126798 (0.824211)
Outpt time (%) = 0.000357036 (0.0023208)
Other time (%) = 1.05276 (6.84312)

Nlocal:    34944 ave 34944 max 34944 min
Histogram: 1 0 0 0 0 0 0 0 0 0
Nghost:    36673 ave 36673 max 36673 min
Histogram: 1 0 0 0 0 0 0 0 0 0
Neighs:    940544 ave 940544 max 940544 min
Histogram: 1 0 0 0 0 0 0 0 0 0

Total # of neighbors = 940544
Ave neighs/atom = 26.9158
Neighbor list builds = 0
Dangerous builds = 0
        next i
jump SELF loop1
	read_dump orig.dump 0 x y z
  orthogonal box = (-7.77665 -124.667 -4.48985) to (7.77665 124.667 4.48985)
  34944 atoms before read
  34944 atoms in snapshot
  0 atoms purged
  34944 atoms replaced
  0 atoms trimmed
  0 atoms added
  34944 atoms after read
        variable stretch equal 1+$i*${strainstep}
        variable stretch equal 1+8*${strainstep}
        variable stretch equal 1+8*0.0005
        change_box all ${direction} scale ${stretch} remap
        change_box all y scale ${stretch} remap
        change_box all y scale 1.004 remap
  orthogonal box = (-7.77665 -125.191 -4.48985) to (7.77665 125.19 4.48985)
        min_style ${style}
        min_style hftn
        minimize ${etol} ${ftol} ${maxiter} ${maxeval}
        minimize 1e-12 ${ftol} ${maxiter} ${maxeval}
        minimize 1e-12 1e-08 ${maxiter} ${maxeval}
        minimize 1e-12 1e-08 10000 ${maxeval}
        minimize 1e-12 1e-08 10000 20000
WARNING: Resetting reneighboring criteria during minimization (../min.cpp:168)
Memory usage per processor = 25.3055 Mbytes
Step PotEng Pxx Pyy Pxy Lx Ly Lz 
       0    -209236.9  -0.14335764   -0.5787625 -1.6803217e-08      15.5533    250.38099       8.9797 
       1    -209236.9  -0.14335805  -0.57876163 -5.256449e-09      15.5533    250.38099       8.9797 
       2    -209236.9  -0.14335777  -0.57876158 -5.4259722e-10      15.5533    250.38099       8.9797 
       3    -209236.9  -0.14335696  -0.57876158 2.5607371e-11      15.5533    250.38099       8.9797 
Loop time of 15.1222 on 1 procs for 2 steps with 34944 atoms

Minimization stats:
  Stopping criterion = energy tolerance
  Energy initial, next-to-last, final = 
         -209236.89728     -209236.904454     -209236.904456
  Force two-norm initial, final = 5.12287 7.9285e-05
  Force max component initial, final = 0.0401711 1.63782e-06
  Final line search alpha, max atom move = 0 0
  Iterations, force evaluations = 2 563

Pair  time (%) = 13.9658 (92.353)
Neigh time (%) = 0 (0)
Comm  time (%) = 0.126604 (0.837204)
Outpt time (%) = 0.00118306 (0.00782331)
Other time (%) = 1.02861 (6.802)

Nlocal:    34944 ave 34944 max 34944 min
Histogram: 1 0 0 0 0 0 0 0 0 0
Nghost:    36673 ave 36673 max 36673 min
Histogram: 1 0 0 0 0 0 0 0 0 0
Neighs:    940544 ave 940544 max 940544 min
Histogram: 1 0 0 0 0 0 0 0 0 0

Total # of neighbors = 940544
Ave neighs/atom = 26.9158
Neighbor list builds = 0
Dangerous builds = 0
        next i
jump SELF loop1
	read_dump orig.dump 0 x y z
  orthogonal box = (-7.77665 -124.667 -4.48985) to (7.77665 124.667 4.48985)
  34944 atoms before read
  34944 atoms in snapshot
  0 atoms purged
  34944 atoms replaced
  0 atoms trimmed
  0 atoms added
  34944 atoms after read
        variable stretch equal 1+$i*${strainstep}
        variable stretch equal 1+9*${strainstep}
        variable stretch equal 1+9*0.0005
        change_box all ${direction} scale ${stretch} remap
        change_box all y scale ${stretch} remap
        change_box all y scale 1.0045 remap
  orthogonal box = (-7.77665 -125.253 -4.48985) to (7.77665 125.253 4.48985)
        min_style ${style}
        min_style hftn
        minimize ${etol} ${ftol} ${maxiter} ${maxeval}
        minimize 1e-12 ${ftol} ${maxiter} ${maxeval}
        minimize 1e-12 1e-08 ${maxiter} ${maxeval}
        minimize 1e-12 1e-08 10000 ${maxeval}
        minimize 1e-12 1e-08 10000 20000
WARNING: Resetting reneighboring criteria during minimization (../min.cpp:168)
Memory usage per processor = 25.3055 Mbytes
Step PotEng Pxx Pyy Pxy Lx Ly Lz 
       0   -209226.34  -0.15976755  -0.64559672 1.0007288e-09      15.5533    250.50569       8.9797 
       1   -209226.34  -0.15976712  -0.64559244 3.802488e-10      15.5533    250.50569       8.9797 
       2   -209226.34  -0.15976684   -0.6455924 5.6776086e-11      15.5533    250.50569       8.9797 
       3   -209226.34  -0.15976604  -0.64559239 9.2812309e-12      15.5533    250.50569       8.9797 
Loop time of 14.9553 on 1 procs for 2 steps with 34944 atoms

Minimization stats:
  Stopping criterion = energy tolerance
  Energy initial, next-to-last, final = 
        -209226.344465     -209226.344601     -209226.344603
  Force two-norm initial, final = 5.13104 6.66412e-05
  Force max component initial, final = 0.0402325 1.47972e-06
  Final line search alpha, max atom move = 0 0
  Iterations, force evaluations = 2 563

Pair  time (%) = 13.8349 (92.5087)
Neigh time (%) = 0 (0)
Comm  time (%) = 0.12114 (0.810013)
Outpt time (%) = 0.000632942 (0.00423224)
Other time (%) = 0.998575 (6.67708)

Nlocal:    34944 ave 34944 max 34944 min
Histogram: 1 0 0 0 0 0 0 0 0 0
Nghost:    36673 ave 36673 max 36673 min
Histogram: 1 0 0 0 0 0 0 0 0 0
Neighs:    940544 ave 940544 max 940544 min
Histogram: 1 0 0 0 0 0 0 0 0 0

Total # of neighbors = 940544
Ave neighs/atom = 26.9158
Neighbor list builds = 0
Dangerous builds = 0
        next i
jump SELF loop1
	read_dump orig.dump 0 x y z
  orthogonal box = (-7.77665 -124.667 -4.48985) to (7.77665 124.667 4.48985)
  34944 atoms before read
  34944 atoms in snapshot
  0 atoms purged
  34944 atoms replaced
  0 atoms trimmed
  0 atoms added
  34944 atoms after read
        variable stretch equal 1+$i*${strainstep}
        variable stretch equal 1+10*${strainstep}
        variable stretch equal 1+10*0.0005
        change_box all ${direction} scale ${stretch} remap
        change_box all y scale ${stretch} remap
        change_box all y scale 1.005 remap
  orthogonal box = (-7.77665 -125.315 -4.48985) to (7.77665 125.315 4.48985)
        min_style ${style}
        min_style hftn
        minimize ${etol} ${ftol} ${maxiter} ${maxeval}
        minimize 1e-12 ${ftol} ${maxiter} ${maxeval}
        minimize 1e-12 1e-08 ${maxiter} ${maxeval}
        minimize 1e-12 1e-08 10000 ${maxeval}
        minimize 1e-12 1e-08 10000 20000
WARNING: Resetting reneighboring criteria during minimization (../min.cpp:168)
Memory usage per processor = 25.3055 Mbytes
Step PotEng Pxx Pyy Pxy Lx Ly Lz 
       0   -209214.32  -0.17599294  -0.71181738 9.8867416e-10      15.5533    250.63038       8.9797 
       1   -209214.32  -0.17599252  -0.71181316 3.7551159e-10      15.5533    250.63038       8.9797 
       2   -209214.32  -0.17599224  -0.71181311 5.2811045e-11      15.5533    250.63038       8.9797 
       3   -209214.32  -0.17599144  -0.71181311 8.7796029e-12      15.5533    250.63038       8.9797 
Loop time of 15.4795 on 1 procs for 2 steps with 34944 atoms

Minimization stats:
  Stopping criterion = energy tolerance
  Energy initial, next-to-last, final = 
        -209214.319445     -209214.319604     -209214.319606
  Force two-norm initial, final = 5.07332 9.23681e-05
  Force max component initial, final = 0.0397794 1.22874e-06
  Final line search alpha, max atom move = 0 0
  Iterations, force evaluations = 2 565

Pair  time (%) = 14.3043 (92.4084)
Neigh time (%) = 0 (0)
Comm  time (%) = 0.134542 (0.869166)
Outpt time (%) = 0.000646887 (0.00417899)
Other time (%) = 1.03995 (6.71823)

Nlocal:    34944 ave 34944 max 34944 min
Histogram: 1 0 0 0 0 0 0 0 0 0
Nghost:    36673 ave 36673 max 36673 min
Histogram: 1 0 0 0 0 0 0 0 0 0
Neighs:    940544 ave 940544 max 940544 min
Histogram: 1 0 0 0 0 0 0 0 0 0

Total # of neighbors = 940544
Ave neighs/atom = 26.9158
Neighbor list builds = 0
Dangerous builds = 0
        next i
jump SELF loop1
	read_dump orig.dump 0 x y z
  orthogonal box = (-7.77665 -124.667 -4.48985) to (7.77665 124.667 4.48985)
  34944 atoms before read
  34944 atoms in snapshot
  0 atoms purged
  34944 atoms replaced
  0 atoms trimmed
  0 atoms added
  34944 atoms after read
        variable stretch equal 1+$i*${strainstep}
        variable stretch equal 1+11*${strainstep}
        variable stretch equal 1+11*0.0005
        change_box all ${direction} scale ${stretch} remap
        change_box all y scale ${stretch} remap
        change_box all y scale 1.0055 remap
  orthogonal box = (-7.77665 -125.378 -4.48985) to (7.77665 125.377 4.48985)
        min_style ${style}
        min_style hftn
        minimize ${etol} ${ftol} ${maxiter} ${maxeval}
        minimize 1e-12 ${ftol} ${maxiter} ${maxeval}
        minimize 1e-12 1e-08 ${maxiter} ${maxeval}
        minimize 1e-12 1e-08 10000 ${maxeval}
        minimize 1e-12 1e-08 10000 20000
WARNING: Resetting reneighboring criteria during minimization (../min.cpp:168)
Memory usage per processor = 25.3065 Mbytes
Step PotEng Pxx Pyy Pxy Lx Ly Lz 
       0   -209201.45  -0.19210957  -0.77772893 -1.6443955e-08      15.5533    250.75507       8.9797 
       1   -209201.53  -0.19211822  -0.77776142 -5.1407989e-09      15.5533    250.75507       8.9797 
       2   -209201.53  -0.19211795  -0.77776138 -4.4171178e-10      15.5533    250.75507       8.9797 
       3   -209201.53  -0.19211717  -0.77776138 3.1468646e-11      15.5533    250.75507       8.9797 
Loop time of 15.2836 on 1 procs for 2 steps with 34944 atoms

Minimization stats:
  Stopping criterion = energy tolerance
  Energy initial, next-to-last, final = 
        -209201.450748     -209201.526317     -209201.526319
  Force two-norm initial, final = 5.03774 6.0465e-05
  Force max component initial, final = 0.039501 8.55056e-07
  Final line search alpha, max atom move = 0 0
  Iterations, force evaluations = 2 569

Pair  time (%) = 14.137 (92.4979)
Neigh time (%) = 0 (0)
Comm  time (%) = 0.12406 (0.81172)
Outpt time (%) = 0.000616989 (0.00403692)
Other time (%) = 1.02192 (6.68638)

Nlocal:    34944 ave 34944 max 34944 min
Histogram: 1 0 0 0 0 0 0 0 0 0
Nghost:    36673 ave 36673 max 36673 min
Histogram: 1 0 0 0 0 0 0 0 0 0
Neighs:    940544 ave 940544 max 940544 min
Histogram: 1 0 0 0 0 0 0 0 0 0

Total # of neighbors = 940544
Ave neighs/atom = 26.9158
Neighbor list builds = 0
Dangerous builds = 0
        next i
jump SELF loop1
	read_dump orig.dump 0 x y z
  orthogonal box = (-7.77665 -124.667 -4.48985) to (7.77665 124.667 4.48985)
  34944 atoms before read
  34944 atoms in snapshot
  0 atoms purged
  34944 atoms replaced
  0 atoms trimmed
  0 atoms added
  34944 atoms after read
        variable stretch equal 1+$i*${strainstep}
        variable stretch equal 1+12*${strainstep}
        variable stretch equal 1+12*0.0005
        change_box all ${direction} scale ${stretch} remap
        change_box all y scale ${stretch} remap
        change_box all y scale 1.006 remap
  orthogonal box = (-7.77665 -125.44 -4.48985) to (7.77665 125.44 4.48985)
        min_style ${style}
        min_style hftn
        minimize ${etol} ${ftol} ${maxiter} ${maxeval}
        minimize 1e-12 ${ftol} ${maxiter} ${maxeval}
        minimize 1e-12 1e-08 ${maxiter} ${maxeval}
        minimize 1e-12 1e-08 10000 ${maxeval}
        minimize 1e-12 1e-08 10000 20000
WARNING: Resetting reneighboring criteria during minimization (../min.cpp:168)
Memory usage per processor = 25.3065 Mbytes
Step PotEng Pxx Pyy Pxy Lx Ly Lz 
       0   -209187.33   -0.2080689  -0.84313347 9.7792188e-10      15.5533    250.87976       8.9797 
       1   -209187.33  -0.20806848  -0.84312928 3.713165e-10      15.5533    250.87976       8.9797 
       2   -209187.33  -0.20806823  -0.84312923 -2.8489338e-11      15.5533    250.87976       8.9797 
       3   -209187.33  -0.20806743  -0.84312923 8.6814658e-12      15.5533    250.87976       8.9797 
Loop time of 14.9149 on 1 procs for 2 steps with 34944 atoms

Minimization stats:
  Stopping criterion = energy tolerance
  Energy initial, next-to-last, final = 
        -209187.333369     -209187.333552     -209187.333555
  Force two-norm initial, final = 5.02618 9.19976e-05
  Force max component initial, final = 0.0394086 1.69352e-06
  Final line search alpha, max atom move = 0 0
  Iterations, force evaluations = 2 563

Pair  time (%) = 13.7906 (92.4623)
Neigh time (%) = 0 (0)
Comm  time (%) = 0.121641 (0.815572)
Outpt time (%) = 0.00060802 (0.0040766)
Other time (%) = 1.00199 (6.71808)

Nlocal:    34944 ave 34944 max 34944 min
Histogram: 1 0 0 0 0 0 0 0 0 0
Nghost:    36673 ave 36673 max 36673 min
Histogram: 1 0 0 0 0 0 0 0 0 0
Neighs:    940544 ave 940544 max 940544 min
Histogram: 1 0 0 0 0 0 0 0 0 0

Total # of neighbors = 940544
Ave neighs/atom = 26.9158
Neighbor list builds = 0
Dangerous builds = 0
        next i
jump SELF loop1
	read_dump orig.dump 0 x y z
  orthogonal box = (-7.77665 -124.667 -4.48985) to (7.77665 124.667 4.48985)
  34944 atoms before read
  34944 atoms in snapshot
  0 atoms purged
  34944 atoms replaced
  0 atoms trimmed
  0 atoms added
  34944 atoms after read
        variable stretch equal 1+$i*${strainstep}
        variable stretch equal 1+13*${strainstep}
        variable stretch equal 1+13*0.0005
        change_box all ${direction} scale ${stretch} remap
        change_box all y scale ${stretch} remap
        change_box all y scale 1.0065 remap
  orthogonal box = (-7.77665 -125.502 -4.48985) to (7.77665 125.502 4.48985)
        min_style ${style}
        min_style hftn
        minimize ${etol} ${ftol} ${maxiter} ${maxeval}
        minimize 1e-12 ${ftol} ${maxiter} ${maxeval}
        minimize 1e-12 1e-08 ${maxiter} ${maxeval}
        minimize 1e-12 1e-08 10000 ${maxeval}
        minimize 1e-12 1e-08 10000 20000
WARNING: Resetting reneighboring criteria during minimization (../min.cpp:168)
Memory usage per processor = 25.3065 Mbytes
Step PotEng Pxx Pyy Pxy Lx Ly Lz 
       0   -209171.99  -0.22387312  -0.90803818 9.6611525e-10      15.5533    251.00445       8.9797 
       1   -209171.99  -0.22387271  -0.90803404 3.6677992e-10      15.5533    251.00445       8.9797 
       2   -209171.99  -0.22387246    -0.908034 -3.080535e-11      15.5533    251.00445       8.9797 
       3   -209171.99  -0.22387167    -0.908034 9.846841e-12      15.5533    251.00445       8.9797 
Loop time of 14.902 on 1 procs for 2 steps with 34944 atoms

Minimization stats:
  Stopping criterion = energy tolerance
  Energy initial, next-to-last, final = 
        -209171.986791     -209171.986997        -209171.987
  Force two-norm initial, final = 4.96951 9.26226e-05
  Force max component initial, final = 0.0389638 1.33166e-06
  Final line search alpha, max atom move = 0 0
  Iterations, force evaluations = 2 563

Pair  time (%) = 13.7981 (92.5922)
Neigh time (%) = 0 (0)
Comm  time (%) = 0.121785 (0.817235)
Outpt time (%) = 0.000620839 (0.00416614)
Other time (%) = 0.981508 (6.5864)

Nlocal:    34944 ave 34944 max 34944 min
Histogram: 1 0 0 0 0 0 0 0 0 0
Nghost:    36673 ave 36673 max 36673 min
Histogram: 1 0 0 0 0 0 0 0 0 0
Neighs:    940544 ave 940544 max 940544 min
Histogram: 1 0 0 0 0 0 0 0 0 0

Total # of neighbors = 940544
Ave neighs/atom = 26.9158
Neighbor list builds = 0
Dangerous builds = 0
        next i
jump SELF loop1
	read_dump orig.dump 0 x y z
  orthogonal box = (-7.77665 -124.667 -4.48985) to (7.77665 124.667 4.48985)
  34944 atoms before read
  34944 atoms in snapshot
  0 atoms purged
  34944 atoms replaced
  0 atoms trimmed
  0 atoms added
  34944 atoms after read
        variable stretch equal 1+$i*${strainstep}
        variable stretch equal 1+14*${strainstep}
        variable stretch equal 1+14*0.0005
        change_box all ${direction} scale ${stretch} remap
        change_box all y scale ${stretch} remap
        change_box all y scale 1.007 remap
  orthogonal box = (-7.77665 -125.565 -4.48985) to (7.77665 125.565 4.48985)
        min_style ${style}
        min_style hftn
        minimize ${etol} ${ftol} ${maxiter} ${maxeval}
        minimize 1e-12 ${ftol} ${maxiter} ${maxeval}
        minimize 1e-12 1e-08 ${maxiter} ${maxeval}
        minimize 1e-12 1e-08 10000 ${maxeval}
        minimize 1e-12 1e-08 10000 20000
WARNING: Resetting reneighboring criteria during minimization (../min.cpp:168)
Memory usage per processor = 25.3065 Mbytes
Step PotEng Pxx Pyy Pxy Lx Ly Lz 
       0   -209155.74  -0.23956226  -0.97260366 -1.6092784e-08      15.5533    251.12914       8.9797 
       1   -209155.88  -0.23957845  -0.97266693 -9.1243439e-10      15.5533    251.12914       8.9797 
       2   -209155.88   -0.2395783  -0.97266723 7.0958449e-10      15.5533    251.12914       8.9797 
       3   -209155.88  -0.23957752  -0.97266723 2.3268296e-11      15.5533    251.12914       8.9797 
Loop time of 14.8943 on 1 procs for 2 steps with 34944 atoms

Minimization stats:
  Stopping criterion = energy tolerance
  Energy initial, next-to-last, final = 
        -209155.742277     -209155.879997     -209155.880725
  Force two-norm initial, final = 4.95303 7.52824e-05
  Force max component initial, final = 0.0388342 1.10164e-06
  Final line search alpha, max atom move = 0 0
  Iterations, force evaluations = 2 561

Pair  time (%) = 13.7809 (92.5248)
Neigh time (%) = 0 (0)
Comm  time (%) = 0.121113 (0.81315)
Outpt time (%) = 0.000611068 (0.00410269)
Other time (%) = 0.991663 (6.65799)

Nlocal:    34944 ave 34944 max 34944 min
Histogram: 1 0 0 0 0 0 0 0 0 0
Nghost:    36673 ave 36673 max 36673 min
Histogram: 1 0 0 0 0 0 0 0 0 0
Neighs:    940544 ave 940544 max 940544 min
Histogram: 1 0 0 0 0 0 0 0 0 0

Total # of neighbors = 940544
Ave neighs/atom = 26.9158
Neighbor list builds = 0
Dangerous builds = 0
        next i
jump SELF loop1
	read_dump orig.dump 0 x y z
  orthogonal box = (-7.77665 -124.667 -4.48985) to (7.77665 124.667 4.48985)
  34944 atoms before read
  34944 atoms in snapshot
  0 atoms purged
  34944 atoms replaced
  0 atoms trimmed
  0 atoms added
  34944 atoms after read
        variable stretch equal 1+$i*${strainstep}
        variable stretch equal 1+15*${strainstep}
        variable stretch equal 1+15*0.0005
        change_box all ${direction} scale ${stretch} remap
        change_box all y scale ${stretch} remap
        change_box all y scale 1.0075 remap
  orthogonal box = (-7.77665 -125.627 -4.48985) to (7.77665 125.627 4.48985)
        min_style ${style}
        min_style hftn
        minimize ${etol} ${ftol} ${maxiter} ${maxeval}
        minimize 1e-12 ${ftol} ${maxiter} ${maxeval}
        minimize 1e-12 1e-08 ${maxiter} ${maxeval}
        minimize 1e-12 1e-08 10000 ${maxeval}
        minimize 1e-12 1e-08 10000 20000
WARNING: Resetting reneighboring criteria during minimization (../min.cpp:168)
Memory usage per processor = 25.3065 Mbytes
Step PotEng Pxx Pyy Pxy Lx Ly Lz 
       0   -209138.14  -0.25508076   -1.0366029 9.5555095e-10      15.5533    251.25384       8.9797 
       1   -209138.14  -0.25508035   -1.0365988 3.6257315e-10      15.5533    251.25384       8.9797 
       2   -209138.14  -0.25508011   -1.0365988 -3.2052652e-11      15.5533    251.25384       8.9797 
       3   -209138.14  -0.25507933   -1.0365988 9.3998557e-12      15.5533    251.25384       8.9797 
Loop time of 15.0595 on 1 procs for 2 steps with 34944 atoms

Minimization stats:
  Stopping criterion = energy tolerance
  Energy initial, next-to-last, final = 
        -209138.140213     -209138.140442     -209138.140445
  Force two-norm initial, final = 4.92303 8.7752e-05
  Force max component initial, final = 0.0385983 1.36525e-06
  Final line search alpha, max atom move = 0 0
  Iterations, force evaluations = 2 565

Pair  time (%) = 13.9219 (92.4461)
Neigh time (%) = 0 (0)
Comm  time (%) = 0.118626 (0.787717)
Outpt time (%) = 0.000734115 (0.00487478)
Other time (%) = 1.01822 (6.76135)

Nlocal:    34944 ave 34944 max 34944 min
Histogram: 1 0 0 0 0 0 0 0 0 0
Nghost:    36673 ave 36673 max 36673 min
Histogram: 1 0 0 0 0 0 0 0 0 0
Neighs:    940544 ave 940544 max 940544 min
Histogram: 1 0 0 0 0 0 0 0 0 0

Total # of neighbors = 940544
Ave neighs/atom = 26.9158
Neighbor list builds = 0
Dangerous builds = 0
        next i
jump SELF loop1
	read_dump orig.dump 0 x y z
  orthogonal box = (-7.77665 -124.667 -4.48985) to (7.77665 124.667 4.48985)
  34944 atoms before read
  34944 atoms in snapshot
  0 atoms purged
  34944 atoms replaced
  0 atoms trimmed
  0 atoms added
  34944 atoms after read
        variable stretch equal 1+$i*${strainstep}
        variable stretch equal 1+16*${strainstep}
        variable stretch equal 1+16*0.0005
        change_box all ${direction} scale ${stretch} remap
        change_box all y scale ${stretch} remap
        change_box all y scale 1.008 remap
  orthogonal box = (-7.77665 -125.689 -4.48985) to (7.77665 125.689 4.48985)
        min_style ${style}
        min_style hftn
        minimize ${etol} ${ftol} ${maxiter} ${maxeval}
        minimize 1e-12 ${ftol} ${maxiter} ${maxeval}
        minimize 1e-12 1e-08 ${maxiter} ${maxeval}
        minimize 1e-12 1e-08 10000 ${maxeval}
        minimize 1e-12 1e-08 10000 20000
WARNING: Resetting reneighboring criteria during minimization (../min.cpp:168)
Memory usage per processor = 25.3065 Mbytes
Step PotEng Pxx Pyy Pxy Lx Ly Lz 
       0   -209119.53  -0.27047141    -1.100208 9.4397618e-10      15.5533    251.37853       8.9797 
       1   -209119.53  -0.27047101    -1.100204 3.580934e-10      15.5533    251.37853       8.9797 
       2   -209119.53  -0.27047077    -1.100204 -3.2923633e-11      15.5533    251.37853       8.9797 
       3   -209119.53     -0.27047    -1.100204 8.3696703e-12      15.5533    251.37853       8.9797 
Loop time of 15.15 on 1 procs for 2 steps with 34944 atoms

Minimization stats:
  Stopping criterion = energy tolerance
  Energy initial, next-to-last, final = 
        -209119.534035     -209119.534287      -209119.53429
  Force two-norm initial, final = 4.86734 7.81302e-05
  Force max component initial, final = 0.0381611 1.10217e-06
  Final line search alpha, max atom move = 0 0
  Iterations, force evaluations = 2 569

Pair  time (%) = 14.0051 (92.4429)
Neigh time (%) = 0 (0)
Comm  time (%) = 0.118665 (0.783269)
Outpt time (%) = 0.000581074 (0.00383548)
Other time (%) = 1.02565 (6.77001)

Nlocal:    34944 ave 34944 max 34944 min
Histogram: 1 0 0 0 0 0 0 0 0 0
Nghost:    36673 ave 36673 max 36673 min
Histogram: 1 0 0 0 0 0 0 0 0 0
Neighs:    940544 ave 940544 max 940544 min
Histogram: 1 0 0 0 0 0 0 0 0 0

Total # of neighbors = 940544
Ave neighs/atom = 26.9158
Neighbor list builds = 0
Dangerous builds = 0
        next i
jump SELF loop1
	read_dump orig.dump 0 x y z
  orthogonal box = (-7.77665 -124.667 -4.48985) to (7.77665 124.667 4.48985)
  34944 atoms before read
  34944 atoms in snapshot
  0 atoms purged
  34944 atoms replaced
  0 atoms trimmed
  0 atoms added
  34944 atoms after read
        variable stretch equal 1+$i*${strainstep}
        variable stretch equal 1+17*${strainstep}
        variable stretch equal 1+17*0.0005
        change_box all ${direction} scale ${stretch} remap
        change_box all y scale ${stretch} remap
        change_box all y scale 1.0085 remap
  orthogonal box = (-7.77665 -125.752 -4.48985) to (7.77665 125.752 4.48985)
        min_style ${style}
        min_style hftn
        minimize ${etol} ${ftol} ${maxiter} ${maxeval}
        minimize 1e-12 ${ftol} ${maxiter} ${maxeval}
        minimize 1e-12 1e-08 ${maxiter} ${maxeval}
        minimize 1e-12 1e-08 10000 ${maxeval}
        minimize 1e-12 1e-08 10000 20000
WARNING: Resetting reneighboring criteria during minimization (../min.cpp:168)
Memory usage per processor = 25.3065 Mbytes
Step PotEng Pxx Pyy Pxy Lx Ly Lz 
       0   -209099.97  -0.28573955   -1.1634393 -4.3695163e-09      15.5533    251.50322       8.9797 
       1   -209100.04  -0.28574832   -1.1634725 7.8733553e-10      15.5533    251.50322       8.9797 
       2   -209100.04  -0.28574808   -1.1634725 -4.8760171e-10      15.5533    251.50322       8.9797 
       3   -209100.04  -0.28574731   -1.1634725 3.2829885e-11      15.5533    251.50322       8.9797 
Loop time of 14.9934 on 1 procs for 2 steps with 34944 atoms

Minimization stats:
  Stopping criterion = energy tolerance
  Energy initial, next-to-last, final = 
         -209099.96672     -209100.042465     -209100.042468
  Force two-norm initial, final = 4.86879 8.36891e-05
  Force max component initial, final = 0.0381704 1.19987e-06
  Final line search alpha, max atom move = 0 0
  Iterations, force evaluations = 2 567

Pair  time (%) = 13.8664 (92.4834)
Neigh time (%) = 0 (0)
Comm  time (%) = 0.123042 (0.820638)
Outpt time (%) = 0.000590009 (0.00393511)
Other time (%) = 1.00337 (6.69203)

Nlocal:    34944 ave 34944 max 34944 min
Histogram: 1 0 0 0 0 0 0 0 0 0
Nghost:    36673 ave 36673 max 36673 min
Histogram: 1 0 0 0 0 0 0 0 0 0
Neighs:    940544 ave 940544 max 940544 min
Histogram: 1 0 0 0 0 0 0 0 0 0

Total # of neighbors = 940544
Ave neighs/atom = 26.9158
Neighbor list builds = 0
Dangerous builds = 0
        next i
jump SELF loop1
	read_dump orig.dump 0 x y z
  orthogonal box = (-7.77665 -124.667 -4.48985) to (7.77665 124.667 4.48985)
  34944 atoms before read
  34944 atoms in snapshot
  0 atoms purged
  34944 atoms replaced
  0 atoms trimmed
  0 atoms added
  34944 atoms after read
        variable stretch equal 1+$i*${strainstep}
        variable stretch equal 1+18*${strainstep}
        variable stretch equal 1+18*0.0005
        change_box all ${direction} scale ${stretch} remap
        change_box all y scale ${stretch} remap
        change_box all y scale 1.009 remap
  orthogonal box = (-7.77665 -125.814 -4.48985) to (7.77665 125.814 4.48985)
        min_style ${style}
        min_style hftn
        minimize ${etol} ${ftol} ${maxiter} ${maxeval}
        minimize 1e-12 ${ftol} ${maxiter} ${maxeval}
        minimize 1e-12 1e-08 ${maxiter} ${maxeval}
        minimize 1e-12 1e-08 10000 ${maxeval}
        minimize 1e-12 1e-08 10000 20000
WARNING: Resetting reneighboring criteria during minimization (../min.cpp:168)
Memory usage per processor = 25.3065 Mbytes
Step PotEng Pxx Pyy Pxy Lx Ly Lz 
       0   -209078.97  -0.30082836   -1.2260637 9.3360113e-10      15.5533    251.62791       8.9797 
       1   -209078.97  -0.30082796   -1.2260597 3.5404269e-10      15.5533    251.62791       8.9797 
       2   -209078.97  -0.30082773   -1.2260596 -3.3480835e-11      15.5533    251.62791       8.9797 
       3   -209078.97  -0.30082698   -1.2260596 8.2197111e-12      15.5533    251.62791       8.9797 
Loop time of 15.1626 on 1 procs for 2 steps with 34944 atoms

Minimization stats:
  Stopping criterion = energy tolerance
  Energy initial, next-to-last, final = 
        -209078.972013     -209078.972287      -209078.97229
  Force two-norm initial, final = 4.82154 7.28233e-05
  Force max component initial, final = 0.0378009 1.25426e-06
  Final line search alpha, max atom move = 0 0
  Iterations, force evaluations = 2 571

Pair  time (%) = 14.0179 (92.4509)
Neigh time (%) = 0 (0)
Comm  time (%) = 0.122888 (0.810469)
Outpt time (%) = 0.000502929 (0.00331691)
Other time (%) = 1.02125 (6.73533)

Nlocal:    34944 ave 34944 max 34944 min
Histogram: 1 0 0 0 0 0 0 0 0 0
Nghost:    36673 ave 36673 max 36673 min
Histogram: 1 0 0 0 0 0 0 0 0 0
Neighs:    940544 ave 940544 max 940544 min
Histogram: 1 0 0 0 0 0 0 0 0 0

Total # of neighbors = 940544
Ave neighs/atom = 26.9158
Neighbor list builds = 0
Dangerous builds = 0
        next i
jump SELF loop1
	read_dump orig.dump 0 x y z
  orthogonal box = (-7.77665 -124.667 -4.48985) to (7.77665 124.667 4.48985)
  34944 atoms before read
  34944 atoms in snapshot
  0 atoms purged
  34944 atoms replaced
  0 atoms trimmed
  0 atoms added
  34944 atoms after read
        variable stretch equal 1+$i*${strainstep}
        variable stretch equal 1+19*${strainstep}
        variable stretch equal 1+19*0.0005
        change_box all ${direction} scale ${stretch} remap
        change_box all y scale ${stretch} remap
        change_box all y scale 1.0095 remap
  orthogonal box = (-7.77665 -125.876 -4.48985) to (7.77665 125.876 4.48985)
        min_style ${style}
        min_style hftn
        minimize ${etol} ${ftol} ${maxiter} ${maxeval}
        minimize 1e-12 ${ftol} ${maxiter} ${maxeval}
        minimize 1e-12 1e-08 ${maxiter} ${maxeval}
        minimize 1e-12 1e-08 10000 ${maxeval}
        minimize 1e-12 1e-08 10000 20000
WARNING: Resetting reneighboring criteria during minimization (../min.cpp:168)
Memory usage per processor = 25.3065 Mbytes
Step PotEng Pxx Pyy Pxy Lx Ly Lz 
       0   -209057.15  -0.31581033   -1.2883749 -1.5549903e-08      15.5533     251.7526       8.9797 
       1   -209057.17  -0.31581253   -1.2883815 -4.8462704e-09      15.5533     251.7526       8.9797 
       2   -209057.17   -0.3158123   -1.2883814 8.4473977e-10      15.5533     251.7526       8.9797 
       3   -209057.17  -0.31581156   -1.2883814 -3.8949632e-12      15.5533     251.7526       8.9797 
Loop time of 15.2823 on 1 procs for 2 steps with 34944 atoms

Minimization stats:
  Stopping criterion = energy tolerance
  Energy initial, next-to-last, final = 
        -209057.145966     -209057.167671     -209057.167675
  Force two-norm initial, final = 4.773 6.99195e-05
  Force max component initial, final = 0.0374216 9.82793e-07
  Final line search alpha, max atom move = 0 0
  Iterations, force evaluations = 2 573

Pair  time (%) = 14.1441 (92.5522)
Neigh time (%) = 0 (0)
Comm  time (%) = 0.120062 (0.785627)
Outpt time (%) = 0.000579974 (0.00379507)
Other time (%) = 1.01755 (6.65838)

Nlocal:    34944 ave 34944 max 34944 min
Histogram: 1 0 0 0 0 0 0 0 0 0
Nghost:    36673 ave 36673 max 36673 min
Histogram: 1 0 0 0 0 0 0 0 0 0
Neighs:    940544 ave 940544 max 940544 min
Histogram: 1 0 0 0 0 0 0 0 0 0

Total # of neighbors = 940544
Ave neighs/atom = 26.9158
Neighbor list builds = 0
Dangerous builds = 0
        next i
jump SELF loop1
	read_dump orig.dump 0 x y z
  orthogonal box = (-7.77665 -124.667 -4.48985) to (7.77665 124.667 4.48985)
  34944 atoms before read
  34944 atoms in snapshot
  0 atoms purged
  34944 atoms replaced
  0 atoms trimmed
  0 atoms added
  34944 atoms after read
        variable stretch equal 1+$i*${strainstep}
        variable stretch equal 1+20*${strainstep}
        variable stretch equal 1+20*0.0005
        change_box all ${direction} scale ${stretch} remap
        change_box all y scale ${stretch} remap
        change_box all y scale 1.01 remap
  orthogonal box = (-7.77665 -125.939 -4.48985) to (7.77665 125.939 4.48985)
        min_style ${style}
        min_style hftn
        minimize ${etol} ${ftol} ${maxiter} ${maxeval}
        minimize 1e-12 ${ftol} ${maxiter} ${maxeval}
        minimize 1e-12 1e-08 ${maxiter} ${maxeval}
        minimize 1e-12 1e-08 10000 ${maxeval}
        minimize 1e-12 1e-08 10000 20000
WARNING: Resetting reneighboring criteria during minimization (../min.cpp:168)
Memory usage per processor = 25.3093 Mbytes
Step PotEng Pxx Pyy Pxy Lx Ly Lz 
       0   -209034.25  -0.33065698   -1.3502554 9.233414e-10      15.5533    251.87729       8.9797 
       1   -209034.25  -0.33065659   -1.3502514 3.4995453e-10      15.5533    251.87729       8.9797 
       2   -209034.25  -0.33065636   -1.3502513 -3.4062842e-11      15.5533    251.87729       8.9797 
       3   -209034.25  -0.33065562   -1.3502513 7.8280172e-12      15.5533    251.87729       8.9797 
Loop time of 15.2427 on 1 procs for 2 steps with 34944 atoms

Minimization stats:
  Stopping criterion = energy tolerance
  Energy initial, next-to-last, final = 
        -209034.251854      -209034.25215     -209034.252154
  Force two-norm initial, final = 4.77617 6.64974e-05
  Force max component initial, final = 0.0374442 8.43486e-07
  Final line search alpha, max atom move = 0 0
  Iterations, force evaluations = 2 573

Pair  time (%) = 14.0954 (92.4729)
Neigh time (%) = 0 (0)
Comm  time (%) = 0.123723 (0.811684)
Outpt time (%) = 0.000586908 (0.00385042)
Other time (%) = 1.02302 (6.71154)

Nlocal:    34944 ave 34944 max 34944 min
Histogram: 1 0 0 0 0 0 0 0 0 0
Nghost:    36673 ave 36673 max 36673 min
Histogram: 1 0 0 0 0 0 0 0 0 0
Neighs:    940544 ave 940544 max 940544 min
Histogram: 1 0 0 0 0 0 0 0 0 0

Total # of neighbors = 940544
Ave neighs/atom = 26.9158
Neighbor list builds = 0
Dangerous builds = 0
        next i
jump SELF loop1
	read_dump orig.dump 0 x y z
  orthogonal box = (-7.77665 -124.667 -4.48985) to (7.77665 124.667 4.48985)
  34944 atoms before read
  34944 atoms in snapshot
  0 atoms purged
  34944 atoms replaced
  0 atoms trimmed
  0 atoms added
  34944 atoms after read
        variable stretch equal 1+$i*${strainstep}
        variable stretch equal 1+21*${strainstep}
        variable stretch equal 1+21*0.0005
        change_box all ${direction} scale ${stretch} remap
        change_box all y scale ${stretch} remap
        change_box all y scale 1.0105 remap
  orthogonal box = (-7.77665 -126.001 -4.48985) to (7.77665 126.001 4.48985)
        min_style ${style}
        min_style hftn
        minimize ${etol} ${ftol} ${maxiter} ${maxeval}
        minimize 1e-12 ${ftol} ${maxiter} ${maxeval}
        minimize 1e-12 1e-08 ${maxiter} ${maxeval}
        minimize 1e-12 1e-08 10000 ${maxeval}
        minimize 1e-12 1e-08 10000 20000
WARNING: Resetting reneighboring criteria during minimization (../min.cpp:168)
Memory usage per processor = 25.3093 Mbytes
Step PotEng Pxx Pyy Pxy Lx Ly Lz 
       0   -209010.03  -0.34533657   -1.4115739 9.1206387e-10      15.5533    252.00199       8.9797 
       1   -209010.03  -0.34533619     -1.41157 3.4559351e-10      15.5533    252.00199       8.9797 
       2   -209010.03  -0.34533596     -1.41157 -3.4796826e-11      15.5533    252.00199       8.9797 
       3   -209010.03  -0.34533524     -1.41157 7.6543372e-12      15.5533    252.00199       8.9797 
Loop time of 15.3023 on 1 procs for 2 steps with 34944 atoms

Minimization stats:
  Stopping criterion = energy tolerance
  Energy initial, next-to-last, final = 
         -209010.03261     -209010.032929     -209010.032933
  Force two-norm initial, final = 4.72167 6.63063e-05
  Force max component initial, final = 0.0370164 1.01213e-06
  Final line search alpha, max atom move = 0 0
  Iterations, force evaluations = 2 575

Pair  time (%) = 14.1559 (92.5083)
Neigh time (%) = 0 (0)
Comm  time (%) = 0.123372 (0.806233)
Outpt time (%) = 0.000740017 (0.00483598)
Other time (%) = 1.0223 (6.68066)

Nlocal:    34944 ave 34944 max 34944 min
Histogram: 1 0 0 0 0 0 0 0 0 0
Nghost:    36673 ave 36673 max 36673 min
Histogram: 1 0 0 0 0 0 0 0 0 0
Neighs:    940544 ave 940544 max 940544 min
Histogram: 1 0 0 0 0 0 0 0 0 0

Total # of neighbors = 940544
Ave neighs/atom = 26.9158
Neighbor list builds = 0
Dangerous builds = 0
        next i
jump SELF loop1
	read_dump orig.dump 0 x y z
  orthogonal box = (-7.77665 -124.667 -4.48985) to (7.77665 124.667 4.48985)
  34944 atoms before read
  34944 atoms in snapshot
  0 atoms purged
  34944 atoms replaced
  0 atoms trimmed
  0 atoms added
  34944 atoms after read
        variable stretch equal 1+$i*${strainstep}
        variable stretch equal 1+22*${strainstep}
        variable stretch equal 1+22*0.0005
        change_box all ${direction} scale ${stretch} remap
        change_box all y scale ${stretch} remap
        change_box all y scale 1.011 remap
  orthogonal box = (-7.77665 -126.063 -4.48985) to (7.77665 126.063 4.48985)
        min_style ${style}
        min_style hftn
        minimize ${etol} ${ftol} ${maxiter} ${maxeval}
        minimize 1e-12 ${ftol} ${maxiter} ${maxeval}
        minimize 1e-12 1e-08 ${maxiter} ${maxeval}
        minimize 1e-12 1e-08 10000 ${maxeval}
        minimize 1e-12 1e-08 10000 20000
WARNING: Resetting reneighboring criteria during minimization (../min.cpp:168)
Memory usage per processor = 25.3093 Mbytes
Step PotEng Pxx Pyy Pxy Lx Ly Lz 
       0   -208985.01  -0.35991307   -1.4725902 -1.5205184e-08      15.5533    252.12668       8.9797 
       1   -208985.09  -0.35992202   -1.4726245 -4.7345638e-09      15.5533    252.12668       8.9797 
       2   -208985.09   -0.3599218   -1.4726244 8.7572864e-10      15.5533    252.12668       8.9797 
       3   -208985.09  -0.35992108   -1.4726244 1.3665543e-12      15.5533    252.12668       8.9797 
Loop time of 15.3559 on 1 procs for 2 steps with 34944 atoms

Minimization stats:
  Stopping criterion = energy tolerance
  Energy initial, next-to-last, final = 
        -208985.012399     -208985.089492     -208985.089497
  Force two-norm initial, final = 4.69022 7.59434e-05
  Force max component initial, final = 0.0367702 9.9021e-07
  Final line search alpha, max atom move = 0 0
  Iterations, force evaluations = 2 575

Pair  time (%) = 14.1961 (92.4468)
Neigh time (%) = 0 (0)
Comm  time (%) = 0.131349 (0.855362)
Outpt time (%) = 0.000656087 (0.00427253)
Other time (%) = 1.02786 (6.69354)

Nlocal:    34944 ave 34944 max 34944 min
Histogram: 1 0 0 0 0 0 0 0 0 0
Nghost:    36673 ave 36673 max 36673 min
Histogram: 1 0 0 0 0 0 0 0 0 0
Neighs:    940544 ave 940544 max 940544 min
Histogram: 1 0 0 0 0 0 0 0 0 0

Total # of neighbors = 940544
Ave neighs/atom = 26.9158
Neighbor list builds = 0
Dangerous builds = 0
        next i
jump SELF loop1
	read_dump orig.dump 0 x y z
  orthogonal box = (-7.77665 -124.667 -4.48985) to (7.77665 124.667 4.48985)
  34944 atoms before read
  34944 atoms in snapshot
  0 atoms purged
  34944 atoms replaced
  0 atoms trimmed
  0 atoms added
  34944 atoms after read
        variable stretch equal 1+$i*${strainstep}
        variable stretch equal 1+23*${strainstep}
        variable stretch equal 1+23*0.0005
        change_box all ${direction} scale ${stretch} remap
        change_box all y scale ${stretch} remap
        change_box all y scale 1.0115 remap
  orthogonal box = (-7.77665 -126.126 -4.48985) to (7.77665 126.126 4.48985)
        min_style ${style}
        min_style hftn
        minimize ${etol} ${ftol} ${maxiter} ${maxeval}
        minimize 1e-12 ${ftol} ${maxiter} ${maxeval}
        minimize 1e-12 1e-08 ${maxiter} ${maxeval}
        minimize 1e-12 1e-08 10000 ${maxeval}
        minimize 1e-12 1e-08 10000 20000
WARNING: Resetting reneighboring criteria during minimization (../min.cpp:168)
Memory usage per processor = 25.3093 Mbytes
Step PotEng Pxx Pyy Pxy Lx Ly Lz 
       0   -208958.83  -0.37434275   -1.5331241 9.0199341e-10      15.5533    252.25137       8.9797 
       1   -208958.83  -0.37434237   -1.5331202 3.4158164e-10      15.5533    252.25137       8.9797 
       2   -208958.83  -0.37434215   -1.5331201 -3.5539935e-11      15.5533    252.25137       8.9797 
       3   -208958.83  -0.37434144   -1.5331201 7.7760144e-12      15.5533    252.25137       8.9797 
Loop time of 15.2213 on 1 procs for 2 steps with 34944 atoms

Minimization stats:
  Stopping criterion = energy tolerance
  Energy initial, next-to-last, final = 
        -208958.830406     -208958.830746      -208958.83075
  Force two-norm initial, final = 4.67699 7.30989e-05
  Force max component initial, final = 0.0366651 1.04082e-06
  Final line search alpha, max atom move = 0 0
  Iterations, force evaluations = 2 575

Pair  time (%) = 14.0784 (92.4915)
Neigh time (%) = 0 (0)
Comm  time (%) = 0.127949 (0.840596)
Outpt time (%) = 0.000594851 (0.00390803)
Other time (%) = 1.01434 (6.66396)

Nlocal:    34944 ave 34944 max 34944 min
Histogram: 1 0 0 0 0 0 0 0 0 0
Nghost:    36673 ave 36673 max 36673 min
Histogram: 1 0 0 0 0 0 0 0 0 0
Neighs:    940544 ave 940544 max 940544 min
Histogram: 1 0 0 0 0 0 0 0 0 0

Total # of neighbors = 940544
Ave neighs/atom = 26.9158
Neighbor list builds = 0
Dangerous builds = 0
        next i
jump SELF loop1
	read_dump orig.dump 0 x y z
  orthogonal box = (-7.77665 -124.667 -4.48985) to (7.77665 124.667 4.48985)
  34944 atoms before read
  34944 atoms in snapshot
  0 atoms purged
  34944 atoms replaced
  0 atoms trimmed
  0 atoms added
  34944 atoms after read
        variable stretch equal 1+$i*${strainstep}
        variable stretch equal 1+24*${strainstep}
        variable stretch equal 1+24*0.0005
        change_box all ${direction} scale ${stretch} remap
        change_box all y scale ${stretch} remap
        change_box all y scale 1.012 remap
  orthogonal box = (-7.77665 -126.188 -4.48985) to (7.77665 126.188 4.48985)
        min_style ${style}
        min_style hftn
        minimize ${etol} ${ftol} ${maxiter} ${maxeval}
        minimize 1e-12 ${ftol} ${maxiter} ${maxeval}
        minimize 1e-12 1e-08 ${maxiter} ${maxeval}
        minimize 1e-12 1e-08 10000 ${maxeval}
        minimize 1e-12 1e-08 10000 20000
WARNING: Resetting reneighboring criteria during minimization (../min.cpp:168)
Memory usage per processor = 25.3093 Mbytes
Step PotEng Pxx Pyy Pxy Lx Ly Lz 
       0   -208931.52  -0.38862997   -1.5931916 8.9094658e-10      15.5533    252.37606       8.9797 
       1   -208931.52  -0.38862959   -1.5931878 3.3725188e-10      15.5533    252.37606       8.9797 
       2   -208931.52  -0.38862938   -1.5931878 -3.6375706e-11      15.5533    252.37606       8.9797 
       3   -208931.52  -0.38862867   -1.5931878 7.2253506e-12      15.5533    252.37606       8.9797 
Loop time of 15.3004 on 1 procs for 2 steps with 34944 atoms

Minimization stats:
  Stopping criterion = energy tolerance
  Energy initial, next-to-last, final = 
        -208931.524068      -208931.52443     -208931.524434
  Force two-norm initial, final = 4.62349 7.29432e-05
  Force max component initial, final = 0.036245 1.19003e-06
  Final line search alpha, max atom move = 0 0
  Iterations, force evaluations = 2 575

Pair  time (%) = 14.1534 (92.5038)
Neigh time (%) = 0 (0)
Comm  time (%) = 0.123446 (0.80682)
Outpt time (%) = 0.000575993 (0.00376456)
Other time (%) = 1.02293 (6.68562)

Nlocal:    34944 ave 34944 max 34944 min
Histogram: 1 0 0 0 0 0 0 0 0 0
Nghost:    36673 ave 36673 max 36673 min
Histogram: 1 0 0 0 0 0 0 0 0 0
Neighs:    940544 ave 940544 max 940544 min
Histogram: 1 0 0 0 0 0 0 0 0 0

Total # of neighbors = 940544
Ave neighs/atom = 26.9158
Neighbor list builds = 0
Dangerous builds = 0
        next i
jump SELF loop1
	read_dump orig.dump 0 x y z
  orthogonal box = (-7.77665 -124.667 -4.48985) to (7.77665 124.667 4.48985)
  34944 atoms before read
  34944 atoms in snapshot
  0 atoms purged
  34944 atoms replaced
  0 atoms trimmed
  0 atoms added
  34944 atoms after read
        variable stretch equal 1+$i*${strainstep}
        variable stretch equal 1+25*${strainstep}
        variable stretch equal 1+25*0.0005
        change_box all ${direction} scale ${stretch} remap
        change_box all y scale ${stretch} remap
        change_box all y scale 1.0125 remap
  orthogonal box = (-7.77665 -126.25 -4.48985) to (7.77665 126.25 4.48985)
        min_style ${style}
        min_style hftn
        minimize ${etol} ${ftol} ${maxiter} ${maxeval}
        minimize 1e-12 ${ftol} ${maxiter} ${maxeval}
        minimize 1e-12 1e-08 ${maxiter} ${maxeval}
        minimize 1e-12 1e-08 10000 ${maxeval}
        minimize 1e-12 1e-08 10000 20000
WARNING: Resetting reneighboring criteria during minimization (../min.cpp:168)
Memory usage per processor = 25.3093 Mbytes
Step PotEng Pxx Pyy Pxy Lx Ly Lz 
       0   -208903.37  -0.40280907   -1.6529322 -1.4908565e-08      15.5533    252.50075       8.9797 
       1    -208903.5   -0.4028242    -1.652992 -8.5204627e-10      15.5533    252.50075       8.9797 
       2    -208903.5  -0.40282407   -1.6529923  7.69966e-10      15.5533    252.50075       8.9797 
       3    -208903.5  -0.40282337   -1.6529923 1.326593e-11      15.5533    252.50075       8.9797 
Loop time of 15.3187 on 1 procs for 2 steps with 34944 atoms

Minimization stats:
  Stopping criterion = energy tolerance
  Energy initial, next-to-last, final = 
        -208903.374836     -208903.501939     -208903.502621
  Force two-norm initial, final = 4.60787 6.04838e-05
  Force max component initial, final = 0.0361223 9.09163e-07
  Final line search alpha, max atom move = 0 0
  Iterations, force evaluations = 2 577

Pair  time (%) = 14.1739 (92.5267)
Neigh time (%) = 0 (0)
Comm  time (%) = 0.124212 (0.810854)
Outpt time (%) = 0.000640927 (0.00418396)
Other time (%) = 1.01996 (6.65826)

Nlocal:    34944 ave 34944 max 34944 min
Histogram: 1 0 0 0 0 0 0 0 0 0
Nghost:    36673 ave 36673 max 36673 min
Histogram: 1 0 0 0 0 0 0 0 0 0
Neighs:    940544 ave 940544 max 940544 min
Histogram: 1 0 0 0 0 0 0 0 0 0

Total # of neighbors = 940544
Ave neighs/atom = 26.9158
Neighbor list builds = 0
Dangerous builds = 0
        next i
jump SELF loop1
	read_dump orig.dump 0 x y z
  orthogonal box = (-7.77665 -124.667 -4.48985) to (7.77665 124.667 4.48985)
  34944 atoms before read
  34944 atoms in snapshot
  0 atoms purged
  34944 atoms replaced
  0 atoms trimmed
  0 atoms added
  34944 atoms after read
        variable stretch equal 1+$i*${strainstep}
        variable stretch equal 1+26*${strainstep}
        variable stretch equal 1+26*0.0005
        change_box all ${direction} scale ${stretch} remap
        change_box all y scale ${stretch} remap
        change_box all y scale 1.013 remap
  orthogonal box = (-7.77665 -126.313 -4.48985) to (7.77665 126.313 4.48985)
        min_style ${style}
        min_style hftn
        minimize ${etol} ${ftol} ${maxiter} ${maxeval}
        minimize 1e-12 ${ftol} ${maxiter} ${maxeval}
        minimize 1e-12 1e-08 ${maxiter} ${maxeval}
        minimize 1e-12 1e-08 10000 ${maxeval}
        minimize 1e-12 1e-08 10000 20000
WARNING: Resetting reneighboring criteria during minimization (../min.cpp:168)
Memory usage per processor = 25.3093 Mbytes
Step PotEng Pxx Pyy Pxy Lx Ly Lz 
       0   -208873.98  -0.41683054   -1.7121411 8.8103288e-10      15.5533    252.62544       8.9797 
       1   -208873.98  -0.41683016   -1.7121374 3.3333974e-10      15.5533    252.62544       8.9797 
       2   -208873.98  -0.41682995   -1.7121373 -3.7035217e-11      15.5533    252.62544       8.9797 
       3   -208873.98  -0.41682926   -1.7121373 7.1585531e-12      15.5533    252.62544       8.9797 
Loop time of 15.3468 on 1 procs for 2 steps with 34944 atoms

Minimization stats:
  Stopping criterion = energy tolerance
  Energy initial, next-to-last, final = 
        -208873.979262     -208873.979644     -208873.979649
  Force two-norm initial, final = 4.57933 7.26848e-05
  Force max component initial, final = 0.0358979 1.0464e-06
  Final line search alpha, max atom move = 0 0
  Iterations, force evaluations = 2 577

Pair  time (%) = 14.1986 (92.5183)
Neigh time (%) = 0 (0)
Comm  time (%) = 0.128178 (0.835211)
Outpt time (%) = 0.000581992 (0.00379226)
Other time (%) = 1.01944 (6.64268)

Nlocal:    34944 ave 34944 max 34944 min
Histogram: 1 0 0 0 0 0 0 0 0 0
Nghost:    36673 ave 36673 max 36673 min
Histogram: 1 0 0 0 0 0 0 0 0 0
Neighs:    940544 ave 940544 max 940544 min
Histogram: 1 0 0 0 0 0 0 0 0 0

Total # of neighbors = 940544
Ave neighs/atom = 26.9158
Neighbor list builds = 0
Dangerous builds = 0
        next i
jump SELF loop1
	read_dump orig.dump 0 x y z
  orthogonal box = (-7.77665 -124.667 -4.48985) to (7.77665 124.667 4.48985)
  34944 atoms before read
  34944 atoms in snapshot
  0 atoms purged
  34944 atoms replaced
  0 atoms trimmed
  0 atoms added
  34944 atoms after read
        variable stretch equal 1+$i*${strainstep}
        variable stretch equal 1+27*${strainstep}
        variable stretch equal 1+27*0.0005
        change_box all ${direction} scale ${stretch} remap
        change_box all y scale ${stretch} remap
        change_box all y scale 1.0135 remap
  orthogonal box = (-7.77665 -126.375 -4.48985) to (7.77665 126.375 4.48985)
        min_style ${style}
        min_style hftn
        minimize ${etol} ${ftol} ${maxiter} ${maxeval}
        minimize 1e-12 ${ftol} ${maxiter} ${maxeval}
        minimize 1e-12 1e-08 ${maxiter} ${maxeval}
        minimize 1e-12 1e-08 10000 ${maxeval}
        minimize 1e-12 1e-08 10000 20000
WARNING: Resetting reneighboring criteria during minimization (../min.cpp:168)
Memory usage per processor = 25.3093 Mbytes
Step PotEng Pxx Pyy Pxy Lx Ly Lz 
       0   -208843.65  -0.43073228   -1.7709725 8.7020691e-10      15.5533    252.75014       8.9797 
       1   -208843.65  -0.43073191   -1.7709688 3.291244e-10      15.5533    252.75014       8.9797 
       2   -208843.65   -0.4307317   -1.7709687 -3.7628853e-11      15.5533    252.75014       8.9797 
       3   -208843.65  -0.43073102   -1.7709687 6.7434374e-12      15.5533    252.75014       8.9797 
Loop time of 15.4383 on 1 procs for 2 steps with 34944 atoms

Minimization stats:
  Stopping criterion = energy tolerance
  Energy initial, next-to-last, final = 
        -208843.645365     -208843.645769     -208843.645774
  Force two-norm initial, final = 4.52676 7.76831e-05
  Force max component initial, final = 0.0354853 1.2952e-06
  Final line search alpha, max atom move = 0 0
  Iterations, force evaluations = 2 579

Pair  time (%) = 14.2874 (92.5449)
Neigh time (%) = 0 (0)
Comm  time (%) = 0.119532 (0.774252)
Outpt time (%) = 0.000604977 (0.00391866)
Other time (%) = 1.0308 (6.67691)

Nlocal:    34944 ave 34944 max 34944 min
Histogram: 1 0 0 0 0 0 0 0 0 0
Nghost:    36673 ave 36673 max 36673 min
Histogram: 1 0 0 0 0 0 0 0 0 0
Neighs:    940544 ave 940544 max 940544 min
Histogram: 1 0 0 0 0 0 0 0 0 0

Total # of neighbors = 940544
Ave neighs/atom = 26.9158
Neighbor list builds = 0
Dangerous builds = 0
        next i
jump SELF loop1
	read_dump orig.dump 0 x y z
  orthogonal box = (-7.77665 -124.667 -4.48985) to (7.77665 124.667 4.48985)
  34944 atoms before read
  34944 atoms in snapshot
  0 atoms purged
  34944 atoms replaced
  0 atoms trimmed
  0 atoms added
  34944 atoms after read
        variable stretch equal 1+$i*${strainstep}
        variable stretch equal 1+28*${strainstep}
        variable stretch equal 1+28*0.0005
        change_box all ${direction} scale ${stretch} remap
        change_box all y scale ${stretch} remap
        change_box all y scale 1.014 remap
  orthogonal box = (-7.77665 -126.437 -4.48985) to (7.77665 126.437 4.48985)
        min_style ${style}
        min_style hftn
        minimize ${etol} ${ftol} ${maxiter} ${maxeval}
        minimize 1e-12 ${ftol} ${maxiter} ${maxeval}
        minimize 1e-12 1e-08 ${maxiter} ${maxeval}
        minimize 1e-12 1e-08 10000 ${maxeval}
        minimize 1e-12 1e-08 10000 20000
WARNING: Resetting reneighboring criteria during minimization (../min.cpp:168)
Memory usage per processor = 25.3093 Mbytes
Step PotEng Pxx Pyy Pxy Lx Ly Lz 
       0   -208812.42  -0.44452029   -1.8294496 -4.0466756e-09      15.5533    252.87483       8.9797 
       1   -208812.51  -0.44453055   -1.8294895 7.2741213e-10      15.5533    252.87483       8.9797 
       2   -208812.51  -0.44453034   -1.8294895 -4.6523621e-10      15.5533    252.87483       8.9797 
       3   -208812.51  -0.44452966   -1.8294895 -1.395826e-12      15.5533    252.87483       8.9797 
Loop time of 15.3399 on 1 procs for 2 steps with 34944 atoms

Minimization stats:
  Stopping criterion = energy tolerance
  Energy initial, next-to-last, final = 
        -208812.421133     -208812.507951     -208812.507956
  Force two-norm initial, final = 4.52606 7.53213e-05
  Force max component initial, final = 0.035478 1.37233e-06
  Final line search alpha, max atom move = 0 0
  Iterations, force evaluations = 2 579

Pair  time (%) = 14.1819 (92.4515)
Neigh time (%) = 0 (0)
Comm  time (%) = 0.121342 (0.791027)
Outpt time (%) = 0.000508981 (0.00331803)
Other time (%) = 1.03607 (6.75412)

Nlocal:    34944 ave 34944 max 34944 min
Histogram: 1 0 0 0 0 0 0 0 0 0
Nghost:    36673 ave 36673 max 36673 min
Histogram: 1 0 0 0 0 0 0 0 0 0
Neighs:    940544 ave 940544 max 940544 min
Histogram: 1 0 0 0 0 0 0 0 0 0

Total # of neighbors = 940544
Ave neighs/atom = 26.9158
Neighbor list builds = 0
Dangerous builds = 0
        next i
jump SELF loop1
	read_dump orig.dump 0 x y z
  orthogonal box = (-7.77665 -124.667 -4.48985) to (7.77665 124.667 4.48985)
  34944 atoms before read
  34944 atoms in snapshot
  0 atoms purged
  34944 atoms replaced
  0 atoms trimmed
  0 atoms added
  34944 atoms after read
        variable stretch equal 1+$i*${strainstep}
        variable stretch equal 1+29*${strainstep}
        variable stretch equal 1+29*0.0005
        change_box all ${direction} scale ${stretch} remap
        change_box all y scale ${stretch} remap
        change_box all y scale 1.0145 remap
  orthogonal box = (-7.77665 -126.5 -4.48985) to (7.77665 126.5 4.48985)
        min_style ${style}
        min_style hftn
        minimize ${etol} ${ftol} ${maxiter} ${maxeval}
        minimize 1e-12 ${ftol} ${maxiter} ${maxeval}
        minimize 1e-12 1e-08 ${maxiter} ${maxeval}
        minimize 1e-12 1e-08 10000 ${maxeval}
        minimize 1e-12 1e-08 10000 20000
WARNING: Resetting reneighboring criteria during minimization (../min.cpp:168)
Memory usage per processor = 25.3093 Mbytes
Step PotEng Pxx Pyy Pxy Lx Ly Lz 
       0    -208779.9   -0.4581438   -1.8873619 8.6047956e-10      15.5533    252.99952       8.9797 
       1    -208779.9  -0.45814344   -1.8873582 3.2527077e-10      15.5533    252.99952       8.9797 
       2    -208779.9  -0.45814323   -1.8873581 -3.8130687e-11      15.5533    252.99952       8.9797 
       3    -208779.9  -0.45814257   -1.8873581 7.0639497e-12      15.5533    252.99952       8.9797 
Loop time of 15.3839 on 1 procs for 2 steps with 34944 atoms

Minimization stats:
  Stopping criterion = energy tolerance
  Energy initial, next-to-last, final = 
        -208779.895419     -208779.895844      -208779.89585
  Force two-norm initial, final = 4.48331 7.25598e-05
  Force max component initial, final = 0.0351436 9.82748e-07
  Final line search alpha, max atom move = 0 0
  Iterations, force evaluations = 2 581

Pair  time (%) = 14.2345 (92.5287)
Neigh time (%) = 0 (0)
Comm  time (%) = 0.123841 (0.805)
Outpt time (%) = 0.000532121 (0.00345894)
Other time (%) = 1.02501 (6.66285)

Nlocal:    34944 ave 34944 max 34944 min
Histogram: 1 0 0 0 0 0 0 0 0 0
Nghost:    36673 ave 36673 max 36673 min
Histogram: 1 0 0 0 0 0 0 0 0 0
Neighs:    940544 ave 940544 max 940544 min
Histogram: 1 0 0 0 0 0 0 0 0 0

Total # of neighbors = 940544
Ave neighs/atom = 26.9158
Neighbor list builds = 0
Dangerous builds = 0
        next i
jump SELF loop1
	read_dump orig.dump 0 x y z
  orthogonal box = (-7.77665 -124.667 -4.48985) to (7.77665 124.667 4.48985)
  34944 atoms before read
  34944 atoms in snapshot
  0 atoms purged
  34944 atoms replaced
  0 atoms trimmed
  0 atoms added
  34944 atoms after read
        variable stretch equal 1+$i*${strainstep}
        variable stretch equal 1+30*${strainstep}
        variable stretch equal 1+30*0.0005
        change_box all ${direction} scale ${stretch} remap
        change_box all y scale ${stretch} remap
        change_box all y scale 1.015 remap
  orthogonal box = (-7.77665 -126.562 -4.48985) to (7.77665 126.562 4.48985)
        min_style ${style}
        min_style hftn
        minimize ${etol} ${ftol} ${maxiter} ${maxeval}
        minimize 1e-12 ${ftol} ${maxiter} ${maxeval}
        minimize 1e-12 1e-08 ${maxiter} ${maxeval}
        minimize 1e-12 1e-08 10000 ${maxeval}
        minimize 1e-12 1e-08 10000 20000
WARNING: Resetting reneighboring criteria during minimization (../min.cpp:168)
Memory usage per processor = 25.3093 Mbytes
Step PotEng Pxx Pyy Pxy Lx Ly Lz 
       0   -208746.58  -0.47166595   -1.9449679 -1.4403144e-08      15.5533    253.12421       8.9797 
       1   -208746.59  -0.47166696   -1.9449699 -4.4677792e-09      15.5533    253.12421       8.9797 
       2   -208746.59  -0.47166673   -1.9449698 -7.2727286e-10      15.5533    253.12421       8.9797 
       3   -208746.59   -0.4716661   -1.9449698 4.3283067e-12      15.5533    253.12421       8.9797 
Loop time of 15.8854 on 1 procs for 2 steps with 34944 atoms

Minimization stats:
  Stopping criterion = energy tolerance
  Energy initial, next-to-last, final = 
        -208746.581677      -208746.59326     -208746.593265
  Force two-norm initial, final = 4.43489 5.86541e-05
  Force max component initial, final = 0.0347653 7.82059e-07
  Final line search alpha, max atom move = 0 0
  Iterations, force evaluations = 2 597

Pair  time (%) = 14.6913 (92.4827)
Neigh time (%) = 0 (0)
Comm  time (%) = 0.124098 (0.781205)
Outpt time (%) = 0.000743939 (0.00468315)
Other time (%) = 1.06932 (6.73144)

Nlocal:    34944 ave 34944 max 34944 min
Histogram: 1 0 0 0 0 0 0 0 0 0
Nghost:    36673 ave 36673 max 36673 min
Histogram: 1 0 0 0 0 0 0 0 0 0
Neighs:    940544 ave 940544 max 940544 min
Histogram: 1 0 0 0 0 0 0 0 0 0

Total # of neighbors = 940544
Ave neighs/atom = 26.9158
Neighbor list builds = 0
Dangerous builds = 0
        next i
[...]
        variable stretch equal 1+93*0.0005
        change_box all ${direction} scale ${stretch} remap
        change_box all y scale ${stretch} remap
        change_box all y scale 1.0465 remap
  orthogonal box = (-7.77665 -130.49 -4.48985) to (7.77665 130.49 4.48985)
        min_style ${style}
        min_style hftn
        minimize ${etol} ${ftol} ${maxiter} ${maxeval}
        minimize 1e-12 ${ftol} ${maxiter} ${maxeval}
        minimize 1e-12 1e-08 ${maxiter} ${maxeval}
        minimize 1e-12 1e-08 10000 ${maxeval}
        minimize 1e-12 1e-08 10000 20000
WARNING: Resetting reneighboring criteria during minimization (../min.cpp:168)
Memory usage per processor = 25.314 Mbytes
Step PotEng Pxx Pyy Pxy Lx Ly Lz 
       0   -204907.87   -1.0994274   -4.8186345 -9.131872e-09      15.5533    260.97979       8.9797 
       1    -204907.9    -1.099432   -4.8186534 -2.6968751e-09      15.5533    260.97979       8.9797 
       2    -204907.9   -1.0994319   -4.8186534 -5.4547368e-10      15.5533    260.97979       8.9797 
       3    -204907.9   -1.0994316   -4.8186534 2.7211802e-12      15.5533    260.97979       8.9797 
       4    -204907.9   -1.0994317   -4.8186534 -1.4299692e-13      15.5533    260.97979       8.9797 
Loop time of 43.7703 on 1 procs for 3 steps with 34944 atoms

Minimization stats:
  Stopping criterion = force tolerance
  Energy initial, next-to-last, final = 
        -204907.868161     -204907.904419     -204907.904419
  Force two-norm initial, final = 2.80236 2.4863e-10
  Force max component initial, final = 0.0219449 4.69484e-12
  Final line search alpha, max atom move = 0 0
  Iterations, force evaluations = 3 1892

Pair  time (%) = 39.9859 (91.354)
Neigh time (%) = 0 (0)
Comm  time (%) = 0.40167 (0.917677)
Outpt time (%) = 0.000847185 (0.00193552)
Other time (%) = 3.38188 (7.72643)

Nlocal:    34944 ave 34944 max 34944 min
Histogram: 1 0 0 0 0 0 0 0 0 0
Nghost:    36673 ave 36673 max 36673 min
Histogram: 1 0 0 0 0 0 0 0 0 0
Neighs:    836864 ave 836864 max 836864 min
Histogram: 1 0 0 0 0 0 0 0 0 0

Total # of neighbors = 836864
Ave neighs/atom = 23.9487
Neighbor list builds = 0
Dangerous builds = 0
        next i
jump SELF loop1
	read_dump orig.dump 0 x y z
  orthogonal box = (-7.77665 -124.667 -4.48985) to (7.77665 124.667 4.48985)
  34944 atoms before read
  34944 atoms in snapshot
  0 atoms purged
  34944 atoms replaced
  0 atoms trimmed
  0 atoms added
  34944 atoms after read
        variable stretch equal 1+$i*${strainstep}
        variable stretch equal 1+94*${strainstep}
        variable stretch equal 1+94*0.0005
        change_box all ${direction} scale ${stretch} remap
        change_box all y scale ${stretch} remap
        change_box all y scale 1.047 remap
  orthogonal box = (-7.77665 -130.552 -4.48985) to (7.77665 130.552 4.48985)
        min_style ${style}
        min_style hftn
        minimize ${etol} ${ftol} ${maxiter} ${maxeval}
        minimize 1e-12 ${ftol} ${maxiter} ${maxeval}
        minimize 1e-12 1e-08 ${maxiter} ${maxeval}
        minimize 1e-12 1e-08 10000 ${maxeval}
        minimize 1e-12 1e-08 10000 20000
WARNING: Resetting reneighboring criteria during minimization (../min.cpp:168)
Memory usage per processor = 25.315 Mbytes
Step PotEng Pxx Pyy Pxy Lx Ly Lz 
       0   -204823.67   -1.1063439   -4.8535793 5.0874191e-10      15.5533    261.10448       8.9797 
       1   -204823.67   -1.1063437    -4.853577 1.8589273e-10      15.5533    261.10448       8.9797 
       2   -204823.67   -1.1063435    -4.853577 5.5563546e-11      15.5533    261.10448       8.9797 
       3   -204823.67   -1.1063433    -4.853577 2.0629557e-12      15.5533    261.10448       8.9797 
       4   -204823.67   -1.1063433    -4.853577 9.8955414e-14      15.5533    261.10448       8.9797 
Loop time of 43.6994 on 1 procs for 3 steps with 34944 atoms

Minimization stats:
  Stopping criterion = force tolerance
  Energy initial, next-to-last, final = 
        -204823.672097      -204823.67324     -204823.673241
  Force two-norm initial, final = 2.79502 2.08833e-10
  Force max component initial, final = 0.0218864 4.7804e-12
  Final line search alpha, max atom move = 0 0
  Iterations, force evaluations = 3 1892

Pair  time (%) = 39.9141 (91.338)
Neigh time (%) = 0 (0)
Comm  time (%) = 0.403541 (0.923448)
Outpt time (%) = 0.00128798 (0.00294736)
Other time (%) = 3.38043 (7.73565)

Nlocal:    34944 ave 34944 max 34944 min
Histogram: 1 0 0 0 0 0 0 0 0 0
Nghost:    36673 ave 36673 max 36673 min
Histogram: 1 0 0 0 0 0 0 0 0 0
Neighs:    836864 ave 836864 max 836864 min
Histogram: 1 0 0 0 0 0 0 0 0 0

Total # of neighbors = 836864
Ave neighs/atom = 23.9487
Neighbor list builds = 0
Dangerous builds = 0
        next i
jump SELF loop1
	read_dump orig.dump 0 x y z
  orthogonal box = (-7.77665 -124.667 -4.48985) to (7.77665 124.667 4.48985)
  34944 atoms before read
  34944 atoms in snapshot
  0 atoms purged
  34944 atoms replaced
  0 atoms trimmed
  0 atoms added
  34944 atoms after read
        variable stretch equal 1+$i*${strainstep}
        variable stretch equal 1+95*${strainstep}
        variable stretch equal 1+95*0.0005
        change_box all ${direction} scale ${stretch} remap
        change_box all y scale ${stretch} remap
        change_box all y scale 1.0475 remap
  orthogonal box = (-7.77665 -130.615 -4.48985) to (7.77665 130.615 4.48985)
        min_style ${style}
        min_style hftn
        minimize ${etol} ${ftol} ${maxiter} ${maxeval}
        minimize 1e-12 ${ftol} ${maxiter} ${maxeval}
        minimize 1e-12 1e-08 ${maxiter} ${maxeval}
        minimize 1e-12 1e-08 10000 ${maxeval}
        minimize 1e-12 1e-08 10000 20000
WARNING: Resetting reneighboring criteria during minimization (../min.cpp:168)
Memory usage per processor = 25.315 Mbytes
Step PotEng Pxx Pyy Pxy Lx Ly Lz 
       0   -204738.78   -1.1131658   -4.8881695 5.0164108e-10      15.5533    261.22917       8.9797 
       1   -204738.78   -1.1131656   -4.8881673 1.8309813e-10      15.5533    261.22917       8.9797 
       2   -204738.78   -1.1131655   -4.8881673 5.5096437e-11      15.5533    261.22917       8.9797 
       3   -204738.78   -1.1131653   -4.8881673 2.0934748e-12      15.5533    261.22917       8.9797 
       4   -204738.78   -1.1131653   -4.8881673 9.4305868e-14      15.5533    261.22917       8.9797 
Loop time of 43.8453 on 1 procs for 3 steps with 34944 atoms

Minimization stats:
  Stopping criterion = force tolerance
  Energy initial, next-to-last, final = 
        -204738.776367     -204738.777522     -204738.777522
  Force two-norm initial, final = 2.75849 2.44008e-10
  Force max component initial, final = 0.0215998 4.26231e-12
  Final line search alpha, max atom move = 0 0
  Iterations, force evaluations = 3 1894

Pair  time (%) = 40.0484 (91.3402)
Neigh time (%) = 0 (0)
Comm  time (%) = 0.401719 (0.916219)
Outpt time (%) = 0.000932932 (0.00212778)
Other time (%) = 3.39425 (7.74141)

Nlocal:    34944 ave 34944 max 34944 min
Histogram: 1 0 0 0 0 0 0 0 0 0
Nghost:    36673 ave 36673 max 36673 min
Histogram: 1 0 0 0 0 0 0 0 0 0
Neighs:    836864 ave 836864 max 836864 min
Histogram: 1 0 0 0 0 0 0 0 0 0

Total # of neighbors = 836864
Ave neighs/atom = 23.9487
Neighbor list builds = 0
Dangerous builds = 0
        next i
jump SELF loop1
	read_dump orig.dump 0 x y z
  orthogonal box = (-7.77665 -124.667 -4.48985) to (7.77665 124.667 4.48985)
  34944 atoms before read
  34944 atoms in snapshot
  0 atoms purged
  34944 atoms replaced
  0 atoms trimmed
  0 atoms added
  34944 atoms after read
        variable stretch equal 1+$i*${strainstep}
        variable stretch equal 1+96*${strainstep}
        variable stretch equal 1+96*0.0005
        change_box all ${direction} scale ${stretch} remap
        change_box all y scale ${stretch} remap
        change_box all y scale 1.048 remap
  orthogonal box = (-7.77665 -130.677 -4.48985) to (7.77665 130.677 4.48985)
        min_style ${style}
        min_style hftn
        minimize ${etol} ${ftol} ${maxiter} ${maxeval}
        minimize 1e-12 ${ftol} ${maxiter} ${maxeval}
        minimize 1e-12 1e-08 ${maxiter} ${maxeval}
        minimize 1e-12 1e-08 10000 ${maxeval}
        minimize 1e-12 1e-08 10000 20000
WARNING: Resetting reneighboring criteria during minimization (../min.cpp:168)
Memory usage per processor = 25.315 Mbytes
Step PotEng Pxx Pyy Pxy Lx Ly Lz 
       0   -204653.39    -1.119922   -4.9225297 -8.9484668e-09      15.5533    261.35387       8.9797 
       1   -204653.43   -1.1199274   -4.9225521 -2.6334236e-09      15.5533    261.35387       8.9797 
       2   -204653.43   -1.1199273   -4.9225521 2.642208e-10      15.5533    261.35387       8.9797 
       3   -204653.43    -1.119927   -4.9225521 3.4868783e-12      15.5533    261.35387       8.9797 
       4   -204653.43    -1.119927   -4.9225521 9.3203222e-15      15.5533    261.35387       8.9797 
Loop time of 41.3555 on 1 procs for 3 steps with 34944 atoms

Minimization stats:
  Stopping criterion = force tolerance
  Energy initial, next-to-last, final = 
        -204653.387745     -204653.429154     -204653.429155
  Force two-norm initial, final = 2.73673 5.48981e-10
  Force max component initial, final = 0.0214296 8.85573e-12
  Final line search alpha, max atom move = 0 0
  Iterations, force evaluations = 3 1786

Pair  time (%) = 37.7461 (91.2723)
Neigh time (%) = 0 (0)
Comm  time (%) = 0.396118 (0.957837)
Outpt time (%) = 0.000878959 (0.00212537)
Other time (%) = 3.21237 (7.76771)

Nlocal:    34944 ave 34944 max 34944 min
Histogram: 1 0 0 0 0 0 0 0 0 0
Nghost:    36673 ave 36673 max 36673 min
Histogram: 1 0 0 0 0 0 0 0 0 0
Neighs:    836864 ave 836864 max 836864 min
Histogram: 1 0 0 0 0 0 0 0 0 0

Total # of neighbors = 836864
Ave neighs/atom = 23.9487
Neighbor list builds = 0
Dangerous builds = 0
        next i
jump SELF loop1
	read_dump orig.dump 0 x y z
  orthogonal box = (-7.77665 -124.667 -4.48985) to (7.77665 124.667 4.48985)
  34944 atoms before read
  34944 atoms in snapshot
  0 atoms purged
  34944 atoms replaced
  0 atoms trimmed
  0 atoms added
  34944 atoms after read
        variable stretch equal 1+$i*${strainstep}
        variable stretch equal 1+97*${strainstep}
        variable stretch equal 1+97*0.0005
        change_box all ${direction} scale ${stretch} remap
        change_box all y scale ${stretch} remap
        change_box all y scale 1.0485 remap
  orthogonal box = (-7.77665 -130.739 -4.48985) to (7.77665 130.739 4.48985)
        min_style ${style}
        min_style hftn
        minimize ${etol} ${ftol} ${maxiter} ${maxeval}
        minimize 1e-12 ${ftol} ${maxiter} ${maxeval}
        minimize 1e-12 1e-08 ${maxiter} ${maxeval}
        minimize 1e-12 1e-08 10000 ${maxeval}
        minimize 1e-12 1e-08 10000 20000
WARNING: Resetting reneighboring criteria during minimization (../min.cpp:168)
Memory usage per processor = 25.315 Mbytes
Step PotEng Pxx Pyy Pxy Lx Ly Lz 
       0   -204567.38   -1.1265946   -4.9565816 4.951477e-10      15.5533    261.47856       8.9797 
       1   -204567.38   -1.1265944   -4.9565794 1.805031e-10      15.5533    261.47856       8.9797 
       2   -204567.38   -1.1265943   -4.9565794 -1.0431436e-11      15.5533    261.47856       8.9797 
       3   -204567.38    -1.126594   -4.9565794 2.6975325e-12      15.5533    261.47856       8.9797 
       4   -204567.38   -1.1265941   -4.9565794 1.5695735e-13      15.5533    261.47856       8.9797 
Loop time of 41.2393 on 1 procs for 3 steps with 34944 atoms

Minimization stats:
  Stopping criterion = force tolerance
  Energy initial, next-to-last, final = 
        -204567.380723     -204567.381893     -204567.381893
  Force two-norm initial, final = 2.72721 5.13625e-10
  Force max component initial, final = 0.0213542 9.20641e-12
  Final line search alpha, max atom move = 0 0
  Iterations, force evaluations = 3 1782

Pair  time (%) = 37.668 (91.34)
Neigh time (%) = 0 (0)
Comm  time (%) = 0.38366 (0.930327)
Outpt time (%) = 0.00115714 (0.00280592)
Other time (%) = 3.18652 (7.72691)

Nlocal:    34944 ave 34944 max 34944 min
Histogram: 1 0 0 0 0 0 0 0 0 0
Nghost:    36673 ave 36673 max 36673 min
Histogram: 1 0 0 0 0 0 0 0 0 0
Neighs:    836864 ave 836864 max 836864 min
Histogram: 1 0 0 0 0 0 0 0 0 0

Total # of neighbors = 836864
Ave neighs/atom = 23.9487
Neighbor list builds = 0
Dangerous builds = 0
        next i
jump SELF loop1
	read_dump orig.dump 0 x y z
  orthogonal box = (-7.77665 -124.667 -4.48985) to (7.77665 124.667 4.48985)
  34944 atoms before read
  34944 atoms in snapshot
  0 atoms purged
  34944 atoms replaced
  0 atoms trimmed
  0 atoms added
  34944 atoms after read
        variable stretch equal 1+$i*${strainstep}
        variable stretch equal 1+98*${strainstep}
        variable stretch equal 1+98*0.0005
        change_box all ${direction} scale ${stretch} remap
        change_box all y scale ${stretch} remap
        change_box all y scale 1.049 remap
  orthogonal box = (-7.77665 -130.802 -4.48985) to (7.77665 130.802 4.48985)
        min_style ${style}
        min_style hftn
        minimize ${etol} ${ftol} ${maxiter} ${maxeval}
        minimize 1e-12 ${ftol} ${maxiter} ${maxeval}
        minimize 1e-12 1e-08 ${maxiter} ${maxeval}
        minimize 1e-12 1e-08 10000 ${maxeval}
        minimize 1e-12 1e-08 10000 20000
WARNING: Resetting reneighboring criteria during minimization (../min.cpp:168)
Memory usage per processor = 25.315 Mbytes
Step PotEng Pxx Pyy Pxy Lx Ly Lz 
       0   -204480.71   -1.1331775   -4.9902966 4.8818908e-10      15.5533    261.60325       8.9797 
       1   -204480.71   -1.1331773   -4.9902944 1.7775596e-10      15.5533    261.60325       8.9797 
       2   -204480.71   -1.1331772   -4.9902944 -1.2004579e-11      15.5533    261.60325       8.9797 
       3   -204480.71    -1.133177   -4.9902944 2.3849682e-12      15.5533    261.60325       8.9797 
       4   -204480.71    -1.133177   -4.9902944 7.1147474e-14      15.5533    261.60325       8.9797 
Loop time of 41.7995 on 1 procs for 3 steps with 34944 atoms

Minimization stats:
  Stopping criterion = force tolerance
  Energy initial, next-to-last, final = 
        -204480.709291     -204480.710472     -204480.710473
  Force two-norm initial, final = 2.69135 4.99829e-10
  Force max component initial, final = 0.0210729 9.24198e-12
  Final line search alpha, max atom move = 0 0
  Iterations, force evaluations = 3 1792

Pair  time (%) = 38.1615 (91.2965)
Neigh time (%) = 0 (0)
Comm  time (%) = 0.390319 (0.933789)
Outpt time (%) = 0.0007141 (0.00170839)
Other time (%) = 3.24701 (7.76805)

Nlocal:    34944 ave 34944 max 34944 min
Histogram: 1 0 0 0 0 0 0 0 0 0
Nghost:    36673 ave 36673 max 36673 min
Histogram: 1 0 0 0 0 0 0 0 0 0
Neighs:    836864 ave 836864 max 836864 min
Histogram: 1 0 0 0 0 0 0 0 0 0

Total # of neighbors = 836864
Ave neighs/atom = 23.9487
Neighbor list builds = 0
Dangerous builds = 0
        next i
jump SELF loop1
	read_dump orig.dump 0 x y z
  orthogonal box = (-7.77665 -124.667 -4.48985) to (7.77665 124.667 4.48985)
  34944 atoms before read
  34944 atoms in snapshot
  0 atoms purged
  34944 atoms replaced
  0 atoms trimmed
  0 atoms added
  34944 atoms after read
        variable stretch equal 1+$i*${strainstep}
        variable stretch equal 1+99*${strainstep}
        variable stretch equal 1+99*0.0005
        change_box all ${direction} scale ${stretch} remap
        change_box all y scale ${stretch} remap
        change_box all y scale 1.0495 remap
  orthogonal box = (-7.77665 -130.864 -4.48985) to (7.77665 130.864 4.48985)
        min_style ${style}
        min_style hftn
        minimize ${etol} ${ftol} ${maxiter} ${maxeval}
        minimize 1e-12 ${ftol} ${maxiter} ${maxeval}
        minimize 1e-12 1e-08 ${maxiter} ${maxeval}
        minimize 1e-12 1e-08 10000 ${maxeval}
        minimize 1e-12 1e-08 10000 20000
WARNING: Resetting reneighboring criteria during minimization (../min.cpp:168)
Memory usage per processor = 25.315 Mbytes
Step PotEng Pxx Pyy Pxy Lx Ly Lz 
       0   -204393.55   -1.1396951   -5.0237811 -8.7525172e-09      15.5533    261.72794       8.9797 
       1    -204393.6   -1.1397011   -5.0238064 -2.5663359e-09      15.5533    261.72794       8.9797 
       2    -204393.6    -1.139701   -5.0238064 2.918329e-10      15.5533    261.72794       8.9797 
       3    -204393.6   -1.1397008   -5.0238064 2.9284302e-12      15.5533    261.72794       8.9797 
       4    -204393.6   -1.1397008   -5.0238064 2.0052914e-13      15.5533    261.72794       8.9797 
Loop time of 44.8421 on 1 procs for 3 steps with 34944 atoms

Minimization stats:
  Stopping criterion = force tolerance
  Energy initial, next-to-last, final = 
        -204393.549967     -204393.595402     -204393.595403
  Force two-norm initial, final = 2.67182 3.57184e-10
  Force max component initial, final = 0.02092 6.89292e-12
  Final line search alpha, max atom move = 0 0
  Iterations, force evaluations = 3 1920

Pair  time (%) = 40.9672 (91.3587)
Neigh time (%) = 0 (0)
Comm  time (%) = 0.415111 (0.925716)
Outpt time (%) = 0.000911067 (0.00203172)
Other time (%) = 3.45891 (7.71352)

Nlocal:    34944 ave 34944 max 34944 min
Histogram: 1 0 0 0 0 0 0 0 0 0
Nghost:    36673 ave 36673 max 36673 min
Histogram: 1 0 0 0 0 0 0 0 0 0
Neighs:    836864 ave 836864 max 836864 min
Histogram: 1 0 0 0 0 0 0 0 0 0

Total # of neighbors = 836864
Ave neighs/atom = 23.9487
Neighbor list builds = 0
Dangerous builds = 0
        next i
jump SELF loop1
	read_dump orig.dump 0 x y z
  orthogonal box = (-7.77665 -124.667 -4.48985) to (7.77665 124.667 4.48985)
  34944 atoms before read
  34944 atoms in snapshot
  0 atoms purged
  34944 atoms replaced
  0 atoms trimmed
  0 atoms added
  34944 atoms after read
        variable stretch equal 1+$i*${strainstep}
        variable stretch equal 1+100*${strainstep}
        variable stretch equal 1+100*0.0005
        change_box all ${direction} scale ${stretch} remap
        change_box all y scale ${stretch} remap
        change_box all y scale 1.05 remap
  orthogonal box = (-7.77665 -130.926 -4.48985) to (7.77665 130.926 4.48985)
        min_style ${style}
        min_style hftn
        minimize ${etol} ${ftol} ${maxiter} ${maxeval}
        minimize 1e-12 ${ftol} ${maxiter} ${maxeval}
        minimize 1e-12 1e-08 ${maxiter} ${maxeval}
        minimize 1e-12 1e-08 10000 ${maxeval}
        minimize 1e-12 1e-08 10000 20000
WARNING: Resetting reneighboring criteria during minimization (../min.cpp:168)
Memory usage per processor = 25.315 Mbytes
Step PotEng Pxx Pyy Pxy Lx Ly Lz 
       0   -204305.78   -1.1461296   -5.0569562 4.8181389e-10      15.5533    261.85263       8.9797 
       1   -204305.78   -1.1461294   -5.0569541 1.7521638e-10      15.5533    261.85263       8.9797 
       2   -204305.78   -1.1461293    -5.056954 -1.3089929e-11      15.5533    261.85263       8.9797 
       3   -204305.78    -1.146129    -5.056954 2.3716595e-12      15.5533    261.85263       8.9797 
       4   -204305.78   -1.1461291    -5.056954 1.081931e-13      15.5533    261.85263       8.9797 
Loop time of 46.0487 on 1 procs for 3 steps with 34944 atoms

Minimization stats:
  Stopping criterion = force tolerance
  Energy initial, next-to-last, final = 
        -204305.778425      -204305.77962      -204305.77962
  Force two-norm initial, final = 2.66053 4.69946e-10
  Force max component initial, final = 0.0208308 8.43141e-12
  Final line search alpha, max atom move = 0 0
  Iterations, force evaluations = 3 1988

Pair  time (%) = 42.0784 (91.3781)
Neigh time (%) = 0 (0)
Comm  time (%) = 0.42242 (0.917333)
Outpt time (%) = 0.000833128 (0.00180923)
Other time (%) = 3.54704 (7.7028)

Nlocal:    34944 ave 34944 max 34944 min
Histogram: 1 0 0 0 0 0 0 0 0 0
Nghost:    36673 ave 36673 max 36673 min
Histogram: 1 0 0 0 0 0 0 0 0 0
Neighs:    836864 ave 836864 max 836864 min
Histogram: 1 0 0 0 0 0 0 0 0 0

Total # of neighbors = 836864
Ave neighs/atom = 23.9487
Neighbor list builds = 0
Dangerous builds = 0
        next i
jump SELF loop1

