LAMMPS (28 Jun 2014)
# attempt at getting tensile strain-stress curve for infinite slab

#file prefix
variable prefix string tension_V_brittle_twin
variable dumpfile string ${prefix}.*.dump
variable dumpfile string tension_V_brittle_twin.*.dump
variable restartfile string ${prefix}.*.equil
variable restartfile string tension_V_brittle_twin.*.equil

#Mass (g/mol)
variable m equal 1

# lattice constant (in Angstroms) and orientation of axes (given by lattice vectors)
variable rho equal 1.0
variable x1 equal 1
variable x2 equal 0
variable x3 equal 1
variable y1 equal 0
variable y2 equal 1
variable y3 equal 0
variable z1 equal -1
variable z2 equal 0
variable z3 equal 1
# length of lattice in different directions (using orientation of lattice vectors)
variable ax equal sqrt(${x1}*${x1}+${x2}*${x2}+${x3}*${x3})
variable ax equal sqrt(1*${x1}+${x2}*${x2}+${x3}*${x3})
variable ax equal sqrt(1*1+${x2}*${x2}+${x3}*${x3})
variable ax equal sqrt(1*1+0*${x2}+${x3}*${x3})
variable ax equal sqrt(1*1+0*0+${x3}*${x3})
variable ax equal sqrt(1*1+0*0+1*${x3})
variable ax equal sqrt(1*1+0*0+1*1)
variable ay equal sqrt(${y1}*${y1}+${y2}*${y2}+${y3}*${y3})
variable ay equal sqrt(0*${y1}+${y2}*${y2}+${y3}*${y3})
variable ay equal sqrt(0*0+${y2}*${y2}+${y3}*${y3})
variable ay equal sqrt(0*0+1*${y2}+${y3}*${y3})
variable ay equal sqrt(0*0+1*1+${y3}*${y3})
variable ay equal sqrt(0*0+1*1+0*${y3})
variable ay equal sqrt(0*0+1*1+0*0)
variable az equal sqrt(${z1}*${z1}+${z2}*${z2}+${z3}*${z3})
variable az equal sqrt(-1*${z1}+${z2}*${z2}+${z3}*${z3})
variable az equal sqrt(-1*-1+${z2}*${z2}+${z3}*${z3})
variable az equal sqrt(-1*-1+0*${z2}+${z3}*${z3})
variable az equal sqrt(-1*-1+0*0+${z3}*${z3})
variable az equal sqrt(-1*-1+0*0+1*${z3})
variable az equal sqrt(-1*-1+0*0+1*1)

# size of box in lattice units
variable lxpos equal 2
variable lxneg equal 0
variable lypos equal 10
variable lyneg equal 0
variable lzpos equal 2
variable lzneg equal 0

# Define minimization parameters and damping
variable etol equal 1.0e-12
variable ftol equal 1.0e-8
variable maxiter equal 10000
variable maxeval equal 20000
variable style string hftn

# boundary conditions
dimension	3
boundary	p s p
atom_style	atomic

# create geometry
units		lj
lattice         fcc ${rho} orient x 1 1 -2 orient y 1 1 1 orient z 1 -1 0 spacing ${ax} ${ay} ${az}
lattice         fcc 1 orient x 1 1 -2 orient y 1 1 1 orient z 1 -1 0 spacing ${ax} ${ay} ${az}
lattice         fcc 1 orient x 1 1 -2 orient y 1 1 1 orient z 1 -1 0 spacing 1.4142135623731 ${ay} ${az}
lattice         fcc 1 orient x 1 1 -2 orient y 1 1 1 orient z 1 -1 0 spacing 1.4142135623731 1 ${az}
lattice         fcc 1 orient x 1 1 -2 orient y 1 1 1 orient z 1 -1 0 spacing 1.4142135623731 1 1.4142135623731
Lattice spacing in x,y,z = 2.24492 1.5874 2.24492
region		myregion block ${lxneg} ${lxpos} ${lyneg} ${lypos} ${lzneg} ${lzpos} units lattice
region		myregion block 0 ${lxpos} ${lyneg} ${lypos} ${lzneg} ${lzpos} units lattice
region		myregion block 0 2 ${lyneg} ${lypos} ${lzneg} ${lzpos} units lattice
region		myregion block 0 2 0 ${lypos} ${lzneg} ${lzpos} units lattice
region		myregion block 0 2 0 10 ${lzneg} ${lzpos} units lattice
region		myregion block 0 2 0 10 0 ${lzpos} units lattice
region		myregion block 0 2 0 10 0 2 units lattice
create_box	1 myregion
Created orthogonal box = (0 0 0) to (4.48985 15.874 4.48985)
  1 by 1 by 1 MPI processor grid

region		upper block INF INF 0.01 INF INF INF
create_atoms	1 region upper
Created 316 atoms

region		lower block INF INF INF 0.01 INF INF
lattice         fcc ${rho} orient x 1 1 -2 orient y -1 -1 -1 orient z -1 1 0 spacing ${ax} ${ay} ${az}
lattice         fcc 1 orient x 1 1 -2 orient y -1 -1 -1 orient z -1 1 0 spacing ${ax} ${ay} ${az}
lattice         fcc 1 orient x 1 1 -2 orient y -1 -1 -1 orient z -1 1 0 spacing 1.4142135623731 ${ay} ${az}
lattice         fcc 1 orient x 1 1 -2 orient y -1 -1 -1 orient z -1 1 0 spacing 1.4142135623731 1 ${az}
lattice         fcc 1 orient x 1 1 -2 orient y -1 -1 -1 orient z -1 1 0 spacing 1.4142135623731 1 1.4142135623731
Lattice spacing in x,y,z = 2.24492 1.5874 2.24492
create_atoms	1 region lower
Created 20 atoms

# define masses
mass * $m
mass * 1

# my fake/morse potential
pair_style      table linear 3001
pair_coeff      * * vpotential_inter43d dummy
neighbor	0.3 bin
neigh_modify	delay 5

# Setup output
thermo 1
thermo_style custom step pe pxx pyy pxy lx ly lz
thermo_modify norm no

# Compute initial state by relaxing box
min_style ${style}
min_style hftn
minimize ${etol} ${ftol} ${maxiter} ${maxeval}
minimize 1e-12 ${ftol} ${maxiter} ${maxeval}
minimize 1e-12 1e-08 ${maxiter} ${maxeval}
minimize 1e-12 1e-08 10000 ${maxeval}
minimize 1e-12 1e-08 10000 20000
WARNING: Resetting reneighboring criteria during minimization (../min.cpp:168)
Memory usage per processor = 4.90059 Mbytes
Step PotEng Pxx Pyy Pxy Lx Ly Lz 
       0    37279.503    1007.5624   0.11564565  0.034956612    4.4898482    15.583444    4.4898482 
       1    12164.038    416.24403    0.6360151   0.22674121    4.4898482    15.583444    4.4898482 
       2    3233.9545    174.96649    1.4093471   0.49765742    4.4898482    15.583444    4.4898482 
       3    109.39271    79.045534    2.4063746   0.84290997    4.4898482    15.583444    4.4898482 
       4    109.39271    79.044258    2.4063358   0.84289636    4.4898482    15.583696    4.4898482 
       5   -877.95815    44.079771    3.3557863    1.0920776    4.4898482    15.583696    4.4898482 
       6   -1366.8132    26.221612    3.8457293   0.76225838    4.4898482    15.583696    4.4898482 
       7   -1494.0834    20.310992    5.1391321  -0.67291709    4.4898482     15.86028    4.4898482 
       8   -1533.4791    18.525916    3.9345001  -0.59454851    4.4898482     15.86028    4.4898482 
       9    -1542.769    18.068368     3.983187  -0.58703674    4.4898482     15.86028    4.4898482 
      10   -1555.8153    16.593111    3.7673294  -0.81635491    4.4898482    16.183268    4.4898482 
      11   -1564.6137    16.182688    3.7711948  -0.75503665    4.4898482    16.183268    4.4898482 
      12   -1575.5631    15.017623    3.6663244  -0.93311119    4.4898482    16.183268    4.4898482 
      13   -1582.5289    14.676338    3.5868631  -0.86313407    4.4898482    16.183268    4.4898482 
      14   -1590.4288    13.370618    3.4083446  -0.92291942    4.4898482    16.543607    4.4898482 
      15   -1607.6836    11.467484    2.8632084  -0.71984587    4.4898482    16.543607    4.4898482 
      16   -1614.2081    10.699971    2.7848467  -0.79724788    4.4898482    16.543607    4.4898482 
      17   -1622.9078    9.5682807    2.8001669  -0.31220022    4.4898482    16.543607    4.4898482 
      18   -1644.6726    7.2612247     3.256495   0.24070692    4.4898482    16.825805    4.4898482 
      19   -1687.2403    5.4872447    3.5534945    1.3169596    4.4898482    16.869029    4.4898482 
      20   -1760.8563    3.4661197    2.4197885   0.72933607    4.4898482    16.869029    4.4898482 
      21   -1778.0357      2.99289    2.1626537   0.66476322    4.4898482    16.869029    4.4898482 
      22   -1805.8365    2.4245064    1.7956687   0.45467224    4.4898482    16.869029    4.4898482 
      23   -1839.3557    1.6764724   0.86316081 0.0021878574    4.4898482    16.885062    4.4898482 
      24   -1849.0312    1.5527131   0.42829963 -0.047054367    4.4898482    16.885062    4.4898482 
      25   -1857.8783    1.7268086   0.19593597  -0.21169753    4.4898482    16.885062    4.4898482 
      26   -1866.3025     1.377559  0.066286932  -0.37139694    4.4898482    16.885062    4.4898482 
      27   -1873.6388    1.5807022   0.24901225  -0.34854911    4.4898482    16.757637    4.4898482 
      28   -1875.3798    1.4102126 -0.035504643  -0.16596905    4.4898482    16.757637    4.4898482 
      29   -1875.8994    1.4816411  0.030984152 -0.055423339    4.4898482    16.757637    4.4898482 
      30   -1875.9395    1.4759045 -0.0031907158 0.0030203375    4.4898482    16.757637    4.4898482 
      31   -1875.9413     1.478075 4.6672397e-05 -3.1521515e-05    4.4898482    16.757637    4.4898482 
      32   -1875.9413    1.4780541 5.8743121e-08 8.7923252e-09    4.4898482    16.757637    4.4898482 
      33   -1875.9413    1.4780541 2.7409495e-12 -4.5633771e-12    4.4898482    16.757637    4.4898482 
Loop time of 0.27532 on 1 procs for 32 steps with 336 atoms

Minimization stats:
  Stopping criterion = force tolerance
  Energy initial, next-to-last, final = 
         37279.5026124     -1875.94125721     -1875.94126345
  Force two-norm initial, final = 107410 1.27259e-09
  Force max component initial, final = 10962.8 2.57687e-10
  Final line search alpha, max atom move = 0 0
  Iterations, force evaluations = 32 664

Pair  time (%) = 0.220027 (79.9167)
Neigh time (%) = 0.00391546 (1.42215)
Comm  time (%) = 0.0293789 (10.6708)
Outpt time (%) = 0.00679156 (2.46679)
Other time (%) = 0.0152074 (5.52353)

Nlocal:    336 ave 336 max 336 min
Histogram: 1 0 0 0 0 0 0 0 0 0
Nghost:    1092 ave 1092 max 1092 min
Histogram: 1 0 0 0 0 0 0 0 0 0
Neighs:    8504 ave 8504 max 8504 min
Histogram: 1 0 0 0 0 0 0 0 0 0

Total # of neighbors = 8504
Ave neighs/atom = 25.3095
Neighbor list builds = 9
Dangerous builds = 1
reset_timestep 0
write_dump all atom orig.dump

# Energy curve will have nstep steps
variable strainmax equal 0.05
variable strainstep equal 0.0005
variable nsteps equal round(${strainmax}/${strainstep})
variable nsteps equal round(0.05/${strainstep})
variable nsteps equal round(0.05/0.0005)
variable direction string y

variable i loop ${nsteps}
variable i loop 100
label loop1
        read_dump orig.dump 0 x y z
  orthogonal box = (0 -0.599871 0) to (4.48985 16.1802 4.48985)
  336 atoms before read
  336 atoms in snapshot
  0 atoms purged
  336 atoms replaced
  0 atoms trimmed
  0 atoms added
  336 atoms after read
        variable stretch equal 1+$i*${strainstep}
        variable stretch equal 1+1*${strainstep}
        variable stretch equal 1+1*0.0005
        change_box all ${direction} scale ${stretch} remap
        change_box all y scale ${stretch} remap
        change_box all y scale 1.0005 remap
  orthogonal box = (0 -0.605744 0) to (4.48985 16.1861 4.48985)
        min_style ${style}
        min_style hftn
        minimize ${etol} ${ftol} ${maxiter} ${maxeval}
        minimize 1e-12 ${ftol} ${maxiter} ${maxeval}
        minimize 1e-12 1e-08 ${maxiter} ${maxeval}
        minimize 1e-12 1e-08 10000 ${maxeval}
        minimize 1e-12 1e-08 10000 20000
WARNING: Resetting reneighboring criteria during minimization (../min.cpp:168)
Memory usage per processor = 4.9009 Mbytes
Step PotEng Pxx Pyy Pxy Lx Ly Lz 
       0   -1875.9303    1.4442545 -0.093944911 0.0037477574      4.48985     16.79185      4.48985 
       1   -1875.9415     1.475016 0.0003184683 -0.00082323653      4.48985     16.79185      4.48985 
       2   -1875.9415    1.4749759 -9.4475915e-06 2.5804458e-07      4.48985     16.79185      4.48985 
       3   -1875.9415    1.4749759 -9.4475915e-06 2.5804458e-07      4.48985     16.79185      4.48985 
       4   -1875.9415    1.4749759 -9.4475915e-06 2.5804458e-07      4.48985     16.79185      4.48985 
       5   -1875.9415    1.4749759 -9.4475915e-06 2.5804458e-07      4.48985     16.79185      4.48985 
       6   -1875.9415    1.4749759 -9.4475915e-06 2.5804458e-07      4.48985     16.79185      4.48985 
       7   -1875.9415    1.4749759 -9.4475915e-06 2.5804458e-07      4.48985     16.79185      4.48985 
       8   -1875.9415    1.4749759 -9.44693e-06 2.5892478e-07      4.48985     16.79185      4.48985 
Loop time of 0.080405 on 1 procs for 7 steps with 336 atoms

Minimization stats:
  Stopping criterion = energy tolerance
  Energy initial, next-to-last, final = 
        -1875.93034442     -1875.94145134     -1875.94148557
  Force two-norm initial, final = 0.761955 0.00100181
  Force max component initial, final = 0.110074 0.000120501
  Final line search alpha, max atom move = 0 0
  Iterations, force evaluations = 7 248

Pair  time (%) = 0.0637809 (79.3245)
Neigh time (%) = 0 (0)
Comm  time (%) = 0.00835551 (10.3918)
Outpt time (%) = 0.00417673 (5.19461)
Other time (%) = 0.00409191 (5.08912)

Nlocal:    336 ave 336 max 336 min
Histogram: 1 0 0 0 0 0 0 0 0 0
Nghost:    1110 ave 1110 max 1110 min
Histogram: 1 0 0 0 0 0 0 0 0 0
Neighs:    8504 ave 8504 max 8504 min
Histogram: 1 0 0 0 0 0 0 0 0 0

Total # of neighbors = 8504
Ave neighs/atom = 25.3095
Neighbor list builds = 0
Dangerous builds = 0
        next i
jump SELF loop1
        read_dump orig.dump 0 x y z
  orthogonal box = (0 -0.599871 0) to (4.48985 16.1802 4.48985)
  336 atoms before read
  336 atoms in snapshot
  0 atoms purged
  336 atoms replaced
  0 atoms trimmed
  0 atoms added
  336 atoms after read
        variable stretch equal 1+$i*${strainstep}
        variable stretch equal 1+2*${strainstep}
        variable stretch equal 1+2*0.0005
        change_box all ${direction} scale ${stretch} remap
        change_box all y scale ${stretch} remap
        change_box all y scale 1.001 remap
  orthogonal box = (0 -0.60994 0) to (4.48985 16.1903 4.48985)
        min_style ${style}
        min_style hftn
        minimize ${etol} ${ftol} ${maxiter} ${maxeval}
        minimize 1e-12 ${ftol} ${maxiter} ${maxeval}
        minimize 1e-12 1e-08 ${maxiter} ${maxeval}
        minimize 1e-12 1e-08 10000 ${maxeval}
        minimize 1e-12 1e-08 10000 20000
WARNING: Resetting reneighboring criteria during minimization (../min.cpp:168)
Memory usage per processor = 4.9009 Mbytes
Step PotEng Pxx Pyy Pxy Lx Ly Lz 
       0   -1875.9086    1.4218698    -0.160106 0.0064537526      4.48985    16.800242      4.48985 
       1   -1875.9414    1.4744781 0.0010442427  -0.00140118      4.48985    16.800242      4.48985 
       2   -1875.9415    1.4742345 -1.9383871e-05 1.1968621e-06      4.48985    16.800242      4.48985 
       3   -1875.9415    1.4742425 6.0782804e-09 -8.3015008e-12      4.48985    16.800242      4.48985 
       4   -1875.9415    1.4742425 -4.4386995e-11 -1.1957974e-12      4.48985    16.800242      4.48985 
Loop time of 0.146248 on 1 procs for 3 steps with 336 atoms

Minimization stats:
  Stopping criterion = force tolerance
  Energy initial, next-to-last, final = 
         -1875.9086152     -1875.94148512     -1875.94148515
  Force two-norm initial, final = 1.29396 2.09124e-09
  Force max component initial, final = 0.187441 7.41709e-10
  Final line search alpha, max atom move = 0 0
  Iterations, force evaluations = 3 307

Pair  time (%) = 0.110202 (75.353)
Neigh time (%) = 0 (0)
Comm  time (%) = 0.0198897 (13.6)
Outpt time (%) = 8.49053e-05 (0.0580557)
Other time (%) = 0.0160711 (10.9889)

Nlocal:    336 ave 336 max 336 min
Histogram: 1 0 0 0 0 0 0 0 0 0
Nghost:    1110 ave 1110 max 1110 min
Histogram: 1 0 0 0 0 0 0 0 0 0
Neighs:    8504 ave 8504 max 8504 min
Histogram: 1 0 0 0 0 0 0 0 0 0

Total # of neighbors = 8504
Ave neighs/atom = 25.3095
Neighbor list builds = 0
Dangerous builds = 0
        next i
jump SELF loop1
        read_dump orig.dump 0 x y z
  orthogonal box = (0 -0.599871 0) to (4.48985 16.1802 4.48985)
  336 atoms before read
  336 atoms in snapshot
  0 atoms purged
  336 atoms replaced
  0 atoms trimmed
  0 atoms added
  336 atoms after read
        variable stretch equal 1+$i*${strainstep}
        variable stretch equal 1+3*${strainstep}
        variable stretch equal 1+3*0.0005
        change_box all ${direction} scale ${stretch} remap
        change_box all y scale ${stretch} remap
        change_box all y scale 1.0015 remap
  orthogonal box = (0 -0.614136 0) to (4.48985 16.1945 4.48985)
        min_style ${style}
        min_style hftn
        minimize ${etol} ${ftol} ${maxiter} ${maxeval}
        minimize 1e-12 ${ftol} ${maxiter} ${maxeval}
        minimize 1e-12 1e-08 ${maxiter} ${maxeval}
        minimize 1e-12 1e-08 10000 ${maxeval}
        minimize 1e-12 1e-08 10000 20000
WARNING: Resetting reneighboring criteria during minimization (../min.cpp:168)
Memory usage per processor = 4.9009 Mbytes
Step PotEng Pxx Pyy Pxy Lx Ly Lz 
       0   -1875.8762     1.399619  -0.22580706 0.0092096526      4.48985    16.808633      4.48985 
       1   -1875.9414    1.4740881 0.0023209756 -0.0020511239      4.48985    16.808633      4.48985 
       2   -1875.9415    1.4734962 -2.0035062e-05 -3.1611011e-06      4.48985    16.808633      4.48985 
       3   -1875.9415    1.4734962 -2.0035062e-05 -3.1611011e-06      4.48985    16.808633      4.48985 
       4   -1875.9415     1.473497 -1.633046e-05 -2.9119028e-06      4.48985    16.808633      4.48985 
       5   -1875.9415     1.473497 -1.633046e-05 -2.9119028e-06      4.48985    16.808633      4.48985 
       6   -1875.9415     1.473497 -1.633046e-05 -2.9119028e-06      4.48985    16.808633      4.48985 
       7   -1875.9415     1.473497 -1.633046e-05 -2.9119028e-06      4.48985    16.808633      4.48985 
       8   -1875.9415     1.473497 -1.633046e-05 -2.9119028e-06      4.48985    16.808633      4.48985 
       9   -1875.9415     1.473497 -1.633046e-05 -2.9119028e-06      4.48985    16.808633      4.48985 
      10   -1875.9415     1.473497 -1.6331142e-05 -2.9112445e-06      4.48985    16.808633      4.48985 
Loop time of 0.083331 on 1 procs for 9 steps with 336 atoms

Minimization stats:
  Stopping criterion = energy tolerance
  Energy initial, next-to-last, final = 
        -1875.87615257     -1875.94148659     -1875.94148681
  Force two-norm initial, final = 1.82258 0.0028304
  Force max component initial, final = 0.264109 0.000618346
  Final line search alpha, max atom move = 0 0
  Iterations, force evaluations = 9 252

Pair  time (%) = 0.0692981 (83.16)
Neigh time (%) = 0 (0)
Comm  time (%) = 0.00537622 (6.45165)
Outpt time (%) = 0.00072613 (0.87138)
Other time (%) = 0.00793059 (9.51697)

Nlocal:    336 ave 336 max 336 min
Histogram: 1 0 0 0 0 0 0 0 0 0
Nghost:    1110 ave 1110 max 1110 min
Histogram: 1 0 0 0 0 0 0 0 0 0
Neighs:    8504 ave 8504 max 8504 min
Histogram: 1 0 0 0 0 0 0 0 0 0

Total # of neighbors = 8504
Ave neighs/atom = 25.3095
Neighbor list builds = 0
Dangerous builds = 0
        next i
jump SELF loop1
        read_dump orig.dump 0 x y z
  orthogonal box = (0 -0.599871 0) to (4.48985 16.1802 4.48985)
  336 atoms before read
  336 atoms in snapshot
  0 atoms purged
  336 atoms replaced
  0 atoms trimmed
  0 atoms added
  336 atoms after read
        variable stretch equal 1+$i*${strainstep}
        variable stretch equal 1+4*${strainstep}
        variable stretch equal 1+4*0.0005
        change_box all ${direction} scale ${stretch} remap
        change_box all y scale ${stretch} remap
        change_box all y scale 1.002 remap
  orthogonal box = (0 -0.618332 0) to (4.48985 16.1987 4.48985)
        min_style ${style}
        min_style hftn
        minimize ${etol} ${ftol} ${maxiter} ${maxeval}
        minimize 1e-12 ${ftol} ${maxiter} ${maxeval}
        minimize 1e-12 1e-08 ${maxiter} ${maxeval}
        minimize 1e-12 1e-08 10000 ${maxeval}
        minimize 1e-12 1e-08 10000 20000
WARNING: Resetting reneighboring criteria during minimization (../min.cpp:168)
Memory usage per processor = 4.9009 Mbytes
Step PotEng Pxx Pyy Pxy Lx Ly Lz 
       0   -1875.8323    1.3775211  -0.29102819  0.011977618      4.48985    16.817025      4.48985 
       1   -1875.9413    1.4739126 0.0041065094 -0.0026709064      4.48985    16.817025      4.48985 
       2   -1875.9415    1.4727661 -6.7500873e-06 -5.8189049e-06      4.48985    16.817025      4.48985 
       3   -1875.9415    1.4727661 -6.7500873e-06 -5.8189049e-06      4.48985    16.817025      4.48985 
       4   -1875.9415    1.4727661 -6.7500873e-06 -5.8189049e-06      4.48985    16.817025      4.48985 
       5   -1875.9415    1.4727661 -6.7500873e-06 -5.8189049e-06      4.48985    16.817025      4.48985 
       6   -1875.9415     1.472766 -6.5806065e-06 -5.8295926e-06      4.48985    16.817025      4.48985 
Loop time of 0.067833 on 1 procs for 5 steps with 336 atoms

Minimization stats:
  Stopping criterion = energy tolerance
  Energy initial, next-to-last, final = 
        -1875.83227835     -1875.94128658     -1875.94148686
  Force two-norm initial, final = 2.34789 0.00569112
  Force max component initial, final = 0.340396 0.000553504
  Final line search alpha, max atom move = 0 0
  Iterations, force evaluations = 5 222

Pair  time (%) = 0.0579935 (85.4945)
Neigh time (%) = 0 (0)
Comm  time (%) = 0.00548235 (8.08212)
Outpt time (%) = 0.000381771 (0.56281)
Other time (%) = 0.00397543 (5.86061)

Nlocal:    336 ave 336 max 336 min
Histogram: 1 0 0 0 0 0 0 0 0 0
Nghost:    1110 ave 1110 max 1110 min
Histogram: 1 0 0 0 0 0 0 0 0 0
Neighs:    8504 ave 8504 max 8504 min
Histogram: 1 0 0 0 0 0 0 0 0 0

Total # of neighbors = 8504
Ave neighs/atom = 25.3095
Neighbor list builds = 0
Dangerous builds = 0
        next i
jump SELF loop1
        read_dump orig.dump 0 x y z
  orthogonal box = (0 -0.599871 0) to (4.48985 16.1802 4.48985)
  336 atoms before read
  336 atoms in snapshot
  0 atoms purged
  336 atoms replaced
  0 atoms trimmed
  0 atoms added
  336 atoms after read
        variable stretch equal 1+$i*${strainstep}
        variable stretch equal 1+5*${strainstep}
        variable stretch equal 1+5*0.0005
        change_box all ${direction} scale ${stretch} remap
        change_box all y scale ${stretch} remap
        change_box all y scale 1.0025 remap
  orthogonal box = (0 -0.622528 0) to (4.48985 16.2029 4.48985)
        min_style ${style}
        min_style hftn
        minimize ${etol} ${ftol} ${maxiter} ${maxeval}
        minimize 1e-12 ${ftol} ${maxiter} ${maxeval}
        minimize 1e-12 1e-08 ${maxiter} ${maxeval}
        minimize 1e-12 1e-08 10000 ${maxeval}
        minimize 1e-12 1e-08 10000 20000
WARNING: Resetting reneighboring criteria during minimization (../min.cpp:168)
Memory usage per processor = 4.9009 Mbytes
Step PotEng Pxx Pyy Pxy Lx Ly Lz 
       0   -1875.7778    1.3555492  -0.35579808  0.014800193      4.48985    16.825417      4.48985 
       1   -1875.9412     1.473798 0.0062238672 -0.0032898282      4.48985    16.825417      4.48985 
       2   -1875.9415    1.4720317 -9.3962165e-06 -8.8911549e-06      4.48985    16.825417      4.48985 
       3   -1875.9415    1.4720317 -9.3962165e-06 -8.8911549e-06      4.48985    16.825417      4.48985 
       4   -1875.9415    1.4720317 -9.3962165e-06 -8.8911549e-06      4.48985    16.825417      4.48985 
       5   -1875.9415    1.4720317 -9.3962165e-06 -8.8911549e-06      4.48985    16.825417      4.48985 
       6   -1875.9415    1.4720317 -9.3962165e-06 -8.8911549e-06      4.48985    16.825417      4.48985 
       7   -1875.9415    1.4720317 -9.3962165e-06 -8.8911549e-06      4.48985    16.825417      4.48985 
       8   -1875.9415    1.4720317 -9.3904695e-06 -8.8898373e-06      4.48985    16.825417      4.48985 
Loop time of 0.0700621 on 1 procs for 7 steps with 336 atoms

Minimization stats:
  Stopping criterion = energy tolerance
  Energy initial, next-to-last, final = 
        -1875.77784036     -1875.94118611     -1875.94148917
  Force two-norm initial, final = 2.86951 0.0077177
  Force max component initial, final = 0.415958 0.00124988
  Final line search alpha, max atom move = 0 0
  Iterations, force evaluations = 7 234

Pair  time (%) = 0.0606275 (86.534)
Neigh time (%) = 0 (0)
Comm  time (%) = 0.00460931 (6.57889)
Outpt time (%) = 0.000481861 (0.687763)
Other time (%) = 0.0043434 (6.19936)

Nlocal:    336 ave 336 max 336 min
Histogram: 1 0 0 0 0 0 0 0 0 0
Nghost:    1110 ave 1110 max 1110 min
Histogram: 1 0 0 0 0 0 0 0 0 0
Neighs:    8504 ave 8504 max 8504 min
Histogram: 1 0 0 0 0 0 0 0 0 0

Total # of neighbors = 8504
Ave neighs/atom = 25.3095
Neighbor list builds = 0
Dangerous builds = 0
        next i
jump SELF loop1
        read_dump orig.dump 0 x y z
  orthogonal box = (0 -0.599871 0) to (4.48985 16.1802 4.48985)
  336 atoms before read
  336 atoms in snapshot
  0 atoms purged
  336 atoms replaced
  0 atoms trimmed
  0 atoms added
  336 atoms after read
        variable stretch equal 1+$i*${strainstep}
        variable stretch equal 1+6*${strainstep}
        variable stretch equal 1+6*0.0005
        change_box all ${direction} scale ${stretch} remap
        change_box all y scale ${stretch} remap
        change_box all y scale 1.003 remap
  orthogonal box = (0 -0.626724 0) to (4.48985 16.2071 4.48985)
        min_style ${style}
        min_style hftn
        minimize ${etol} ${ftol} ${maxiter} ${maxeval}
        minimize 1e-12 ${ftol} ${maxiter} ${maxeval}
        minimize 1e-12 1e-08 ${maxiter} ${maxeval}
        minimize 1e-12 1e-08 10000 ${maxeval}
        minimize 1e-12 1e-08 10000 20000
WARNING: Resetting reneighboring criteria during minimization (../min.cpp:168)
Memory usage per processor = 4.9009 Mbytes
Step PotEng Pxx Pyy Pxy Lx Ly Lz 
       0   -1875.7121    1.3337263  -0.42009857  0.017645101      4.48985    16.833808      4.48985 
       1   -1875.9411    1.4739693 0.0090681649 -0.0039861579      4.48985    16.833808      4.48985 
       2   -1875.9415    1.4712971 7.6342945e-07 -1.2280602e-05      4.48985    16.833808      4.48985 
       3   -1875.9415    1.4712971 7.6342945e-07 -1.2280602e-05      4.48985    16.833808      4.48985 
       4   -1875.9415    1.4712971 7.6342945e-07 -1.2280602e-05      4.48985    16.833808      4.48985 
       5   -1875.9415    1.4712971 7.6342945e-07 -1.2280602e-05      4.48985    16.833808      4.48985 
       6   -1875.9415    1.4712971 7.6342945e-07 -1.2280602e-05      4.48985    16.833808      4.48985 
       7   -1875.9415    1.4712971 7.6342945e-07 -1.2280602e-05      4.48985    16.833808      4.48985 
       8   -1875.9415    1.4712971 7.6342945e-07 -1.2280602e-05      4.48985    16.833808      4.48985 
       9   -1875.9415    1.4712971 7.6445023e-07 -1.2281778e-05      4.48985    16.833808      4.48985 
Loop time of 0.075201 on 1 procs for 8 steps with 336 atoms

Minimization stats:
  Stopping criterion = energy tolerance
  Energy initial, next-to-last, final = 
        -1875.71213702     -1875.94106934     -1875.94149217
  Force two-norm initial, final = 3.3874 0.00973486
  Force max component initial, final = 0.491175 0.00147028
  Final line search alpha, max atom move = 0 0
  Iterations, force evaluations = 8 243

Pair  time (%) = 0.0648874 (86.2853)
Neigh time (%) = 0 (0)
Comm  time (%) = 0.00456373 (6.06871)
Outpt time (%) = 0.00048627 (0.646627)
Other time (%) = 0.00526357 (6.99933)

Nlocal:    336 ave 336 max 336 min
Histogram: 1 0 0 0 0 0 0 0 0 0
Nghost:    1110 ave 1110 max 1110 min
Histogram: 1 0 0 0 0 0 0 0 0 0
Neighs:    8504 ave 8504 max 8504 min
Histogram: 1 0 0 0 0 0 0 0 0 0

Total # of neighbors = 8504
Ave neighs/atom = 25.3095
Neighbor list builds = 0
Dangerous builds = 0
        next i
jump SELF loop1
        read_dump orig.dump 0 x y z
  orthogonal box = (0 -0.599871 0) to (4.48985 16.1802 4.48985)
  336 atoms before read
  336 atoms in snapshot
  0 atoms purged
  336 atoms replaced
  0 atoms trimmed
  0 atoms added
  336 atoms after read
        variable stretch equal 1+$i*${strainstep}
        variable stretch equal 1+7*${strainstep}
        variable stretch equal 1+7*0.0005
        change_box all ${direction} scale ${stretch} remap
        change_box all y scale ${stretch} remap
        change_box all y scale 1.0035 remap
  orthogonal box = (0 -0.63092 0) to (4.48985 16.2113 4.48985)
        min_style ${style}
        min_style hftn
        minimize ${etol} ${ftol} ${maxiter} ${maxeval}
        minimize 1e-12 ${ftol} ${maxiter} ${maxeval}
        minimize 1e-12 1e-08 ${maxiter} ${maxeval}
        minimize 1e-12 1e-08 10000 ${maxeval}
        minimize 1e-12 1e-08 10000 20000
WARNING: Resetting reneighboring criteria during minimization (../min.cpp:168)
Memory usage per processor = 4.9009 Mbytes
Step PotEng Pxx Pyy Pxy Lx Ly Lz 
       0   -1875.6357    1.3119713  -0.48404907  0.020616902      4.48985      16.8422      4.48985 
       1   -1875.9408    1.4736981  0.011446814 -0.0049621202      4.48985      16.8422      4.48985 
       2   -1875.9415     1.470482 -0.00010755859 -0.00010993303      4.48985      16.8422      4.48985 
       3   -1875.9415    1.4705706 2.9661989e-06 -4.9982814e-07      4.48985      16.8422      4.48985 
       4   -1875.9415    1.4705698 1.3691056e-11 7.2901115e-12      4.48985      16.8422      4.48985 
Loop time of 0.094672 on 1 procs for 3 steps with 336 atoms

Minimization stats:
  Stopping criterion = force tolerance
  Energy initial, next-to-last, final = 
        -1875.63566354     -1875.94148218     -1875.94148515
  Force two-norm initial, final = 3.89834 4.31423e-09
  Force max component initial, final = 0.565596 5.31585e-10
  Final line search alpha, max atom move = 0 0
  Iterations, force evaluations = 3 302

Pair  time (%) = 0.079365 (83.8316)
Neigh time (%) = 0 (0)
Comm  time (%) = 0.00867592 (9.16419)
Outpt time (%) = 0.000202956 (0.214378)
Other time (%) = 0.00642809 (6.78986)

Nlocal:    336 ave 336 max 336 min
Histogram: 1 0 0 0 0 0 0 0 0 0
Nghost:    1110 ave 1110 max 1110 min
Histogram: 1 0 0 0 0 0 0 0 0 0
Neighs:    8504 ave 8504 max 8504 min
Histogram: 1 0 0 0 0 0 0 0 0 0

Total # of neighbors = 8504
Ave neighs/atom = 25.3095
Neighbor list builds = 0
Dangerous builds = 0
        next i
jump SELF loop1
        read_dump orig.dump 0 x y z
  orthogonal box = (0 -0.599871 0) to (4.48985 16.1802 4.48985)
  336 atoms before read
  336 atoms in snapshot
  0 atoms purged
  336 atoms replaced
  0 atoms trimmed
  0 atoms added
  336 atoms after read
        variable stretch equal 1+$i*${strainstep}
        variable stretch equal 1+8*${strainstep}
        variable stretch equal 1+8*0.0005
        change_box all ${direction} scale ${stretch} remap
        change_box all y scale ${stretch} remap
        change_box all y scale 1.004 remap
  orthogonal box = (0 -0.635116 0) to (4.48985 16.2155 4.48985)
        min_style ${style}
        min_style hftn
        minimize ${etol} ${ftol} ${maxiter} ${maxeval}
        minimize 1e-12 ${ftol} ${maxiter} ${maxeval}
        minimize 1e-12 1e-08 ${maxiter} ${maxeval}
        minimize 1e-12 1e-08 10000 ${maxeval}
        minimize 1e-12 1e-08 10000 20000
WARNING: Resetting reneighboring criteria during minimization (../min.cpp:168)
Memory usage per processor = 4.9009 Mbytes
Step PotEng Pxx Pyy Pxy Lx Ly Lz 
       0   -1875.5484    1.2903155  -0.54760861  0.023675955      4.48985    16.850592      4.48985 
       1   -1875.9396    1.4736983  0.014492745 -0.0055859154      4.48985    16.850592      4.48985 
       2   -1875.9415    1.4697844 -8.9683353e-06 -0.00020148201      4.48985    16.850592      4.48985 
       3   -1875.9415    1.4698378 1.8769492e-06 -2.1026149e-07      4.48985    16.850592      4.48985 
       4   -1875.9415    1.4698374 -2.0623968e-11 -8.0900026e-11      4.48985    16.850592      4.48985 
       5   -1875.9415    1.4698374 4.8299854e-13 -1.141798e-13      4.48985    16.850592      4.48985 
Loop time of 0.119416 on 1 procs for 4 steps with 336 atoms

Minimization stats:
  Stopping criterion = force tolerance
  Energy initial, next-to-last, final = 
        -1875.54837711     -1875.94148509     -1875.94148515
  Force two-norm initial, final = 4.40442 1.5588e-11
  Force max component initial, final = 0.639618 3.80198e-12
  Final line search alpha, max atom move = 0 0
  Iterations, force evaluations = 4 392

Pair  time (%) = 0.107713 (90.1999)
Neigh time (%) = 0 (0)
Comm  time (%) = 0.00390451 (3.26967)
Outpt time (%) = 0.00039019 (0.326749)
Other time (%) = 0.0074082 (6.20369)

Nlocal:    336 ave 336 max 336 min
Histogram: 1 0 0 0 0 0 0 0 0 0
Nghost:    1110 ave 1110 max 1110 min
Histogram: 1 0 0 0 0 0 0 0 0 0
Neighs:    8504 ave 8504 max 8504 min
Histogram: 1 0 0 0 0 0 0 0 0 0

Total # of neighbors = 8504
Ave neighs/atom = 25.3095
Neighbor list builds = 0
Dangerous builds = 0
        next i
jump SELF loop1
        read_dump orig.dump 0 x y z
  orthogonal box = (0 -0.599871 0) to (4.48985 16.1802 4.48985)
  336 atoms before read
  336 atoms in snapshot
  0 atoms purged
  336 atoms replaced
  0 atoms trimmed
  0 atoms added
  336 atoms after read
        variable stretch equal 1+$i*${strainstep}
        variable stretch equal 1+9*${strainstep}
        variable stretch equal 1+9*0.0005
        change_box all ${direction} scale ${stretch} remap
        change_box all y scale ${stretch} remap
        change_box all y scale 1.0045 remap
  orthogonal box = (0 -0.639311 0) to (4.48985 16.2197 4.48985)
        min_style ${style}
        min_style hftn
        minimize ${etol} ${ftol} ${maxiter} ${maxeval}
        minimize 1e-12 ${ftol} ${maxiter} ${maxeval}
        minimize 1e-12 1e-08 ${maxiter} ${maxeval}
        minimize 1e-12 1e-08 10000 ${maxeval}
        minimize 1e-12 1e-08 10000 20000
WARNING: Resetting reneighboring criteria during minimization (../min.cpp:168)
Memory usage per processor = 4.9009 Mbytes
Step PotEng Pxx Pyy Pxy Lx Ly Lz 
       0   -1875.4504    1.2687201  -0.61083528  0.026860558      4.48985    16.858984      4.48985 
       1   -1875.9393    1.4739903   0.01803388 -0.0065601931      4.48985    16.858984      4.48985 
       2   -1875.9415    1.4690625 1.6685186e-05 -0.00018252494      4.48985    16.858984      4.48985 
       3   -1875.9415    1.4691087 9.9386665e-06 -1.0455038e-06      4.48985    16.858984      4.48985 
       4   -1875.9415    1.4691087 9.9386665e-06 -1.0455038e-06      4.48985    16.858984      4.48985 
       5   -1875.9415    1.4691092 9.7470958e-06 -1.6857891e-06      4.48985    16.858984      4.48985 
       6   -1875.9415    1.4691092 9.7470958e-06 -1.6857891e-06      4.48985    16.858984      4.48985 
       7   -1875.9415    1.4691092 9.7470958e-06 -1.6857891e-06      4.48985    16.858984      4.48985 
       8   -1875.9415    1.4691092 9.7470958e-06 -1.6857891e-06      4.48985    16.858984      4.48985 
       9   -1875.9415    1.4691092 9.7470958e-06 -1.6857891e-06      4.48985    16.858984      4.48985 
      10   -1875.9415    1.4691092 9.7430863e-06 -1.6856073e-06      4.48985    16.858984      4.48985 
Loop time of 0.102631 on 1 procs for 9 steps with 336 atoms

Minimization stats:
  Stopping criterion = energy tolerance
  Energy initial, next-to-last, final = 
        -1875.45041591     -1875.94148529     -1875.94148534
  Force two-norm initial, final = 4.90432 0.000215978
  Force max component initial, final = 0.712922 3.81907e-05
  Final line search alpha, max atom move = 0 0
  Iterations, force evaluations = 9 344

Pair  time (%) = 0.0880253 (85.7688)
Neigh time (%) = 0 (0)
Comm  time (%) = 0.00650592 (6.33915)
Outpt time (%) = 0.000578782 (0.563945)
Other time (%) = 0.0075209 (7.32811)

Nlocal:    336 ave 336 max 336 min
Histogram: 1 0 0 0 0 0 0 0 0 0
Nghost:    1110 ave 1110 max 1110 min
Histogram: 1 0 0 0 0 0 0 0 0 0
Neighs:    8504 ave 8504 max 8504 min
Histogram: 1 0 0 0 0 0 0 0 0 0

Total # of neighbors = 8504
Ave neighs/atom = 25.3095
Neighbor list builds = 0
Dangerous builds = 0
        next i
jump SELF loop1
        read_dump orig.dump 0 x y z
  orthogonal box = (0 -0.599871 0) to (4.48985 16.1802 4.48985)
  336 atoms before read
  336 atoms in snapshot
  0 atoms purged
  336 atoms replaced
  0 atoms trimmed
  0 atoms added
  336 atoms after read
        variable stretch equal 1+$i*${strainstep}
        variable stretch equal 1+10*${strainstep}
        variable stretch equal 1+10*0.0005
        change_box all ${direction} scale ${stretch} remap
        change_box all y scale ${stretch} remap
        change_box all y scale 1.005 remap
  orthogonal box = (0 -0.643507 0) to (4.48985 16.2239 4.48985)
        min_style ${style}
        min_style hftn
        minimize ${etol} ${ftol} ${maxiter} ${maxeval}
        minimize 1e-12 ${ftol} ${maxiter} ${maxeval}
        minimize 1e-12 1e-08 ${maxiter} ${maxeval}
        minimize 1e-12 1e-08 10000 ${maxeval}
        minimize 1e-12 1e-08 10000 20000
WARNING: Resetting reneighboring criteria during minimization (../min.cpp:168)
Memory usage per processor = 4.9009 Mbytes
Step PotEng Pxx Pyy Pxy Lx Ly Lz 
       0   -1875.3418    1.2472289  -0.67365941  0.030122912      4.48985    16.867375      4.48985 
       1   -1875.9388    1.4747475  0.023348271 -0.0076095479      4.48985    16.867375      4.48985 
       2   -1875.9415    1.4684147 0.00014571341 -0.00013281092      4.48985    16.867375      4.48985 
       3   -1875.9415     1.468381 1.6040211e-05 -2.3422704e-06      4.48985    16.867375      4.48985 
       4   -1875.9415     1.468381 1.6040211e-05 -2.3422704e-06      4.48985    16.867375      4.48985 
       5   -1875.9415     1.468381 1.6040211e-05 -2.3422704e-06      4.48985    16.867375      4.48985 
       6   -1875.9415     1.468381 1.6040211e-05 -2.3422704e-06      4.48985    16.867375      4.48985 
       7   -1875.9415     1.468381 1.6040211e-05 -2.3422704e-06      4.48985    16.867375      4.48985 
       8   -1875.9415     1.468381 1.6040211e-05 -2.3422704e-06      4.48985    16.867375      4.48985 
       9   -1875.9415     1.468381 1.6039126e-05 -2.3438651e-06      4.48985    16.867375      4.48985 
Loop time of 0.148691 on 1 procs for 8 steps with 336 atoms

Minimization stats:
  Stopping criterion = energy tolerance
  Energy initial, next-to-last, final = 
        -1875.34178539     -1875.94147894     -1875.94148553
  Force two-norm initial, final = 5.40056 0.00032008
  Force max component initial, final = 0.785872 4.43442e-05
  Final line search alpha, max atom move = 0 0
  Iterations, force evaluations = 8 325

Pair  time (%) = 0.118228 (79.5125)
Neigh time (%) = 0 (0)
Comm  time (%) = 0.015155 (10.1923)
Outpt time (%) = 0.00447337 (3.0085)
Other time (%) = 0.0108347 (7.28671)

Nlocal:    336 ave 336 max 336 min
Histogram: 1 0 0 0 0 0 0 0 0 0
Nghost:    1110 ave 1110 max 1110 min
Histogram: 1 0 0 0 0 0 0 0 0 0
Neighs:    8504 ave 8504 max 8504 min
Histogram: 1 0 0 0 0 0 0 0 0 0

Total # of neighbors = 8504
Ave neighs/atom = 25.3095
Neighbor list builds = 0
Dangerous builds = 0
        next i
jump SELF loop1
        read_dump orig.dump 0 x y z
  orthogonal box = (0 -0.599871 0) to (4.48985 16.1802 4.48985)
  336 atoms before read
  336 atoms in snapshot
  0 atoms purged
  336 atoms replaced
  0 atoms trimmed
  0 atoms added
  336 atoms after read
        variable stretch equal 1+$i*${strainstep}
        variable stretch equal 1+11*${strainstep}
        variable stretch equal 1+11*0.0005
        change_box all ${direction} scale ${stretch} remap
        change_box all y scale ${stretch} remap
        change_box all y scale 1.0055 remap
  orthogonal box = (0 -0.647703 0) to (4.48985 16.2281 4.48985)
        min_style ${style}
        min_style hftn
        minimize ${etol} ${ftol} ${maxiter} ${maxeval}
        minimize 1e-12 ${ftol} ${maxiter} ${maxeval}
        minimize 1e-12 1e-08 ${maxiter} ${maxeval}
        minimize 1e-12 1e-08 10000 ${maxeval}
        minimize 1e-12 1e-08 10000 20000
WARNING: Resetting reneighboring criteria during minimization (../min.cpp:168)
Memory usage per processor = 4.9009 Mbytes
Step PotEng Pxx Pyy Pxy Lx Ly Lz 
       0   -1875.2223    1.2258735  -0.73604824  0.033419587      4.48985    16.875767      4.48985 
       1   -1875.9387     1.475663  0.028735065 -0.0086170809      4.48985    16.875767      4.48985 
       2   -1875.9415    1.4676836 0.00012862815 -0.00013553286      4.48985    16.875767      4.48985 
       3   -1875.9415    1.4676553 3.3147263e-05 -7.4428446e-06      4.48985    16.875767      4.48985 
       4   -1875.9415    1.4676553 3.3147263e-05 -7.4428446e-06      4.48985    16.875767      4.48985 
       5   -1875.9415    1.4676553 3.3147263e-05 -7.4428446e-06      4.48985    16.875767      4.48985 
       6   -1875.9415    1.4676553 3.3147263e-05 -7.4428446e-06      4.48985    16.875767      4.48985 
       7   -1875.9415    1.4676553 3.3147263e-05 -7.4428446e-06      4.48985    16.875767      4.48985 
       8   -1875.9415    1.4676553 3.3147263e-05 -7.4428446e-06      4.48985    16.875767      4.48985 
       9   -1875.9415    1.4676553 3.3146792e-05 -7.4449998e-06      4.48985    16.875767      4.48985 
Loop time of 0.101412 on 1 procs for 8 steps with 336 atoms

Minimization stats:
  Stopping criterion = energy tolerance
  Energy initial, next-to-last, final = 
        -1875.22234843     -1875.94147676     -1875.94148569
  Force two-norm initial, final = 5.89321 0.000442688
  Force max component initial, final = 0.858138 8.07755e-05
  Final line search alpha, max atom move = 0 0
  Iterations, force evaluations = 8 325

Pair  time (%) = 0.08189 (80.7498)
Neigh time (%) = 0 (0)
Comm  time (%) = 0.00728023 (7.17886)
Outpt time (%) = 0.00355123 (3.50178)
Other time (%) = 0.00869056 (8.56955)

Nlocal:    336 ave 336 max 336 min
Histogram: 1 0 0 0 0 0 0 0 0 0
Nghost:    1110 ave 1110 max 1110 min
Histogram: 1 0 0 0 0 0 0 0 0 0
Neighs:    8504 ave 8504 max 8504 min
Histogram: 1 0 0 0 0 0 0 0 0 0

Total # of neighbors = 8504
Ave neighs/atom = 25.3095
Neighbor list builds = 0
Dangerous builds = 0
        next i
jump SELF loop1
        read_dump orig.dump 0 x y z
  orthogonal box = (0 -0.599871 0) to (4.48985 16.1802 4.48985)
  336 atoms before read
  336 atoms in snapshot
  0 atoms purged
  336 atoms replaced
  0 atoms trimmed
  0 atoms added
  336 atoms after read
        variable stretch equal 1+$i*${strainstep}
        variable stretch equal 1+12*${strainstep}
        variable stretch equal 1+12*0.0005
        change_box all ${direction} scale ${stretch} remap
        change_box all y scale ${stretch} remap
        change_box all y scale 1.006 remap
  orthogonal box = (0 -0.651899 0) to (4.48985 16.2323 4.48985)
        min_style ${style}
        min_style hftn
        minimize ${etol} ${ftol} ${maxiter} ${maxeval}
        minimize 1e-12 ${ftol} ${maxiter} ${maxeval}
        minimize 1e-12 1e-08 ${maxiter} ${maxeval}
        minimize 1e-12 1e-08 10000 ${maxeval}
        minimize 1e-12 1e-08 10000 20000
WARNING: Resetting reneighboring criteria during minimization (../min.cpp:168)
Memory usage per processor = 4.9009 Mbytes
Step PotEng Pxx Pyy Pxy Lx Ly Lz 
       0   -1875.0928    1.2046464  -0.79799354  0.036756665      4.48985    16.884159      4.48985 
       1    -1875.938    1.4765496  0.033933862 -0.0092038621      4.48985    16.884159      4.48985 
       2   -1875.9415    1.4669969 0.0001842319 -5.9988332e-05      4.48985    16.884159      4.48985 
       3   -1875.9415    1.4669195 1.2783367e-05 -2.8285302e-06      4.48985    16.884159      4.48985 
       4   -1875.9415    1.4669195 1.2783367e-05 -2.8285302e-06      4.48985    16.884159      4.48985 
       5   -1875.9415    1.4669195 1.2783367e-05 -2.8285302e-06      4.48985    16.884159      4.48985 
       6   -1875.9415    1.4669195 1.2956486e-05 -2.7645562e-06      4.48985    16.884159      4.48985 
       7   -1875.9415    1.4669195 1.2956486e-05 -2.7645562e-06      4.48985    16.884159      4.48985 
       8   -1875.9415    1.4669195 1.2956486e-05 -2.7645562e-06      4.48985    16.884159      4.48985 
       9   -1875.9415    1.4669195 1.2956486e-05 -2.7645562e-06      4.48985    16.884159      4.48985 
      10   -1875.9415    1.4669195 1.2953239e-05 -2.7643253e-06      4.48985    16.884159      4.48985 
Loop time of 0.101984 on 1 procs for 9 steps with 336 atoms

Minimization stats:
  Stopping criterion = energy tolerance
  Energy initial, next-to-last, final = 
        -1875.09277314     -1875.94148536     -1875.94148539
  Force two-norm initial, final = 6.38378 0.000115035
  Force max component initial, final = 0.930026 2.55625e-05
  Final line search alpha, max atom move = 0 0
  Iterations, force evaluations = 9 350

Pair  time (%) = 0.0845327 (82.8882)
Neigh time (%) = 0 (0)
Comm  time (%) = 0.00888036 (8.7076)
Outpt time (%) = 0.000578266 (0.567016)
Other time (%) = 0.00799266 (7.83718)

Nlocal:    336 ave 336 max 336 min
Histogram: 1 0 0 0 0 0 0 0 0 0
Nghost:    1110 ave 1110 max 1110 min
Histogram: 1 0 0 0 0 0 0 0 0 0
Neighs:    8504 ave 8504 max 8504 min
Histogram: 1 0 0 0 0 0 0 0 0 0

Total # of neighbors = 8504
Ave neighs/atom = 25.3095
Neighbor list builds = 0
Dangerous builds = 0
        next i
jump SELF loop1
        read_dump orig.dump 0 x y z
  orthogonal box = (0 -0.599871 0) to (4.48985 16.1802 4.48985)
  336 atoms before read
  336 atoms in snapshot
  0 atoms purged
  336 atoms replaced
  0 atoms trimmed
  0 atoms added
  336 atoms after read
        variable stretch equal 1+$i*${strainstep}
        variable stretch equal 1+13*${strainstep}
        variable stretch equal 1+13*0.0005
        change_box all ${direction} scale ${stretch} remap
        change_box all y scale ${stretch} remap
        change_box all y scale 1.0065 remap
  orthogonal box = (0 -0.656095 0) to (4.48985 16.2365 4.48985)
        min_style ${style}
        min_style hftn
        minimize ${etol} ${ftol} ${maxiter} ${maxeval}
        minimize 1e-12 ${ftol} ${maxiter} ${maxeval}
        minimize 1e-12 1e-08 ${maxiter} ${maxeval}
        minimize 1e-12 1e-08 10000 ${maxeval}
        minimize 1e-12 1e-08 10000 20000
WARNING: Resetting reneighboring criteria during minimization (../min.cpp:168)
Memory usage per processor = 4.9009 Mbytes
Step PotEng Pxx Pyy Pxy Lx Ly Lz 
       0   -1874.9521    1.1835713  -0.85946771   0.04010532      4.48985    16.892551      4.48985 
       1   -1875.9369    1.4777087  0.040439091 -0.010386176      4.48985    16.892551      4.48985 
       2   -1875.9415    1.4662056 0.00017915211 -0.00023147664      4.48985    16.892551      4.48985 
       3   -1875.9415     1.466199 4.1007385e-05 -1.0629933e-05      4.48985    16.892551      4.48985 
       4   -1875.9415     1.466199 4.1007385e-05 -1.0629933e-05      4.48985    16.892551      4.48985 
       5   -1875.9415    1.4661977 3.6692162e-05 -1.0780401e-05      4.48985    16.892551      4.48985 
       6   -1875.9415    1.4661977 3.6692162e-05 -1.0780401e-05      4.48985    16.892551      4.48985 
       7   -1875.9415    1.4661977 3.6692162e-05 -1.0780401e-05      4.48985    16.892551      4.48985 
       8   -1875.9415    1.4661977 3.6692162e-05 -1.0780401e-05      4.48985    16.892551      4.48985 
       9   -1875.9415    1.4661977 3.6692162e-05 -1.0780401e-05      4.48985    16.892551      4.48985 
      10   -1875.9415    1.4661977 3.6692162e-05 -1.0780401e-05      4.48985    16.892551      4.48985 
      11   -1875.9415    1.4661977 3.6687866e-05 -1.0777371e-05      4.48985    16.892551      4.48985 
Loop time of 0.106689 on 1 procs for 10 steps with 336 atoms

Minimization stats:
  Stopping criterion = energy tolerance
  Energy initial, next-to-last, final = 
        -1874.95206402     -1875.94148549     -1875.94148557
  Force two-norm initial, final = 6.8708 0.000291847
  Force max component initial, final = 1.00122 3.72502e-05
  Final line search alpha, max atom move = 0 0
  Iterations, force evaluations = 10 337

Pair  time (%) = 0.0949583 (89.0047)
Neigh time (%) = 0 (0)
Comm  time (%) = 0.00318623 (2.98647)
Outpt time (%) = 0.00274586 (2.5737)
Other time (%) = 0.00579868 (5.43512)

Nlocal:    336 ave 336 max 336 min
Histogram: 1 0 0 0 0 0 0 0 0 0
Nghost:    1110 ave 1110 max 1110 min
Histogram: 1 0 0 0 0 0 0 0 0 0
Neighs:    8504 ave 8504 max 8504 min
Histogram: 1 0 0 0 0 0 0 0 0 0

Total # of neighbors = 8504
Ave neighs/atom = 25.3095
Neighbor list builds = 0
Dangerous builds = 0
        next i
jump SELF loop1
        read_dump orig.dump 0 x y z
  orthogonal box = (0 -0.599871 0) to (4.48985 16.1802 4.48985)
  336 atoms before read
  336 atoms in snapshot
  0 atoms purged
  336 atoms replaced
  0 atoms trimmed
  0 atoms added
  336 atoms after read
        variable stretch equal 1+$i*${strainstep}
        variable stretch equal 1+14*${strainstep}
        variable stretch equal 1+14*0.0005
        change_box all ${direction} scale ${stretch} remap
        change_box all y scale ${stretch} remap
        change_box all y scale 1.007 remap
  orthogonal box = (0 -0.660291 0) to (4.48985 16.2406 4.48985)
        min_style ${style}
        min_style hftn
        minimize ${etol} ${ftol} ${maxiter} ${maxeval}
        minimize 1e-12 ${ftol} ${maxiter} ${maxeval}
        minimize 1e-12 1e-08 ${maxiter} ${maxeval}
        minimize 1e-12 1e-08 10000 ${maxeval}
        minimize 1e-12 1e-08 10000 20000
WARNING: Resetting reneighboring criteria during minimization (../min.cpp:168)
Memory usage per processor = 4.9009 Mbytes
Step PotEng Pxx Pyy Pxy Lx Ly Lz 
       0   -1874.8017    1.1626179  -0.92052522  0.043497171      4.48985    16.900942      4.48985 
       1    -1875.936    1.4794958    0.0482541 -0.011152619      4.48985    16.900942      4.48985 
       2   -1875.9415    1.4655473 0.00032344866 -0.00020975728      4.48985    16.900942      4.48985 
       3   -1875.9415    1.4654364 -6.0480136e-05 -8.4846128e-06      4.48985    16.900942      4.48985 
       4   -1875.9415    1.4654586 -1.7906466e-11 1.9072118e-10      4.48985    16.900942      4.48985 
       5   -1875.9415    1.4654586 2.8119068e-12 -5.3252227e-13      4.48985    16.900942      4.48985 
Loop time of 0.121667 on 1 procs for 4 steps with 336 atoms

Minimization stats:
  Stopping criterion = force tolerance
  Energy initial, next-to-last, final = 
        -1874.80171745     -1875.94148448     -1875.94148515
  Force two-norm initial, final = 7.35531 5.90916e-11
  Force max component initial, final = 1.07195 1.05646e-11
  Final line search alpha, max atom move = 0 0
  Iterations, force evaluations = 4 374

Pair  time (%) = 0.0991929 (81.5282)
Neigh time (%) = 0 (0)
Comm  time (%) = 0.00985173 (8.09729)
Outpt time (%) = 0.000328115 (0.269683)
Other time (%) = 0.0122942 (10.1048)

Nlocal:    336 ave 336 max 336 min
Histogram: 1 0 0 0 0 0 0 0 0 0
Nghost:    1110 ave 1110 max 1110 min
Histogram: 1 0 0 0 0 0 0 0 0 0
Neighs:    8504 ave 8504 max 8504 min
Histogram: 1 0 0 0 0 0 0 0 0 0

Total # of neighbors = 8504
Ave neighs/atom = 25.3095
Neighbor list builds = 0
Dangerous builds = 0
        next i
jump SELF loop1
        read_dump orig.dump 0 x y z
  orthogonal box = (0 -0.599871 0) to (4.48985 16.1802 4.48985)
  336 atoms before read
  336 atoms in snapshot
  0 atoms purged
  336 atoms replaced
  0 atoms trimmed
  0 atoms added
  336 atoms after read
        variable stretch equal 1+$i*${strainstep}
        variable stretch equal 1+15*${strainstep}
        variable stretch equal 1+15*0.0005
        change_box all ${direction} scale ${stretch} remap
        change_box all y scale ${stretch} remap
        change_box all y scale 1.0075 remap
  orthogonal box = (0 -0.664487 0) to (4.48985 16.2448 4.48985)
        min_style ${style}
        min_style hftn
        minimize ${etol} ${ftol} ${maxiter} ${maxeval}
        minimize 1e-12 ${ftol} ${maxiter} ${maxeval}
        minimize 1e-12 1e-08 ${maxiter} ${maxeval}
        minimize 1e-12 1e-08 10000 ${maxeval}
        minimize 1e-12 1e-08 10000 20000
WARNING: Resetting reneighboring criteria during minimization (../min.cpp:168)
Memory usage per processor = 4.9009 Mbytes
Step PotEng Pxx Pyy Pxy Lx Ly Lz 
       0   -1874.6407    1.1418084  -0.98112441  0.046903757      4.48985    16.909334      4.48985 
       1   -1875.9342    1.4803563  0.054258378 -0.012589096      4.48985    16.909334      4.48985 
       2   -1875.9415    1.4647323 0.00018229658 -0.00028630484      4.48985    16.909334      4.48985 
       3   -1875.9415    1.4647135 -4.6324356e-05 -7.9477477e-06      4.48985    16.909334      4.48985 
       4   -1875.9415    1.4647313 -5.4360725e-10 -1.8887026e-10      4.48985    16.909334      4.48985 
       5   -1875.9415    1.4647313 -2.6373477e-13 -1.6522595e-12      4.48985    16.909334      4.48985 
Loop time of 0.215979 on 1 procs for 4 steps with 336 atoms

Minimization stats:
  Stopping criterion = force tolerance
  Energy initial, next-to-last, final = 
        -1874.64065016     -1875.94148475     -1875.94148515
  Force two-norm initial, final = 7.8364 2.14747e-10
  Force max component initial, final = 1.14207 3.44134e-11
  Final line search alpha, max atom move = 0 0
  Iterations, force evaluations = 4 364

Pair  time (%) = 0.151241 (70.0256)
Neigh time (%) = 0 (0)
Comm  time (%) = 0.0160949 (7.45204)
Outpt time (%) = 0.00756393 (3.50216)
Other time (%) = 0.0410797 (19.0202)

Nlocal:    336 ave 336 max 336 min
Histogram: 1 0 0 0 0 0 0 0 0 0
Nghost:    1110 ave 1110 max 1110 min
Histogram: 1 0 0 0 0 0 0 0 0 0
Neighs:    8504 ave 8504 max 8504 min
Histogram: 1 0 0 0 0 0 0 0 0 0

Total # of neighbors = 8504
Ave neighs/atom = 25.3095
Neighbor list builds = 0
Dangerous builds = 0
        next i
jump SELF loop1
        read_dump orig.dump 0 x y z
  orthogonal box = (0 -0.599871 0) to (4.48985 16.1802 4.48985)
  336 atoms before read
  336 atoms in snapshot
  0 atoms purged
  336 atoms replaced
  0 atoms trimmed
  0 atoms added
  336 atoms after read
        variable stretch equal 1+$i*${strainstep}
        variable stretch equal 1+16*${strainstep}
        variable stretch equal 1+16*0.0005
        change_box all ${direction} scale ${stretch} remap
        change_box all y scale ${stretch} remap
        change_box all y scale 1.008 remap
  orthogonal box = (0 -0.668682 0) to (4.48985 16.249 4.48985)
        min_style ${style}
        min_style hftn
        minimize ${etol} ${ftol} ${maxiter} ${maxeval}
        minimize 1e-12 ${ftol} ${maxiter} ${maxeval}
        minimize 1e-12 1e-08 ${maxiter} ${maxeval}
        minimize 1e-12 1e-08 10000 ${maxeval}
        minimize 1e-12 1e-08 10000 20000
WARNING: Resetting reneighboring criteria during minimization (../min.cpp:168)
Memory usage per processor = 4.9009 Mbytes
Step PotEng Pxx Pyy Pxy Lx Ly Lz 
       0   -1874.4695     1.121131   -1.0412841  0.050343032      4.48985    16.917726      4.48985 
       1   -1875.9329    1.4826335  0.063398551 -0.013436881      4.48985    16.917726      4.48985 
       2   -1875.9415    1.4641015 0.00031833211 -0.00023095724      4.48985    16.917726      4.48985 
       3   -1875.9415    1.4639938 -2.8691673e-05 -4.636507e-06      4.48985    16.917726      4.48985 
       4   -1875.9415    1.4640047 8.204486e-10 -1.8698268e-10      4.48985    16.917726      4.48985 
       5   -1875.9415    1.4640047 -6.5180018e-12 -8.8704775e-13      4.48985    16.917726      4.48985 
Loop time of 0.233189 on 1 procs for 4 steps with 336 atoms

Minimization stats:
  Stopping criterion = force tolerance
  Energy initial, next-to-last, final = 
        -1874.46947009     -1875.94148453     -1875.94148515
  Force two-norm initial, final = 8.31468 1.04974e-10
  Force max component initial, final = 1.21177 4.47482e-11
  Final line search alpha, max atom move = 0 0
  Iterations, force evaluations = 4 394

Pair  time (%) = 0.135568 (58.1365)
Neigh time (%) = 0 (0)
Comm  time (%) = 0.0657257 (28.1856)
Outpt time (%) = 0.00983134 (4.21604)
Other time (%) = 0.0220639 (9.4618)

Nlocal:    336 ave 336 max 336 min
Histogram: 1 0 0 0 0 0 0 0 0 0
Nghost:    1110 ave 1110 max 1110 min
Histogram: 1 0 0 0 0 0 0 0 0 0
Neighs:    8504 ave 8504 max 8504 min
Histogram: 1 0 0 0 0 0 0 0 0 0

Total # of neighbors = 8504
Ave neighs/atom = 25.3095
Neighbor list builds = 0
Dangerous builds = 0
        next i
jump SELF loop1
        read_dump orig.dump 0 x y z
  orthogonal box = (0 -0.599871 0) to (4.48985 16.1802 4.48985)
  336 atoms before read
  336 atoms in snapshot
  0 atoms purged
  336 atoms replaced
  0 atoms trimmed
  0 atoms added
  336 atoms after read
        variable stretch equal 1+$i*${strainstep}
        variable stretch equal 1+17*${strainstep}
        variable stretch equal 1+17*0.0005
        change_box all ${direction} scale ${stretch} remap
        change_box all y scale ${stretch} remap
        change_box all y scale 1.0085 remap
  orthogonal box = (0 -0.672878 0) to (4.48985 16.2532 4.48985)
        min_style ${style}
        min_style hftn
        minimize ${etol} ${ftol} ${maxiter} ${maxeval}
        minimize 1e-12 ${ftol} ${maxiter} ${maxeval}
        minimize 1e-12 1e-08 ${maxiter} ${maxeval}
        minimize 1e-12 1e-08 10000 ${maxeval}
        minimize 1e-12 1e-08 10000 20000
WARNING: Resetting reneighboring criteria during minimization (../min.cpp:168)
Memory usage per processor = 4.9009 Mbytes
Step PotEng Pxx Pyy Pxy Lx Ly Lz 
       0   -1874.2883    1.1005822   -1.1010131  0.053808954      4.48985    16.926117      4.48985 
       1    -1875.931      1.48452  0.071544799 -0.014441409      4.48985    16.926117      4.48985 
       2   -1875.9414    1.4632947 0.00027252334 -0.00034818311      4.48985    16.926117      4.48985 
       3   -1875.9415    1.4632443 -8.9695056e-05 -2.2444339e-05      4.48985    16.926117      4.48985 
       4   -1875.9415    1.4632789 -7.4147308e-10 -8.2261564e-11      4.48985    16.926117      4.48985 
       5   -1875.9415    1.4632789 5.7169942e-12 -1.3432942e-12      4.48985    16.926117      4.48985 
Loop time of 0.202247 on 1 procs for 4 steps with 336 atoms

Minimization stats:
  Stopping criterion = force tolerance
  Energy initial, next-to-last, final = 
        -1874.28833579      -1875.9414842     -1875.94148515
  Force two-norm initial, final = 8.78966 1.56543e-10
  Force max component initial, final = 1.28089 3.40825e-11
  Final line search alpha, max atom move = 0 0
  Iterations, force evaluations = 4 364

Pair  time (%) = 0.129314 (63.9386)
Neigh time (%) = 0 (0)
Comm  time (%) = 0.0440152 (21.7631)
Outpt time (%) = 0.00786128 (3.88697)
Other time (%) = 0.0210565 (10.4113)

Nlocal:    336 ave 336 max 336 min
Histogram: 1 0 0 0 0 0 0 0 0 0
Nghost:    1110 ave 1110 max 1110 min
Histogram: 1 0 0 0 0 0 0 0 0 0
Neighs:    8504 ave 8504 max 8504 min
Histogram: 1 0 0 0 0 0 0 0 0 0

Total # of neighbors = 8504
Ave neighs/atom = 25.3095
Neighbor list builds = 0
Dangerous builds = 0
        next i
jump SELF loop1
        read_dump orig.dump 0 x y z
  orthogonal box = (0 -0.599871 0) to (4.48985 16.1802 4.48985)
  336 atoms before read
  336 atoms in snapshot
  0 atoms purged
  336 atoms replaced
  0 atoms trimmed
  0 atoms added
  336 atoms after read
        variable stretch equal 1+$i*${strainstep}
        variable stretch equal 1+18*${strainstep}
        variable stretch equal 1+18*0.0005
        change_box all ${direction} scale ${stretch} remap
        change_box all y scale ${stretch} remap
        change_box all y scale 1.009 remap
  orthogonal box = (0 -0.677074 0) to (4.48985 16.2574 4.48985)
        min_style ${style}
        min_style hftn
        minimize ${etol} ${ftol} ${maxiter} ${maxeval}
        minimize 1e-12 ${ftol} ${maxiter} ${maxeval}
        minimize 1e-12 1e-08 ${maxiter} ${maxeval}
        minimize 1e-12 1e-08 10000 ${maxeval}
        minimize 1e-12 1e-08 10000 20000
WARNING: Resetting reneighboring criteria during minimization (../min.cpp:168)
Memory usage per processor = 4.9009 Mbytes
Step PotEng Pxx Pyy Pxy Lx Ly Lz 
       0   -1874.0969     1.080175    -1.160302  0.057294205      4.48985    16.934509      4.48985 
       1   -1875.9286    1.4867007  0.080870334 -0.015458437      4.48985    16.934509      4.48985 
       2   -1875.9415    1.4626709 0.00044843202 -0.00028395757      4.48985    16.934509      4.48985 
       3   -1875.9415    1.4625451 -1.9978379e-05 -7.3237895e-06      4.48985    16.934509      4.48985 
       4   -1875.9415    1.4625538 7.115547e-10 3.7050209e-10      4.48985    16.934509      4.48985 
       5   -1875.9415    1.4625538 1.4686869e-13 -3.4497484e-13      4.48985    16.934509      4.48985 
Loop time of 0.13015 on 1 procs for 4 steps with 336 atoms

Minimization stats:
  Stopping criterion = force tolerance
  Energy initial, next-to-last, final = 
        -1874.09692944     -1875.94148482     -1875.94148515
  Force two-norm initial, final = 9.26157 5.89551e-11
  Force max component initial, final = 1.34956 1.43245e-11
  Final line search alpha, max atom move = 0 0
  Iterations, force evaluations = 4 392

Pair  time (%) = 0.112187 (86.1983)
Neigh time (%) = 0 (0)
Comm  time (%) = 0.00823433 (6.3268)
Outpt time (%) = 0.000368326 (0.283001)
Other time (%) = 0.00936025 (7.1919)

Nlocal:    336 ave 336 max 336 min
Histogram: 1 0 0 0 0 0 0 0 0 0
Nghost:    1110 ave 1110 max 1110 min
Histogram: 1 0 0 0 0 0 0 0 0 0
Neighs:    8504 ave 8504 max 8504 min
Histogram: 1 0 0 0 0 0 0 0 0 0

Total # of neighbors = 8504
Ave neighs/atom = 25.3095
Neighbor list builds = 0
Dangerous builds = 0
        next i
jump SELF loop1
        read_dump orig.dump 0 x y z
  orthogonal box = (0 -0.599871 0) to (4.48985 16.1802 4.48985)
  336 atoms before read
  336 atoms in snapshot
  0 atoms purged
  336 atoms replaced
  0 atoms trimmed
  0 atoms added
  336 atoms after read
        variable stretch equal 1+$i*${strainstep}
        variable stretch equal 1+19*${strainstep}
        variable stretch equal 1+19*0.0005
        change_box all ${direction} scale ${stretch} remap
        change_box all y scale ${stretch} remap
        change_box all y scale 1.0095 remap
  orthogonal box = (0 -0.68127 0) to (4.48985 16.2616 4.48985)
        min_style ${style}
        min_style hftn
        minimize ${etol} ${ftol} ${maxiter} ${maxeval}
        minimize 1e-12 ${ftol} ${maxiter} ${maxeval}
        minimize 1e-12 1e-08 ${maxiter} ${maxeval}
        minimize 1e-12 1e-08 10000 ${maxeval}
        minimize 1e-12 1e-08 10000 20000
WARNING: Resetting reneighboring criteria during minimization (../min.cpp:168)
Memory usage per processor = 4.9009 Mbytes
Step PotEng Pxx Pyy Pxy Lx Ly Lz 
       0   -1873.8956    1.0598948   -1.2191534  0.060806043      4.48985    16.942901      4.48985 
       1   -1875.9259    1.4887093  0.090043327 -0.016391714      4.48985    16.942901      4.48985 
       2   -1875.9415    1.4619529 0.00053573048 -0.00034870916      4.48985    16.942901      4.48985 
       3   -1875.9415    1.4618299 -2.2840299e-06 -2.7788888e-07      4.48985    16.942901      4.48985 
       4   -1875.9415    1.4618299 -2.2840299e-06 -2.7788888e-07      4.48985    16.942901      4.48985 
       5   -1875.9415    1.4618299 -2.2840299e-06 -2.7788888e-07      4.48985    16.942901      4.48985 
       6   -1875.9415    1.4618299 -2.2840299e-06 -2.7788888e-07      4.48985    16.942901      4.48985 
       7   -1875.9415    1.4618299 -2.2840299e-06 -2.7788888e-07      4.48985    16.942901      4.48985 
       8   -1875.9415    1.4618299 -2.2840299e-06 -2.7788888e-07      4.48985    16.942901      4.48985 
       9   -1875.9415    1.4618299 -2.2843492e-06 -2.7940323e-07      4.48985    16.942901      4.48985 
Loop time of 0.098942 on 1 procs for 8 steps with 336 atoms

Minimization stats:
  Stopping criterion = energy tolerance
  Energy initial, next-to-last, final = 
        -1873.89555865     -1875.94146994     -1875.94148545
  Force two-norm initial, final = 9.73041 0.00064303
  Force max component initial, final = 1.41764 6.71908e-05
  Final line search alpha, max atom move = 0 0
  Iterations, force evaluations = 8 321

Pair  time (%) = 0.0795341 (80.3846)
Neigh time (%) = 0 (0)
Comm  time (%) = 0.0133774 (13.5205)
Outpt time (%) = 0.000520094 (0.525655)
Other time (%) = 0.0055103 (5.56923)

Nlocal:    336 ave 336 max 336 min
Histogram: 1 0 0 0 0 0 0 0 0 0
Nghost:    1110 ave 1110 max 1110 min
Histogram: 1 0 0 0 0 0 0 0 0 0
Neighs:    8504 ave 8504 max 8504 min
Histogram: 1 0 0 0 0 0 0 0 0 0

Total # of neighbors = 8504
Ave neighs/atom = 25.3095
Neighbor list builds = 0
Dangerous builds = 0
        next i
jump SELF loop1
        read_dump orig.dump 0 x y z
  orthogonal box = (0 -0.599871 0) to (4.48985 16.1802 4.48985)
  336 atoms before read
  336 atoms in snapshot
  0 atoms purged
  336 atoms replaced
  0 atoms trimmed
  0 atoms added
  336 atoms after read
        variable stretch equal 1+$i*${strainstep}
        variable stretch equal 1+20*${strainstep}
        variable stretch equal 1+20*0.0005
        change_box all ${direction} scale ${stretch} remap
        change_box all y scale ${stretch} remap
        change_box all y scale 1.01 remap
  orthogonal box = (0 -0.685466 0) to (4.48985 16.2658 4.48985)
        min_style ${style}
        min_style hftn
        minimize ${etol} ${ftol} ${maxiter} ${maxeval}
        minimize 1e-12 ${ftol} ${maxiter} ${maxeval}
        minimize 1e-12 1e-08 ${maxiter} ${maxeval}
        minimize 1e-12 1e-08 10000 ${maxeval}
        minimize 1e-12 1e-08 10000 20000
WARNING: Resetting reneighboring criteria during minimization (../min.cpp:168)
Memory usage per processor = 4.9009 Mbytes
Step PotEng Pxx Pyy Pxy Lx Ly Lz 
       0   -1873.6844    1.0397447   -1.2775835  0.064342747      4.48985    16.951293      4.48985 
       1   -1875.9224    1.4916964    0.1012095   -0.0176695      4.48985    16.951293      4.48985 
       2   -1875.9415    1.4611036 0.00030019193 -0.00014023669      4.48985    16.951293      4.48985 
       3   -1875.9415    1.4611036 0.00030019193 -0.00014023669      4.48985    16.951293      4.48985 
       4   -1875.9415    1.4611036 0.00030019193 -0.00014023669      4.48985    16.951293      4.48985 
       5   -1875.9415    1.4611036 0.00030019193 -0.00014023669      4.48985    16.951293      4.48985 
       6   -1875.9415    1.4611036 0.00030019193 -0.00014023669      4.48985    16.951293      4.48985 
       7   -1875.9415    1.4611036 0.00030019193 -0.00014023669      4.48985    16.951293      4.48985 
       8   -1875.9415    1.4611036 0.00030019193 -0.00014023669      4.48985    16.951293      4.48985 
       9   -1875.9415    1.4611036 0.00030019193 -0.00014023669      4.48985    16.951293      4.48985 
      10   -1875.9415    1.4611036 0.0003001863 -0.00014022547      4.48985    16.951293      4.48985 
Loop time of 0.050318 on 1 procs for 9 steps with 336 atoms

Minimization stats:
  Stopping criterion = energy tolerance
  Energy initial, next-to-last, final = 
        -1873.68442578     -1875.92244983      -1875.9414953
  Force two-norm initial, final = 10.1962 0.0908392
  Force max component initial, final = 1.48521 0.0179436
  Final line search alpha, max atom move = 0 0
  Iterations, force evaluations = 9 176

Pair  time (%) = 0.0441184 (87.6791)
Neigh time (%) = 0 (0)
Comm  time (%) = 0.00106174 (2.11005)
Outpt time (%) = 0.00235299 (4.67624)
Other time (%) = 0.00278488 (5.53456)

Nlocal:    336 ave 336 max 336 min
Histogram: 1 0 0 0 0 0 0 0 0 0
Nghost:    1110 ave 1110 max 1110 min
Histogram: 1 0 0 0 0 0 0 0 0 0
Neighs:    8504 ave 8504 max 8504 min
Histogram: 1 0 0 0 0 0 0 0 0 0

Total # of neighbors = 8504
Ave neighs/atom = 25.3095
Neighbor list builds = 0
Dangerous builds = 0
        next i
jump SELF loop1
        read_dump orig.dump 0 x y z
  orthogonal box = (0 -0.599871 0) to (4.48985 16.1802 4.48985)
  336 atoms before read
  336 atoms in snapshot
  0 atoms purged
  336 atoms replaced
  0 atoms trimmed
  0 atoms added
  336 atoms after read
        variable stretch equal 1+$i*${strainstep}
        variable stretch equal 1+21*${strainstep}
        variable stretch equal 1+21*0.0005
        change_box all ${direction} scale ${stretch} remap
        change_box all y scale ${stretch} remap
        change_box all y scale 1.0105 remap
  orthogonal box = (0 -0.689662 0) to (4.48985 16.27 4.48985)
        min_style ${style}
        min_style hftn
        minimize ${etol} ${ftol} ${maxiter} ${maxeval}
        minimize 1e-12 ${ftol} ${maxiter} ${maxeval}
        minimize 1e-12 1e-08 ${maxiter} ${maxeval}
        minimize 1e-12 1e-08 10000 ${maxeval}
        minimize 1e-12 1e-08 10000 20000
WARNING: Resetting reneighboring criteria during minimization (../min.cpp:168)
Memory usage per processor = 4.9009 Mbytes
Step PotEng Pxx Pyy Pxy Lx Ly Lz 
       0   -1873.4632      1.01973   -1.3355773  0.067899345      4.48985    16.959684      4.48985 
       1   -1875.9191    1.4938527   0.11058199 -0.018744404      4.48985    16.959684      4.48985 
       2   -1875.9415    1.4604096 0.00037260115 -6.4145814e-05      4.48985    16.959684      4.48985 
       3   -1875.9415    1.4604096 0.00037260115 -6.4145814e-05      4.48985    16.959684      4.48985 
       4   -1875.9415    1.4604096 0.00037260115 -6.4145814e-05      4.48985    16.959684      4.48985 
       5   -1875.9415    1.4604096 0.00037260115 -6.4145814e-05      4.48985    16.959684      4.48985 
       6   -1875.9415    1.4604096 0.00037260115 -6.4145814e-05      4.48985    16.959684      4.48985 
       7   -1875.9415    1.4604096 0.00037260115 -6.4145814e-05      4.48985    16.959684      4.48985 
       8   -1875.9415    1.4604096 0.00037260115 -6.4145814e-05      4.48985    16.959684      4.48985 
       9   -1875.9415    1.4604096 0.00037260115 -6.4145814e-05      4.48985    16.959684      4.48985 
      10   -1875.9415    1.4604096 0.00037259564 -6.4139053e-05      4.48985    16.959684      4.48985 
Loop time of 0.057611 on 1 procs for 9 steps with 336 atoms

Minimization stats:
  Stopping criterion = energy tolerance
  Energy initial, next-to-last, final = 
        -1873.46322385     -1875.91910836     -1875.94149467
  Force two-norm initial, final = 10.6587 0.0885918
  Force max component initial, final = 1.55225 0.0172938
  Final line search alpha, max atom move = 0 0
  Iterations, force evaluations = 9 178

Pair  time (%) = 0.0499373 (86.6802)
Neigh time (%) = 0 (0)
Comm  time (%) = 0.00130301 (2.26174)
Outpt time (%) = 0.000595054 (1.03288)
Other time (%) = 0.00577561 (10.0252)

Nlocal:    336 ave 336 max 336 min
Histogram: 1 0 0 0 0 0 0 0 0 0
Nghost:    1110 ave 1110 max 1110 min
Histogram: 1 0 0 0 0 0 0 0 0 0
Neighs:    8504 ave 8504 max 8504 min
Histogram: 1 0 0 0 0 0 0 0 0 0

Total # of neighbors = 8504
Ave neighs/atom = 25.3095
Neighbor list builds = 0
Dangerous builds = 0
        next i
jump SELF loop1
        read_dump orig.dump 0 x y z
  orthogonal box = (0 -0.599871 0) to (4.48985 16.1802 4.48985)
  336 atoms before read
  336 atoms in snapshot
  0 atoms purged
  336 atoms replaced
  0 atoms trimmed
  0 atoms added
  336 atoms after read
        variable stretch equal 1+$i*${strainstep}
        variable stretch equal 1+22*${strainstep}
        variable stretch equal 1+22*0.0005
        change_box all ${direction} scale ${stretch} remap
        change_box all y scale ${stretch} remap
        change_box all y scale 1.011 remap
  orthogonal box = (0 -0.693858 0) to (4.48985 16.2742 4.48985)
        min_style ${style}
        min_style hftn
        minimize ${etol} ${ftol} ${maxiter} ${maxeval}
        minimize 1e-12 ${ftol} ${maxiter} ${maxeval}
        minimize 1e-12 1e-08 ${maxiter} ${maxeval}
        minimize 1e-12 1e-08 10000 ${maxeval}
        minimize 1e-12 1e-08 10000 20000
WARNING: Resetting reneighboring criteria during minimization (../min.cpp:168)
Memory usage per processor = 4.9009 Mbytes
Step PotEng Pxx Pyy Pxy Lx Ly Lz 
       0   -1873.2326   0.99983798   -1.3931599  0.071483103      4.48985    16.968076      4.48985 
       1   -1875.8418    1.4803365   0.07748541 -0.017032575      4.48985    16.968076      4.48985 
       2   -1875.9397    1.4612083  0.012496206 -0.017797825      4.48985    16.968076      4.48985 
       3   -1875.9415    1.4596026 -3.2936267e-05 -0.00010016129      4.48985    16.968076      4.48985 
       4   -1875.9415    1.4596593 -4.0020188e-06 9.006711e-08      4.48985    16.968076      4.48985 
       5   -1875.9415    1.4596605 -2.3082609e-12 9.7786658e-14      4.48985    16.968076      4.48985 
Loop time of 0.113381 on 1 procs for 4 steps with 336 atoms

Minimization stats:
  Stopping criterion = force tolerance
  Energy initial, next-to-last, final = 
        -1873.23262911     -1875.94147734     -1875.94148515
  Force two-norm initial, final = 11.1182 1.44596e-09
  Force max component initial, final = 1.61881 1.97244e-10
  Final line search alpha, max atom move = 0 0
  Iterations, force evaluations = 4 339

Pair  time (%) = 0.0984065 (86.7926)
Neigh time (%) = 0 (0)
Comm  time (%) = 0.00485034 (4.27791)
Outpt time (%) = 0.000345277 (0.304528)
Other time (%) = 0.00977903 (8.62492)

Nlocal:    336 ave 336 max 336 min
Histogram: 1 0 0 0 0 0 0 0 0 0
Nghost:    1110 ave 1110 max 1110 min
Histogram: 1 0 0 0 0 0 0 0 0 0
Neighs:    8504 ave 8504 max 8504 min
Histogram: 1 0 0 0 0 0 0 0 0 0

Total # of neighbors = 8504
Ave neighs/atom = 25.3095
Neighbor list builds = 0
Dangerous builds = 0
        next i
jump SELF loop1
        read_dump orig.dump 0 x y z
  orthogonal box = (0 -0.599871 0) to (4.48985 16.1802 4.48985)
  336 atoms before read
  336 atoms in snapshot
  0 atoms purged
  336 atoms replaced
  0 atoms trimmed
  0 atoms added
  336 atoms after read
        variable stretch equal 1+$i*${strainstep}
        variable stretch equal 1+23*${strainstep}
        variable stretch equal 1+23*0.0005
        change_box all ${direction} scale ${stretch} remap
        change_box all y scale ${stretch} remap
        change_box all y scale 1.0115 remap
  orthogonal box = (0 -0.698053 0) to (4.48985 16.2784 4.48985)
        min_style ${style}
        min_style hftn
        minimize ${etol} ${ftol} ${maxiter} ${maxeval}
        minimize 1e-12 ${ftol} ${maxiter} ${maxeval}
        minimize 1e-12 1e-08 ${maxiter} ${maxeval}
        minimize 1e-12 1e-08 10000 ${maxeval}
        minimize 1e-12 1e-08 10000 20000
WARNING: Resetting reneighboring criteria during minimization (../min.cpp:168)
Memory usage per processor = 4.9009 Mbytes
Step PotEng Pxx Pyy Pxy Lx Ly Lz 
       0   -1872.9918   0.98008621   -1.4502958  0.075085768      4.48985    16.976468      4.48985 
       1   -1875.6368    1.4493104 -0.019049132 -0.008410709      4.48985    16.976468      4.48985 
       2   -1875.9346    1.4520678 0.00092311439 -0.015679766      4.48985    16.976468      4.48985 
       3   -1875.9414    1.4582229 -0.0018485648 -0.0006281351      4.48985    16.976468      4.48985 
       4   -1875.9415    1.4589397 5.010621e-06 -3.3143311e-06      4.48985    16.976468      4.48985 
       5   -1875.9415    1.4589397 5.010621e-06 -3.3143311e-06      4.48985    16.976468      4.48985 
       6   -1875.9415    1.4589397 5.010621e-06 -3.3143311e-06      4.48985    16.976468      4.48985 
       7   -1875.9415    1.4589397 5.010621e-06 -3.3143311e-06      4.48985    16.976468      4.48985 
       8   -1875.9415    1.4589397 5.010621e-06 -3.3143311e-06      4.48985    16.976468      4.48985 
       9   -1875.9415    1.4589397 5.0043096e-06 -3.3111189e-06      4.48985    16.976468      4.48985 
Loop time of 0.113265 on 1 procs for 8 steps with 336 atoms

Minimization stats:
  Stopping criterion = energy tolerance
  Energy initial, next-to-last, final = 
        -1872.99177819     -1875.94142255      -1875.9414853
  Force two-norm initial, final = 11.5745 0.000710229
  Force max component initial, final = 1.68488 0.000109919
  Final line search alpha, max atom move = 0 0
  Iterations, force evaluations = 8 345

Pair  time (%) = 0.103178 (91.094)
Neigh time (%) = 0 (0)
Comm  time (%) = 0.00307912 (2.71851)
Outpt time (%) = 0.000704741 (0.622206)
Other time (%) = 0.00630349 (5.56526)

Nlocal:    336 ave 336 max 336 min
Histogram: 1 0 0 0 0 0 0 0 0 0
Nghost:    1110 ave 1110 max 1110 min
Histogram: 1 0 0 0 0 0 0 0 0 0
Neighs:    8504 ave 8504 max 8504 min
Histogram: 1 0 0 0 0 0 0 0 0 0

Total # of neighbors = 8504
Ave neighs/atom = 25.3095
Neighbor list builds = 0
Dangerous builds = 0
        next i
jump SELF loop1
        read_dump orig.dump 0 x y z
  orthogonal box = (0 -0.599871 0) to (4.48985 16.1802 4.48985)
  336 atoms before read
  336 atoms in snapshot
  0 atoms purged
  336 atoms replaced
  0 atoms trimmed
  0 atoms added
  336 atoms after read
        variable stretch equal 1+$i*${strainstep}
        variable stretch equal 1+24*${strainstep}
        variable stretch equal 1+24*0.0005
        change_box all ${direction} scale ${stretch} remap
        change_box all y scale ${stretch} remap
        change_box all y scale 1.012 remap
  orthogonal box = (0 -0.702249 0) to (4.48985 16.2826 4.48985)
        min_style ${style}
        min_style hftn
        minimize ${etol} ${ftol} ${maxiter} ${maxeval}
        minimize 1e-12 ${ftol} ${maxiter} ${maxeval}
        minimize 1e-12 1e-08 ${maxiter} ${maxeval}
        minimize 1e-12 1e-08 10000 ${maxeval}
        minimize 1e-12 1e-08 10000 20000
WARNING: Resetting reneighboring criteria during minimization (../min.cpp:168)
Memory usage per processor = 4.9009 Mbytes
Step PotEng Pxx Pyy Pxy Lx Ly Lz 
       0   -1872.7417    0.9604521   -1.5070253  0.078719259      4.48985     16.98486      4.48985 
       1   -1875.3493    1.4078899  -0.14545812 0.00096953221      4.48985     16.98486      4.48985 
       2   -1875.9351     1.460306  0.020607985 -0.017981836      4.48985     16.98486      4.48985 
       3   -1875.9415    1.4580053 -0.000145095 -0.00075974669      4.48985     16.98486      4.48985 
       4   -1875.9415     1.458237 5.994561e-05 -1.1474237e-05      4.48985     16.98486      4.48985 
       5   -1875.9415     1.458237 5.994561e-05 -1.1474237e-05      4.48985     16.98486      4.48985 
       6   -1875.9415    1.4582328 4.9163416e-05 -1.2106366e-05      4.48985     16.98486      4.48985 
       7   -1875.9415    1.4582328 4.9163416e-05 -1.2106366e-05      4.48985     16.98486      4.48985 
       8   -1875.9415    1.4582328 4.6533823e-05 -1.124802e-05      4.48985     16.98486      4.48985 
       9   -1875.9415    1.4582328 4.6533823e-05 -1.124802e-05      4.48985     16.98486      4.48985 
      10   -1875.9415    1.4582328 4.6533823e-05 -1.124802e-05      4.48985     16.98486      4.48985 
      11   -1875.9415    1.4582328 4.6533823e-05 -1.124802e-05      4.48985     16.98486      4.48985 
      12   -1875.9415    1.4582328 4.6533823e-05 -1.124802e-05      4.48985     16.98486      4.48985 
      13   -1875.9415    1.4582328 4.6517387e-05 -1.124566e-05      4.48985     16.98486      4.48985 
Loop time of 0.128026 on 1 procs for 12 steps with 336 atoms

Minimization stats:
  Stopping criterion = energy tolerance
  Energy initial, next-to-last, final = 
        -1872.74169295      -1875.9414856     -1875.94148571
  Force two-norm initial, final = 12.0278 0.000298616
  Force max component initial, final = 1.75046 3.43577e-05
  Final line search alpha, max atom move = 0 0
  Iterations, force evaluations = 12 379

Pair  time (%) = 0.116638 (91.1046)
Neigh time (%) = 0 (0)
Comm  time (%) = 0.00299286 (2.3377)
Outpt time (%) = 0.00120295 (0.939614)
Other time (%) = 0.00719262 (5.61809)

Nlocal:    336 ave 336 max 336 min
Histogram: 1 0 0 0 0 0 0 0 0 0
Nghost:    1110 ave 1110 max 1110 min
Histogram: 1 0 0 0 0 0 0 0 0 0
Neighs:    8504 ave 8504 max 8504 min
Histogram: 1 0 0 0 0 0 0 0 0 0

Total # of neighbors = 8504
Ave neighs/atom = 25.3095
Neighbor list builds = 0
Dangerous builds = 0
        next i
jump SELF loop1
        read_dump orig.dump 0 x y z
  orthogonal box = (0 -0.599871 0) to (4.48985 16.1802 4.48985)
  336 atoms before read
  336 atoms in snapshot
  0 atoms purged
  336 atoms replaced
  0 atoms trimmed
  0 atoms added
  336 atoms after read
        variable stretch equal 1+$i*${strainstep}
        variable stretch equal 1+25*${strainstep}
        variable stretch equal 1+25*0.0005
        change_box all ${direction} scale ${stretch} remap
        change_box all y scale ${stretch} remap
        change_box all y scale 1.0125 remap
  orthogonal box = (0 -0.706445 0) to (4.48985 16.2868 4.48985)
        min_style ${style}
        min_style hftn
        minimize ${etol} ${ftol} ${maxiter} ${maxeval}
        minimize 1e-12 ${ftol} ${maxiter} ${maxeval}
        minimize 1e-12 1e-08 ${maxiter} ${maxeval}
        minimize 1e-12 1e-08 10000 ${maxeval}
        minimize 1e-12 1e-08 10000 20000
WARNING: Resetting reneighboring criteria during minimization (../min.cpp:168)
Memory usage per processor = 4.9009 Mbytes
Step PotEng Pxx Pyy Pxy Lx Ly Lz 
       0   -1872.4819   0.94095497   -1.5633379  0.082359011      4.48985    16.993251      4.48985 
[...]
  Iterations, force evaluations = 17 382

Pair  time (%) = 0.0981025 (86.396)
Neigh time (%) = 0.000876964 (0.772316)
Comm  time (%) = 0.0066929 (5.89424)
Outpt time (%) = 0.000897888 (0.790743)
Other time (%) = 0.00697963 (6.14675)

Nlocal:    336 ave 336 max 336 min
Histogram: 1 0 0 0 0 0 0 0 0 0
Nghost:    1110 ave 1110 max 1110 min
Histogram: 1 0 0 0 0 0 0 0 0 0
Neighs:    8504 ave 8504 max 8504 min
Histogram: 1 0 0 0 0 0 0 0 0 0

Total # of neighbors = 8504
Ave neighs/atom = 25.3095
Neighbor list builds = 2
Dangerous builds = 0
        next i
jump SELF loop1
        read_dump orig.dump 0 x y z
  orthogonal box = (0 -0.599871 0) to (4.48985 16.1802 4.48985)
  336 atoms before read
  336 atoms in snapshot
  0 atoms purged
  336 atoms replaced
  0 atoms trimmed
  0 atoms added
  336 atoms after read
        variable stretch equal 1+$i*${strainstep}
        variable stretch equal 1+96*${strainstep}
        variable stretch equal 1+96*0.0005
        change_box all ${direction} scale ${stretch} remap
        change_box all y scale ${stretch} remap
        change_box all y scale 1.048 remap
  orthogonal box = (0 -1.00435 0) to (4.48985 16.5847 4.48985)
        min_style ${style}
        min_style hftn
        minimize ${etol} ${ftol} ${maxiter} ${maxeval}
        minimize 1e-12 ${ftol} ${maxiter} ${maxeval}
        minimize 1e-12 1e-08 ${maxiter} ${maxeval}
        minimize 1e-12 1e-08 10000 ${maxeval}
        minimize 1e-12 1e-08 10000 20000
WARNING: Resetting reneighboring criteria during minimization (../min.cpp:168)
Memory usage per processor = 4.90121 Mbytes
Step PotEng Pxx Pyy Pxy Lx Ly Lz 
       0   -1833.1641   -0.1738481   -4.7673186   0.32956385      4.48985    17.589064      4.48985 
       1   -1838.5218  0.042140105   -3.9840301   0.20973447      4.48985    17.589064      4.48985 
       2   -1847.1212   0.16206996   -3.6515115   0.22891787      4.48985    17.589064      4.48985 
       3   -1855.4423   0.48269064   -2.6978319   0.14778647      4.48985    17.193713      4.48985 
       4    -1864.386   0.71876447   -2.1137919  0.064442118      4.48985    17.193713      4.48985 
       5     -1870.07   0.90469652   -1.4444646  0.077837304      4.48985    17.193713      4.48985 
       6   -1874.5633    1.2776158  -0.45993234 -0.072460544      4.48985    16.866837      4.48985 
       7   -1875.9299    1.4813846  0.041556874 0.0020542962      4.48985    16.866837      4.48985 
       8   -1875.9414    1.4680104 -0.0007221219 0.00076932782      4.48985    16.866837      4.48985 
       9   -1875.9415    1.4684365 5.2171588e-05 -6.2531588e-06      4.48985    16.866837      4.48985 
      10   -1875.9415    1.4684365 5.2171588e-05 -6.2531588e-06      4.48985    16.866837      4.48985 
      11   -1875.9415    1.4684411 5.7475524e-05 -3.3959684e-06      4.48985    16.866837      4.48985 
      12   -1875.9415    1.4684411 5.7475524e-05 -3.3959684e-06      4.48985    16.866837      4.48985 
      13   -1875.9415    1.4684411 5.7475524e-05 -3.3959684e-06      4.48985    16.866837      4.48985 
      14   -1875.9415    1.4684411 5.7475524e-05 -3.3959684e-06      4.48985    16.866837      4.48985 
      15   -1875.9415    1.4684411 5.7475524e-05 -3.3959684e-06      4.48985    16.866837      4.48985 
      16   -1875.9415    1.4684411 5.7475524e-05 -3.3959684e-06      4.48985    16.866837      4.48985 
      17   -1875.9415    1.4684411 5.7477322e-05 -3.3944454e-06      4.48985    16.866837      4.48985 
Loop time of 0.194268 on 1 procs for 16 steps with 336 atoms

Minimization stats:
  Stopping criterion = energy tolerance
  Energy initial, next-to-last, final = 
        -1833.16406119     -1875.94148558     -1875.94148621
  Force two-norm initial, final = 37.2127 0.00163657
  Force max component initial, final = 5.33214 0.000292426
  Final line search alpha, max atom move = 0 0
  Iterations, force evaluations = 16 505

Pair  time (%) = 0.148158 (76.2649)
Neigh time (%) = 0.00300599 (1.54734)
Comm  time (%) = 0.00674928 (3.47421)
Outpt time (%) = 0.0271702 (13.9859)
Other time (%) = 0.00918432 (4.72765)

Nlocal:    336 ave 336 max 336 min
Histogram: 1 0 0 0 0 0 0 0 0 0
Nghost:    1110 ave 1110 max 1110 min
Histogram: 1 0 0 0 0 0 0 0 0 0
Neighs:    8504 ave 8504 max 8504 min
Histogram: 1 0 0 0 0 0 0 0 0 0

Total # of neighbors = 8504
Ave neighs/atom = 25.3095
Neighbor list builds = 2
Dangerous builds = 0
        next i
jump SELF loop1
        read_dump orig.dump 0 x y z
  orthogonal box = (0 -0.599871 0) to (4.48985 16.1802 4.48985)
  336 atoms before read
  336 atoms in snapshot
  0 atoms purged
  336 atoms replaced
  0 atoms trimmed
  0 atoms added
  336 atoms after read
        variable stretch equal 1+$i*${strainstep}
        variable stretch equal 1+97*${strainstep}
        variable stretch equal 1+97*0.0005
        change_box all ${direction} scale ${stretch} remap
        change_box all y scale ${stretch} remap
        change_box all y scale 1.0485 remap
  orthogonal box = (0 -1.00855 0) to (4.48985 16.5889 4.48985)
        min_style ${style}
        min_style hftn
        minimize ${etol} ${ftol} ${maxiter} ${maxeval}
        minimize 1e-12 ${ftol} ${maxiter} ${maxeval}
        minimize 1e-12 1e-08 ${maxiter} ${maxeval}
        minimize 1e-12 1e-08 10000 ${maxeval}
        minimize 1e-12 1e-08 10000 20000
WARNING: Resetting reneighboring criteria during minimization (../min.cpp:168)
Memory usage per processor = 4.90121 Mbytes
Step PotEng Pxx Pyy Pxy Lx Ly Lz 
       0   -1832.3543  -0.18629112   -4.8050037   0.33275552      4.48985    17.597456      4.48985 
       1   -1837.7553  0.031737846   -4.0166946   0.20846701      4.48985    17.597456      4.48985 
       2   -1846.4713   0.15028143   -3.6887826    0.2308542      4.48985    17.597456      4.48985 
       3   -1854.9548   0.47052303   -2.7346349   0.14844883      4.48985    17.201206      4.48985 
       4   -1864.0253   0.70520521   -2.1622765  0.069705379      4.48985    17.201206      4.48985 
       5   -1869.8368   0.90096277   -1.4497718  0.080078787      4.48985    17.201206      4.48985 
       6   -1873.9062    1.1735886  -0.73598129 -0.045641178      4.48985    16.901469      4.48985 
       7    -1875.904    1.4954827  0.082245541  0.010379442      4.48985    16.901469      4.48985 
       8   -1875.9415    1.4658013 0.0010812254 0.00038510519      4.48985    16.901469      4.48985 
       9   -1875.9415    1.4654059 -1.5793168e-05 -6.6262045e-06      4.48985    16.901469      4.48985 
      10   -1875.9415    1.4654059 -1.5793168e-05 -6.6262045e-06      4.48985    16.901469      4.48985 
      11   -1875.9415    1.4654059 -1.5793168e-05 -6.6262045e-06      4.48985    16.901469      4.48985 
      12   -1875.9415    1.4654059 -1.5793168e-05 -6.6262045e-06      4.48985    16.901469      4.48985 
      13   -1875.9415    1.4654059 -1.5793168e-05 -6.6262045e-06      4.48985    16.901469      4.48985 
      14   -1875.9415    1.4654059 -1.5793168e-05 -6.6262045e-06      4.48985    16.901469      4.48985 
      15   -1875.9415    1.4654059 -1.5787774e-05 -6.6234627e-06      4.48985    16.901469      4.48985 
Loop time of 0.146461 on 1 procs for 14 steps with 336 atoms

Minimization stats:
  Stopping criterion = energy tolerance
  Energy initial, next-to-last, final = 
        -1832.35434713     -1875.94146872     -1875.94148537
  Force two-norm initial, final = 37.4594 0.00136958
  Force max component initial, final = 5.36836 0.000144693
  Final line search alpha, max atom move = 0 0
  Iterations, force evaluations = 14 461

Pair  time (%) = 0.116837 (79.7733)
Neigh time (%) = 0.000859066 (0.586549)
Comm  time (%) = 0.00873382 (5.96324)
Outpt time (%) = 0.011817 (8.06837)
Other time (%) = 0.00821429 (5.60852)

Nlocal:    336 ave 336 max 336 min
Histogram: 1 0 0 0 0 0 0 0 0 0
Nghost:    1101 ave 1101 max 1101 min
Histogram: 1 0 0 0 0 0 0 0 0 0
Neighs:    8504 ave 8504 max 8504 min
Histogram: 1 0 0 0 0 0 0 0 0 0

Total # of neighbors = 8504
Ave neighs/atom = 25.3095
Neighbor list builds = 2
Dangerous builds = 0
        next i
jump SELF loop1
        read_dump orig.dump 0 x y z
  orthogonal box = (0 -0.599871 0) to (4.48985 16.1802 4.48985)
  336 atoms before read
  336 atoms in snapshot
  0 atoms purged
  336 atoms replaced
  0 atoms trimmed
  0 atoms added
  336 atoms after read
        variable stretch equal 1+$i*${strainstep}
        variable stretch equal 1+98*${strainstep}
        variable stretch equal 1+98*0.0005
        change_box all ${direction} scale ${stretch} remap
        change_box all y scale ${stretch} remap
        change_box all y scale 1.049 remap
  orthogonal box = (0 -1.01274 0) to (4.48985 16.5931 4.48985)
        min_style ${style}
        min_style hftn
        minimize ${etol} ${ftol} ${maxiter} ${maxeval}
        minimize 1e-12 ${ftol} ${maxiter} ${maxeval}
        minimize 1e-12 1e-08 ${maxiter} ${maxeval}
        minimize 1e-12 1e-08 10000 ${maxeval}
        minimize 1e-12 1e-08 10000 20000
WARNING: Resetting reneighboring criteria during minimization (../min.cpp:168)
Memory usage per processor = 4.90121 Mbytes
Step PotEng Pxx Pyy Pxy Lx Ly Lz 
       0   -1831.5385  -0.19867411   -4.8424456    0.3359842      4.48985    17.605848      4.48985 
       1     -1836.95   0.02225136   -4.0463732    0.2066629      4.48985    17.605848      4.48985 
       2   -1845.7751   0.13976374    -3.726023   0.23438366      4.48985    17.605848      4.48985 
       3   -1854.3731   0.46099788   -2.7644347   0.15125771      4.48985    17.205566      4.48985 
       4   -1863.7647   0.69989154   -2.1819198  0.069309975      4.48985    17.205566      4.48985 
       5   -1869.8992   0.91761987   -1.4128874  0.074386917      4.48985    17.205566      4.48985 
       6   -1874.4012    1.2380681  -0.55701145 -0.069192457      4.48985    16.878814      4.48985 
       7   -1875.9273    1.4836765  0.050181294 0.0028634832      4.48985    16.878814      4.48985 
       8   -1875.9415    1.4673796 0.00026371089 0.0002581949      4.48985    16.878814      4.48985 
       9   -1875.9415    1.4673796 0.00026371089 0.0002581949      4.48985    16.878814      4.48985 
      10   -1875.9415    1.4673796 0.00026371089 0.0002581949      4.48985    16.878814      4.48985 
      11   -1875.9415    1.4673796 0.00026371089 0.0002581949      4.48985    16.878814      4.48985 
      12   -1875.9415    1.4673862 0.00026512726 0.00026609606      4.48985    16.878814      4.48985 
      13   -1875.9415    1.4673928 0.00026690876 0.00027403275      4.48985    16.878814      4.48985 
      14   -1875.9415    1.4673992 0.00026903508 0.00028196692      4.48985    16.878814      4.48985 
      15   -1875.9415    1.4673992 0.00026903508 0.00028196692      4.48985    16.878814      4.48985 
      16   -1875.9415    1.4673992 0.00026903508 0.00028196692      4.48985    16.878814      4.48985 
      17   -1875.9415    1.4673995 0.00026915752 0.00028236094      4.48985    16.878814      4.48985 
      18   -1875.9415    1.4673995 0.00026915752 0.00028236094      4.48985    16.878814      4.48985 
      19   -1875.9415    1.4673995 0.00026918828 0.00028245941      4.48985    16.878814      4.48985 
      20   -1875.9415    1.4673996 0.00026921913 0.00028255783      4.48985    16.878814      4.48985 
Loop time of 0.115996 on 1 procs for 19 steps with 336 atoms

Minimization stats:
  Stopping criterion = energy tolerance
  Energy initial, next-to-last, final = 
        -1831.53845212     -1875.94150052     -1875.94150053
  Force two-norm initial, final = 37.7068 0.0625278
  Force max component initial, final = 5.40417 0.010755
  Final line search alpha, max atom move = 0 0
  Iterations, force evaluations = 19 388

Pair  time (%) = 0.101742 (87.7113)
Neigh time (%) = 0.00125302 (1.08023)
Comm  time (%) = 0.00530292 (4.57164)
Outpt time (%) = 0.000985642 (0.84972)
Other time (%) = 0.00671283 (5.78712)

Nlocal:    336 ave 336 max 336 min
Histogram: 1 0 0 0 0 0 0 0 0 0
Nghost:    1110 ave 1110 max 1110 min
Histogram: 1 0 0 0 0 0 0 0 0 0
Neighs:    8504 ave 8504 max 8504 min
Histogram: 1 0 0 0 0 0 0 0 0 0

Total # of neighbors = 8504
Ave neighs/atom = 25.3095
Neighbor list builds = 2
Dangerous builds = 0
        next i
jump SELF loop1
        read_dump orig.dump 0 x y z
  orthogonal box = (0 -0.599871 0) to (4.48985 16.1802 4.48985)
  336 atoms before read
  336 atoms in snapshot
  0 atoms purged
  336 atoms replaced
  0 atoms trimmed
  0 atoms added
  336 atoms after read
        variable stretch equal 1+$i*${strainstep}
        variable stretch equal 1+99*${strainstep}
        variable stretch equal 1+99*0.0005
        change_box all ${direction} scale ${stretch} remap
        change_box all y scale ${stretch} remap
        change_box all y scale 1.0495 remap
  orthogonal box = (0 -1.01694 0) to (4.48985 16.5973 4.48985)
        min_style ${style}
        min_style hftn
        minimize ${etol} ${ftol} ${maxiter} ${maxeval}
        minimize 1e-12 ${ftol} ${maxiter} ${maxeval}
        minimize 1e-12 1e-08 ${maxiter} ${maxeval}
        minimize 1e-12 1e-08 10000 ${maxeval}
        minimize 1e-12 1e-08 10000 20000
WARNING: Resetting reneighboring criteria during minimization (../min.cpp:168)
Memory usage per processor = 4.90121 Mbytes
Step PotEng Pxx Pyy Pxy Lx Ly Lz 
       0    -1830.716  -0.21098257   -4.8796249   0.33923571      4.48985    17.614239      4.48985 
       1   -1836.1717  0.011347778   -4.0795238   0.20545828      4.48985    17.614239      4.48985 
       2   -1845.1005   0.12807515    -3.763286   0.23593865      4.48985    17.614239      4.48985 
       3   -1853.7385   0.45227928   -2.7940471   0.15175947      4.48985    17.209967      4.48985 
       4   -1863.2807    0.6766393   -2.2508386  0.080046817      4.48985    17.209967      4.48985 
       5   -1869.5739   0.91707622   -1.3985148  0.072100909      4.48985    17.209967      4.48985 
       6   -1874.3405    1.2301483  -0.58438336 -0.064430396      4.48985    16.881607      4.48985 
       7   -1875.9261    1.4856152  0.054126057   0.00377438      4.48985    16.881607      4.48985 
       8   -1875.9415    1.4671149 0.00024902218 0.00025244905      4.48985    16.881607      4.48985 
       9   -1875.9415    1.4671149 0.00024902218 0.00025244905      4.48985    16.881607      4.48985 
      10   -1875.9415    1.4671149 0.00024902218 0.00025244905      4.48985    16.881607      4.48985 
      11   -1875.9415    1.4671149 0.00024902218 0.00025244905      4.48985    16.881607      4.48985 
      12   -1875.9415    1.4671217 0.00025114496 0.00026031048      4.48985    16.881607      4.48985 
      13   -1875.9415    1.4671283 0.0002537301 0.00026821661      4.48985    16.881607      4.48985 
      14   -1875.9415    1.4671283 0.0002537301 0.00026821661      4.48985    16.881607      4.48985 
      15   -1875.9415      1.46713 0.00025448695 0.00027019445      4.48985    16.881607      4.48985 
      16   -1875.9415    1.4671316 0.00025526762 0.00027217084      4.48985    16.881607      4.48985 
      17   -1875.9415    1.4671316 0.00025526762 0.00027217084      4.48985    16.881607      4.48985 
      18   -1875.9415     1.467132 0.0002554686 0.00027266442      4.48985    16.881607      4.48985 
      19   -1875.9415    1.4671324 0.00025567097 0.00027315785      4.48985    16.881607      4.48985 
      20   -1875.9415    1.4671324 0.00025567097 0.00027315785      4.48985    16.881607      4.48985 
      21   -1875.9415    1.4671325 0.0002557219 0.00027328117      4.48985    16.881607      4.48985 
      22   -1875.9415    1.4671326 0.00025577313 0.00027340431      4.48985    16.881607      4.48985 
      23   -1875.9415    1.4671326 0.00025577313 0.00027340431      4.48985    16.881607      4.48985 
      24   -1875.9415    1.4671326 0.00025578606 0.00027343502      4.48985    16.881607      4.48985 
Loop time of 0.128776 on 1 procs for 23 steps with 336 atoms

Minimization stats:
  Stopping criterion = energy tolerance
  Energy initial, next-to-last, final = 
        -1830.71599104     -1875.94149749      -1875.9414975
  Force two-norm initial, final = 37.9549 0.060798
  Force max component initial, final = 5.43977 0.0116274
  Final line search alpha, max atom move = 0 0
  Iterations, force evaluations = 23 408

Pair  time (%) = 0.105458 (81.8929)
Neigh time (%) = 0.000880014 (0.683368)
Comm  time (%) = 0.0107606 (8.35604)
Outpt time (%) = 0.00463846 (3.60196)
Other time (%) = 0.00703858 (5.46575)

Nlocal:    336 ave 336 max 336 min
Histogram: 1 0 0 0 0 0 0 0 0 0
Nghost:    1110 ave 1110 max 1110 min
Histogram: 1 0 0 0 0 0 0 0 0 0
Neighs:    8504 ave 8504 max 8504 min
Histogram: 1 0 0 0 0 0 0 0 0 0

Total # of neighbors = 8504
Ave neighs/atom = 25.3095
Neighbor list builds = 2
Dangerous builds = 0
        next i
jump SELF loop1
        read_dump orig.dump 0 x y z
  orthogonal box = (0 -0.599871 0) to (4.48985 16.1802 4.48985)
  336 atoms before read
  336 atoms in snapshot
  0 atoms purged
  336 atoms replaced
  0 atoms trimmed
  0 atoms added
  336 atoms after read
        variable stretch equal 1+$i*${strainstep}
        variable stretch equal 1+100*${strainstep}
        variable stretch equal 1+100*0.0005
        change_box all ${direction} scale ${stretch} remap
        change_box all y scale ${stretch} remap
        change_box all y scale 1.05 remap
  orthogonal box = (0 -1.02113 0) to (4.48985 16.6015 4.48985)
        min_style ${style}
        min_style hftn
        minimize ${etol} ${ftol} ${maxiter} ${maxeval}
        minimize 1e-12 ${ftol} ${maxiter} ${maxeval}
        minimize 1e-12 1e-08 ${maxiter} ${maxeval}
        minimize 1e-12 1e-08 10000 ${maxeval}
        minimize 1e-12 1e-08 10000 20000
WARNING: Resetting reneighboring criteria during minimization (../min.cpp:168)
Memory usage per processor = 4.90121 Mbytes
Step PotEng Pxx Pyy Pxy Lx Ly Lz 
       0   -1829.8874  -0.22320481   -4.9165178   0.34249038      4.48985    17.622631      4.48985 
       1   -1835.3402 0.0019258033   -4.1088214    0.2036989      4.48985    17.622631      4.48985 
       2   -1844.4096   0.11717504   -3.7981255   0.23762286      4.48985    17.622631      4.48985 
       3   -1848.9227   0.19535627   -3.3647601   0.16207822      4.48985    17.622631      4.48985 
       4   -1856.8947   0.44282994   -2.9241132   0.20475464      4.48985    17.209076      4.48985 
       5   -1864.4856   0.68904074   -1.9421182  0.096949958      4.48985    17.209076      4.48985 
       6   -1870.8275    1.0162431   -1.2601175  0.029168106      4.48985    17.209076      4.48985 
       7    -1875.059    1.3965055  -0.17100759 -0.084298609      4.48985    16.816841      4.48985 
       8    -1875.938     1.480201  0.027301409 -0.002303043      4.48985    16.816841      4.48985 
       9   -1875.9415    1.4728494 0.00026264466 -8.3760563e-05      4.48985    16.816841      4.48985 
      10   -1875.9415    1.4727873 -6.5644716e-07 -2.128283e-07      4.48985    16.816841      4.48985 
      11   -1875.9415    1.4727873 -1.2392743e-12 -1.347685e-12      4.48985    16.816841      4.48985 
Loop time of 0.137022 on 1 procs for 10 steps with 336 atoms

Minimization stats:
  Stopping criterion = force tolerance
  Energy initial, next-to-last, final = 
        -1829.88743323     -1875.94147999     -1875.94148515
  Force two-norm initial, final = 38.2035 2.16785e-09
  Force max component initial, final = 5.47497 3.97392e-10
  Final line search alpha, max atom move = 0 0
  Iterations, force evaluations = 10 453

Pair  time (%) = 0.113941 (83.1551)
Neigh time (%) = 0.00143999 (1.05092)
Comm  time (%) = 0.0105354 (7.68885)
Outpt time (%) = 0.000692743 (0.505571)
Other time (%) = 0.010413 (7.59954)

Nlocal:    336 ave 336 max 336 min
Histogram: 1 0 0 0 0 0 0 0 0 0
Nghost:    1101 ave 1101 max 1101 min
Histogram: 1 0 0 0 0 0 0 0 0 0
Neighs:    8504 ave 8504 max 8504 min
Histogram: 1 0 0 0 0 0 0 0 0 0

Total # of neighbors = 8504
Ave neighs/atom = 25.3095
Neighbor list builds = 2
Dangerous builds = 0
        next i
jump SELF loop1

