LAMMPS (28 Jun 2014)
# attempt at getting tensile strain-stress curve for infinite slab

#file prefix
variable prefix string tension_V_brittle_twin
variable dumpfile string ${prefix}.*.dump
variable dumpfile string tension_V_brittle_twin.*.dump
variable restartfile string ${prefix}.*.equil
variable restartfile string tension_V_brittle_twin.*.equil

#Mass (g/mol)
variable m equal 1

# lattice constant (in Angstroms) and orientation of axes (given by lattice vectors)
variable rho equal 1.0
variable x1 equal 1
variable x2 equal 0
variable x3 equal 1
variable y1 equal 0
variable y2 equal 1
variable y3 equal 0
variable z1 equal -1
variable z2 equal 0
variable z3 equal 1
# length of lattice in different directions (using orientation of lattice vectors)
variable ax equal sqrt(${x1}*${x1}+${x2}*${x2}+${x3}*${x3})
variable ax equal sqrt(1*${x1}+${x2}*${x2}+${x3}*${x3})
variable ax equal sqrt(1*1+${x2}*${x2}+${x3}*${x3})
variable ax equal sqrt(1*1+0*${x2}+${x3}*${x3})
variable ax equal sqrt(1*1+0*0+${x3}*${x3})
variable ax equal sqrt(1*1+0*0+1*${x3})
variable ax equal sqrt(1*1+0*0+1*1)
variable ay equal sqrt(${y1}*${y1}+${y2}*${y2}+${y3}*${y3})
variable ay equal sqrt(0*${y1}+${y2}*${y2}+${y3}*${y3})
variable ay equal sqrt(0*0+${y2}*${y2}+${y3}*${y3})
variable ay equal sqrt(0*0+1*${y2}+${y3}*${y3})
variable ay equal sqrt(0*0+1*1+${y3}*${y3})
variable ay equal sqrt(0*0+1*1+0*${y3})
variable ay equal sqrt(0*0+1*1+0*0)
variable az equal sqrt(${z1}*${z1}+${z2}*${z2}+${z3}*${z3})
variable az equal sqrt(-1*${z1}+${z2}*${z2}+${z3}*${z3})
variable az equal sqrt(-1*-1+${z2}*${z2}+${z3}*${z3})
variable az equal sqrt(-1*-1+0*${z2}+${z3}*${z3})
variable az equal sqrt(-1*-1+0*0+${z3}*${z3})
variable az equal sqrt(-1*-1+0*0+1*${z3})
variable az equal sqrt(-1*-1+0*0+1*1)

# size of box in lattice units
variable lxpos equal 2
variable lxneg equal 0
variable lypos equal 10
variable lyneg equal 0
variable lzpos equal 2
variable lzneg equal 0

# Define minimization parameters and damping
variable etol equal 1.0e-12
variable ftol equal 1.0e-8
variable maxiter equal 10000
variable maxeval equal 20000
variable style string hftn

# boundary conditions
dimension	3
boundary	p s p
atom_style	atomic

# create geometry
units		lj
lattice         fcc ${rho} orient x 1 1 -2 orient y 1 1 1 orient z 1 -1 0 spacing ${ax} ${ay} ${az}
lattice         fcc 1 orient x 1 1 -2 orient y 1 1 1 orient z 1 -1 0 spacing ${ax} ${ay} ${az}
lattice         fcc 1 orient x 1 1 -2 orient y 1 1 1 orient z 1 -1 0 spacing 1.4142135623731 ${ay} ${az}
lattice         fcc 1 orient x 1 1 -2 orient y 1 1 1 orient z 1 -1 0 spacing 1.4142135623731 1 ${az}
lattice         fcc 1 orient x 1 1 -2 orient y 1 1 1 orient z 1 -1 0 spacing 1.4142135623731 1 1.4142135623731
Lattice spacing in x,y,z = 2.24492 1.5874 2.24492
region		myregion block ${lxneg} ${lxpos} ${lyneg} ${lypos} ${lzneg} ${lzpos} units lattice
region		myregion block 0 ${lxpos} ${lyneg} ${lypos} ${lzneg} ${lzpos} units lattice
region		myregion block 0 2 ${lyneg} ${lypos} ${lzneg} ${lzpos} units lattice
region		myregion block 0 2 0 ${lypos} ${lzneg} ${lzpos} units lattice
region		myregion block 0 2 0 10 ${lzneg} ${lzpos} units lattice
region		myregion block 0 2 0 10 0 ${lzpos} units lattice
region		myregion block 0 2 0 10 0 2 units lattice
create_box	1 myregion
Created orthogonal box = (0 0 0) to (4.48985 15.874 4.48985)
  1 by 1 by 1 MPI processor grid

region		upper block INF INF 0.01 INF INF INF
create_atoms	1 region upper
Created 316 atoms

region		lower block INF INF INF 0.01 INF INF
lattice         fcc ${rho} orient x 1 1 -2 orient y -1 -1 -1 orient z -1 1 0 spacing ${ax} ${ay} ${az}
lattice         fcc 1 orient x 1 1 -2 orient y -1 -1 -1 orient z -1 1 0 spacing ${ax} ${ay} ${az}
lattice         fcc 1 orient x 1 1 -2 orient y -1 -1 -1 orient z -1 1 0 spacing 1.4142135623731 ${ay} ${az}
lattice         fcc 1 orient x 1 1 -2 orient y -1 -1 -1 orient z -1 1 0 spacing 1.4142135623731 1 ${az}
lattice         fcc 1 orient x 1 1 -2 orient y -1 -1 -1 orient z -1 1 0 spacing 1.4142135623731 1 1.4142135623731
Lattice spacing in x,y,z = 2.24492 1.5874 2.24492
create_atoms	1 region lower
Created 20 atoms

# define masses
mass * $m
mass * 1

# my fake/morse potential
pair_style      table linear 3001
pair_coeff      * * vpotential_inter23d dummy
neighbor	0.3 bin
neigh_modify	delay 5

# Setup output
thermo 1
thermo_style custom step pe pxx pyy pxy lx ly lz
thermo_modify norm no

# Compute initial state by relaxing box
min_style ${style}
min_style hftn
minimize ${etol} ${ftol} ${maxiter} ${maxeval}
minimize 1e-12 ${ftol} ${maxiter} ${maxeval}
minimize 1e-12 1e-08 ${maxiter} ${maxeval}
minimize 1e-12 1e-08 10000 ${maxeval}
minimize 1e-12 1e-08 10000 20000
WARNING: Resetting reneighboring criteria during minimization (../min.cpp:168)
Memory usage per processor = 4.90059 Mbytes
Step PotEng Pxx Pyy Pxy Lx Ly Lz 
       0    37261.158    1007.3462  -0.22342897   0.37738543    4.4898482    15.583444    4.4898482 
       1    12145.332    416.09263   0.44760733   0.43297102    4.4898482    15.583444    4.4898482 
       2    3219.1232    174.76845    1.3132655   0.61018274    4.4898482    15.583444    4.4898482 
       3    102.25509    78.811968    2.3555458   0.94110447    4.4898482    15.583444    4.4898482 
       4    102.25509     78.81101    2.3555172   0.94109303    4.4898482    15.583633    4.4898482 
       5   -883.00458    43.837553    3.3621684    1.2488711    4.4898482    15.583633    4.4898482 
       6   -1369.7195    26.015036    3.8414071   0.96297268    4.4898482    15.583633    4.4898482 
       7   -1485.9847    20.225145    5.3820177  -0.31168697    4.4898482    15.857386    4.4898482 
       8   -1539.9941    17.495388    4.2229443  -0.17029177    4.4898482    15.857386    4.4898482 
       9   -1553.2438    17.003183    4.1082918  -0.13248601    4.4898482    15.857386    4.4898482 
      10   -1567.7227     15.11423    4.0508331  -0.38019648    4.4898482    16.220878    4.4898482 
      11   -1580.6742     14.63338    3.9136488  -0.23992938    4.4898482    16.220878    4.4898482 
      12   -1594.2722    13.114868    3.9623062  -0.46737427    4.4898482    16.220878    4.4898482 
      13   -1603.8534    12.734489    3.8002668  -0.30381043    4.4898482    16.220878    4.4898482 
      14   -1613.4906    11.219416    3.8028638  -0.39985174    4.4898482    16.603926    4.4898482 
      15   -1646.8591    8.9389556    3.5522948  0.018149414    4.4898482    16.603926    4.4898482 
      16   -1661.1268    7.8984717    3.4885059  -0.16344797    4.4898482    16.603926    4.4898482 
      17   -1690.4912    6.1427152    3.5605302   0.46541573    4.4898482    16.815676    4.4898482 
      18   -1716.2162    4.9015807    3.3283984   0.29361361    4.4898482    16.815676    4.4898482 
      19    -1765.464     3.397725    3.0127924   0.68174664    4.4898482    16.815676    4.4898482 
      20    -1799.902    2.5635824    2.2053729   0.32234794    4.4898482    16.878312    4.4898482 
      21   -1833.9882    2.0459755    1.2392925  0.062740303    4.4898482    16.878312    4.4898482 
      22   -1856.8573    1.6953812   0.57767916  -0.22487292    4.4898482    16.878312    4.4898482 
      23   -1867.1873    1.5975733   0.40328993  -0.40618229    4.4898482    16.811334    4.4898482 
      24   -1873.1508    1.6286385   0.45653418  -0.37302268    4.4898482    16.811334    4.4898482 
      25   -1876.0105    1.4743125  0.058091674 -0.011285301    4.4898482    16.811334    4.4898482 
      26   -1876.0517    1.4611895 9.5912535e-05 0.0012014948    4.4898482    16.811334    4.4898482 
      27   -1876.0518    1.4611571 3.6510517e-07 3.4687137e-06    4.4898482    16.811334    4.4898482 
      28   -1876.0518    1.4611566 4.9239406e-09 -5.7948824e-10    4.4898482    16.811334    4.4898482 
      29   -1876.0518    1.4611566 1.4274412e-10 1.4789979e-12    4.4898482    16.811334    4.4898482 
Loop time of 0.348095 on 1 procs for 28 steps with 336 atoms

Minimization stats:
  Stopping criterion = force tolerance
  Energy initial, next-to-last, final = 
         37261.1579875     -1876.05178233     -1876.05178247
  Force two-norm initial, final = 107408 8.83345e-09
  Force max component initial, final = 10963.6 9.13431e-10
  Final line search alpha, max atom move = 0 0
  Iterations, force evaluations = 28 673

Pair  time (%) = 0.303238 (87.1135)
Neigh time (%) = 0.00433111 (1.24423)
Comm  time (%) = 0.0236861 (6.8045)
Outpt time (%) = 0.0014975 (0.4302)
Other time (%) = 0.0153425 (4.40756)

Nlocal:    336 ave 336 max 336 min
Histogram: 1 0 0 0 0 0 0 0 0 0
Nghost:    1092 ave 1092 max 1092 min
Histogram: 1 0 0 0 0 0 0 0 0 0
Neighs:    8488 ave 8488 max 8488 min
Histogram: 1 0 0 0 0 0 0 0 0 0

Total # of neighbors = 8488
Ave neighs/atom = 25.2619
Neighbor list builds = 8
Dangerous builds = 1
reset_timestep 0
write_dump all atom orig.dump

# Energy curve will have nstep steps
variable strainmax equal 0.05
variable strainstep equal 0.0005
variable nsteps equal round(${strainmax}/${strainstep})
variable nsteps equal round(0.05/${strainstep})
variable nsteps equal round(0.05/0.0005)
variable direction string y

variable i loop ${nsteps}
variable i loop 100
label loop1
        read_dump orig.dump 0 x y z
  orthogonal box = (0 -0.602089 0) to (4.48985 16.1824 4.48985)
  336 atoms before read
  336 atoms in snapshot
  0 atoms purged
  336 atoms replaced
  0 atoms trimmed
  0 atoms added
  336 atoms after read
        variable stretch equal 1+$i*${strainstep}
        variable stretch equal 1+1*${strainstep}
        variable stretch equal 1+1*0.0005
        change_box all ${direction} scale ${stretch} remap
        change_box all y scale ${stretch} remap
        change_box all y scale 1.0005 remap
  orthogonal box = (0 -0.607965 0) to (4.48985 16.1882 4.48985)
        min_style ${style}
        min_style hftn
        minimize ${etol} ${ftol} ${maxiter} ${maxeval}
        minimize 1e-12 ${ftol} ${maxiter} ${maxeval}
        minimize 1e-12 1e-08 ${maxiter} ${maxeval}
        minimize 1e-12 1e-08 10000 ${maxeval}
        minimize 1e-12 1e-08 10000 20000
WARNING: Resetting reneighboring criteria during minimization (../min.cpp:168)
Memory usage per processor = 4.9009 Mbytes
Step PotEng Pxx Pyy Pxy Lx Ly Lz 
       0    -1876.041    1.4332505 -0.090586705 0.0033281419      4.48985    16.796185      4.48985 
       1    -1876.052    1.4624727 0.00027956331 -0.00025552043      4.48985    16.796185      4.48985 
       2    -1876.052    1.4624727 0.00027956331 -0.00025552043      4.48985    16.796185      4.48985 
       3    -1876.052    1.4624727 0.00027956331 -0.00025552043      4.48985    16.796185      4.48985 
       4    -1876.052    1.4624727 0.00027956331 -0.00025552043      4.48985    16.796185      4.48985 
       5    -1876.052    1.4624727 0.00027956331 -0.00025552043      4.48985    16.796185      4.48985 
       6    -1876.052    1.4624727 0.00027956331 -0.00025552043      4.48985    16.796185      4.48985 
       7    -1876.052    1.4624727 0.00027956331 -0.00025552043      4.48985    16.796185      4.48985 
       8    -1876.052    1.4624727 0.00027956331 -0.00025552043      4.48985    16.796185      4.48985 
       9    -1876.052    1.4624727 0.00027956331 -0.00025552043      4.48985    16.796185      4.48985 
      10    -1876.052    1.4624727 0.00027955826 -0.00025552174      4.48985    16.796185      4.48985 
Loop time of 0.0789789 on 1 procs for 9 steps with 336 atoms

Minimization stats:
  Stopping criterion = energy tolerance
  Energy initial, next-to-last, final = 
         -1876.0410217      -1876.0410217     -1876.05204699
  Force two-norm initial, final = 0.763419 0.0557525
  Force max component initial, final = 0.109047 0.00495048
  Final line search alpha, max atom move = 0 0
  Iterations, force evaluations = 9 152

Pair  time (%) = 0.0675267 (85.4997)
Neigh time (%) = 0 (0)
Comm  time (%) = 0.00840215 (10.6385)
Outpt time (%) = 0.000516047 (0.653398)
Other time (%) = 0.00253402 (3.20848)

Nlocal:    336 ave 336 max 336 min
Histogram: 1 0 0 0 0 0 0 0 0 0
Nghost:    1110 ave 1110 max 1110 min
Histogram: 1 0 0 0 0 0 0 0 0 0
Neighs:    8504 ave 8504 max 8504 min
Histogram: 1 0 0 0 0 0 0 0 0 0

Total # of neighbors = 8504
Ave neighs/atom = 25.3095
Neighbor list builds = 0
Dangerous builds = 0
        next i
jump SELF loop1
        read_dump orig.dump 0 x y z
  orthogonal box = (0 -0.602089 0) to (4.48985 16.1824 4.48985)
  336 atoms before read
  336 atoms in snapshot
  0 atoms purged
  336 atoms replaced
  0 atoms trimmed
  0 atoms added
  336 atoms after read
        variable stretch equal 1+$i*${strainstep}
        variable stretch equal 1+2*${strainstep}
        variable stretch equal 1+2*0.0005
        change_box all ${direction} scale ${stretch} remap
        change_box all y scale ${stretch} remap
        change_box all y scale 1.001 remap
  orthogonal box = (0 -0.612162 0) to (4.48985 16.1924 4.48985)
        min_style ${style}
        min_style hftn
        minimize ${etol} ${ftol} ${maxiter} ${maxeval}
        minimize 1e-12 ${ftol} ${maxiter} ${maxeval}
        minimize 1e-12 1e-08 ${maxiter} ${maxeval}
        minimize 1e-12 1e-08 10000 ${maxeval}
        minimize 1e-12 1e-08 10000 20000
WARNING: Resetting reneighboring criteria during minimization (../min.cpp:168)
Memory usage per processor = 4.9009 Mbytes
Step PotEng Pxx Pyy Pxy Lx Ly Lz 
       0   -1876.0202    1.4118421  -0.15475538 0.0057797286      4.48985    16.804579      4.48985 
       1   -1876.0521     1.462021 0.0011526083 -0.00041617638      4.48985    16.804579      4.48985 
       2   -1876.0521     1.462021 0.0011526083 -0.00041617638      4.48985    16.804579      4.48985 
       3   -1876.0521     1.462021 0.0011526083 -0.00041617638      4.48985    16.804579      4.48985 
       4   -1876.0521     1.462021 0.0011526083 -0.00041617638      4.48985    16.804579      4.48985 
       5   -1876.0521     1.462021 0.0011526083 -0.00041617638      4.48985    16.804579      4.48985 
       6   -1876.0521     1.462021 0.0011526083 -0.00041617638      4.48985    16.804579      4.48985 
       7   -1876.0521     1.462021 0.0011526083 -0.00041617638      4.48985    16.804579      4.48985 
       8   -1876.0521     1.462021 0.0011526083 -0.00041617638      4.48985    16.804579      4.48985 
       9   -1876.0521     1.462021 0.0011526083 -0.00041617638      4.48985    16.804579      4.48985 
      10   -1876.0521     1.462021 0.0011525975 -0.00041618181      4.48985    16.804579      4.48985 
Loop time of 0.084356 on 1 procs for 9 steps with 336 atoms

Minimization stats:
  Stopping criterion = energy tolerance
  Energy initial, next-to-last, final = 
        -1876.02018491     -1876.02018491     -1876.05210762
  Force two-norm initial, final = 1.30206 0.0959335
  Force max component initial, final = 0.186479 0.0089015
  Final line search alpha, max atom move = 0 0
  Iterations, force evaluations = 9 164

Pair  time (%) = 0.0735659 (87.2089)
Neigh time (%) = 0 (0)
Comm  time (%) = 0.00390951 (4.63454)
Outpt time (%) = 0.00347991 (4.12526)
Other time (%) = 0.00340067 (4.03133)

Nlocal:    336 ave 336 max 336 min
Histogram: 1 0 0 0 0 0 0 0 0 0
Nghost:    1110 ave 1110 max 1110 min
Histogram: 1 0 0 0 0 0 0 0 0 0
Neighs:    8504 ave 8504 max 8504 min
Histogram: 1 0 0 0 0 0 0 0 0 0

Total # of neighbors = 8504
Ave neighs/atom = 25.3095
Neighbor list builds = 0
Dangerous builds = 0
        next i
jump SELF loop1
        read_dump orig.dump 0 x y z
  orthogonal box = (0 -0.602089 0) to (4.48985 16.1824 4.48985)
  336 atoms before read
  336 atoms in snapshot
  0 atoms purged
  336 atoms replaced
  0 atoms trimmed
  0 atoms added
  336 atoms after read
        variable stretch equal 1+$i*${strainstep}
        variable stretch equal 1+3*${strainstep}
        variable stretch equal 1+3*0.0005
        change_box all ${direction} scale ${stretch} remap
        change_box all y scale ${stretch} remap
        change_box all y scale 1.0015 remap
  orthogonal box = (0 -0.616359 0) to (4.48985 16.1966 4.48985)
        min_style ${style}
        min_style hftn
        minimize ${etol} ${ftol} ${maxiter} ${maxeval}
        minimize 1e-12 ${ftol} ${maxiter} ${maxeval}
        minimize 1e-12 1e-08 ${maxiter} ${maxeval}
        minimize 1e-12 1e-08 10000 ${maxeval}
        minimize 1e-12 1e-08 10000 20000
WARNING: Resetting reneighboring criteria during minimization (../min.cpp:168)
Memory usage per processor = 4.9009 Mbytes
Step PotEng Pxx Pyy Pxy Lx Ly Lz 
       0   -1875.9886    1.3905702  -0.21846071 0.0082674908      4.48985    16.812973      4.48985 
       1   -1876.0521    1.4616811 0.0024160593 -0.00053436979      4.48985    16.812973      4.48985 
       2   -1876.0521    1.4616811 0.0024160593 -0.00053436979      4.48985    16.812973      4.48985 
       3   -1876.0521    1.4616811 0.0024160593 -0.00053436979      4.48985    16.812973      4.48985 
       4   -1876.0521     1.461703 0.0022462013 -0.00060701447      4.48985    16.812973      4.48985 
       5   -1876.0521     1.461703 0.0022462013 -0.00060701447      4.48985    16.812973      4.48985 
       6   -1876.0521     1.461703 0.0022462013 -0.00060701447      4.48985    16.812973      4.48985 
       7   -1876.0521     1.461703 0.0022462013 -0.00060701447      4.48985    16.812973      4.48985 
       8   -1876.0521     1.461703 0.0022462013 -0.00060701447      4.48985    16.812973      4.48985 
       9   -1876.0521     1.461703 0.0022462013 -0.00060701447      4.48985    16.812973      4.48985 
      10   -1876.0521     1.461703 0.0022462013 -0.00060701447      4.48985    16.812973      4.48985 
      11   -1876.0521     1.461703 0.0022462013 -0.00060701447      4.48985    16.812973      4.48985 
      12   -1876.0521     1.461703 0.0022461989 -0.00060701697      4.48985    16.812973      4.48985 
Loop time of 0.133589 on 1 procs for 11 steps with 336 atoms

Minimization stats:
  Stopping criterion = energy tolerance
  Energy initial, next-to-last, final = 
        -1875.98861397      -1876.0520969     -1876.05211522
  Force two-norm initial, final = 1.83721 0.0835398
  Force max component initial, final = 0.263391 0.00901736
  Final line search alpha, max atom move = 0 0
  Iterations, force evaluations = 11 184

Pair  time (%) = 0.10807 (80.8977)
Neigh time (%) = 0 (0)
Comm  time (%) = 0.0178913 (13.3928)
Outpt time (%) = 0.00399363 (2.98949)
Other time (%) = 0.00363358 (2.71997)

Nlocal:    336 ave 336 max 336 min
Histogram: 1 0 0 0 0 0 0 0 0 0
Nghost:    1110 ave 1110 max 1110 min
Histogram: 1 0 0 0 0 0 0 0 0 0
Neighs:    8504 ave 8504 max 8504 min
Histogram: 1 0 0 0 0 0 0 0 0 0

Total # of neighbors = 8504
Ave neighs/atom = 25.3095
Neighbor list builds = 0
Dangerous builds = 0
        next i
jump SELF loop1
        read_dump orig.dump 0 x y z
  orthogonal box = (0 -0.602089 0) to (4.48985 16.1824 4.48985)
  336 atoms before read
  336 atoms in snapshot
  0 atoms purged
  336 atoms replaced
  0 atoms trimmed
  0 atoms added
  336 atoms after read
        variable stretch equal 1+$i*${strainstep}
        variable stretch equal 1+4*${strainstep}
        variable stretch equal 1+4*0.0005
        change_box all ${direction} scale ${stretch} remap
        change_box all y scale ${stretch} remap
        change_box all y scale 1.002 remap
  orthogonal box = (0 -0.620556 0) to (4.48985 16.2008 4.48985)
        min_style ${style}
        min_style hftn
        minimize ${etol} ${ftol} ${maxiter} ${maxeval}
        minimize 1e-12 ${ftol} ${maxiter} ${maxeval}
        minimize 1e-12 1e-08 ${maxiter} ${maxeval}
        minimize 1e-12 1e-08 10000 ${maxeval}
        minimize 1e-12 1e-08 10000 20000
WARNING: Resetting reneighboring criteria during minimization (../min.cpp:168)
Memory usage per processor = 4.9009 Mbytes
Step PotEng Pxx Pyy Pxy Lx Ly Lz 
       0   -1875.9463     1.369436  -0.28170628  0.010785351      4.48985    16.821367      4.48985 
       1   -1876.0521    1.4614873 0.0042017498 -0.0007068938      4.48985    16.821367      4.48985 
       2   -1876.0521    1.4614873 0.0042017498 -0.0007068938      4.48985    16.821367      4.48985 
       3   -1876.0521    1.4614873 0.0042017498 -0.0007068938      4.48985    16.821367      4.48985 
       4   -1876.0521    1.4615221 0.0038631168 -0.00083469205      4.48985    16.821367      4.48985 
       5   -1876.0521    1.4615221 0.0038631168 -0.00083469205      4.48985    16.821367      4.48985 
       6   -1876.0521    1.4615221 0.0038631168 -0.00083469205      4.48985    16.821367      4.48985 
       7   -1876.0521    1.4615221 0.0038631168 -0.00083469205      4.48985    16.821367      4.48985 
       8   -1876.0521    1.4615221 0.0038631168 -0.00083469205      4.48985    16.821367      4.48985 
       9   -1876.0521    1.4615221 0.0038631168 -0.00083469205      4.48985    16.821367      4.48985 
      10   -1876.0521    1.4615221 0.0038631168 -0.00083469205      4.48985    16.821367      4.48985 
      11   -1876.0521    1.4615221 0.0038631168 -0.00083469205      4.48985    16.821367      4.48985 
      12   -1876.0521    1.4615221 0.0038631123 -0.00083469578      4.48985    16.821367      4.48985 
Loop time of 0.109814 on 1 procs for 11 steps with 336 atoms

Minimization stats:
  Stopping criterion = energy tolerance
  Energy initial, next-to-last, final = 
        -1875.94628774     -1876.05208136     -1876.05210849
  Force two-norm initial, final = 2.36878 0.128706
  Force max component initial, final = 0.33974 0.0134464
  Final line search alpha, max atom move = 0 0
  Iterations, force evaluations = 11 186

Pair  time (%) = 0.0748586 (68.1686)
Neigh time (%) = 0 (0)
Comm  time (%) = 0.00692851 (6.30932)
Outpt time (%) = 0.00602695 (5.48833)
Other time (%) = 0.0219999 (20.0338)

Nlocal:    336 ave 336 max 336 min
Histogram: 1 0 0 0 0 0 0 0 0 0
Nghost:    1110 ave 1110 max 1110 min
Histogram: 1 0 0 0 0 0 0 0 0 0
Neighs:    8504 ave 8504 max 8504 min
Histogram: 1 0 0 0 0 0 0 0 0 0

Total # of neighbors = 8504
Ave neighs/atom = 25.3095
Neighbor list builds = 0
Dangerous builds = 0
        next i
jump SELF loop1
        read_dump orig.dump 0 x y z
  orthogonal box = (0 -0.602089 0) to (4.48985 16.1824 4.48985)
  336 atoms before read
  336 atoms in snapshot
  0 atoms purged
  336 atoms replaced
  0 atoms trimmed
  0 atoms added
  336 atoms after read
        variable stretch equal 1+$i*${strainstep}
        variable stretch equal 1+5*${strainstep}
        variable stretch equal 1+5*0.0005
        change_box all ${direction} scale ${stretch} remap
        change_box all y scale ${stretch} remap
        change_box all y scale 1.0025 remap
  orthogonal box = (0 -0.624753 0) to (4.48985 16.205 4.48985)
        min_style ${style}
        min_style hftn
        minimize ${etol} ${ftol} ${maxiter} ${maxeval}
        minimize 1e-12 ${ftol} ${maxiter} ${maxeval}
        minimize 1e-12 1e-08 ${maxiter} ${maxeval}
        minimize 1e-12 1e-08 10000 ${maxeval}
        minimize 1e-12 1e-08 10000 20000
WARNING: Resetting reneighboring criteria during minimization (../min.cpp:168)
Memory usage per processor = 4.9009 Mbytes
Step PotEng Pxx Pyy Pxy Lx Ly Lz 
       0    -1875.893    1.3484374  -0.34447729  0.013340557      4.48985    16.829761      4.48985 
       1    -1876.052    1.4613888 0.0061643235 -0.00081320156      4.48985    16.829761      4.48985 
       2    -1876.052    1.4594704 -6.149223e-05 -2.347103e-06      4.48985    16.829761      4.48985 
       3    -1876.052    1.4594704 -6.149223e-05 -2.347103e-06      4.48985    16.829761      4.48985 
       4    -1876.052    1.4594704 -6.149223e-05 -2.347103e-06      4.48985    16.829761      4.48985 
       5    -1876.052    1.4594704 -6.149223e-05 -2.347103e-06      4.48985    16.829761      4.48985 
       6    -1876.052    1.4594704 -6.149223e-05 -2.347103e-06      4.48985    16.829761      4.48985 
       7    -1876.052    1.4594704 -6.149223e-05 -2.347103e-06      4.48985    16.829761      4.48985 
       8    -1876.052    1.4594704 -6.150375e-05 -2.3027667e-06      4.48985    16.829761      4.48985 
Loop time of 0.146683 on 1 procs for 7 steps with 336 atoms

Minimization stats:
  Stopping criterion = energy tolerance
  Energy initial, next-to-last, final = 
         -1875.8930455     -1876.05195096     -1876.05200296
  Force two-norm initial, final = 2.89662 0.0143181
  Force max component initial, final = 0.415476 0.00242653
  Final line search alpha, max atom move = 0 0
  Iterations, force evaluations = 7 232

Pair  time (%) = 0.108731 (74.1268)
Neigh time (%) = 0 (0)
Comm  time (%) = 0.0332118 (22.6419)
Outpt time (%) = 0.000628092 (0.428196)
Other time (%) = 0.00411175 (2.80315)

Nlocal:    336 ave 336 max 336 min
Histogram: 1 0 0 0 0 0 0 0 0 0
Nghost:    1110 ave 1110 max 1110 min
Histogram: 1 0 0 0 0 0 0 0 0 0
Neighs:    8504 ave 8504 max 8504 min
Histogram: 1 0 0 0 0 0 0 0 0 0

Total # of neighbors = 8504
Ave neighs/atom = 25.3095
Neighbor list builds = 0
Dangerous builds = 0
        next i
jump SELF loop1
        read_dump orig.dump 0 x y z
  orthogonal box = (0 -0.602089 0) to (4.48985 16.1824 4.48985)
  336 atoms before read
  336 atoms in snapshot
  0 atoms purged
  336 atoms replaced
  0 atoms trimmed
  0 atoms added
  336 atoms after read
        variable stretch equal 1+$i*${strainstep}
        variable stretch equal 1+6*${strainstep}
        variable stretch equal 1+6*0.0005
        change_box all ${direction} scale ${stretch} remap
        change_box all y scale ${stretch} remap
        change_box all y scale 1.003 remap
  orthogonal box = (0 -0.62895 0) to (4.48985 16.2092 4.48985)
        min_style ${style}
        min_style hftn
        minimize ${etol} ${ftol} ${maxiter} ${maxeval}
        minimize 1e-12 ${ftol} ${maxiter} ${maxeval}
        minimize 1e-12 1e-08 ${maxiter} ${maxeval}
        minimize 1e-12 1e-08 10000 ${maxeval}
        minimize 1e-12 1e-08 10000 20000
WARNING: Resetting reneighboring criteria during minimization (../min.cpp:168)
Memory usage per processor = 4.9009 Mbytes
Step PotEng Pxx Pyy Pxy Lx Ly Lz 
       0   -1875.8297     1.327571  -0.40681165  0.015932739      4.48985    16.838155      4.48985 
       1   -1876.0518    1.4617034 0.0091868129 -0.001029058      4.48985    16.838155      4.48985 
       2    -1876.052    1.4587256 -8.3800924e-05 -2.1167157e-05      4.48985    16.838155      4.48985 
       3    -1876.052    1.4587256 -8.3800924e-05 -2.1167157e-05      4.48985    16.838155      4.48985 
       4    -1876.052    1.4587256 -8.3800924e-05 -2.1167157e-05      4.48985    16.838155      4.48985 
       5    -1876.052    1.4587256 -8.3800924e-05 -2.1167157e-05      4.48985    16.838155      4.48985 
       6    -1876.052    1.4587256 -8.3800924e-05 -2.1167157e-05      4.48985    16.838155      4.48985 
       7    -1876.052    1.4587256 -8.3800924e-05 -2.1167157e-05      4.48985    16.838155      4.48985 
       8    -1876.052    1.4587257 -8.3807291e-05 -2.1093042e-05      4.48985    16.838155      4.48985 
Loop time of 0.099747 on 1 procs for 7 steps with 336 atoms

Minimization stats:
  Stopping criterion = energy tolerance
  Energy initial, next-to-last, final = 
        -1875.82965873     -1876.05178429     -1876.05200335
  Force two-norm initial, final = 3.42069 0.0181095
  Force max component initial, final = 0.490638 0.00292575
  Final line search alpha, max atom move = 0 0
  Iterations, force evaluations = 7 206

Pair  time (%) = 0.0841005 (84.3138)
Neigh time (%) = 0 (0)
Comm  time (%) = 0.0113419 (11.3707)
Outpt time (%) = 0.00058101 (0.582484)
Other time (%) = 0.00372354 (3.73299)

Nlocal:    336 ave 336 max 336 min
Histogram: 1 0 0 0 0 0 0 0 0 0
Nghost:    1110 ave 1110 max 1110 min
Histogram: 1 0 0 0 0 0 0 0 0 0
Neighs:    8504 ave 8504 max 8504 min
Histogram: 1 0 0 0 0 0 0 0 0 0

Total # of neighbors = 8504
Ave neighs/atom = 25.3095
Neighbor list builds = 0
Dangerous builds = 0
        next i
jump SELF loop1
        read_dump orig.dump 0 x y z
  orthogonal box = (0 -0.602089 0) to (4.48985 16.1824 4.48985)
  336 atoms before read
  336 atoms in snapshot
  0 atoms purged
  336 atoms replaced
  0 atoms trimmed
  0 atoms added
  336 atoms after read
        variable stretch equal 1+$i*${strainstep}
        variable stretch equal 1+7*${strainstep}
        variable stretch equal 1+7*0.0005
        change_box all ${direction} scale ${stretch} remap
        change_box all y scale ${stretch} remap
        change_box all y scale 1.0035 remap
  orthogonal box = (0 -0.633147 0) to (4.48985 16.2134 4.48985)
        min_style ${style}
        min_style hftn
        minimize ${etol} ${ftol} ${maxiter} ${maxeval}
        minimize 1e-12 ${ftol} ${maxiter} ${maxeval}
        minimize 1e-12 1e-08 ${maxiter} ${maxeval}
        minimize 1e-12 1e-08 10000 ${maxeval}
        minimize 1e-12 1e-08 10000 20000
WARNING: Resetting reneighboring criteria during minimization (../min.cpp:168)
Memory usage per processor = 4.9009 Mbytes
Step PotEng Pxx Pyy Pxy Lx Ly Lz 
       0   -1875.7553    1.3068422  -0.46867337  0.018549465      4.48985    16.846548      4.48985 
       1   -1876.0515    1.4616963  0.011713801 -0.0011975671      4.48985    16.846548      4.48985 
       2    -1876.052     1.458022 -5.0791976e-05 1.1350895e-06      4.48985    16.846548      4.48985 
       3    -1876.052     1.458022 -5.0791976e-05 1.1350895e-06      4.48985    16.846548      4.48985 
       4    -1876.052     1.458022 -5.0791976e-05 1.1350895e-06      4.48985    16.846548      4.48985 
       5    -1876.052     1.458022 -5.0791976e-05 1.1350895e-06      4.48985    16.846548      4.48985 
       6    -1876.052     1.458022 -5.0791976e-05 1.1350895e-06      4.48985    16.846548      4.48985 
       7    -1876.052     1.458022 -5.0791976e-05 1.1350895e-06      4.48985    16.846548      4.48985 
       8    -1876.052     1.458022 -5.0791976e-05 1.1350895e-06      4.48985    16.846548      4.48985 
       9    -1876.052     1.458022 -5.0792337e-05 1.1429813e-06      4.48985    16.846548      4.48985 
Loop time of 0.116546 on 1 procs for 8 steps with 336 atoms

Minimization stats:
  Stopping criterion = energy tolerance
  Energy initial, next-to-last, final = 
        -1875.75533088     -1876.05152697     -1876.05200369
  Force two-norm initial, final = 3.94095 0.0159564
  Force max component initial, final = 0.565233 0.00236234
  Final line search alpha, max atom move = 0 0
  Iterations, force evaluations = 8 237

Pair  time (%) = 0.0977605 (83.8815)
Neigh time (%) = 0 (0)
Comm  time (%) = 0.0102349 (8.7819)
Outpt time (%) = 0.00347321 (2.98012)
Other time (%) = 0.00507726 (4.35644)

Nlocal:    336 ave 336 max 336 min
Histogram: 1 0 0 0 0 0 0 0 0 0
Nghost:    1110 ave 1110 max 1110 min
Histogram: 1 0 0 0 0 0 0 0 0 0
Neighs:    8504 ave 8504 max 8504 min
Histogram: 1 0 0 0 0 0 0 0 0 0

Total # of neighbors = 8504
Ave neighs/atom = 25.3095
Neighbor list builds = 0
Dangerous builds = 0
        next i
jump SELF loop1
        read_dump orig.dump 0 x y z
  orthogonal box = (0 -0.602089 0) to (4.48985 16.1824 4.48985)
  336 atoms before read
  336 atoms in snapshot
  0 atoms purged
  336 atoms replaced
  0 atoms trimmed
  0 atoms added
  336 atoms after read
        variable stretch equal 1+$i*${strainstep}
        variable stretch equal 1+8*${strainstep}
        variable stretch equal 1+8*0.0005
        change_box all ${direction} scale ${stretch} remap
        change_box all y scale ${stretch} remap
        change_box all y scale 1.004 remap
  orthogonal box = (0 -0.637343 0) to (4.48985 16.2176 4.48985)
        min_style ${style}
        min_style hftn
        minimize ${etol} ${ftol} ${maxiter} ${maxeval}
        minimize 1e-12 ${ftol} ${maxiter} ${maxeval}
        minimize 1e-12 1e-08 ${maxiter} ${maxeval}
        minimize 1e-12 1e-08 10000 ${maxeval}
        minimize 1e-12 1e-08 10000 20000
WARNING: Resetting reneighboring criteria during minimization (../min.cpp:168)
Memory usage per processor = 4.9009 Mbytes
Step PotEng Pxx Pyy Pxy Lx Ly Lz 
       0   -1875.6711    1.2862338  -0.53010596  0.021216886      4.48985    16.854942      4.48985 
       1   -1876.0512    1.4624203   0.01621991 -0.0013484349      4.48985    16.854942      4.48985 
       2    -1876.052    1.4565093 -0.0014480844 -0.0017793439      4.48985    16.854942      4.48985 
       3    -1876.052    1.4573123 -3.568616e-06 2.4994427e-06      4.48985    16.854942      4.48985 
       4    -1876.052    1.4573134 5.1980448e-10 1.0396653e-09      4.48985    16.854942      4.48985 
       5    -1876.052    1.4573134 -6.5214596e-13 2.8662833e-12      4.48985    16.854942      4.48985 
Loop time of 0.176546 on 1 procs for 4 steps with 336 atoms

Minimization stats:
  Stopping criterion = force tolerance
  Energy initial, next-to-last, final = 
        -1875.67111397     -1876.05200027     -1876.05200048
  Force two-norm initial, final = 4.45812 2.10091e-10
  Force max component initial, final = 0.639337 5.15716e-11
  Final line search alpha, max atom move = 0 0
  Iterations, force evaluations = 4 376

Pair  time (%) = 0.155364 (88.0021)
Neigh time (%) = 0 (0)
Comm  time (%) = 0.0136601 (7.73741)
Outpt time (%) = 0.000302845 (0.171539)
Other time (%) = 0.00721892 (4.08898)

Nlocal:    336 ave 336 max 336 min
Histogram: 1 0 0 0 0 0 0 0 0 0
Nghost:    1110 ave 1110 max 1110 min
Histogram: 1 0 0 0 0 0 0 0 0 0
Neighs:    8504 ave 8504 max 8504 min
Histogram: 1 0 0 0 0 0 0 0 0 0

Total # of neighbors = 8504
Ave neighs/atom = 25.3095
Neighbor list builds = 0
Dangerous builds = 0
        next i
jump SELF loop1
        read_dump orig.dump 0 x y z
  orthogonal box = (0 -0.602089 0) to (4.48985 16.1824 4.48985)
  336 atoms before read
  336 atoms in snapshot
  0 atoms purged
  336 atoms replaced
  0 atoms trimmed
  0 atoms added
  336 atoms after read
        variable stretch equal 1+$i*${strainstep}
        variable stretch equal 1+9*${strainstep}
        variable stretch equal 1+9*0.0005
        change_box all ${direction} scale ${stretch} remap
        change_box all y scale ${stretch} remap
        change_box all y scale 1.0045 remap
  orthogonal box = (0 -0.64154 0) to (4.48985 16.2218 4.48985)
        min_style ${style}
        min_style hftn
        minimize ${etol} ${ftol} ${maxiter} ${maxeval}
        minimize 1e-12 ${ftol} ${maxiter} ${maxeval}
        minimize 1e-12 1e-08 ${maxiter} ${maxeval}
        minimize 1e-12 1e-08 10000 ${maxeval}
        minimize 1e-12 1e-08 10000 20000
WARNING: Resetting reneighboring criteria during minimization (../min.cpp:168)
Memory usage per processor = 4.9009 Mbytes
Step PotEng Pxx Pyy Pxy Lx Ly Lz 
       0   -1875.5761    1.2657548  -0.59110274  0.023910123      4.48985    16.863336      4.48985 
       1   -1876.0507     1.462858  0.019756568 -0.0016707706      4.48985    16.863336      4.48985 
       2    -1876.052    1.4556275 -0.0017530403 -0.0020831204      4.48985    16.863336      4.48985 
       3    -1876.052    1.4556275 -0.0017530403 -0.0020831204      4.48985    16.863336      4.48985 
       4    -1876.052    1.4556275 -0.0017530403 -0.0020831204      4.48985    16.863336      4.48985 
       5    -1876.052    1.4556275 -0.0017530403 -0.0020831204      4.48985    16.863336      4.48985 
       6    -1876.052    1.4556275 -0.0017530403 -0.0020831204      4.48985    16.863336      4.48985 
       7    -1876.052    1.4556275 -0.0017530403 -0.0020831204      4.48985    16.863336      4.48985 
       8    -1876.052    1.4556275 -0.0017530403 -0.0020831204      4.48985    16.863336      4.48985 
       9    -1876.052    1.4556275 -0.0017530403 -0.0020831204      4.48985    16.863336      4.48985 
      10    -1876.052    1.4556275 -0.0017530403 -0.0020831204      4.48985    16.863336      4.48985 
      11    -1876.052    1.4556275 -0.0017530403 -0.0020831204      4.48985    16.863336      4.48985 
      12    -1876.052    1.4556275 -0.0017530401 -0.0020831178      4.48985    16.863336      4.48985 
Loop time of 0.120189 on 1 procs for 11 steps with 336 atoms

Minimization stats:
  Stopping criterion = energy tolerance
  Energy initial, next-to-last, final = 
        -1875.57609553     -1876.05074893     -1876.05200714
  Force two-norm initial, final = 4.97053 0.0352118
  Force max component initial, final = 0.712852 0.00607734
  Final line search alpha, max atom move = 0 0
  Iterations, force evaluations = 11 248

Pair  time (%) = 0.107503 (89.4452)
Neigh time (%) = 0 (0)
Comm  time (%) = 0.00776664 (6.46202)
Outpt time (%) = 0.000675092 (0.561692)
Other time (%) = 0.00424393 (3.53105)

Nlocal:    336 ave 336 max 336 min
Histogram: 1 0 0 0 0 0 0 0 0 0
Nghost:    1110 ave 1110 max 1110 min
Histogram: 1 0 0 0 0 0 0 0 0 0
Neighs:    8504 ave 8504 max 8504 min
Histogram: 1 0 0 0 0 0 0 0 0 0

Total # of neighbors = 8504
Ave neighs/atom = 25.3095
Neighbor list builds = 0
Dangerous builds = 0
        next i
jump SELF loop1
        read_dump orig.dump 0 x y z
  orthogonal box = (0 -0.602089 0) to (4.48985 16.1824 4.48985)
  336 atoms before read
  336 atoms in snapshot
  0 atoms purged
  336 atoms replaced
  0 atoms trimmed
  0 atoms added
  336 atoms after read
        variable stretch equal 1+$i*${strainstep}
        variable stretch equal 1+10*${strainstep}
        variable stretch equal 1+10*0.0005
        change_box all ${direction} scale ${stretch} remap
        change_box all y scale ${stretch} remap
        change_box all y scale 1.005 remap
  orthogonal box = (0 -0.645737 0) to (4.48985 16.226 4.48985)
        min_style ${style}
        min_style hftn
        minimize ${etol} ${ftol} ${maxiter} ${maxeval}
        minimize 1e-12 ${ftol} ${maxiter} ${maxeval}
        minimize 1e-12 1e-08 ${maxiter} ${maxeval}
        minimize 1e-12 1e-08 10000 ${maxeval}
        minimize 1e-12 1e-08 10000 20000
WARNING: Resetting reneighboring criteria during minimization (../min.cpp:168)
Memory usage per processor = 4.9009 Mbytes
Step PotEng Pxx Pyy Pxy Lx Ly Lz 
       0   -1875.4716    1.2453816  -0.65169904  0.026676562      4.48985     16.87173      4.48985 
       1   -1876.0501    1.4631911  0.023928591 -0.002361676      4.48985     16.87173      4.48985 
       2    -1876.052    1.4557575 -0.0002565138 7.3820246e-05      4.48985     16.87173      4.48985 
       3    -1876.052     1.455869 1.2798793e-05 1.0823535e-05      4.48985     16.87173      4.48985 
       4    -1876.052     1.455869 1.2798793e-05 1.0823535e-05      4.48985     16.87173      4.48985 
       5    -1876.052     1.455869 1.2798793e-05 1.0823535e-05      4.48985     16.87173      4.48985 
       6    -1876.052    1.4558694 1.1454472e-05 1.1492939e-05      4.48985     16.87173      4.48985 
       7    -1876.052    1.4558694 1.1454472e-05 1.1492939e-05      4.48985     16.87173      4.48985 
       8    -1876.052    1.4558694 1.1454472e-05 1.1492939e-05      4.48985     16.87173      4.48985 
       9    -1876.052    1.4558694 1.1454472e-05 1.1492939e-05      4.48985     16.87173      4.48985 
      10    -1876.052    1.4558694 1.1454472e-05 1.1492939e-05      4.48985     16.87173      4.48985 
      11    -1876.052    1.4558694 1.1452642e-05 1.149462e-05      4.48985     16.87173      4.48985 
Loop time of 0.211462 on 1 procs for 10 steps with 336 atoms

Minimization stats:
  Stopping criterion = energy tolerance
  Energy initial, next-to-last, final = 
        -1875.47157907      -1876.0520012     -1876.05200152
  Force two-norm initial, final = 5.47916 0.00104898
  Force max component initial, final = 0.785909 0.000161073
  Final line search alpha, max atom move = 0 0
  Iterations, force evaluations = 10 337

Pair  time (%) = 0.173232 (81.9212)
Neigh time (%) = 0 (0)
Comm  time (%) = 0.0310749 (14.6952)
Outpt time (%) = 0.000966864 (0.457229)
Other time (%) = 0.00618803 (2.92631)

Nlocal:    336 ave 336 max 336 min
Histogram: 1 0 0 0 0 0 0 0 0 0
Nghost:    1110 ave 1110 max 1110 min
Histogram: 1 0 0 0 0 0 0 0 0 0
Neighs:    8504 ave 8504 max 8504 min
Histogram: 1 0 0 0 0 0 0 0 0 0

Total # of neighbors = 8504
Ave neighs/atom = 25.3095
Neighbor list builds = 0
Dangerous builds = 0
        next i
jump SELF loop1
        read_dump orig.dump 0 x y z
  orthogonal box = (0 -0.602089 0) to (4.48985 16.1824 4.48985)
  336 atoms before read
  336 atoms in snapshot
  0 atoms purged
  336 atoms replaced
  0 atoms trimmed
  0 atoms added
  336 atoms after read
        variable stretch equal 1+$i*${strainstep}
        variable stretch equal 1+11*${strainstep}
        variable stretch equal 1+11*0.0005
        change_box all ${direction} scale ${stretch} remap
        change_box all y scale ${stretch} remap
        change_box all y scale 1.0055 remap
  orthogonal box = (0 -0.649934 0) to (4.48985 16.2302 4.48985)
        min_style ${style}
        min_style hftn
        minimize ${etol} ${ftol} ${maxiter} ${maxeval}
        minimize 1e-12 ${ftol} ${maxiter} ${maxeval}
        minimize 1e-12 1e-08 ${maxiter} ${maxeval}
        minimize 1e-12 1e-08 10000 ${maxeval}
        minimize 1e-12 1e-08 10000 20000
WARNING: Resetting reneighboring criteria during minimization (../min.cpp:168)
Memory usage per processor = 4.9009 Mbytes
Step PotEng Pxx Pyy Pxy Lx Ly Lz 
       0   -1875.3556    1.2251258  -0.71186048  0.029493775      4.48985    16.880124      4.48985 
       1   -1876.0495    1.4640699  0.029006468 -0.0025940062      4.48985    16.880124      4.48985 
       2    -1876.052    1.4549949 -0.00025803188 -4.629681e-05      4.48985    16.880124      4.48985 
       3    -1876.052    1.4551445 9.3719633e-06 8.6890727e-06      4.48985    16.880124      4.48985 
       4    -1876.052    1.4551445 9.3719633e-06 8.6890727e-06      4.48985    16.880124      4.48985 
       5    -1876.052    1.4551445 9.3719633e-06 8.6890727e-06      4.48985    16.880124      4.48985 
       6    -1876.052    1.4551446 8.6308957e-06 9.1891783e-06      4.48985    16.880124      4.48985 
       7    -1876.052    1.4551446 8.6308957e-06 9.1891783e-06      4.48985    16.880124      4.48985 
       8    -1876.052    1.4551446 8.6308957e-06 9.1891783e-06      4.48985    16.880124      4.48985 
       9    -1876.052    1.4551446 8.6308957e-06 9.1891783e-06      4.48985    16.880124      4.48985 
      10    -1876.052    1.4551446 8.6308957e-06 9.1891783e-06      4.48985    16.880124      4.48985 
      11    -1876.052    1.4551446 8.6294346e-06 9.1908993e-06      4.48985    16.880124      4.48985 
Loop time of 0.164939 on 1 procs for 10 steps with 336 atoms

Minimization stats:
  Stopping criterion = energy tolerance
  Energy initial, next-to-last, final = 
        -1875.35556621      -1876.0520013     -1876.05200135
  Force two-norm initial, final = 5.98221 0.00122622
  Force max component initial, final = 0.858286 0.000167983
  Final line search alpha, max atom move = 0 0
  Iterations, force evaluations = 10 337

Pair  time (%) = 0.144164 (87.4042)
Neigh time (%) = 0 (0)
Comm  time (%) = 0.0131816 (7.99179)
Outpt time (%) = 0.000669094 (0.405661)
Other time (%) = 0.00692468 (4.19833)

Nlocal:    336 ave 336 max 336 min
Histogram: 1 0 0 0 0 0 0 0 0 0
Nghost:    1110 ave 1110 max 1110 min
Histogram: 1 0 0 0 0 0 0 0 0 0
Neighs:    8504 ave 8504 max 8504 min
Histogram: 1 0 0 0 0 0 0 0 0 0

Total # of neighbors = 8504
Ave neighs/atom = 25.3095
Neighbor list builds = 0
Dangerous builds = 0
        next i
jump SELF loop1
        read_dump orig.dump 0 x y z
  orthogonal box = (0 -0.602089 0) to (4.48985 16.1824 4.48985)
  336 atoms before read
  336 atoms in snapshot
  0 atoms purged
  336 atoms replaced
  0 atoms trimmed
  0 atoms added
  336 atoms after read
        variable stretch equal 1+$i*${strainstep}
        variable stretch equal 1+12*${strainstep}
        variable stretch equal 1+12*0.0005
        change_box all ${direction} scale ${stretch} remap
        change_box all y scale ${stretch} remap
        change_box all y scale 1.006 remap
  orthogonal box = (0 -0.654131 0) to (4.48985 16.2344 4.48985)
        min_style ${style}
        min_style hftn
        minimize ${etol} ${ftol} ${maxiter} ${maxeval}
        minimize 1e-12 ${ftol} ${maxiter} ${maxeval}
        minimize 1e-12 1e-08 ${maxiter} ${maxeval}
        minimize 1e-12 1e-08 10000 ${maxeval}
        minimize 1e-12 1e-08 10000 20000
WARNING: Resetting reneighboring criteria during minimization (../min.cpp:168)
Memory usage per processor = 4.9009 Mbytes
Step PotEng Pxx Pyy Pxy Lx Ly Lz 
       0   -1875.2305    1.2049728  -0.77163281  0.032379768      4.48985    16.888518      4.48985 
       1   -1876.0488    1.4650777  0.034277686 -0.0029751439      4.48985    16.888518      4.48985 
       2    -1876.052    1.4543453 -0.00022923005 0.00018328833      4.48985    16.888518      4.48985 
       3    -1876.052    1.4544254 1.7361153e-05 6.2602574e-06      4.48985    16.888518      4.48985 
       4    -1876.052    1.4544254 1.7361153e-05 6.2602574e-06      4.48985    16.888518      4.48985 
       5    -1876.052    1.4544254 1.7361153e-05 6.2602574e-06      4.48985    16.888518      4.48985 
       6    -1876.052    1.4544254 1.7361153e-05 6.2602574e-06      4.48985    16.888518      4.48985 
       7    -1876.052    1.4544254 1.7361153e-05 6.2602574e-06      4.48985    16.888518      4.48985 
       8    -1876.052    1.4544254 1.7361153e-05 6.2602574e-06      4.48985    16.888518      4.48985 
       9    -1876.052    1.4544254 1.7357951e-05 6.2668493e-06      4.48985    16.888518      4.48985 
Loop time of 0.158119 on 1 procs for 8 steps with 336 atoms

Minimization stats:
  Stopping criterion = energy tolerance
  Energy initial, next-to-last, final = 
        -1875.23052133     -1876.05198145     -1876.05200053
  Force two-norm initial, final = 6.48191 0.00209852
  Force max component initial, final = 0.930199 0.000454889
  Final line search alpha, max atom move = 0 0
  Iterations, force evaluations = 8 335

Pair  time (%) = 0.134058 (84.7827)
Neigh time (%) = 0 (0)
Comm  time (%) = 0.0159919 (10.1138)
Outpt time (%) = 0.00171126 (1.08226)
Other time (%) = 0.0063582 (4.02115)

Nlocal:    336 ave 336 max 336 min
Histogram: 1 0 0 0 0 0 0 0 0 0
Nghost:    1110 ave 1110 max 1110 min
Histogram: 1 0 0 0 0 0 0 0 0 0
Neighs:    8504 ave 8504 max 8504 min
Histogram: 1 0 0 0 0 0 0 0 0 0

Total # of neighbors = 8504
Ave neighs/atom = 25.3095
Neighbor list builds = 0
Dangerous builds = 0
        next i
jump SELF loop1
        read_dump orig.dump 0 x y z
  orthogonal box = (0 -0.602089 0) to (4.48985 16.1824 4.48985)
  336 atoms before read
  336 atoms in snapshot
  0 atoms purged
  336 atoms replaced
  0 atoms trimmed
  0 atoms added
  336 atoms after read
        variable stretch equal 1+$i*${strainstep}
        variable stretch equal 1+13*${strainstep}
        variable stretch equal 1+13*0.0005
        change_box all ${direction} scale ${stretch} remap
        change_box all y scale ${stretch} remap
        change_box all y scale 1.0065 remap
  orthogonal box = (0 -0.658328 0) to (4.48985 16.2386 4.48985)
        min_style ${style}
        min_style hftn
        minimize ${etol} ${ftol} ${maxiter} ${maxeval}
        minimize 1e-12 ${ftol} ${maxiter} ${maxeval}
        minimize 1e-12 1e-08 ${maxiter} ${maxeval}
        minimize 1e-12 1e-08 10000 ${maxeval}
        minimize 1e-12 1e-08 10000 20000
WARNING: Resetting reneighboring criteria during minimization (../min.cpp:168)
Memory usage per processor = 4.9009 Mbytes
Step PotEng Pxx Pyy Pxy Lx Ly Lz 
       0   -1875.0944    1.1849624  -0.83095066  0.035277679      4.48985    16.896912      4.48985 
       1   -1876.0479    1.4664824  0.040970005 -0.0031554773      4.48985    16.896912      4.48985 
       2    -1876.052    1.4535605 -0.00030542249 0.00010875025      4.48985    16.896912      4.48985 
       3    -1876.052    1.4537191 6.357629e-05 2.0254263e-05      4.48985    16.896912      4.48985 
       4    -1876.052    1.4537191 6.357629e-05 2.0254263e-05      4.48985    16.896912      4.48985 
       5    -1876.052    1.4537191 6.357629e-05 2.0254263e-05      4.48985    16.896912      4.48985 
       6    -1876.052    1.4537191 6.357629e-05 2.0254263e-05      4.48985    16.896912      4.48985 
       7    -1876.052    1.4537191 6.357629e-05 2.0254263e-05      4.48985    16.896912      4.48985 
       8    -1876.052    1.4537191 6.357629e-05 2.0254263e-05      4.48985    16.896912      4.48985 
       9    -1876.052    1.4537191 6.357629e-05 2.0254263e-05      4.48985    16.896912      4.48985 
      10    -1876.052    1.4537191 6.3573544e-05 2.0255713e-05      4.48985    16.896912      4.48985 
Loop time of 0.153703 on 1 procs for 9 steps with 336 atoms

Minimization stats:
  Stopping criterion = energy tolerance
  Energy initial, next-to-last, final = 
        -1875.09443275     -1876.05196483     -1876.05200262
  Force two-norm initial, final = 6.97721 0.00275997
  Force max component initial, final = 1.00148 0.000387608
  Final line search alpha, max atom move = 0 0
  Iterations, force evaluations = 9 328

Pair  time (%) = 0.137841 (89.6804)
Neigh time (%) = 0 (0)
Comm  time (%) = 0.00924089 (6.01217)
Outpt time (%) = 0.000701106 (0.456143)
Other time (%) = 0.00591953 (3.85128)

Nlocal:    336 ave 336 max 336 min
Histogram: 1 0 0 0 0 0 0 0 0 0
Nghost:    1110 ave 1110 max 1110 min
Histogram: 1 0 0 0 0 0 0 0 0 0
Neighs:    8504 ave 8504 max 8504 min
Histogram: 1 0 0 0 0 0 0 0 0 0

Total # of neighbors = 8504
Ave neighs/atom = 25.3095
Neighbor list builds = 0
Dangerous builds = 0
        next i
jump SELF loop1
        read_dump orig.dump 0 x y z
  orthogonal box = (0 -0.602089 0) to (4.48985 16.1824 4.48985)
  336 atoms before read
  336 atoms in snapshot
  0 atoms purged
  336 atoms replaced
  0 atoms trimmed
  0 atoms added
  336 atoms after read
        variable stretch equal 1+$i*${strainstep}
        variable stretch equal 1+14*${strainstep}
        variable stretch equal 1+14*0.0005
        change_box all ${direction} scale ${stretch} remap
        change_box all y scale ${stretch} remap
        change_box all y scale 1.007 remap
  orthogonal box = (0 -0.662525 0) to (4.48985 16.2428 4.48985)
        min_style ${style}
        min_style hftn
        minimize ${etol} ${ftol} ${maxiter} ${maxeval}
        minimize 1e-12 ${ftol} ${maxiter} ${maxeval}
        minimize 1e-12 1e-08 ${maxiter} ${maxeval}
        minimize 1e-12 1e-08 10000 ${maxeval}
        minimize 1e-12 1e-08 10000 20000
WARNING: Resetting reneighboring criteria during minimization (../min.cpp:168)
Memory usage per processor = 4.9009 Mbytes
Step PotEng Pxx Pyy Pxy Lx Ly Lz 
       0   -1874.9494    1.1650637  -0.88987827  0.038229367      4.48985    16.905306      4.48985 
       1   -1876.0469    1.4677114  0.047569548 -0.0032805943      4.48985    16.905306      4.48985 
       2    -1876.052    1.4528465 -0.00029732432 0.00010400905      4.48985    16.905306      4.48985 
       3    -1876.052    1.4530002 7.2860849e-05 1.894468e-05      4.48985    16.905306      4.48985 
       4    -1876.052    1.4530002 7.2860849e-05 1.894468e-05      4.48985    16.905306      4.48985 
       5    -1876.052    1.4530002 7.2860849e-05 1.894468e-05      4.48985    16.905306      4.48985 
       6    -1876.052    1.4530002 7.2860849e-05 1.894468e-05      4.48985    16.905306      4.48985 
       7    -1876.052    1.4530002 7.2860849e-05 1.894468e-05      4.48985    16.905306      4.48985 
       8    -1876.052    1.4530002 7.2860849e-05 1.894468e-05      4.48985    16.905306      4.48985 
       9    -1876.052    1.4530002 7.2842568e-05 1.8957972e-05      4.48985    16.905306      4.48985 
Loop time of 0.152736 on 1 procs for 8 steps with 336 atoms

Minimization stats:
  Stopping criterion = energy tolerance
  Energy initial, next-to-last, final = 
        -1874.94942092     -1876.05195733     -1876.05200197
  Force two-norm initial, final = 7.46989 0.00276406
  Force max component initial, final = 1.07236 0.000374059
  Final line search alpha, max atom move = 0 0
  Iterations, force evaluations = 8 327

Pair  time (%) = 0.128015 (83.8143)
Neigh time (%) = 0 (0)
Comm  time (%) = 0.0156893 (10.2721)
Outpt time (%) = 0.00145015 (0.949452)
Other time (%) = 0.00758194 (4.96408)

Nlocal:    336 ave 336 max 336 min
Histogram: 1 0 0 0 0 0 0 0 0 0
Nghost:    1110 ave 1110 max 1110 min
Histogram: 1 0 0 0 0 0 0 0 0 0
Neighs:    8504 ave 8504 max 8504 min
Histogram: 1 0 0 0 0 0 0 0 0 0

Total # of neighbors = 8504
Ave neighs/atom = 25.3095
Neighbor list builds = 0
Dangerous builds = 0
        next i
jump SELF loop1
        read_dump orig.dump 0 x y z
  orthogonal box = (0 -0.602089 0) to (4.48985 16.1824 4.48985)
  336 atoms before read
  336 atoms in snapshot
  0 atoms purged
  336 atoms replaced
  0 atoms trimmed
  0 atoms added
  336 atoms after read
        variable stretch equal 1+$i*${strainstep}
        variable stretch equal 1+15*${strainstep}
        variable stretch equal 1+15*0.0005
        change_box all ${direction} scale ${stretch} remap
        change_box all y scale ${stretch} remap
        change_box all y scale 1.0075 remap
  orthogonal box = (0 -0.666722 0) to (4.48985 16.247 4.48985)
        min_style ${style}
        min_style hftn
        minimize ${etol} ${ftol} ${maxiter} ${maxeval}
        minimize 1e-12 ${ftol} ${maxiter} ${maxeval}
        minimize 1e-12 1e-08 ${maxiter} ${maxeval}
        minimize 1e-12 1e-08 10000 ${maxeval}
        minimize 1e-12 1e-08 10000 20000
WARNING: Resetting reneighboring criteria during minimization (../min.cpp:168)
Memory usage per processor = 4.9009 Mbytes
Step PotEng Pxx Pyy Pxy Lx Ly Lz 
       0   -1874.7934    1.1453115  -0.94832503  0.041186752      4.48985      16.9137      4.48985 
       1   -1876.0456    1.4692846  0.054686703 -0.0036898073      4.48985      16.9137      4.48985 
       2    -1876.052    1.4521448 -0.00021603863 9.1652928e-05      4.48985      16.9137      4.48985 
       3    -1876.052    1.4522887 9.7547452e-05 2.6140918e-05      4.48985      16.9137      4.48985 
       4    -1876.052    1.4522887 9.7547452e-05 2.6140918e-05      4.48985      16.9137      4.48985 
       5    -1876.052    1.4522838 8.1746411e-05 2.4762914e-05      4.48985      16.9137      4.48985 
       6    -1876.052    1.4522838 8.1746411e-05 2.4762914e-05      4.48985      16.9137      4.48985 
       7    -1876.052    1.4522838 8.1746411e-05 2.4762914e-05      4.48985      16.9137      4.48985 
       8    -1876.052    1.4522838 8.1746411e-05 2.4762914e-05      4.48985      16.9137      4.48985 
       9    -1876.052    1.4522838 8.1746411e-05 2.4762914e-05      4.48985      16.9137      4.48985 
      10    -1876.052    1.4522838 8.1746411e-05 2.4762914e-05      4.48985      16.9137      4.48985 
      11    -1876.052    1.4522838 8.1746411e-05 2.4762914e-05      4.48985      16.9137      4.48985 
      12    -1876.052    1.4522838 8.1746086e-05 2.4762316e-05      4.48985      16.9137      4.48985 
Loop time of 0.174321 on 1 procs for 11 steps with 336 atoms

Minimization stats:
  Stopping criterion = energy tolerance
  Energy initial, next-to-last, final = 
        -1874.79335067     -1876.05200099     -1876.05200147
  Force two-norm initial, final = 7.95858 0.00162362
  Force max component initial, final = 1.14259 0.000218541
  Final line search alpha, max atom move = 0 0
  Iterations, force evaluations = 11 362

Pair  time (%) = 0.150422 (86.2904)
Neigh time (%) = 0 (0)
Comm  time (%) = 0.0165739 (9.50766)
Outpt time (%) = 0.000668754 (0.383633)
Other time (%) = 0.00665617 (3.81834)

Nlocal:    336 ave 336 max 336 min
Histogram: 1 0 0 0 0 0 0 0 0 0
Nghost:    1110 ave 1110 max 1110 min
Histogram: 1 0 0 0 0 0 0 0 0 0
Neighs:    8504 ave 8504 max 8504 min
Histogram: 1 0 0 0 0 0 0 0 0 0

Total # of neighbors = 8504
Ave neighs/atom = 25.3095
Neighbor list builds = 0
Dangerous builds = 0
        next i
jump SELF loop1
        read_dump orig.dump 0 x y z
  orthogonal box = (0 -0.602089 0) to (4.48985 16.1824 4.48985)
  336 atoms before read
  336 atoms in snapshot
  0 atoms purged
  336 atoms replaced
  0 atoms trimmed
  0 atoms added
  336 atoms after read
        variable stretch equal 1+$i*${strainstep}
        variable stretch equal 1+16*${strainstep}
        variable stretch equal 1+16*0.0005
        change_box all ${direction} scale ${stretch} remap
        change_box all y scale ${stretch} remap
        change_box all y scale 1.008 remap
  orthogonal box = (0 -0.670919 0) to (4.48985 16.2512 4.48985)
        min_style ${style}
        min_style hftn
        minimize ${etol} ${ftol} ${maxiter} ${maxeval}
        minimize 1e-12 ${ftol} ${maxiter} ${maxeval}
        minimize 1e-12 1e-08 ${maxiter} ${maxeval}
        minimize 1e-12 1e-08 10000 ${maxeval}
        minimize 1e-12 1e-08 10000 20000
WARNING: Resetting reneighboring criteria during minimization (../min.cpp:168)
Memory usage per processor = 4.9009 Mbytes
Step PotEng Pxx Pyy Pxy Lx Ly Lz 
       0   -1874.6284    1.1256722   -1.0063796  0.044197389      4.48985    16.922094      4.48985 
       1   -1876.0443     1.471195  0.062772147 -0.0039934823      4.48985    16.922094      4.48985 
       2   -1876.0519    1.4513675 -0.00028010816 0.00012770826      4.48985    16.922094      4.48985 
       3    -1876.052    1.4516594 0.00035936942 6.3130632e-05      4.48985    16.922094      4.48985 
       4    -1876.052    1.4516594 0.00035936942 6.3130632e-05      4.48985    16.922094      4.48985 
       5    -1876.052    1.4516485 0.00028579774 0.00010239547      4.48985    16.922094      4.48985 
       6    -1876.052    1.4516485 0.00028579774 0.00010239547      4.48985    16.922094      4.48985 
       7    -1876.052    1.4516485 0.00028579774 0.00010239547      4.48985    16.922094      4.48985 
       8    -1876.052     1.451648 0.00028135229 9.9580733e-05      4.48985    16.922094      4.48985 
       9    -1876.052     1.451648 0.00028135229 9.9580733e-05      4.48985    16.922094      4.48985 
      10    -1876.052     1.451648 0.00028135229 9.9580733e-05      4.48985    16.922094      4.48985 
      11    -1876.052     1.451648 0.00028135229 9.9580733e-05      4.48985    16.922094      4.48985 
      12    -1876.052     1.451648 0.00028135229 9.9580733e-05      4.48985    16.922094      4.48985 
      13    -1876.052     1.451648 0.00028134188 9.9570457e-05      4.48985    16.922094      4.48985 
Loop time of 0.166974 on 1 procs for 12 steps with 336 atoms

Minimization stats:
  Stopping criterion = energy tolerance
  Energy initial, next-to-last, final = 
        -1874.62835017     -1876.05200138     -1876.05200203
  Force two-norm initial, final = 8.44423 0.00250914
  Force max component initial, final = 1.21245 0.000385859
  Final line search alpha, max atom move = 0 0
  Iterations, force evaluations = 12 353

Pair  time (%) = 0.147154 (88.1298)
Neigh time (%) = 0 (0)
Comm  time (%) = 0.0103783 (6.21553)
Outpt time (%) = 0.00104508 (0.625894)
Other time (%) = 0.00839672 (5.02876)

Nlocal:    336 ave 336 max 336 min
Histogram: 1 0 0 0 0 0 0 0 0 0
Nghost:    1110 ave 1110 max 1110 min
Histogram: 1 0 0 0 0 0 0 0 0 0
Neighs:    8504 ave 8504 max 8504 min
Histogram: 1 0 0 0 0 0 0 0 0 0

Total # of neighbors = 8504
Ave neighs/atom = 25.3095
Neighbor list builds = 0
Dangerous builds = 0
        next i
jump SELF loop1
        read_dump orig.dump 0 x y z
  orthogonal box = (0 -0.602089 0) to (4.48985 16.1824 4.48985)
  336 atoms before read
  336 atoms in snapshot
  0 atoms purged
  336 atoms replaced
  0 atoms trimmed
  0 atoms added
  336 atoms after read
        variable stretch equal 1+$i*${strainstep}
        variable stretch equal 1+17*${strainstep}
        variable stretch equal 1+17*0.0005
        change_box all ${direction} scale ${stretch} remap
        change_box all y scale ${stretch} remap
        change_box all y scale 1.0085 remap
  orthogonal box = (0 -0.675116 0) to (4.48985 16.2554 4.48985)
        min_style ${style}
        min_style hftn
        minimize ${etol} ${ftol} ${maxiter} ${maxeval}
        minimize 1e-12 ${ftol} ${maxiter} ${maxeval}
        minimize 1e-12 1e-08 ${maxiter} ${maxeval}
        minimize 1e-12 1e-08 10000 ${maxeval}
        minimize 1e-12 1e-08 10000 20000
WARNING: Resetting reneighboring criteria during minimization (../min.cpp:168)
Memory usage per processor = 4.9009 Mbytes
Step PotEng Pxx Pyy Pxy Lx Ly Lz 
       0   -1874.4527    1.1061753   -1.0639699  0.047213286      4.48985    16.930487      4.48985 
       1   -1876.0423    1.4726745  0.069558848 -0.0044691066      4.48985    16.930487      4.48985 
       2    -1876.052    1.4493214 -0.0020398832 -0.0046281107      4.48985    16.930487      4.48985 
       3    -1876.052    1.4508118 1.0479715e-05 -4.1199499e-06      4.48985    16.930487      4.48985 
       4    -1876.052    1.4508108 -2.4325853e-09 1.9052354e-07      4.48985    16.930487      4.48985 
       5    -1876.052    1.4508108 -2.4325853e-09 1.9052354e-07      4.48985    16.930487      4.48985 
       6    -1876.052    1.4508107 -5.3010912e-09 1.7492582e-07      4.48985    16.930487      4.48985 
       7    -1876.052    1.4508107 2.4790933e-09 1.0552933e-07      4.48985    16.930487      4.48985 
       8    -1876.052    1.4508107 -6.3000202e-11 -3.7645079e-12      4.48985    16.930487      4.48985 
Loop time of 0.293506 on 1 procs for 7 steps with 336 atoms

Minimization stats:
  Stopping criterion = force tolerance
  Energy initial, next-to-last, final = 
        -1874.45265735      -1876.0519994     -1876.05200048
  Force two-norm initial, final = 8.92584 6.73356e-09
  Force max component initial, final = 1.28159 1.99236e-09
  Final line search alpha, max atom move = 0 0
  Iterations, force evaluations = 7 482

Pair  time (%) = 0.238838 (81.3742)
Neigh time (%) = 0 (0)
Comm  time (%) = 0.0282383 (9.62103)
Outpt time (%) = 0.0165593 (5.64191)
Other time (%) = 0.00987016 (3.36285)

Nlocal:    336 ave 336 max 336 min
Histogram: 1 0 0 0 0 0 0 0 0 0
Nghost:    1110 ave 1110 max 1110 min
Histogram: 1 0 0 0 0 0 0 0 0 0
Neighs:    8504 ave 8504 max 8504 min
Histogram: 1 0 0 0 0 0 0 0 0 0

Total # of neighbors = 8504
Ave neighs/atom = 25.3095
Neighbor list builds = 0
Dangerous builds = 0
        next i
jump SELF loop1
        read_dump orig.dump 0 x y z
  orthogonal box = (0 -0.602089 0) to (4.48985 16.1824 4.48985)
  336 atoms before read
  336 atoms in snapshot
  0 atoms purged
  336 atoms replaced
  0 atoms trimmed
  0 atoms added
  336 atoms after read
        variable stretch equal 1+$i*${strainstep}
        variable stretch equal 1+18*${strainstep}
        variable stretch equal 1+18*0.0005
        change_box all ${direction} scale ${stretch} remap
        change_box all y scale ${stretch} remap
        change_box all y scale 1.009 remap
  orthogonal box = (0 -0.679313 0) to (4.48985 16.2596 4.48985)
        min_style ${style}
        min_style hftn
        minimize ${etol} ${ftol} ${maxiter} ${maxeval}
        minimize 1e-12 ${ftol} ${maxiter} ${maxeval}
        minimize 1e-12 1e-08 ${maxiter} ${maxeval}
        minimize 1e-12 1e-08 10000 ${maxeval}
        minimize 1e-12 1e-08 10000 20000
WARNING: Resetting reneighboring criteria during minimization (../min.cpp:168)
Memory usage per processor = 4.9009 Mbytes
Step PotEng Pxx Pyy Pxy Lx Ly Lz 
       0    -1874.268     1.086789   -1.1211643  0.050280614      4.48985    16.938881      4.48985 
       1   -1876.0398      1.47521  0.079816117 -0.0044715333      4.48985    16.938881      4.48985 
       2   -1876.0519    1.4499006 -0.00038775572 0.00032214207      4.48985    16.938881      4.48985 
       3    -1876.052    1.4502083 0.00034146818 2.9944437e-05      4.48985    16.938881      4.48985 
       4    -1876.052    1.4502083 0.00034146818 2.9944437e-05      4.48985    16.938881      4.48985 
       5    -1876.052    1.4502083 0.00034146818 2.9944437e-05      4.48985    16.938881      4.48985 
       6    -1876.052    1.4502105 0.0003300161 3.7586538e-05      4.48985    16.938881      4.48985 
       7    -1876.052    1.4502105 0.0003300161 3.7586538e-05      4.48985    16.938881      4.48985 
       8    -1876.052    1.4502105 0.0003300161 3.7586538e-05      4.48985    16.938881      4.48985 
       9    -1876.052    1.4502105 0.0003300161 3.7586538e-05      4.48985    16.938881      4.48985 
      10    -1876.052    1.4502105 0.0003300161 3.7586538e-05      4.48985    16.938881      4.48985 
      11    -1876.052    1.4502105 0.00032999712 3.761079e-05      4.48985    16.938881      4.48985 
Loop time of 0.154194 on 1 procs for 10 steps with 336 atoms

Minimization stats:
  Stopping criterion = energy tolerance
  Energy initial, next-to-last, final = 
        -1874.26804589     -1876.05200166     -1876.05200223
  Force two-norm initial, final = 9.40471 0.00286025
  Force max component initial, final = 1.35035 0.000275309
  Final line search alpha, max atom move = 0 0
  Iterations, force evaluations = 10 321

Pair  time (%) = 0.136623 (88.6047)
Neigh time (%) = 0 (0)
Comm  time (%) = 0.0114546 (7.42867)
Outpt time (%) = 0.000545662 (0.35388)
Other time (%) = 0.00557059 (3.61272)

Nlocal:    336 ave 336 max 336 min
Histogram: 1 0 0 0 0 0 0 0 0 0
Nghost:    1110 ave 1110 max 1110 min
Histogram: 1 0 0 0 0 0 0 0 0 0
Neighs:    8504 ave 8504 max 8504 min
Histogram: 1 0 0 0 0 0 0 0 0 0

Total # of neighbors = 8504
Ave neighs/atom = 25.3095
Neighbor list builds = 0
Dangerous builds = 0
        next i
jump SELF loop1
        read_dump orig.dump 0 x y z
  orthogonal box = (0 -0.602089 0) to (4.48985 16.1824 4.48985)
  336 atoms before read
  336 atoms in snapshot
  0 atoms purged
  336 atoms replaced
  0 atoms trimmed
  0 atoms added
  336 atoms after read
        variable stretch equal 1+$i*${strainstep}
        variable stretch equal 1+19*${strainstep}
        variable stretch equal 1+19*0.0005
        change_box all ${direction} scale ${stretch} remap
        change_box all y scale ${stretch} remap
        change_box all y scale 1.0095 remap
  orthogonal box = (0 -0.68351 0) to (4.48985 16.2638 4.48985)
        min_style ${style}
        min_style hftn
        minimize ${etol} ${ftol} ${maxiter} ${maxeval}
        minimize 1e-12 ${ftol} ${maxiter} ${maxeval}
        minimize 1e-12 1e-08 ${maxiter} ${maxeval}
        minimize 1e-12 1e-08 10000 ${maxeval}
        minimize 1e-12 1e-08 10000 20000
WARNING: Resetting reneighboring criteria during minimization (../min.cpp:168)
Memory usage per processor = 4.9009 Mbytes
Step PotEng Pxx Pyy Pxy Lx Ly Lz 
       0    -1874.073     1.067543   -1.1779083  0.053347683      4.48985    16.947275      4.48985 
       1   -1876.0371    1.4775795  0.089538879 -0.0044222434      4.48985    16.947275      4.48985 
       2   -1876.0519    1.4477423 -0.0020418715 -0.0053392635      4.48985    16.947275      4.48985 
       3    -1876.052     1.449354 -4.0224221e-05 2.5766485e-05      4.48985    16.947275      4.48985 
       4    -1876.052    1.4493737 3.9438568e-07 1.2904071e-07      4.48985    16.947275      4.48985 
       5    -1876.052    1.4493736 -1.7273154e-14 1.9661015e-12      4.48985    16.947275      4.48985 
Loop time of 0.172112 on 1 procs for 4 steps with 336 atoms

Minimization stats:
  Stopping criterion = force tolerance
  Energy initial, next-to-last, final = 
        -1874.07300267     -1876.05199858     -1876.05200048
  Force two-norm initial, final = 9.87992 7.88458e-10
  Force max component initial, final = 1.41843 1.73736e-10
  Final line search alpha, max atom move = 0 0
  Iterations, force evaluations = 4 367

Pair  time (%) = 0.155251 (90.2037)
Neigh time (%) = 0 (0)
Comm  time (%) = 0.00991326 (5.75977)
Outpt time (%) = 0.000303248 (0.176192)
Other time (%) = 0.00664418 (3.86038)

Nlocal:    336 ave 336 max 336 min
Histogram: 1 0 0 0 0 0 0 0 0 0
Nghost:    1110 ave 1110 max 1110 min
Histogram: 1 0 0 0 0 0 0 0 0 0
Neighs:    8504 ave 8504 max 8504 min
Histogram: 1 0 0 0 0 0 0 0 0 0

Total # of neighbors = 8504
Ave neighs/atom = 25.3095
Neighbor list builds = 0
Dangerous builds = 0
        next i
jump SELF loop1
        read_dump orig.dump 0 x y z
  orthogonal box = (0 -0.602089 0) to (4.48985 16.1824 4.48985)
  336 atoms before read
  336 atoms in snapshot
  0 atoms purged
  336 atoms replaced
  0 atoms trimmed
  0 atoms added
  336 atoms after read
        variable stretch equal 1+$i*${strainstep}
        variable stretch equal 1+20*${strainstep}
        variable stretch equal 1+20*0.0005
        change_box all ${direction} scale ${stretch} remap
        change_box all y scale ${stretch} remap
        change_box all y scale 1.01 remap
  orthogonal box = (0 -0.687707 0) to (4.48985 16.268 4.48985)
        min_style ${style}
        min_style hftn
        minimize ${etol} ${ftol} ${maxiter} ${maxeval}
        minimize 1e-12 ${ftol} ${maxiter} ${maxeval}
        minimize 1e-12 1e-08 ${maxiter} ${maxeval}
        minimize 1e-12 1e-08 10000 ${maxeval}
        minimize 1e-12 1e-08 10000 20000
WARNING: Resetting reneighboring criteria during minimization (../min.cpp:168)
Memory usage per processor = 4.9009 Mbytes
Step PotEng Pxx Pyy Pxy Lx Ly Lz 
       0   -1873.8696     1.048404   -1.2342816  0.056465384      4.48985    16.955669      4.48985 
       1   -1876.0338    1.4805325   0.10001695 -0.0047103867      4.48985    16.955669      4.48985 
       2   -1876.0519    1.4470234 -0.0018460319 -0.0057890008      4.48985    16.955669      4.48985 
       3    -1876.052    1.4486412 -2.7780216e-05 2.3718452e-05      4.48985    16.955669      4.48985 
       4    -1876.052     1.448656 1.106328e-07 -7.8467661e-08      4.48985    16.955669      4.48985 
       5    -1876.052     1.448656 -7.5918477e-14 -1.989389e-13      4.48985    16.955669      4.48985 
Loop time of 0.174413 on 1 procs for 4 steps with 336 atoms

Minimization stats:
  Stopping criterion = force tolerance
  Energy initial, next-to-last, final = 
        -1873.86955642     -1876.05199921     -1876.05200048
  Force two-norm initial, final = 10.3521 6.37062e-10
  Force max component initial, final = 1.48622 7.89273e-11
  Final line search alpha, max atom move = 0 0
  Iterations, force evaluations = 4 375

Pair  time (%) = 0.151265 (86.7278)
Neigh time (%) = 0 (0)
Comm  time (%) = 0.0155075 (8.89124)
Outpt time (%) = 0.000610074 (0.349787)
Other time (%) = 0.0070309 (4.03118)

Nlocal:    336 ave 336 max 336 min
Histogram: 1 0 0 0 0 0 0 0 0 0
Nghost:    1110 ave 1110 max 1110 min
Histogram: 1 0 0 0 0 0 0 0 0 0
Neighs:    8504 ave 8504 max 8504 min
Histogram: 1 0 0 0 0 0 0 0 0 0

Total # of neighbors = 8504
Ave neighs/atom = 25.3095
Neighbor list builds = 0
Dangerous builds = 0
        next i
jump SELF loop1
        read_dump orig.dump 0 x y z
  orthogonal box = (0 -0.602089 0) to (4.48985 16.1824 4.48985)
  336 atoms before read
  336 atoms in snapshot
  0 atoms purged
  336 atoms replaced
  0 atoms trimmed
  0 atoms added
  336 atoms after read
        variable stretch equal 1+$i*${strainstep}
        variable stretch equal 1+21*${strainstep}
        variable stretch equal 1+21*0.0005
        change_box all ${direction} scale ${stretch} remap
        change_box all y scale ${stretch} remap
        change_box all y scale 1.0105 remap
  orthogonal box = (0 -0.691904 0) to (4.48985 16.2722 4.48985)
        min_style ${style}
        min_style hftn
        minimize ${etol} ${ftol} ${maxiter} ${maxeval}
        minimize 1e-12 ${ftol} ${maxiter} ${maxeval}
        minimize 1e-12 1e-08 ${maxiter} ${maxeval}
        minimize 1e-12 1e-08 10000 ${maxeval}
        minimize 1e-12 1e-08 10000 20000
WARNING: Resetting reneighboring criteria during minimization (../min.cpp:168)
Memory usage per processor = 4.9009 Mbytes
Step PotEng Pxx Pyy Pxy Lx Ly Lz 
       0   -1873.6554     1.029408   -1.2901851  0.059583218      4.48985    16.964063      4.48985 
       1   -1876.0309    1.4823159   0.10845729 -0.0049382369      4.48985    16.964063      4.48985 
       2   -1876.0518    1.4462632 -0.001755957 -0.006091859      4.48985    16.964063      4.48985 
       3    -1876.052    1.4479239 -3.019038e-05 2.3699676e-05      4.48985    16.964063      4.48985 
       4    -1876.052    1.4479394 3.6662706e-07 3.3722599e-08      4.48985    16.964063      4.48985 
       5    -1876.052    1.4479392 1.6578948e-13 -6.7714406e-13      4.48985    16.964063      4.48985 
Loop time of 0.173072 on 1 procs for 4 steps with 336 atoms

Minimization stats:
  Stopping criterion = force tolerance
  Energy initial, next-to-last, final = 
        -1873.65541255     -1876.05199903     -1876.05200048
  Force two-norm initial, final = 10.8206 6.21174e-10
  Force max component initial, final = 1.5533 7.55636e-11
  Final line search alpha, max atom move = 0 0
  Iterations, force evaluations = 4 371

Pair  time (%) = 0.155221 (89.6855)
Neigh time (%) = 0 (0)
Comm  time (%) = 0.010813 (6.24772)
Outpt time (%) = 0.000288932 (0.166943)
Other time (%) = 0.00674952 (3.89984)

Nlocal:    336 ave 336 max 336 min
Histogram: 1 0 0 0 0 0 0 0 0 0
Nghost:    1110 ave 1110 max 1110 min
Histogram: 1 0 0 0 0 0 0 0 0 0
Neighs:    8504 ave 8504 max 8504 min
Histogram: 1 0 0 0 0 0 0 0 0 0

Total # of neighbors = 8504
Ave neighs/atom = 25.3095
Neighbor list builds = 0
Dangerous builds = 0
        next i
jump SELF loop1
        read_dump orig.dump 0 x y z
  orthogonal box = (0 -0.602089 0) to (4.48985 16.1824 4.48985)
  336 atoms before read
  336 atoms in snapshot
  0 atoms purged
  336 atoms replaced
  0 atoms trimmed
  0 atoms added
  336 atoms after read
        variable stretch equal 1+$i*${strainstep}
        variable stretch equal 1+22*${strainstep}
        variable stretch equal 1+22*0.0005
        change_box all ${direction} scale ${stretch} remap
        change_box all y scale ${stretch} remap
        change_box all y scale 1.011 remap
  orthogonal box = (0 -0.696101 0) to (4.48985 16.2764 4.48985)
        min_style ${style}
        min_style hftn
        minimize ${etol} ${ftol} ${maxiter} ${maxeval}
        minimize 1e-12 ${ftol} ${maxiter} ${maxeval}
        minimize 1e-12 1e-08 ${maxiter} ${maxeval}
        minimize 1e-12 1e-08 10000 ${maxeval}
        minimize 1e-12 1e-08 10000 20000
WARNING: Resetting reneighboring criteria during minimization (../min.cpp:168)
Memory usage per processor = 4.9009 Mbytes
Step PotEng Pxx Pyy Pxy Lx Ly Lz 
       0   -1873.4327    1.0105164   -1.3457053  0.062758555      4.48985    16.972457      4.48985 
       1     -1875.74    1.4268822 -0.047158191  0.011316291      4.48985    16.972457      4.48985 
       2   -1876.0501    1.4473111 0.0084942671 -0.011303183      4.48985    16.972457      4.48985 
       3    -1876.052    1.4472079 -0.00010367121 1.0944198e-05      4.48985    16.972457      4.48985 
       4    -1876.052    1.4472079 -0.00010367121 1.0944198e-05      4.48985    16.972457      4.48985 
       5    -1876.052    1.4472079 -0.00010367121 1.0944198e-05      4.48985    16.972457      4.48985 
       6    -1876.052    1.4472079 -0.00010367121 1.0944198e-05      4.48985    16.972457      4.48985 
       7    -1876.052    1.4472079 -0.00010367121 1.0944198e-05      4.48985    16.972457      4.48985 
       8    -1876.052    1.4472079 -0.00010367121 1.0944198e-05      4.48985    16.972457      4.48985 
       9    -1876.052    1.4472079 -0.00010367121 1.0944198e-05      4.48985    16.972457      4.48985 
      10    -1876.052    1.4472079 -0.00010367121 1.0944198e-05      4.48985    16.972457      4.48985 
      11    -1876.052    1.4472079 -0.00010367151 1.0946126e-05      4.48985    16.972457      4.48985 
Loop time of 0.13417 on 1 procs for 10 steps with 336 atoms

Minimization stats:
  Stopping criterion = energy tolerance
  Energy initial, next-to-last, final = 
        -1873.43272979     -1876.05010733     -1876.05200403
  Force two-norm initial, final = 11.2863 0.0168432
  Force max component initial, final = 1.62008 0.00332879
  Final line search alpha, max atom move = 0 0
  Iterations, force evaluations = 10 275

Pair  time (%) = 0.11968 (89.2002)
Neigh time (%) = 0 (0)
Comm  time (%) = 0.00876247 (6.53087)
Outpt time (%) = 0.000799952 (0.596223)
Other time (%) = 0.00492764 (3.67268)

Nlocal:    336 ave 336 max 336 min
Histogram: 1 0 0 0 0 0 0 0 0 0
Nghost:    1110 ave 1110 max 1110 min
Histogram: 1 0 0 0 0 0 0 0 0 0
Neighs:    8504 ave 8504 max 8504 min
Histogram: 1 0 0 0 0 0 0 0 0 0

Total # of neighbors = 8504
Ave neighs/atom = 25.3095
Neighbor list builds = 0
Dangerous builds = 0
        next i
jump SELF loop1
        read_dump orig.dump 0 x y z
  orthogonal box = (0 -0.602089 0) to (4.48985 16.1824 4.48985)
  336 atoms before read
  336 atoms in snapshot
  0 atoms purged
  336 atoms replaced
  0 atoms trimmed
  0 atoms added
  336 atoms after read
        variable stretch equal 1+$i*${strainstep}
        variable stretch equal 1+23*${strainstep}
        variable stretch equal 1+23*0.0005
        change_box all ${direction} scale ${stretch} remap
        change_box all y scale ${stretch} remap
        change_box all y scale 1.0115 remap
  orthogonal box = (0 -0.700298 0) to (4.48985 16.2806 4.48985)
        min_style ${style}
        min_style hftn
        minimize ${etol} ${ftol} ${maxiter} ${maxeval}
        minimize 1e-12 ${ftol} ${maxiter} ${maxeval}
        minimize 1e-12 1e-08 ${maxiter} ${maxeval}
        minimize 1e-12 1e-08 10000 ${maxeval}
        minimize 1e-12 1e-08 10000 20000
WARNING: Resetting reneighboring criteria during minimization (../min.cpp:168)
Memory usage per processor = 4.9009 Mbytes
Step PotEng Pxx Pyy Pxy Lx Ly Lz 
       0   -1873.1997   0.99176871   -1.4007788  0.065928044      4.48985    16.980851      4.48985 
       1   -1875.7077    1.4269362 -0.044316264  0.012012901      4.48985    16.980851      4.48985 
       2   -1876.0498    1.4467786 0.0096768974  -0.01184616      4.48985    16.980851      4.48985 
       3    -1876.052    1.4464876 -0.00013408696 1.221072e-05      4.48985    16.980851      4.48985 
       4    -1876.052    1.4464876 -0.00013408696 1.221072e-05      4.48985    16.980851      4.48985 
       5    -1876.052    1.4464876 -0.00013408696 1.221072e-05      4.48985    16.980851      4.48985 
       6    -1876.052    1.4464876 -0.00013408696 1.221072e-05      4.48985    16.980851      4.48985 
       7    -1876.052    1.4464876 -0.00013408696 1.221072e-05      4.48985    16.980851      4.48985 
       8    -1876.052    1.4464876 -0.00013408696 1.221072e-05      4.48985    16.980851      4.48985 
       9    -1876.052    1.4464876 -0.00013408696 1.221072e-05      4.48985    16.980851      4.48985 
      10    -1876.052    1.4464876 -0.00013408696 1.221072e-05      4.48985    16.980851      4.48985 
      11    -1876.052    1.4464876 -0.00013408671 1.2212596e-05      4.48985    16.980851      4.48985 
Loop time of 0.179009 on 1 procs for 10 steps with 336 atoms

Minimization stats:
  Stopping criterion = energy tolerance
  Energy initial, next-to-last, final = 
         -1873.1997281     -1876.04984902     -1876.05200343
  Force two-norm initial, final = 11.7482 0.0174013
  Force max component initial, final = 1.68615 0.00335551
  Final line search alpha, max atom move = 0 0
  Iterations, force evaluations = 10 267

Pair  time (%) = 0.158468 (88.5251)
Neigh time (%) = 0 (0)
Comm  time (%) = 0.0142864 (7.98081)
Outpt time (%) = 0.00123167 (0.688046)
Other time (%) = 0.00502311 (2.80606)

Nlocal:    336 ave 336 max 336 min
Histogram: 1 0 0 0 0 0 0 0 0 0
Nghost:    1110 ave 1110 max 1110 min
Histogram: 1 0 0 0 0 0 0 0 0 0
Neighs:    8504 ave 8504 max 8504 min
Histogram: 1 0 0 0 0 0 0 0 0 0

Total # of neighbors = 8504
Ave neighs/atom = 25.3095
Neighbor list builds = 0
Dangerous builds = 0
        next i
jump SELF loop1
        read_dump orig.dump 0 x y z
  orthogonal box = (0 -0.602089 0) to (4.48985 16.1824 4.48985)
  336 atoms before read
  336 atoms in snapshot
  0 atoms purged
  336 atoms replaced
  0 atoms trimmed
  0 atoms added
  336 atoms after read
        variable stretch equal 1+$i*${strainstep}
        variable stretch equal 1+24*${strainstep}
        variable stretch equal 1+24*0.0005
        change_box all ${direction} scale ${stretch} remap
[...]
  0 atoms added
  336 atoms after read
        variable stretch equal 1+$i*${strainstep}
        variable stretch equal 1+95*${strainstep}
        variable stretch equal 1+95*0.0005
        change_box all ${direction} scale ${stretch} remap
        change_box all y scale ${stretch} remap
        change_box all y scale 1.0475 remap
  orthogonal box = (0 -1.00248 0) to (4.48985 16.5827 4.48985)
        min_style ${style}
        min_style hftn
        minimize ${etol} ${ftol} ${maxiter} ${maxeval}
        minimize 1e-12 ${ftol} ${maxiter} ${maxeval}
        minimize 1e-12 1e-08 ${maxiter} ${maxeval}
        minimize 1e-12 1e-08 10000 ${maxeval}
        minimize 1e-12 1e-08 10000 20000
WARNING: Resetting reneighboring criteria during minimization (../min.cpp:168)
Memory usage per processor = 4.90121 Mbytes
Step PotEng Pxx Pyy Pxy Lx Ly Lz 
       0   -1835.8329 -0.084936341    -4.467938   0.31958728      4.48985    17.585211      4.48985 
       1   -1841.1115  0.045761264   -3.6237199   0.18471408      4.48985    17.585211      4.48985 
       2   -1852.5136   0.37027167   -3.0181362   0.16330807      4.48985    17.585211      4.48985 
       3   -1858.4245   0.47183122   -2.5605941   0.10845561      4.48985    17.213998      4.48985 
       4   -1865.5192   0.82508336   -1.7573624  0.047037807      4.48985    17.213998      4.48985 
       5   -1870.5106   0.89583176   -1.5159813  0.064135312      4.48985    17.213998      4.48985 
       6   -1874.0482    1.2508621  -0.57198277 -0.014188114      4.48985    16.873453      4.48985 
       7   -1876.0164    1.4753632  0.081649101 -0.042721154      4.48985    16.873453      4.48985 
       8   -1876.0519    1.4556299 9.866408e-05 0.00025299832      4.48985    16.873453      4.48985 
       9    -1876.052    1.4557021 -4.01993e-05 9.7957724e-06      4.48985    16.873453      4.48985 
      10    -1876.052    1.4557146 1.5836044e-08 1.0991872e-09      4.48985    16.873453      4.48985 
      11    -1876.052    1.4557146 -1.5461542e-10 5.3804363e-11      4.48985    16.873453      4.48985 
Loop time of 0.238471 on 1 procs for 10 steps with 336 atoms

Minimization stats:
  Stopping criterion = force tolerance
  Energy initial, next-to-last, final = 
        -1835.83288925     -1876.05200047     -1876.05200048
  Force two-norm initial, final = 37.8409 6.14458e-09
  Force max component initial, final = 5.30163 1.36449e-09
  Final line search alpha, max atom move = 0 0
  Iterations, force evaluations = 10 488

Pair  time (%) = 0.208981 (87.6336)
Neigh time (%) = 0.000881939 (0.369831)
Comm  time (%) = 0.0183217 (7.68297)
Outpt time (%) = 0.000682886 (0.28636)
Other time (%) = 0.00960383 (4.02725)

Nlocal:    336 ave 336 max 336 min
Histogram: 1 0 0 0 0 0 0 0 0 0
Nghost:    1101 ave 1101 max 1101 min
Histogram: 1 0 0 0 0 0 0 0 0 0
Neighs:    8504 ave 8504 max 8504 min
Histogram: 1 0 0 0 0 0 0 0 0 0

Total # of neighbors = 8504
Ave neighs/atom = 25.3095
Neighbor list builds = 2
Dangerous builds = 0
        next i
jump SELF loop1
        read_dump orig.dump 0 x y z
  orthogonal box = (0 -0.602089 0) to (4.48985 16.1824 4.48985)
  336 atoms before read
  336 atoms in snapshot
  0 atoms purged
  336 atoms replaced
  0 atoms trimmed
  0 atoms added
  336 atoms after read
        variable stretch equal 1+$i*${strainstep}
        variable stretch equal 1+96*${strainstep}
        variable stretch equal 1+96*0.0005
        change_box all ${direction} scale ${stretch} remap
        change_box all y scale ${stretch} remap
        change_box all y scale 1.048 remap
  orthogonal box = (0 -1.00668 0) to (4.48985 16.5869 4.48985)
        min_style ${style}
        min_style hftn
        minimize ${etol} ${ftol} ${maxiter} ${maxeval}
        minimize 1e-12 ${ftol} ${maxiter} ${maxeval}
        minimize 1e-12 1e-08 ${maxiter} ${maxeval}
        minimize 1e-12 1e-08 10000 ${maxeval}
        minimize 1e-12 1e-08 10000 20000
WARNING: Resetting reneighboring criteria during minimization (../min.cpp:168)
Memory usage per processor = 4.90121 Mbytes
Step PotEng Pxx Pyy Pxy Lx Ly Lz 
       0    -1835.074 -0.096596484   -4.5007262   0.32309537      4.48985    17.593605      4.48985 
       1   -1840.4209  0.035105588     -3.65108   0.18515334      4.48985    17.593605      4.48985 
       2   -1852.0532   0.36204421   -3.0368058   0.16466002      4.48985    17.593605      4.48985 
       3   -1857.8943   0.45496502   -2.6063231   0.11184314      4.48985    17.222027      4.48985 
       4   -1865.1841   0.82796687    -1.772458  0.050408702      4.48985    17.222027      4.48985 
       5   -1871.6728    1.0366152   -1.0527203  0.045491025      4.48985    17.222027      4.48985 
       6   -1875.8867    1.5242351   0.20075244 -0.034377315      4.48985    16.761364      4.48985 
       7   -1876.0516     1.466844 0.0052267957 -0.00063949955      4.48985    16.761364      4.48985 
       8    -1876.052    1.4652837 -0.00029947907 -0.00028625684      4.48985    16.761364      4.48985 
       9    -1876.052    1.4652837 -0.00029947907 -0.00028625684      4.48985    16.761364      4.48985 
      10    -1876.052    1.4652837 -0.00029947907 -0.00028625684      4.48985    16.761364      4.48985 
      11    -1876.052    1.4652837 -0.00029947907 -0.00028625684      4.48985    16.761364      4.48985 
      12    -1876.052    1.4652837 -0.00029947907 -0.00028625684      4.48985    16.761364      4.48985 
      13    -1876.052    1.4652837 -0.00029947907 -0.00028625684      4.48985    16.761364      4.48985 
      14    -1876.052    1.4652837 -0.00029947907 -0.00028625684      4.48985    16.761364      4.48985 
      15    -1876.052    1.4652837 -0.00029947907 -0.00028625684      4.48985    16.761364      4.48985 
      16    -1876.052    1.4652837 -0.00029948933 -0.00028623958      4.48985    16.761364      4.48985 
Loop time of 0.179115 on 1 procs for 15 steps with 336 atoms

Minimization stats:
  Stopping criterion = energy tolerance
  Energy initial, next-to-last, final = 
        -1835.07400814     -1876.05159297     -1876.05200575
  Force two-norm initial, final = 38.1162 0.0383743
  Force max component initial, final = 5.33815 0.00764249
  Final line search alpha, max atom move = 0 0
  Iterations, force evaluations = 15 366

Pair  time (%) = 0.158217 (88.3327)
Neigh time (%) = 0.00113408 (0.633156)
Comm  time (%) = 0.0094794 (5.29236)
Outpt time (%) = 0.0033637 (1.87795)
Other time (%) = 0.00692067 (3.86381)

Nlocal:    336 ave 336 max 336 min
Histogram: 1 0 0 0 0 0 0 0 0 0
Nghost:    1101 ave 1101 max 1101 min
Histogram: 1 0 0 0 0 0 0 0 0 0
Neighs:    8504 ave 8504 max 8504 min
Histogram: 1 0 0 0 0 0 0 0 0 0

Total # of neighbors = 8504
Ave neighs/atom = 25.3095
Neighbor list builds = 2
Dangerous builds = 0
        next i
jump SELF loop1
        read_dump orig.dump 0 x y z
  orthogonal box = (0 -0.602089 0) to (4.48985 16.1824 4.48985)
  336 atoms before read
  336 atoms in snapshot
  0 atoms purged
  336 atoms replaced
  0 atoms trimmed
  0 atoms added
  336 atoms after read
        variable stretch equal 1+$i*${strainstep}
        variable stretch equal 1+97*${strainstep}
        variable stretch equal 1+97*0.0005
        change_box all ${direction} scale ${stretch} remap
        change_box all y scale ${stretch} remap
        change_box all y scale 1.0485 remap
  orthogonal box = (0 -1.01087 0) to (4.48985 16.5911 4.48985)
        min_style ${style}
        min_style hftn
        minimize ${etol} ${ftol} ${maxiter} ${maxeval}
        minimize 1e-12 ${ftol} ${maxiter} ${maxeval}
        minimize 1e-12 1e-08 ${maxiter} ${maxeval}
        minimize 1e-12 1e-08 10000 ${maxeval}
        minimize 1e-12 1e-08 10000 20000
WARNING: Resetting reneighboring criteria during minimization (../min.cpp:168)
Memory usage per processor = 4.90121 Mbytes
Step PotEng Pxx Pyy Pxy Lx Ly Lz 
       0   -1834.3097  -0.10820195   -4.5333102   0.32662888      4.48985    17.601999      4.48985 
       1   -1839.7208  0.024806727    -3.677568   0.18541261      4.48985    17.601999      4.48985 
       2   -1851.5949   0.35501266    -3.057324   0.16780748      4.48985    17.601999      4.48985 
       3   -1857.5023    0.4444508   -2.6329805   0.11312781      4.48985     17.22721      4.48985 
       4   -1864.9041   0.81851335   -1.7951297  0.055609131      4.48985     17.22721      4.48985 
       5   -1871.4026    1.0186795   -1.1407086  0.050594027      4.48985     17.22721      4.48985 
       6    -1875.895    1.5171739   0.18294302 -0.032016001      4.48985    16.761324      4.48985 
       7    -1876.051    1.4668545 0.0055102711 -0.00096563189      4.48985    16.761324      4.48985 
       8    -1876.052    1.4653914 -0.00015363308 0.00010551866      4.48985    16.761324      4.48985 
       9    -1876.052    1.4654525 1.5463123e-07 -6.1641465e-07      4.48985    16.761324      4.48985 
      10    -1876.052    1.4654525 1.5463123e-07 -6.1641465e-07      4.48985    16.761324      4.48985 
      11    -1876.052    1.4654525 1.5463123e-07 -6.1641465e-07      4.48985    16.761324      4.48985 
      12    -1876.052    1.4654525 1.5463123e-07 -6.1641465e-07      4.48985    16.761324      4.48985 
      13    -1876.052    1.4654525 1.5463123e-07 -6.1641465e-07      4.48985    16.761324      4.48985 
      14    -1876.052    1.4654525 1.5867965e-07 -6.1732207e-07      4.48985    16.761324      4.48985 
Loop time of 0.25628 on 1 procs for 13 steps with 336 atoms

Minimization stats:
  Stopping criterion = energy tolerance
  Energy initial, next-to-last, final = 
        -1834.30967316     -1876.05199776     -1876.05200063
  Force two-norm initial, final = 38.3899 0.000296087
  Force max component initial, final = 5.37441 3.97682e-05
  Final line search alpha, max atom move = 0 0
  Iterations, force evaluations = 13 512

Pair  time (%) = 0.206996 (80.7693)
Neigh time (%) = 0.000857863 (0.334736)
Comm  time (%) = 0.0306424 (11.9566)
Outpt time (%) = 0.00649447 (2.53413)
Other time (%) = 0.0112896 (4.40518)

Nlocal:    336 ave 336 max 336 min
Histogram: 1 0 0 0 0 0 0 0 0 0
Nghost:    1101 ave 1101 max 1101 min
Histogram: 1 0 0 0 0 0 0 0 0 0
Neighs:    8504 ave 8504 max 8504 min
Histogram: 1 0 0 0 0 0 0 0 0 0

Total # of neighbors = 8504
Ave neighs/atom = 25.3095
Neighbor list builds = 2
Dangerous builds = 0
        next i
jump SELF loop1
        read_dump orig.dump 0 x y z
  orthogonal box = (0 -0.602089 0) to (4.48985 16.1824 4.48985)
  336 atoms before read
  336 atoms in snapshot
  0 atoms purged
  336 atoms replaced
  0 atoms trimmed
  0 atoms added
  336 atoms after read
        variable stretch equal 1+$i*${strainstep}
        variable stretch equal 1+98*${strainstep}
        variable stretch equal 1+98*0.0005
        change_box all ${direction} scale ${stretch} remap
        change_box all y scale ${stretch} remap
        change_box all y scale 1.049 remap
  orthogonal box = (0 -1.01507 0) to (4.48985 16.5953 4.48985)
        min_style ${style}
        min_style hftn
        minimize ${etol} ${ftol} ${maxiter} ${maxeval}
        minimize 1e-12 ${ftol} ${maxiter} ${maxeval}
        minimize 1e-12 1e-08 ${maxiter} ${maxeval}
        minimize 1e-12 1e-08 10000 ${maxeval}
        minimize 1e-12 1e-08 10000 20000
WARNING: Resetting reneighboring criteria during minimization (../min.cpp:168)
Memory usage per processor = 4.90121 Mbytes
Step PotEng Pxx Pyy Pxy Lx Ly Lz 
       0   -1833.5398   -0.1197379    -4.565664     0.330179      4.48985    17.610393      4.48985 
       1   -1839.0147   0.01441664   -3.7041719   0.18579065      4.48985    17.610393      4.48985 
       2   -1851.1184   0.34742503   -3.0774117   0.16903964      4.48985    17.610393      4.48985 
       3   -1857.0452   0.42894725   -2.6654058   0.11233381      4.48985    17.233872      4.48985 
       4   -1864.6967   0.83083148   -1.7791781  0.052711523      4.48985    17.233872      4.48985 
       5   -1871.1477   0.99132603   -1.2300282  0.051663906      4.48985    17.233872      4.48985 
       6   -1875.6316     1.467148  0.049203854 -0.021842239      4.48985    16.790565      4.48985 
       7   -1876.0479    1.4610831 -0.0010861263 -0.0034940485      4.48985    16.790565      4.48985 
       8    -1876.052    1.4628221 -0.00017563972 1.9398117e-05      4.48985    16.790565      4.48985 
       9    -1876.052    1.4629022 2.4900308e-06 3.2262681e-07      4.48985    16.790565      4.48985 
      10    -1876.052    1.4629009 -4.4959566e-10 2.3800718e-11      4.48985    16.790565      4.48985 
      11    -1876.052    1.4629009 3.5976457e-12 1.0697938e-12      4.48985    16.790565      4.48985 
Loop time of 0.298738 on 1 procs for 10 steps with 336 atoms

Minimization stats:
  Stopping criterion = force tolerance
  Energy initial, next-to-last, final = 
        -1833.53980968     -1876.05200038     -1876.05200048
  Force two-norm initial, final = 38.6618 1.13561e-10
  Force max component initial, final = 5.4103 3.37278e-11
  Final line search alpha, max atom move = 0 0
  Iterations, force evaluations = 10 550

Pair  time (%) = 0.238644 (79.8839)
Neigh time (%) = 0.00439807 (1.47222)
Comm  time (%) = 0.02213 (7.40783)
Outpt time (%) = 0.0234942 (7.86448)
Other time (%) = 0.010072 (3.37153)

Nlocal:    336 ave 336 max 336 min
Histogram: 1 0 0 0 0 0 0 0 0 0
Nghost:    1101 ave 1101 max 1101 min
Histogram: 1 0 0 0 0 0 0 0 0 0
Neighs:    8504 ave 8504 max 8504 min
Histogram: 1 0 0 0 0 0 0 0 0 0

Total # of neighbors = 8504
Ave neighs/atom = 25.3095
Neighbor list builds = 2
Dangerous builds = 0
        next i
jump SELF loop1
        read_dump orig.dump 0 x y z
  orthogonal box = (0 -0.602089 0) to (4.48985 16.1824 4.48985)
  336 atoms before read
  336 atoms in snapshot
  0 atoms purged
  336 atoms replaced
  0 atoms trimmed
  0 atoms added
  336 atoms after read
        variable stretch equal 1+$i*${strainstep}
        variable stretch equal 1+99*${strainstep}
        variable stretch equal 1+99*0.0005
        change_box all ${direction} scale ${stretch} remap
        change_box all y scale ${stretch} remap
        change_box all y scale 1.0495 remap
  orthogonal box = (0 -1.01927 0) to (4.48985 16.5995 4.48985)
        min_style ${style}
        min_style hftn
        minimize ${etol} ${ftol} ${maxiter} ${maxeval}
        minimize 1e-12 ${ftol} ${maxiter} ${maxeval}
        minimize 1e-12 1e-08 ${maxiter} ${maxeval}
        minimize 1e-12 1e-08 10000 ${maxeval}
        minimize 1e-12 1e-08 10000 20000
WARNING: Resetting reneighboring criteria during minimization (../min.cpp:168)
Memory usage per processor = 4.90121 Mbytes
Step PotEng Pxx Pyy Pxy Lx Ly Lz 
       0   -1832.7644  -0.13120937   -4.5977751   0.33374368      4.48985    17.618787      4.48985 
       1    -1838.289  0.004711296   -3.7284931   0.18587297      4.48985    17.618787      4.48985 
       2   -1850.6785   0.34745084   -3.1489328   0.17543232      4.48985    17.315572      4.48985 
       3   -1856.6401   0.41533665   -2.6793525   0.11305835      4.48985    17.315572      4.48985 
       4   -1864.2989   0.81152042   -1.7986815  0.058375576      4.48985    17.315572      4.48985 
       5   -1870.7586   0.98670362   -1.3002053  0.048140056      4.48985    16.970188      4.48985 
       6    -1875.352    1.4340313 -0.033904287 -0.0089976499      4.48985    16.970188      4.48985 
       7   -1876.0338    1.4580859  0.040943066 -0.012869182      4.48985    16.970188      4.48985 
       8    -1876.052    1.4474128 0.00015487561 -5.111335e-05      4.48985    16.970188      4.48985 
       9    -1876.052    1.4473655 -0.00013329417 -5.6895728e-06      4.48985    16.970188      4.48985 
      10    -1876.052    1.4474166 -1.7602319e-07 -6.2423345e-08      4.48985    16.970188      4.48985 
      11    -1876.052    1.4474167 -2.0278249e-12 2.0452026e-12      4.48985    16.970188      4.48985 
Loop time of 0.269683 on 1 procs for 10 steps with 336 atoms

Minimization stats:
  Stopping criterion = force tolerance
  Energy initial, next-to-last, final = 
        -1832.76439155     -1876.05200012     -1876.05200048
  Force two-norm initial, final = 38.9323 5.48738e-10
  Force max component initial, final = 5.4459 8.39169e-11
  Final line search alpha, max atom move = 0 0
  Iterations, force evaluations = 10 555

Pair  time (%) = 0.235241 (87.2285)
Neigh time (%) = 0.00078098 (0.289592)
Comm  time (%) = 0.0213964 (7.93389)
Outpt time (%) = 0.00114714 (0.425367)
Other time (%) = 0.011118 (4.12263)

Nlocal:    336 ave 336 max 336 min
Histogram: 1 0 0 0 0 0 0 0 0 0
Nghost:    1101 ave 1101 max 1101 min
Histogram: 1 0 0 0 0 0 0 0 0 0
Neighs:    8496 ave 8496 max 8496 min
Histogram: 1 0 0 0 0 0 0 0 0 0

Total # of neighbors = 8496
Ave neighs/atom = 25.2857
Neighbor list builds = 2
Dangerous builds = 0
        next i
jump SELF loop1
        read_dump orig.dump 0 x y z
  orthogonal box = (0 -0.602089 0) to (4.48985 16.1824 4.48985)
  336 atoms before read
  336 atoms in snapshot
  0 atoms purged
  336 atoms replaced
  0 atoms trimmed
  0 atoms added
  336 atoms after read
        variable stretch equal 1+$i*${strainstep}
        variable stretch equal 1+100*${strainstep}
        variable stretch equal 1+100*0.0005
        change_box all ${direction} scale ${stretch} remap
        change_box all y scale ${stretch} remap
        change_box all y scale 1.05 remap
  orthogonal box = (0 -1.02346 0) to (4.48985 16.6037 4.48985)
        min_style ${style}
        min_style hftn
        minimize ${etol} ${ftol} ${maxiter} ${maxeval}
        minimize 1e-12 ${ftol} ${maxiter} ${maxeval}
        minimize 1e-12 1e-08 ${maxiter} ${maxeval}
        minimize 1e-12 1e-08 10000 ${maxeval}
        minimize 1e-12 1e-08 10000 20000
WARNING: Resetting reneighboring criteria during minimization (../min.cpp:168)
Memory usage per processor = 4.90121 Mbytes
Step PotEng Pxx Pyy Pxy Lx Ly Lz 
       0   -1831.9838  -0.14260431     -4.62964    0.3373098      4.48985    17.627181      4.48985 
       1   -1837.5784 -0.0057999231   -3.7557288   0.18630409      4.48985    17.627181      4.48985 
       2   -1850.1951   0.33970606   -3.1700884   0.17660551      4.48985    17.321046      4.48985 
       3   -1856.1725   0.40268512   -2.7165593   0.11385449      4.48985    17.321046      4.48985 
       4   -1863.9474   0.80456495   -1.8299591  0.063829734      4.48985    17.321046      4.48985 
       5   -1870.8231    0.9881966   -1.2917666  0.048822273      4.48985    16.970839      4.48985 
       6   -1875.3453    1.4296507 -0.035565236 -0.0018193658      4.48985    16.970839      4.48985 
       7   -1876.0329    1.4588308  0.043613859 -0.012860936      4.48985    16.970839      4.48985 
       8    -1876.052    1.4473058 -3.7182027e-05 0.00015780056      4.48985    16.970839      4.48985 
       9    -1876.052    1.4473293 -0.00010730953 5.4018401e-05      4.48985    16.970839      4.48985 
      10    -1876.052     1.447361 -1.4750394e-07 -8.1135996e-08      4.48985    16.970839      4.48985 
      11    -1876.052    1.4473611 -9.9825435e-12 -1.3431211e-13      4.48985    16.970839      4.48985 
Loop time of 0.283991 on 1 procs for 10 steps with 336 atoms

Minimization stats:
  Stopping criterion = force tolerance
  Energy initial, next-to-last, final = 
        -1831.98378055     -1876.05199828     -1876.05200048
  Force two-norm initial, final = 39.2009 3.52122e-10
  Force max component initial, final = 5.48114 3.53546e-11
  Final line search alpha, max atom move = 0 0
  Iterations, force evaluations = 10 603

Pair  time (%) = 0.253923 (89.4124)
Neigh time (%) = 0.0016608 (0.584806)
Comm  time (%) = 0.0162039 (5.70577)
Outpt time (%) = 0.000805906 (0.283779)
Other time (%) = 0.0113972 (4.01321)

Nlocal:    336 ave 336 max 336 min
Histogram: 1 0 0 0 0 0 0 0 0 0
Nghost:    1101 ave 1101 max 1101 min
Histogram: 1 0 0 0 0 0 0 0 0 0
Neighs:    8496 ave 8496 max 8496 min
Histogram: 1 0 0 0 0 0 0 0 0 0

Total # of neighbors = 8496
Ave neighs/atom = 25.2857
Neighbor list builds = 2
Dangerous builds = 0
        next i
jump SELF loop1

