LAMMPS (28 Jun 2014)
# attempt at getting tensile strain-stress curve for infinite slab

#file prefix
variable prefix string tension_V_brittle_twin
variable dumpfile string ${prefix}.*.dump
variable dumpfile string tension_V_brittle_twin.*.dump
variable restartfile string ${prefix}.*.equil
variable restartfile string tension_V_brittle_twin.*.equil

#Mass (g/mol)
variable m equal 1

# lattice constant (in Angstroms) and orientation of axes (given by lattice vectors)
variable rho equal 1.0
variable x1 equal 1
variable x2 equal 0
variable x3 equal 1
variable y1 equal 0
variable y2 equal 1
variable y3 equal 0
variable z1 equal -1
variable z2 equal 0
variable z3 equal 1
# length of lattice in different directions (using orientation of lattice vectors)
variable ax equal sqrt(${x1}*${x1}+${x2}*${x2}+${x3}*${x3})
variable ax equal sqrt(1*${x1}+${x2}*${x2}+${x3}*${x3})
variable ax equal sqrt(1*1+${x2}*${x2}+${x3}*${x3})
variable ax equal sqrt(1*1+0*${x2}+${x3}*${x3})
variable ax equal sqrt(1*1+0*0+${x3}*${x3})
variable ax equal sqrt(1*1+0*0+1*${x3})
variable ax equal sqrt(1*1+0*0+1*1)
variable ay equal sqrt(${y1}*${y1}+${y2}*${y2}+${y3}*${y3})
variable ay equal sqrt(0*${y1}+${y2}*${y2}+${y3}*${y3})
variable ay equal sqrt(0*0+${y2}*${y2}+${y3}*${y3})
variable ay equal sqrt(0*0+1*${y2}+${y3}*${y3})
variable ay equal sqrt(0*0+1*1+${y3}*${y3})
variable ay equal sqrt(0*0+1*1+0*${y3})
variable ay equal sqrt(0*0+1*1+0*0)
variable az equal sqrt(${z1}*${z1}+${z2}*${z2}+${z3}*${z3})
variable az equal sqrt(-1*${z1}+${z2}*${z2}+${z3}*${z3})
variable az equal sqrt(-1*-1+${z2}*${z2}+${z3}*${z3})
variable az equal sqrt(-1*-1+0*${z2}+${z3}*${z3})
variable az equal sqrt(-1*-1+0*0+${z3}*${z3})
variable az equal sqrt(-1*-1+0*0+1*${z3})
variable az equal sqrt(-1*-1+0*0+1*1)

# size of box in lattice units
variable lxpos equal 2
variable lxneg equal 0
variable lypos equal 10
variable lyneg equal 0
variable lzpos equal 2
variable lzneg equal 0

# Define minimization parameters and damping
variable etol equal 1.0e-12
variable ftol equal 1.0e-8
variable maxiter equal 10000
variable maxeval equal 20000
variable style string hftn

# boundary conditions
dimension	3
boundary	p s p
atom_style	atomic

# create geometry
units		lj
lattice         fcc ${rho} orient x 1 1 -2 orient y 1 1 1 orient z 1 -1 0 spacing ${ax} ${ay} ${az}
lattice         fcc 1 orient x 1 1 -2 orient y 1 1 1 orient z 1 -1 0 spacing ${ax} ${ay} ${az}
lattice         fcc 1 orient x 1 1 -2 orient y 1 1 1 orient z 1 -1 0 spacing 1.4142135623731 ${ay} ${az}
lattice         fcc 1 orient x 1 1 -2 orient y 1 1 1 orient z 1 -1 0 spacing 1.4142135623731 1 ${az}
lattice         fcc 1 orient x 1 1 -2 orient y 1 1 1 orient z 1 -1 0 spacing 1.4142135623731 1 1.4142135623731
Lattice spacing in x,y,z = 2.24492 1.5874 2.24492
region		myregion block ${lxneg} ${lxpos} ${lyneg} ${lypos} ${lzneg} ${lzpos} units lattice
region		myregion block 0 ${lxpos} ${lyneg} ${lypos} ${lzneg} ${lzpos} units lattice
region		myregion block 0 2 ${lyneg} ${lypos} ${lzneg} ${lzpos} units lattice
region		myregion block 0 2 0 ${lypos} ${lzneg} ${lzpos} units lattice
region		myregion block 0 2 0 10 ${lzneg} ${lzpos} units lattice
region		myregion block 0 2 0 10 0 ${lzpos} units lattice
region		myregion block 0 2 0 10 0 2 units lattice
create_box	1 myregion
Created orthogonal box = (0 0 0) to (4.48985 15.874 4.48985)
  1 by 1 by 1 MPI processor grid

region		upper block INF INF 0.01 INF INF INF
create_atoms	1 region upper
Created 316 atoms

region		lower block INF INF INF 0.01 INF INF
lattice         fcc ${rho} orient x 1 1 -2 orient y -1 -1 -1 orient z -1 1 0 spacing ${ax} ${ay} ${az}
lattice         fcc 1 orient x 1 1 -2 orient y -1 -1 -1 orient z -1 1 0 spacing ${ax} ${ay} ${az}
lattice         fcc 1 orient x 1 1 -2 orient y -1 -1 -1 orient z -1 1 0 spacing 1.4142135623731 ${ay} ${az}
lattice         fcc 1 orient x 1 1 -2 orient y -1 -1 -1 orient z -1 1 0 spacing 1.4142135623731 1 ${az}
lattice         fcc 1 orient x 1 1 -2 orient y -1 -1 -1 orient z -1 1 0 spacing 1.4142135623731 1 1.4142135623731
Lattice spacing in x,y,z = 2.24492 1.5874 2.24492
create_atoms	1 region lower
Created 20 atoms

# define masses
mass * $m
mass * 1

# my fake/morse potential
pair_style      table linear 3001
pair_coeff      * * vpotential_inter13d dummy
neighbor	0.3 bin
neigh_modify	delay 5

# Setup output
thermo 1
thermo_style custom step pe pxx pyy pxy lx ly lz
thermo_modify norm no

# Compute initial state by relaxing box
min_style ${style}
min_style hftn
minimize ${etol} ${ftol} ${maxiter} ${maxeval}
minimize 1e-12 ${ftol} ${maxiter} ${maxeval}
minimize 1e-12 1e-08 ${maxiter} ${maxeval}
minimize 1e-12 1e-08 10000 ${maxeval}
minimize 1e-12 1e-08 10000 20000
WARNING: Resetting reneighboring criteria during minimization (../min.cpp:168)
Memory usage per processor = 4.90059 Mbytes
Step PotEng Pxx Pyy Pxy Lx Ly Lz 
       0    37246.409    1007.2293  -0.39033615   0.50231765    4.4898482    15.583444    4.4898482 
       1    12130.907    415.95418   0.27542983   0.62063381    4.4898482    15.583444    4.4898482 
       2    3206.0898     174.5068    1.1064527    0.8445612    4.4898482    15.583444    4.4898482 
       3    90.601035    78.478181    2.1256476    1.1486308    4.4898482    15.583444    4.4898482 
       4    90.601035    78.477278    2.1256232    1.1486176    4.4898482    15.583623    4.4898482 
       5   -893.97454    43.454312    3.1445211    1.4542282    4.4898482    15.583623    4.4898482 
       6   -1376.9877    25.639056    3.6943769    1.1993481    4.4898482    15.583623    4.4898482 
       7   -1493.0126    21.281156    4.1279369   0.38960852    4.4898482    15.583623    4.4898482 
       8   -1525.4043    19.535643    3.9985017   0.25565586    4.4898482    15.583623    4.4898482 
       9   -1539.7362    18.540386    3.8637301   0.28858881    4.4898482    15.859605    4.4898482 
      10   -1558.2237    16.858059    4.0446451   0.18114835    4.4898482    15.859605    4.4898482 
      11   -1568.3996    16.442823    3.9790211   0.11411883    4.4898482    15.859605    4.4898482 
      12   -1584.7148    14.708437    3.9607614  -0.12974094    4.4898482    16.214188    4.4898482 
      13    -1593.813    14.234972    3.9588782 -0.022688044    4.4898482    16.214188    4.4898482 
      14   -1608.3524    12.923509    3.9333137  -0.25533772    4.4898482    16.214188    4.4898482 
      15   -1616.2591    12.468015    3.9458542 -0.093462275    4.4898482    16.214188    4.4898482 
      16   -1629.2478    10.991031    3.7727367  -0.30168278    4.4898482    16.580216    4.4898482 
      17   -1665.1521      8.60956    3.6278866    0.1058679    4.4898482    16.580216    4.4898482 
      18    -1682.033    7.3004234    3.7239702  -0.20454825    4.4898482    16.580216    4.4898482 
      19   -1729.2218     5.068704    3.3698267   0.55149896    4.4898482    16.846067    4.4898482 
      20   -1765.1754     3.627986    2.8394441  0.099196606    4.4898482    16.846067    4.4898482 
      21   -1796.0419    2.7531833    2.3737061   0.32791733    4.4898482    16.846067    4.4898482 
      22    -1827.006    2.0871058     1.515357 -0.053989542    4.4898482    16.853891    4.4898482 
      23   -1854.5727    1.9004175   0.86491272  -0.46907545    4.4898482    16.853891    4.4898482 
      24   -1869.8079    1.5810751   0.56051141  -0.42713484    4.4898482    16.790409    4.4898482 
      25   -1875.8566    1.4597937  0.077457467 -0.060127402    4.4898482    16.790409    4.4898482 
      26   -1876.1551    1.4508906 0.0078697739 0.0013827911    4.4898482    16.790409    4.4898482 
      27   -1876.1565    1.4483647  5.65426e-05 7.3378829e-06    4.4898482    16.790409    4.4898482 
      28   -1876.1565    1.4483647  5.65426e-05 7.3378829e-06    4.4898482    16.790409    4.4898482 
      29   -1876.1565    1.4483626 5.1939411e-05 2.0068027e-06    4.4898482    16.790409    4.4898482 
Loop time of 0.354106 on 1 procs for 28 steps with 336 atoms

Minimization stats:
  Stopping criterion = energy tolerance
  Energy initial, next-to-last, final = 
         37246.4091636     -1876.15508609     -1876.15646491
  Force two-norm initial, final = 107408 0.00292653
  Force max component initial, final = 10964.3 0.000451635
  Final line search alpha, max atom move = 0 0
  Iterations, force evaluations = 28 527

Pair  time (%) = 0.304429 (85.971)
Neigh time (%) = 0.00304384 (0.859583)
Comm  time (%) = 0.0353901 (9.9942)
Outpt time (%) = 0.00181228 (0.51179)
Other time (%) = 0.00943118 (2.66338)

Nlocal:    336 ave 336 max 336 min
Histogram: 1 0 0 0 0 0 0 0 0 0
Nghost:    1101 ave 1101 max 1101 min
Histogram: 1 0 0 0 0 0 0 0 0 0
Neighs:    8488 ave 8488 max 8488 min
Histogram: 1 0 0 0 0 0 0 0 0 0

Total # of neighbors = 8488
Ave neighs/atom = 25.2619
Neighbor list builds = 8
Dangerous builds = 1
reset_timestep 0
write_dump all atom orig.dump

# Energy curve will have nstep steps
variable strainmax equal 0.05
variable strainstep equal 0.0005
variable nsteps equal round(${strainmax}/${strainstep})
variable nsteps equal round(0.05/${strainstep})
variable nsteps equal round(0.05/0.0005)
variable direction string y

variable i loop ${nsteps}
variable i loop 100
label loop1
        read_dump orig.dump 0 x y z
  orthogonal box = (0 -0.603507 0) to (4.48985 16.1837 4.48985)
  336 atoms before read
  336 atoms in snapshot
  0 atoms purged
  336 atoms replaced
  0 atoms trimmed
  0 atoms added
  336 atoms after read
        variable stretch equal 1+$i*${strainstep}
        variable stretch equal 1+1*${strainstep}
        variable stretch equal 1+1*0.0005
        change_box all ${direction} scale ${stretch} remap
        change_box all y scale ${stretch} remap
        change_box all y scale 1.0005 remap
  orthogonal box = (0 -0.609383 0) to (4.48985 16.1896 4.48985)
        min_style ${style}
        min_style hftn
        minimize ${etol} ${ftol} ${maxiter} ${maxeval}
        minimize 1e-12 ${ftol} ${maxiter} ${maxeval}
        minimize 1e-12 1e-08 ${maxiter} ${maxeval}
        minimize 1e-12 1e-08 10000 ${maxeval}
        minimize 1e-12 1e-08 10000 20000
WARNING: Resetting reneighboring criteria during minimization (../min.cpp:168)
Memory usage per processor = 4.9009 Mbytes
Step PotEng Pxx Pyy Pxy Lx Ly Lz 
       0   -1876.1461    1.4190822 -0.088990553 0.0031694341      4.48985    16.798997      4.48985 
       1   -1876.1567    1.4476786 0.00037909306 0.00013707852      4.48985    16.798997      4.48985 
       2   -1876.1567    1.4476786 0.00037909306 0.00013707852      4.48985    16.798997      4.48985 
       3   -1876.1567    1.4476516 0.00032099905 2.3174769e-05      4.48985    16.798997      4.48985 
       4   -1876.1567    1.4476516 0.00032099905 2.3174769e-05      4.48985    16.798997      4.48985 
       5   -1876.1567    1.4476516 0.00032099905 2.3174769e-05      4.48985    16.798997      4.48985 
       6   -1876.1567    1.4476516 0.00032099905 2.3174769e-05      4.48985    16.798997      4.48985 
       7   -1876.1567    1.4476516 0.00032099905 2.3174769e-05      4.48985    16.798997      4.48985 
       8   -1876.1567    1.4476516 0.00032099905 2.3174769e-05      4.48985    16.798997      4.48985 
       9   -1876.1567    1.4476515 0.00032092242 2.308307e-05      4.48985    16.798997      4.48985 
Loop time of 0.082972 on 1 procs for 8 steps with 336 atoms

Minimization stats:
  Stopping criterion = energy tolerance
  Energy initial, next-to-last, final = 
        -1876.14606228     -1876.15670203     -1876.15670767
  Force two-norm initial, final = 0.782994 0.0302101
  Force max component initial, final = 0.110614 0.00487052
  Final line search alpha, max atom move = 0 0
  Iterations, force evaluations = 8 165

Pair  time (%) = 0.0741542 (89.3726)
Neigh time (%) = 0 (0)
Comm  time (%) = 0.00441877 (5.32562)
Outpt time (%) = 0.00111709 (1.34635)
Other time (%) = 0.00328192 (3.95545)

Nlocal:    336 ave 336 max 336 min
Histogram: 1 0 0 0 0 0 0 0 0 0
Nghost:    1101 ave 1101 max 1101 min
Histogram: 1 0 0 0 0 0 0 0 0 0
Neighs:    8504 ave 8504 max 8504 min
Histogram: 1 0 0 0 0 0 0 0 0 0

Total # of neighbors = 8504
Ave neighs/atom = 25.3095
Neighbor list builds = 0
Dangerous builds = 0
        next i
jump SELF loop1
        read_dump orig.dump 0 x y z
  orthogonal box = (0 -0.603507 0) to (4.48985 16.1837 4.48985)
  336 atoms before read
  336 atoms in snapshot
  0 atoms purged
  336 atoms replaced
  0 atoms trimmed
  0 atoms added
  336 atoms after read
        variable stretch equal 1+$i*${strainstep}
        variable stretch equal 1+2*${strainstep}
        variable stretch equal 1+2*0.0005
        change_box all ${direction} scale ${stretch} remap
        change_box all y scale ${stretch} remap
        change_box all y scale 1.001 remap
  orthogonal box = (0 -0.613581 0) to (4.48985 16.1938 4.48985)
        min_style ${style}
        min_style hftn
        minimize ${etol} ${ftol} ${maxiter} ${maxeval}
        minimize 1e-12 ${ftol} ${maxiter} ${maxeval}
        minimize 1e-12 1e-08 ${maxiter} ${maxeval}
        minimize 1e-12 1e-08 10000 ${maxeval}
        minimize 1e-12 1e-08 10000 20000
WARNING: Resetting reneighboring criteria during minimization (../min.cpp:168)
Memory usage per processor = 4.9009 Mbytes
Step PotEng Pxx Pyy Pxy Lx Ly Lz 
       0   -1876.1255     1.398131  -0.15222516 0.0054949343      4.48985    16.807392      4.48985 
       1   -1876.1567    1.4471819 0.0010770751 0.0002139658      4.48985    16.807392      4.48985 
       2   -1876.1567    1.4466485 -0.00035477029 -0.00017735661      4.48985    16.807392      4.48985 
       3   -1876.1567    1.4466485 -0.00035477029 -0.00017735661      4.48985    16.807392      4.48985 
       4   -1876.1567    1.4466485 -0.00035477029 -0.00017735661      4.48985    16.807392      4.48985 
       5   -1876.1567    1.4466599 -0.00032624459 -0.00017388171      4.48985    16.807392      4.48985 
       6   -1876.1567    1.4466599 -0.00032624459 -0.00017388171      4.48985    16.807392      4.48985 
       7   -1876.1567    1.4466599 -0.00032624459 -0.00017388171      4.48985    16.807392      4.48985 
       8   -1876.1567    1.4466599 -0.00032624459 -0.00017388171      4.48985    16.807392      4.48985 
       9   -1876.1567    1.4466599 -0.00032624459 -0.00017388171      4.48985    16.807392      4.48985 
      10   -1876.1567    1.4466599 -0.00032624459 -0.00017388171      4.48985    16.807392      4.48985 
      11   -1876.1567    1.4466599 -0.00032624459 -0.00017388171      4.48985    16.807392      4.48985 
      12   -1876.1567    1.4466599 -0.0003262414 -0.0001738818      4.48985    16.807392      4.48985 
Loop time of 0.130301 on 1 procs for 11 steps with 336 atoms

Minimization stats:
  Stopping criterion = energy tolerance
  Energy initial, next-to-last, final = 
         -1876.1254789     -1876.15668687     -1876.15668974
  Force two-norm initial, final = 1.33845 0.00242019
  Force max component initial, final = 0.18816 0.000258365
  Final line search alpha, max atom move = 0 0
  Iterations, force evaluations = 11 264

Pair  time (%) = 0.117994 (90.5547)
Neigh time (%) = 0 (0)
Comm  time (%) = 0.00654234 (5.02094)
Outpt time (%) = 0.0014859 (1.14036)
Other time (%) = 0.00427908 (3.284)

Nlocal:    336 ave 336 max 336 min
Histogram: 1 0 0 0 0 0 0 0 0 0
Nghost:    1101 ave 1101 max 1101 min
Histogram: 1 0 0 0 0 0 0 0 0 0
Neighs:    8504 ave 8504 max 8504 min
Histogram: 1 0 0 0 0 0 0 0 0 0

Total # of neighbors = 8504
Ave neighs/atom = 25.3095
Neighbor list builds = 0
Dangerous builds = 0
        next i
jump SELF loop1
        read_dump orig.dump 0 x y z
  orthogonal box = (0 -0.603507 0) to (4.48985 16.1837 4.48985)
  336 atoms before read
  336 atoms in snapshot
  0 atoms purged
  336 atoms replaced
  0 atoms trimmed
  0 atoms added
  336 atoms after read
        variable stretch equal 1+$i*${strainstep}
        variable stretch equal 1+3*${strainstep}
        variable stretch equal 1+3*0.0005
        change_box all ${direction} scale ${stretch} remap
        change_box all y scale ${stretch} remap
        change_box all y scale 1.0015 remap
  orthogonal box = (0 -0.617778 0) to (4.48985 16.198 4.48985)
        min_style ${style}
        min_style hftn
        minimize ${etol} ${ftol} ${maxiter} ${maxeval}
        minimize 1e-12 ${ftol} ${maxiter} ${maxeval}
        minimize 1e-12 1e-08 ${maxiter} ${maxeval}
        minimize 1e-12 1e-08 10000 ${maxeval}
        minimize 1e-12 1e-08 10000 20000
WARNING: Resetting reneighboring criteria during minimization (../min.cpp:168)
Memory usage per processor = 4.9009 Mbytes
Step PotEng Pxx Pyy Pxy Lx Ly Lz 
       0   -1876.0942    1.3773203  -0.21500124 0.0078497668      4.48985    16.815787      4.48985 
       1   -1876.1566    1.4469104 0.0024337869 0.00038173378      4.48985    16.815787      4.48985 
       2   -1876.1567    1.4458725 -0.0003771213 -0.00040283714      4.48985    16.815787      4.48985 
       3   -1876.1567    1.4458725 -0.0003771213 -0.00040283714      4.48985    16.815787      4.48985 
       4   -1876.1567    1.4458725 -0.0003771213 -0.00040283714      4.48985    16.815787      4.48985 
       5   -1876.1567    1.4458725 -0.0003771213 -0.00040283714      4.48985    16.815787      4.48985 
       6   -1876.1567    1.4458725 -0.0003771213 -0.00040283714      4.48985    16.815787      4.48985 
       7   -1876.1567    1.4458725 -0.0003771213 -0.00040283714      4.48985    16.815787      4.48985 
       8   -1876.1567    1.4458725 -0.0003771213 -0.00040283714      4.48985    16.815787      4.48985 
       9   -1876.1567    1.4458725 -0.0003771213 -0.00040283714      4.48985    16.815787      4.48985 
      10   -1876.1567    1.4458725 -0.0003771213 -0.00040283714      4.48985    16.815787      4.48985 
      11   -1876.1567    1.4458725 -0.00037711959 -0.00040283694      4.48985    16.815787      4.48985 
Loop time of 0.163671 on 1 procs for 10 steps with 336 atoms

Minimization stats:
  Stopping criterion = energy tolerance
  Energy initial, next-to-last, final = 
        -1876.09422536     -1876.15661099     -1876.15669907
  Force two-norm initial, final = 1.89005 0.00668469
  Force max component initial, final = 0.265227 0.000854646
  Final line search alpha, max atom move = 0 0
  Iterations, force evaluations = 10 259

Pair  time (%) = 0.120994 (73.9249)
Neigh time (%) = 0 (0)
Comm  time (%) = 0.00918328 (5.61082)
Outpt time (%) = 0.0200901 (12.2747)
Other time (%) = 0.013404 (8.18962)

Nlocal:    336 ave 336 max 336 min
Histogram: 1 0 0 0 0 0 0 0 0 0
Nghost:    1101 ave 1101 max 1101 min
Histogram: 1 0 0 0 0 0 0 0 0 0
Neighs:    8504 ave 8504 max 8504 min
Histogram: 1 0 0 0 0 0 0 0 0 0

Total # of neighbors = 8504
Ave neighs/atom = 25.3095
Neighbor list builds = 0
Dangerous builds = 0
        next i
jump SELF loop1
        read_dump orig.dump 0 x y z
  orthogonal box = (0 -0.603507 0) to (4.48985 16.1837 4.48985)
  336 atoms before read
  336 atoms in snapshot
  0 atoms purged
  336 atoms replaced
  0 atoms trimmed
  0 atoms added
  336 atoms after read
        variable stretch equal 1+$i*${strainstep}
        variable stretch equal 1+4*${strainstep}
        variable stretch equal 1+4*0.0005
        change_box all ${direction} scale ${stretch} remap
        change_box all y scale ${stretch} remap
        change_box all y scale 1.002 remap
  orthogonal box = (0 -0.621976 0) to (4.48985 16.2022 4.48985)
        min_style ${style}
        min_style hftn
        minimize ${etol} ${ftol} ${maxiter} ${maxeval}
        minimize 1e-12 ${ftol} ${maxiter} ${maxeval}
        minimize 1e-12 1e-08 ${maxiter} ${maxeval}
        minimize 1e-12 1e-08 10000 ${maxeval}
        minimize 1e-12 1e-08 10000 20000
WARNING: Resetting reneighboring criteria during minimization (../min.cpp:168)
Memory usage per processor = 4.9009 Mbytes
Step PotEng Pxx Pyy Pxy Lx Ly Lz 
       0   -1876.0528    1.3566357  -0.27734004  0.010243692      4.48985    16.824182      4.48985 
       1   -1876.1565    1.4468321 0.0043946089 0.00056987804      4.48985    16.824182      4.48985 
       2   -1876.1567    1.4451193 -0.0003321774 -0.00060176423      4.48985    16.824182      4.48985 
       3   -1876.1567    1.4451193 -0.0003321774 -0.00060176423      4.48985    16.824182      4.48985 
       4   -1876.1567    1.4451193 -0.0003321774 -0.00060176423      4.48985    16.824182      4.48985 
       5   -1876.1567    1.4451193 -0.0003321774 -0.00060176423      4.48985    16.824182      4.48985 
       6   -1876.1567     1.445122 -0.00032834474 -0.00059781276      4.48985    16.824182      4.48985 
       7   -1876.1567     1.445122 -0.00032834474 -0.00059781276      4.48985    16.824182      4.48985 
       8   -1876.1567     1.445122 -0.00032834474 -0.00059781276      4.48985    16.824182      4.48985 
       9   -1876.1567     1.445122 -0.00032834474 -0.00059781276      4.48985    16.824182      4.48985 
      10   -1876.1567     1.445122 -0.00032834474 -0.00059781276      4.48985    16.824182      4.48985 
      11   -1876.1567     1.445122 -0.00032834474 -0.00059781276      4.48985    16.824182      4.48985 
      12   -1876.1567     1.445122 -0.00032834319 -0.00059780953      4.48985    16.824182      4.48985 
Loop time of 0.156279 on 1 procs for 11 steps with 336 atoms

Minimization stats:
  Stopping criterion = energy tolerance
  Energy initial, next-to-last, final = 
        -1876.05284239     -1876.15670182     -1876.15670349
  Force two-norm initial, final = 2.43805 0.00601667
  Force max component initial, final = 0.341587 0.00111316
  Final line search alpha, max atom move = 0 0
  Iterations, force evaluations = 11 256

Pair  time (%) = 0.132405 (84.7234)
Neigh time (%) = 0 (0)
Comm  time (%) = 0.0147556 (9.4418)
Outpt time (%) = 0.00467736 (2.99295)
Other time (%) = 0.00444125 (2.84187)

Nlocal:    336 ave 336 max 336 min
Histogram: 1 0 0 0 0 0 0 0 0 0
Nghost:    1101 ave 1101 max 1101 min
Histogram: 1 0 0 0 0 0 0 0 0 0
Neighs:    8504 ave 8504 max 8504 min
Histogram: 1 0 0 0 0 0 0 0 0 0

Total # of neighbors = 8504
Ave neighs/atom = 25.3095
Neighbor list builds = 0
Dangerous builds = 0
        next i
jump SELF loop1
        read_dump orig.dump 0 x y z
  orthogonal box = (0 -0.603507 0) to (4.48985 16.1837 4.48985)
  336 atoms before read
  336 atoms in snapshot
  0 atoms purged
  336 atoms replaced
  0 atoms trimmed
  0 atoms added
  336 atoms after read
        variable stretch equal 1+$i*${strainstep}
        variable stretch equal 1+5*${strainstep}
        variable stretch equal 1+5*0.0005
        change_box all ${direction} scale ${stretch} remap
        change_box all y scale ${stretch} remap
        change_box all y scale 1.0025 remap
  orthogonal box = (0 -0.626174 0) to (4.48985 16.2064 4.48985)
        min_style ${style}
        min_style hftn
        minimize ${etol} ${ftol} ${maxiter} ${maxeval}
        minimize 1e-12 ${ftol} ${maxiter} ${maxeval}
        minimize 1e-12 1e-08 ${maxiter} ${maxeval}
        minimize 1e-12 1e-08 10000 ${maxeval}
        minimize 1e-12 1e-08 10000 20000
WARNING: Resetting reneighboring criteria during minimization (../min.cpp:168)
Memory usage per processor = 4.9009 Mbytes
Step PotEng Pxx Pyy Pxy Lx Ly Lz 
       0   -1876.0004    1.3360941  -0.33920216  0.012667267      4.48985    16.832578      4.48985 
       1   -1876.1564    1.4467188 0.0062710086 0.00061283484      4.48985    16.832578      4.48985 
       2   -1876.1567      1.44436 -0.00033280623 -0.00078390852      4.48985    16.832578      4.48985 
       3   -1876.1567      1.44436 -0.00033280623 -0.00078390852      4.48985    16.832578      4.48985 
       4   -1876.1567      1.44436 -0.00033280623 -0.00078390852      4.48985    16.832578      4.48985 
       5   -1876.1567    1.4443688 -0.00033346199 -0.00074162809      4.48985    16.832578      4.48985 
       6   -1876.1567    1.4443688 -0.00033346199 -0.00074162809      4.48985    16.832578      4.48985 
       7   -1876.1567    1.4443688 -0.00033346199 -0.00074162809      4.48985    16.832578      4.48985 
       8   -1876.1567    1.4443688 -0.00033346199 -0.00074162809      4.48985    16.832578      4.48985 
       9   -1876.1567    1.4443688 -0.00033346199 -0.00074162809      4.48985    16.832578      4.48985 
      10   -1876.1567    1.4443688 -0.00033346199 -0.00074162809      4.48985    16.832578      4.48985 
      11   -1876.1567    1.4443688 -0.00033346199 -0.00074162809      4.48985    16.832578      4.48985 
      12   -1876.1567    1.4443688 -0.00033346199 -0.00074162809      4.48985    16.832578      4.48985 
      13   -1876.1567    1.4443688 -0.00033346103 -0.00074162707      4.48985    16.832578      4.48985 
Loop time of 0.137712 on 1 procs for 12 steps with 336 atoms

Minimization stats:
  Stopping criterion = energy tolerance
  Energy initial, next-to-last, final = 
        -1876.00042855     -1876.15670715     -1876.15670782
  Force two-norm initial, final = 2.98222 0.00734231
  Force max component initial, final = 0.417576 0.000847226
  Final line search alpha, max atom move = 0 0
  Iterations, force evaluations = 12 275

Pair  time (%) = 0.118952 (86.3774)
Neigh time (%) = 0 (0)
Comm  time (%) = 0.0133679 (9.70716)
Outpt time (%) = 0.000814641 (0.591554)
Other time (%) = 0.0045774 (3.32389)

Nlocal:    336 ave 336 max 336 min
Histogram: 1 0 0 0 0 0 0 0 0 0
Nghost:    1101 ave 1101 max 1101 min
Histogram: 1 0 0 0 0 0 0 0 0 0
Neighs:    8504 ave 8504 max 8504 min
Histogram: 1 0 0 0 0 0 0 0 0 0

Total # of neighbors = 8504
Ave neighs/atom = 25.3095
Neighbor list builds = 0
Dangerous builds = 0
        next i
jump SELF loop1
        read_dump orig.dump 0 x y z
  orthogonal box = (0 -0.603507 0) to (4.48985 16.1837 4.48985)
  336 atoms before read
  336 atoms in snapshot
  0 atoms purged
  336 atoms replaced
  0 atoms trimmed
  0 atoms added
  336 atoms after read
        variable stretch equal 1+$i*${strainstep}
        variable stretch equal 1+6*${strainstep}
        variable stretch equal 1+6*0.0005
        change_box all ${direction} scale ${stretch} remap
        change_box all y scale ${stretch} remap
        change_box all y scale 1.003 remap
  orthogonal box = (0 -0.630371 0) to (4.48985 16.2106 4.48985)
        min_style ${style}
        min_style hftn
        minimize ${etol} ${ftol} ${maxiter} ${maxeval}
        minimize 1e-12 ${ftol} ${maxiter} ${maxeval}
        minimize 1e-12 1e-08 ${maxiter} ${maxeval}
        minimize 1e-12 1e-08 10000 ${maxeval}
        minimize 1e-12 1e-08 10000 20000
WARNING: Resetting reneighboring criteria during minimization (../min.cpp:168)
Memory usage per processor = 4.9009 Mbytes
Step PotEng Pxx Pyy Pxy Lx Ly Lz 
       0   -1875.9378    1.3156786  -0.40061703  0.015133867      4.48985    16.840973      4.48985 
       1   -1876.1562     1.446944 0.0090150977 0.00078635443      4.48985    16.840973      4.48985 
       2   -1876.1567    1.4436048 -0.00031765217 -0.00094296734      4.48985    16.840973      4.48985 
       3   -1876.1567    1.4436048 -0.00031765217 -0.00094296734      4.48985    16.840973      4.48985 
       4   -1876.1567    1.4436048 -0.00031765217 -0.00094296734      4.48985    16.840973      4.48985 
       5   -1876.1567    1.4436048 -0.00031765217 -0.00094296734      4.48985    16.840973      4.48985 
       6   -1876.1567    1.4436048 -0.00031765217 -0.00094296734      4.48985    16.840973      4.48985 
       7   -1876.1567    1.4436048 -0.00031765217 -0.00094296734      4.48985    16.840973      4.48985 
       8   -1876.1567    1.4436048 -0.00031765217 -0.00094296734      4.48985    16.840973      4.48985 
       9   -1876.1567    1.4436048 -0.00031765217 -0.00094296734      4.48985    16.840973      4.48985 
      10   -1876.1567    1.4436048 -0.00031765806 -0.00094294935      4.48985    16.840973      4.48985 
Loop time of 0.1223 on 1 procs for 9 steps with 336 atoms

Minimization stats:
  Stopping criterion = energy tolerance
  Energy initial, next-to-last, final = 
        -1875.93781812     -1876.15623109     -1876.15671295
  Force two-norm initial, final = 3.52288 0.0129236
  Force max component initial, final = 0.492835 0.00229097
  Final line search alpha, max atom move = 0 0
  Iterations, force evaluations = 9 238

Pair  time (%) = 0.105085 (85.9242)
Neigh time (%) = 0 (0)
Comm  time (%) = 0.0101708 (8.31625)
Outpt time (%) = 0.00298345 (2.43945)
Other time (%) = 0.00406044 (3.32006)

Nlocal:    336 ave 336 max 336 min
Histogram: 1 0 0 0 0 0 0 0 0 0
Nghost:    1101 ave 1101 max 1101 min
Histogram: 1 0 0 0 0 0 0 0 0 0
Neighs:    8504 ave 8504 max 8504 min
Histogram: 1 0 0 0 0 0 0 0 0 0

Total # of neighbors = 8504
Ave neighs/atom = 25.3095
Neighbor list builds = 0
Dangerous builds = 0
        next i
jump SELF loop1
        read_dump orig.dump 0 x y z
  orthogonal box = (0 -0.603507 0) to (4.48985 16.1837 4.48985)
  336 atoms before read
  336 atoms in snapshot
  0 atoms purged
  336 atoms replaced
  0 atoms trimmed
  0 atoms added
  336 atoms after read
        variable stretch equal 1+$i*${strainstep}
        variable stretch equal 1+7*${strainstep}
        variable stretch equal 1+7*0.0005
        change_box all ${direction} scale ${stretch} remap
        change_box all y scale ${stretch} remap
        change_box all y scale 1.0035 remap
  orthogonal box = (0 -0.634569 0) to (4.48985 16.2148 4.48985)
        min_style ${style}
        min_style hftn
        minimize ${etol} ${ftol} ${maxiter} ${maxeval}
        minimize 1e-12 ${ftol} ${maxiter} ${maxeval}
        minimize 1e-12 1e-08 ${maxiter} ${maxeval}
        minimize 1e-12 1e-08 10000 ${maxeval}
        minimize 1e-12 1e-08 10000 20000
WARNING: Resetting reneighboring criteria during minimization (../min.cpp:168)
Memory usage per processor = 4.9009 Mbytes
Step PotEng Pxx Pyy Pxy Lx Ly Lz 
       0   -1875.8647    1.2953997  -0.46157989   0.01762829      4.48985    16.849368      4.48985 
       1   -1876.1559     1.447371  0.012537421 0.00097414676      4.48985    16.849368      4.48985 
       2   -1876.1567    1.4428594 -0.00030801127 -0.001102743      4.48985    16.849368      4.48985 
       3   -1876.1567    1.4428594 -0.00030801127 -0.001102743      4.48985    16.849368      4.48985 
       4   -1876.1567    1.4428594 -0.00030801127 -0.001102743      4.48985    16.849368      4.48985 
       5   -1876.1567    1.4428594 -0.00030801127 -0.001102743      4.48985    16.849368      4.48985 
       6   -1876.1567    1.4428577 -0.00031405431 -0.0010848204      4.48985    16.849368      4.48985 
       7   -1876.1567    1.4428577 -0.00031405431 -0.0010848204      4.48985    16.849368      4.48985 
       8   -1876.1567    1.4428582 -0.00031496044 -0.0010825316      4.48985    16.849368      4.48985 
       9   -1876.1567    1.4428582 -0.00031496044 -0.0010825316      4.48985    16.849368      4.48985 
      10   -1876.1567    1.4428582 -0.00031496044 -0.0010825316      4.48985    16.849368      4.48985 
      11   -1876.1567    1.4428582 -0.00031496044 -0.0010825316      4.48985    16.849368      4.48985 
      12   -1876.1567    1.4428582 -0.00031496044 -0.0010825316      4.48985    16.849368      4.48985 
      13   -1876.1567    1.4428582 -0.00031496583 -0.0010825172      4.48985    16.849368      4.48985 
Loop time of 0.137414 on 1 procs for 12 steps with 336 atoms

Minimization stats:
  Stopping criterion = energy tolerance
  Energy initial, next-to-last, final = 
         -1875.8647221     -1876.15671853     -1876.15671879
  Force two-norm initial, final = 4.05957 0.00711793
  Force max component initial, final = 0.567753 0.000612075
  Final line search alpha, max atom move = 0 0
  Iterations, force evaluations = 12 265

Pair  time (%) = 0.12022 (87.4873)
Neigh time (%) = 0 (0)
Comm  time (%) = 0.0112232 (8.16743)
Outpt time (%) = 0.000690941 (0.502817)
Other time (%) = 0.00528002 (3.84242)

Nlocal:    336 ave 336 max 336 min
Histogram: 1 0 0 0 0 0 0 0 0 0
Nghost:    1101 ave 1101 max 1101 min
Histogram: 1 0 0 0 0 0 0 0 0 0
Neighs:    8504 ave 8504 max 8504 min
Histogram: 1 0 0 0 0 0 0 0 0 0

Total # of neighbors = 8504
Ave neighs/atom = 25.3095
Neighbor list builds = 0
Dangerous builds = 0
        next i
jump SELF loop1
        read_dump orig.dump 0 x y z
  orthogonal box = (0 -0.603507 0) to (4.48985 16.1837 4.48985)
  336 atoms before read
  336 atoms in snapshot
  0 atoms purged
  336 atoms replaced
  0 atoms trimmed
  0 atoms added
  336 atoms after read
        variable stretch equal 1+$i*${strainstep}
        variable stretch equal 1+8*${strainstep}
        variable stretch equal 1+8*0.0005
        change_box all ${direction} scale ${stretch} remap
        change_box all y scale ${stretch} remap
        change_box all y scale 1.004 remap
  orthogonal box = (0 -0.638767 0) to (4.48985 16.219 4.48985)
        min_style ${style}
        min_style hftn
        minimize ${etol} ${ftol} ${maxiter} ${maxeval}
        minimize 1e-12 ${ftol} ${maxiter} ${maxeval}
        minimize 1e-12 1e-08 ${maxiter} ${maxeval}
        minimize 1e-12 1e-08 10000 ${maxeval}
        minimize 1e-12 1e-08 10000 20000
WARNING: Resetting reneighboring criteria during minimization (../min.cpp:168)
Memory usage per processor = 4.9009 Mbytes
Step PotEng Pxx Pyy Pxy Lx Ly Lz 
       0   -1875.7816    1.2752522  -0.52210417  0.020153008      4.48985    16.857764      4.48985 
       1   -1876.1556    1.4479203  0.016367052 0.0011265878      4.48985    16.857764      4.48985 
       2   -1876.1567    1.4421133 -0.00028032245 -0.0012546106      4.48985    16.857764      4.48985 
       3   -1876.1567    1.4421133 -0.00028032245 -0.0012546106      4.48985    16.857764      4.48985 
       4   -1876.1567    1.4421133 -0.00028032245 -0.0012546106      4.48985    16.857764      4.48985 
       5   -1876.1567    1.4421133 -0.00028032245 -0.0012546106      4.48985    16.857764      4.48985 
       6   -1876.1567    1.4421124 -0.00028661793 -0.0012352955      4.48985    16.857764      4.48985 
       7   -1876.1567    1.4421124 -0.00028661793 -0.0012352955      4.48985    16.857764      4.48985 
       8   -1876.1567    1.4421124 -0.00028661793 -0.0012352955      4.48985    16.857764      4.48985 
       9   -1876.1567    1.4421124 -0.00028661793 -0.0012352955      4.48985    16.857764      4.48985 
      10   -1876.1567    1.4421124 -0.00028661793 -0.0012352955      4.48985    16.857764      4.48985 
      11   -1876.1567    1.4421124 -0.00028661793 -0.0012352955      4.48985    16.857764      4.48985 
      12   -1876.1567    1.4421124 -0.00028662088 -0.0012352913      4.48985    16.857764      4.48985 
Loop time of 0.127858 on 1 procs for 11 steps with 336 atoms

Minimization stats:
  Stopping criterion = energy tolerance
  Energy initial, next-to-last, final = 
        -1875.78163039     -1876.15672296     -1876.15672387
  Force two-norm initial, final = 4.59283 0.0115232
  Force max component initial, final = 0.641857 0.00222419
  Final line search alpha, max atom move = 0 0
  Iterations, force evaluations = 11 254

Pair  time (%) = 0.113029 (88.4017)
Neigh time (%) = 0 (0)
Comm  time (%) = 0.00821005 (6.42123)
Outpt time (%) = 0.000586092 (0.458393)
Other time (%) = 0.00603323 (4.7187)

Nlocal:    336 ave 336 max 336 min
Histogram: 1 0 0 0 0 0 0 0 0 0
Nghost:    1101 ave 1101 max 1101 min
Histogram: 1 0 0 0 0 0 0 0 0 0
Neighs:    8504 ave 8504 max 8504 min
Histogram: 1 0 0 0 0 0 0 0 0 0

Total # of neighbors = 8504
Ave neighs/atom = 25.3095
Neighbor list builds = 0
Dangerous builds = 0
        next i
jump SELF loop1
        read_dump orig.dump 0 x y z
  orthogonal box = (0 -0.603507 0) to (4.48985 16.1837 4.48985)
  336 atoms before read
  336 atoms in snapshot
  0 atoms purged
  336 atoms replaced
  0 atoms trimmed
  0 atoms added
  336 atoms after read
        variable stretch equal 1+$i*${strainstep}
        variable stretch equal 1+9*${strainstep}
        variable stretch equal 1+9*0.0005
        change_box all ${direction} scale ${stretch} remap
        change_box all y scale ${stretch} remap
        change_box all y scale 1.0045 remap
  orthogonal box = (0 -0.642964 0) to (4.48985 16.2232 4.48985)
        min_style ${style}
        min_style hftn
        minimize ${etol} ${ftol} ${maxiter} ${maxeval}
        minimize 1e-12 ${ftol} ${maxiter} ${maxeval}
        minimize 1e-12 1e-08 ${maxiter} ${maxeval}
        minimize 1e-12 1e-08 10000 ${maxeval}
        minimize 1e-12 1e-08 10000 20000
WARNING: Resetting reneighboring criteria during minimization (../min.cpp:168)
Memory usage per processor = 4.9009 Mbytes
Step PotEng Pxx Pyy Pxy Lx Ly Lz 
       0    -1875.688    1.2552371  -0.58216914  0.022708482      4.48985    16.866159      4.48985 
       1   -1876.1552     1.448385  0.020246473 0.0014080479      4.48985    16.866159      4.48985 
       2   -1876.1567    1.4413564 -0.00026010478 -0.0014424364      4.48985    16.866159      4.48985 
       3   -1876.1567    1.4413564 -0.00026010478 -0.0014424364      4.48985    16.866159      4.48985 
       4   -1876.1567    1.4413564 -0.00026010478 -0.0014424364      4.48985    16.866159      4.48985 
       5   -1876.1567    1.4413564 -0.00026010478 -0.0014424364      4.48985    16.866159      4.48985 
       6   -1876.1567    1.4413575 -0.00026645737 -0.0014226925      4.48985    16.866159      4.48985 
       7   -1876.1567    1.4413575 -0.00026645737 -0.0014226925      4.48985    16.866159      4.48985 
       8   -1876.1567    1.4413575 -0.00026645737 -0.0014226925      4.48985    16.866159      4.48985 
       9   -1876.1567    1.4413575 -0.00026645737 -0.0014226925      4.48985    16.866159      4.48985 
      10   -1876.1567    1.4413575 -0.00026645737 -0.0014226925      4.48985    16.866159      4.48985 
      11   -1876.1567    1.4413575 -0.00026646931 -0.0014226742      4.48985    16.866159      4.48985 
Loop time of 0.175173 on 1 procs for 10 steps with 336 atoms

Minimization stats:
  Stopping criterion = energy tolerance
  Energy initial, next-to-last, final = 
        -1875.68802421     -1876.15672713     -1876.15672721
  Force two-norm initial, final = 5.1222 0.0137354
  Force max component initial, final = 0.715565 0.00236005
  Final line search alpha, max atom move = 0 0
  Iterations, force evaluations = 10 243

Pair  time (%) = 0.142351 (81.263)
Neigh time (%) = 0 (0)
Comm  time (%) = 0.0259507 (14.8143)
Outpt time (%) = 0.00286393 (1.63492)
Other time (%) = 0.00400759 (2.28779)

Nlocal:    336 ave 336 max 336 min
Histogram: 1 0 0 0 0 0 0 0 0 0
Nghost:    1101 ave 1101 max 1101 min
Histogram: 1 0 0 0 0 0 0 0 0 0
Neighs:    8504 ave 8504 max 8504 min
Histogram: 1 0 0 0 0 0 0 0 0 0

Total # of neighbors = 8504
Ave neighs/atom = 25.3095
Neighbor list builds = 0
Dangerous builds = 0
        next i
jump SELF loop1
        read_dump orig.dump 0 x y z
  orthogonal box = (0 -0.603507 0) to (4.48985 16.1837 4.48985)
  336 atoms before read
  336 atoms in snapshot
  0 atoms purged
  336 atoms replaced
  0 atoms trimmed
  0 atoms added
  336 atoms after read
        variable stretch equal 1+$i*${strainstep}
        variable stretch equal 1+10*${strainstep}
        variable stretch equal 1+10*0.0005
        change_box all ${direction} scale ${stretch} remap
        change_box all y scale ${stretch} remap
        change_box all y scale 1.005 remap
  orthogonal box = (0 -0.647162 0) to (4.48985 16.2274 4.48985)
        min_style ${style}
        min_style hftn
        minimize ${etol} ${ftol} ${maxiter} ${maxeval}
        minimize 1e-12 ${ftol} ${maxiter} ${maxeval}
        minimize 1e-12 1e-08 ${maxiter} ${maxeval}
        minimize 1e-12 1e-08 10000 ${maxeval}
        minimize 1e-12 1e-08 10000 20000
WARNING: Resetting reneighboring criteria during minimization (../min.cpp:168)
Memory usage per processor = 4.9009 Mbytes
Step PotEng Pxx Pyy Pxy Lx Ly Lz 
       0   -1875.5845    1.2353512  -0.64180057  0.025300409      4.48985    16.874554      4.48985 
       1   -1876.1548    1.4493248  0.025050543 0.0016028606      4.48985    16.874554      4.48985 
       2   -1876.1567    1.4406064 -0.00027573523 -0.0015582197      4.48985    16.874554      4.48985 
       3   -1876.1567    1.4406064 -0.00027573523 -0.0015582197      4.48985    16.874554      4.48985 
       4   -1876.1567    1.4406064 -0.00027573523 -0.0015582197      4.48985    16.874554      4.48985 
       5   -1876.1567    1.4406064 -0.00027573523 -0.0015582197      4.48985    16.874554      4.48985 
       6   -1876.1567    1.4406095 -0.00028880669 -0.0015387673      4.48985    16.874554      4.48985 
       7   -1876.1567    1.4406095 -0.00028880669 -0.0015387673      4.48985    16.874554      4.48985 
       8   -1876.1567    1.4406095 -0.00028880669 -0.0015387673      4.48985    16.874554      4.48985 
       9   -1876.1567    1.4406095 -0.00028880669 -0.0015387673      4.48985    16.874554      4.48985 
      10   -1876.1567    1.4406095 -0.00028880669 -0.0015387673      4.48985    16.874554      4.48985 
      11   -1876.1567    1.4406095 -0.00028880669 -0.0015387673      4.48985    16.874554      4.48985 
      12   -1876.1567    1.4406095 -0.00028880669 -0.0015387673      4.48985    16.874554      4.48985 
      13   -1876.1567    1.4406095 -0.00028880744 -0.0015387661      4.48985    16.874554      4.48985 
Loop time of 0.131099 on 1 procs for 12 steps with 336 atoms

Minimization stats:
  Stopping criterion = energy tolerance
  Energy initial, next-to-last, final = 
        -1875.58445256     -1876.15672355     -1876.15672986
  Force two-norm initial, final = 5.64814 0.0140728
  Force max component initial, final = 0.788562 0.00239079
  Final line search alpha, max atom move = 0 0
  Iterations, force evaluations = 12 257

Pair  time (%) = 0.117992 (90.002)
Neigh time (%) = 0 (0)
Comm  time (%) = 0.00689913 (5.26253)
Outpt time (%) = 0.000922581 (0.703728)
Other time (%) = 0.00528552 (4.0317)

Nlocal:    336 ave 336 max 336 min
Histogram: 1 0 0 0 0 0 0 0 0 0
Nghost:    1101 ave 1101 max 1101 min
Histogram: 1 0 0 0 0 0 0 0 0 0
Neighs:    8504 ave 8504 max 8504 min
Histogram: 1 0 0 0 0 0 0 0 0 0

Total # of neighbors = 8504
Ave neighs/atom = 25.3095
Neighbor list builds = 0
Dangerous builds = 0
        next i
jump SELF loop1
        read_dump orig.dump 0 x y z
  orthogonal box = (0 -0.603507 0) to (4.48985 16.1837 4.48985)
  336 atoms before read
  336 atoms in snapshot
  0 atoms purged
  336 atoms replaced
  0 atoms trimmed
  0 atoms added
  336 atoms after read
        variable stretch equal 1+$i*${strainstep}
        variable stretch equal 1+11*${strainstep}
        variable stretch equal 1+11*0.0005
        change_box all ${direction} scale ${stretch} remap
        change_box all y scale ${stretch} remap
        change_box all y scale 1.0055 remap
  orthogonal box = (0 -0.65136 0) to (4.48985 16.2316 4.48985)
        min_style ${style}
        min_style hftn
        minimize ${etol} ${ftol} ${maxiter} ${maxeval}
        minimize 1e-12 ${ftol} ${maxiter} ${maxeval}
        minimize 1e-12 1e-08 ${maxiter} ${maxeval}
        minimize 1e-12 1e-08 10000 ${maxeval}
        minimize 1e-12 1e-08 10000 20000
WARNING: Resetting reneighboring criteria during minimization (../min.cpp:168)
Memory usage per processor = 4.9009 Mbytes
Step PotEng Pxx Pyy Pxy Lx Ly Lz 
       0   -1875.4707    1.2155914  -0.70099691  0.027922646      4.48985     16.88295      4.48985 
       1   -1876.1541    1.4502468  0.030129155 0.0015303984      4.48985     16.88295      4.48985 
       2   -1876.1567     1.439852 -0.0002424748 -0.0017792046      4.48985     16.88295      4.48985 
       3   -1876.1567     1.439852 -0.0002424748 -0.0017792046      4.48985     16.88295      4.48985 
       4   -1876.1567     1.439852 -0.0002424748 -0.0017792046      4.48985     16.88295      4.48985 
       5   -1876.1567     1.439852 -0.0002424748 -0.0017792046      4.48985     16.88295      4.48985 
       6   -1876.1567    1.4398512 -0.00025882343 -0.0017516784      4.48985     16.88295      4.48985 
       7   -1876.1567    1.4398512 -0.00025882343 -0.0017516784      4.48985     16.88295      4.48985 
       8   -1876.1567    1.4398512 -0.00025882343 -0.0017516784      4.48985     16.88295      4.48985 
       9   -1876.1567    1.4398512 -0.00025882343 -0.0017516784      4.48985     16.88295      4.48985 
      10   -1876.1567    1.4398512 -0.00025882343 -0.0017516784      4.48985     16.88295      4.48985 
      11   -1876.1567    1.4398512 -0.00025882343 -0.0017516784      4.48985     16.88295      4.48985 
      12   -1876.1567    1.4398512 -0.00025882343 -0.0017516784      4.48985     16.88295      4.48985 
      13   -1876.1567    1.4398512 -0.00025882481 -0.0017516772      4.48985     16.88295      4.48985 
Loop time of 0.135705 on 1 procs for 12 steps with 336 atoms

Minimization stats:
  Stopping criterion = energy tolerance
  Energy initial, next-to-last, final = 
         -1875.4707386     -1876.15672555     -1876.15672741
  Force two-norm initial, final = 6.17011 0.0171711
  Force max component initial, final = 0.861199 0.00283399
  Final line search alpha, max atom move = 0 0
  Iterations, force evaluations = 12 257

Pair  time (%) = 0.116336 (85.7268)
Neigh time (%) = 0 (0)
Comm  time (%) = 0.00935137 (6.89095)
Outpt time (%) = 0.005004 (3.68741)
Other time (%) = 0.00501403 (3.69479)

Nlocal:    336 ave 336 max 336 min
Histogram: 1 0 0 0 0 0 0 0 0 0
Nghost:    1101 ave 1101 max 1101 min
Histogram: 1 0 0 0 0 0 0 0 0 0
Neighs:    8504 ave 8504 max 8504 min
Histogram: 1 0 0 0 0 0 0 0 0 0

Total # of neighbors = 8504
Ave neighs/atom = 25.3095
Neighbor list builds = 0
Dangerous builds = 0
        next i
jump SELF loop1
        read_dump orig.dump 0 x y z
  orthogonal box = (0 -0.603507 0) to (4.48985 16.1837 4.48985)
  336 atoms before read
  336 atoms in snapshot
  0 atoms purged
  336 atoms replaced
  0 atoms trimmed
  0 atoms added
  336 atoms after read
        variable stretch equal 1+$i*${strainstep}
        variable stretch equal 1+12*${strainstep}
        variable stretch equal 1+12*0.0005
        change_box all ${direction} scale ${stretch} remap
        change_box all y scale ${stretch} remap
        change_box all y scale 1.006 remap
  orthogonal box = (0 -0.655557 0) to (4.48985 16.2358 4.48985)
        min_style ${style}
        min_style hftn
        minimize ${etol} ${ftol} ${maxiter} ${maxeval}
        minimize 1e-12 ${ftol} ${maxiter} ${maxeval}
        minimize 1e-12 1e-08 ${maxiter} ${maxeval}
        minimize 1e-12 1e-08 10000 ${maxeval}
        minimize 1e-12 1e-08 10000 20000
WARNING: Resetting reneighboring criteria during minimization (../min.cpp:168)
Memory usage per processor = 4.9009 Mbytes
Step PotEng Pxx Pyy Pxy Lx Ly Lz 
       0   -1875.3472    1.1959534  -0.75976685  0.030586565      4.48985    16.891345      4.48985 
       1   -1876.1535    1.4512708  0.035301142 0.0017396407      4.48985    16.891345      4.48985 
       2   -1876.1567    1.4391273 -6.611149e-05 -0.0020413377      4.48985    16.891345      4.48985 
       3   -1876.1567    1.4391273 -6.611149e-05 -0.0020413377      4.48985    16.891345      4.48985 
       4   -1876.1567    1.4391273 -6.611149e-05 -0.0020413377      4.48985    16.891345      4.48985 
       5   -1876.1567    1.4391273 -6.611149e-05 -0.0020413377      4.48985    16.891345      4.48985 
       6   -1876.1567    1.4391273 -6.611149e-05 -0.0020413377      4.48985    16.891345      4.48985 
       7   -1876.1567    1.4391273 -6.611149e-05 -0.0020413377      4.48985    16.891345      4.48985 
       8   -1876.1567    1.4391273 -6.611149e-05 -0.0020413377      4.48985    16.891345      4.48985 
       9   -1876.1567    1.4391273 -6.611149e-05 -0.0020413377      4.48985    16.891345      4.48985 
      10   -1876.1567    1.4391273 -6.611149e-05 -0.0020413377      4.48985    16.891345      4.48985 
      11   -1876.1567    1.4391273 -6.611149e-05 -0.0020413377      4.48985    16.891345      4.48985 
      12   -1876.1567    1.4391273 -6.6113165e-05 -0.0020413367      4.48985    16.891345      4.48985 
Loop time of 0.125627 on 1 procs for 11 steps with 336 atoms

Minimization stats:
  Stopping criterion = energy tolerance
  Energy initial, next-to-last, final = 
         -1875.3472337       -1876.153452     -1876.15672515
  Force two-norm initial, final = 6.68837 0.0314337
  Force max component initial, final = 0.93316 0.00378372
  Final line search alpha, max atom move = 0 0
  Iterations, force evaluations = 11 250

Pair  time (%) = 0.109497 (87.1605)
Neigh time (%) = 0 (0)
Comm  time (%) = 0.010743 (8.55154)
Outpt time (%) = 0.000647009 (0.515024)
Other time (%) = 0.00473985 (3.77296)

Nlocal:    336 ave 336 max 336 min
Histogram: 1 0 0 0 0 0 0 0 0 0
Nghost:    1101 ave 1101 max 1101 min
Histogram: 1 0 0 0 0 0 0 0 0 0
Neighs:    8504 ave 8504 max 8504 min
Histogram: 1 0 0 0 0 0 0 0 0 0

Total # of neighbors = 8504
Ave neighs/atom = 25.3095
Neighbor list builds = 0
Dangerous builds = 0
        next i
jump SELF loop1
        read_dump orig.dump 0 x y z
  orthogonal box = (0 -0.603507 0) to (4.48985 16.1837 4.48985)
  336 atoms before read
  336 atoms in snapshot
  0 atoms purged
  336 atoms replaced
  0 atoms trimmed
  0 atoms added
  336 atoms after read
        variable stretch equal 1+$i*${strainstep}
        variable stretch equal 1+13*${strainstep}
        variable stretch equal 1+13*0.0005
        change_box all ${direction} scale ${stretch} remap
        change_box all y scale ${stretch} remap
        change_box all y scale 1.0065 remap
  orthogonal box = (0 -0.659755 0) to (4.48985 16.24 4.48985)
        min_style ${style}
        min_style hftn
        minimize ${etol} ${ftol} ${maxiter} ${maxeval}
        minimize 1e-12 ${ftol} ${maxiter} ${maxeval}
        minimize 1e-12 1e-08 ${maxiter} ${maxeval}
        minimize 1e-12 1e-08 10000 ${maxeval}
        minimize 1e-12 1e-08 10000 20000
WARNING: Resetting reneighboring criteria during minimization (../min.cpp:168)
Memory usage per processor = 4.9009 Mbytes
Step PotEng Pxx Pyy Pxy Lx Ly Lz 
       0   -1875.2135    1.1764398  -0.81809918  0.033281652      4.48985     16.89974      4.48985 
       1   -1876.1525    1.4528112  0.041965787 0.0019051482      4.48985     16.89974      4.48985 
       2   -1876.1567    1.4383844 -3.0475241e-05 -0.0021741226      4.48985     16.89974      4.48985 
       3   -1876.1567    1.4383844 -3.0475241e-05 -0.0021741226      4.48985     16.89974      4.48985 
       4   -1876.1567    1.4383844 -3.0475241e-05 -0.0021741226      4.48985     16.89974      4.48985 
       5   -1876.1567    1.4383844 -3.0475241e-05 -0.0021741226      4.48985     16.89974      4.48985 
       6   -1876.1567    1.4383844 -3.0475241e-05 -0.0021741226      4.48985     16.89974      4.48985 
       7   -1876.1567    1.4383844 -3.0475241e-05 -0.0021741226      4.48985     16.89974      4.48985 
       8   -1876.1567    1.4383844 -3.0475241e-05 -0.0021741226      4.48985     16.89974      4.48985 
       9   -1876.1567    1.4383844 -3.0475241e-05 -0.0021741226      4.48985     16.89974      4.48985 
      10   -1876.1567    1.4383844 -3.0475241e-05 -0.0021741226      4.48985     16.89974      4.48985 
      11   -1876.1567    1.4383844 -3.0482785e-05 -0.0021741168      4.48985     16.89974      4.48985 
Loop time of 0.126106 on 1 procs for 10 steps with 336 atoms

Minimization stats:
  Stopping criterion = energy tolerance
  Energy initial, next-to-last, final = 
        -1875.21352601     -1876.15245576     -1876.15671901
  Force two-norm initial, final = 7.20279 0.032919
  Force max component initial, final = 1.00474 0.00458668
  Final line search alpha, max atom move = 0 0
  Iterations, force evaluations = 10 243

Pair  time (%) = 0.111954 (88.7776)
Neigh time (%) = 0 (0)
Comm  time (%) = 0.00712725 (5.65179)
Outpt time (%) = 0.00294178 (2.33279)
Other time (%) = 0.00408311 (3.23784)

Nlocal:    336 ave 336 max 336 min
Histogram: 1 0 0 0 0 0 0 0 0 0
Nghost:    1101 ave 1101 max 1101 min
Histogram: 1 0 0 0 0 0 0 0 0 0
Neighs:    8504 ave 8504 max 8504 min
Histogram: 1 0 0 0 0 0 0 0 0 0

Total # of neighbors = 8504
Ave neighs/atom = 25.3095
Neighbor list builds = 0
Dangerous builds = 0
        next i
jump SELF loop1
        read_dump orig.dump 0 x y z
  orthogonal box = (0 -0.603507 0) to (4.48985 16.1837 4.48985)
  336 atoms before read
  336 atoms in snapshot
  0 atoms purged
  336 atoms replaced
  0 atoms trimmed
  0 atoms added
  336 atoms after read
        variable stretch equal 1+$i*${strainstep}
        variable stretch equal 1+14*${strainstep}
        variable stretch equal 1+14*0.0005
        change_box all ${direction} scale ${stretch} remap
        change_box all y scale ${stretch} remap
        change_box all y scale 1.007 remap
  orthogonal box = (0 -0.663952 0) to (4.48985 16.2442 4.48985)
        min_style ${style}
        min_style hftn
        minimize ${etol} ${ftol} ${maxiter} ${maxeval}
        minimize 1e-12 ${ftol} ${maxiter} ${maxeval}
        minimize 1e-12 1e-08 ${maxiter} ${maxeval}
        minimize 1e-12 1e-08 10000 ${maxeval}
        minimize 1e-12 1e-08 10000 20000
WARNING: Resetting reneighboring criteria during minimization (../min.cpp:168)
Memory usage per processor = 4.9009 Mbytes
Step PotEng Pxx Pyy Pxy Lx Ly Lz 
       0   -1875.0704    1.1570411  -0.87602284  0.036019934      4.48985    16.908136      4.48985 
       1   -1876.1512    1.4540977  0.048314088 0.0019612079      4.48985    16.908136      4.48985 
       2   -1876.1567    1.4376462  4.92886e-05 -0.0023915918      4.48985    16.908136      4.48985 
       3   -1876.1567    1.4376462  4.92886e-05 -0.0023915918      4.48985    16.908136      4.48985 
       4   -1876.1567    1.4376462  4.92886e-05 -0.0023915918      4.48985    16.908136      4.48985 
       5   -1876.1567    1.4376462  4.92886e-05 -0.0023915918      4.48985    16.908136      4.48985 
       6   -1876.1567    1.4376462  4.92886e-05 -0.0023915918      4.48985    16.908136      4.48985 
       7   -1876.1567    1.4376462  4.92886e-05 -0.0023915918      4.48985    16.908136      4.48985 
       8   -1876.1567    1.4376462  4.92886e-05 -0.0023915918      4.48985    16.908136      4.48985 
       9   -1876.1567    1.4376462  4.92886e-05 -0.0023915918      4.48985    16.908136      4.48985 
      10   -1876.1567    1.4376462  4.92886e-05 -0.0023915918      4.48985    16.908136      4.48985 
      11   -1876.1567    1.4376462  4.92886e-05 -0.0023915918      4.48985    16.908136      4.48985 
      12   -1876.1567    1.4376462 4.9286986e-05 -0.0023915906      4.48985    16.908136      4.48985 
Loop time of 0.12132 on 1 procs for 11 steps with 336 atoms

Minimization stats:
  Stopping criterion = energy tolerance
  Energy initial, next-to-last, final = 
        -1875.07035055     -1876.15119536     -1876.15671231
  Force two-norm initial, final = 7.7134 0.0407655
  Force max component initial, final = 1.07562 0.00496763
  Final line search alpha, max atom move = 0 0
  Iterations, force evaluations = 11 238

Pair  time (%) = 0.110242 (90.8685)
Neigh time (%) = 0 (0)
Comm  time (%) = 0.00598898 (4.93652)
Outpt time (%) = 0.00139113 (1.14666)
Other time (%) = 0.00369822 (3.04832)

Nlocal:    336 ave 336 max 336 min
Histogram: 1 0 0 0 0 0 0 0 0 0
Nghost:    1101 ave 1101 max 1101 min
Histogram: 1 0 0 0 0 0 0 0 0 0
Neighs:    8504 ave 8504 max 8504 min
Histogram: 1 0 0 0 0 0 0 0 0 0

Total # of neighbors = 8504
Ave neighs/atom = 25.3095
Neighbor list builds = 0
Dangerous builds = 0
        next i
jump SELF loop1
        read_dump orig.dump 0 x y z
  orthogonal box = (0 -0.603507 0) to (4.48985 16.1837 4.48985)
  336 atoms before read
  336 atoms in snapshot
  0 atoms purged
  336 atoms replaced
  0 atoms trimmed
  0 atoms added
  336 atoms after read
        variable stretch equal 1+$i*${strainstep}
        variable stretch equal 1+15*${strainstep}
        variable stretch equal 1+15*0.0005
        change_box all ${direction} scale ${stretch} remap
        change_box all y scale ${stretch} remap
        change_box all y scale 1.0075 remap
  orthogonal box = (0 -0.66815 0) to (4.48985 16.2484 4.48985)
        min_style ${style}
        min_style hftn
        minimize ${etol} ${ftol} ${maxiter} ${maxeval}
        minimize 1e-12 ${ftol} ${maxiter} ${maxeval}
        minimize 1e-12 1e-08 ${maxiter} ${maxeval}
        minimize 1e-12 1e-08 10000 ${maxeval}
        minimize 1e-12 1e-08 10000 20000
WARNING: Resetting reneighboring criteria during minimization (../min.cpp:168)
Memory usage per processor = 4.9009 Mbytes
Step PotEng Pxx Pyy Pxy Lx Ly Lz 
       0   -1874.9171    1.1377741  -0.93351929  0.038784441      4.48985    16.916531      4.48985 
       1   -1876.1498     1.455899  0.056350039 0.0021118957      4.48985    16.916531      4.48985 
       2   -1876.1567    1.4369251 9.6152695e-05 -0.0025298583      4.48985    16.916531      4.48985 
       3   -1876.1567    1.4369251 9.6152695e-05 -0.0025298583      4.48985    16.916531      4.48985 
       4   -1876.1567    1.4369251 9.6152695e-05 -0.0025298583      4.48985    16.916531      4.48985 
       5   -1876.1567    1.4369251 9.6152695e-05 -0.0025298583      4.48985    16.916531      4.48985 
       6   -1876.1567    1.4369251 9.6152695e-05 -0.0025298583      4.48985    16.916531      4.48985 
       7   -1876.1567    1.4369251 9.6152695e-05 -0.0025298583      4.48985    16.916531      4.48985 
       8   -1876.1567    1.4369251 9.6152695e-05 -0.0025298583      4.48985    16.916531      4.48985 
       9   -1876.1567    1.4369251 9.6152695e-05 -0.0025298583      4.48985    16.916531      4.48985 
      10   -1876.1567    1.4369251 9.6152695e-05 -0.0025298583      4.48985    16.916531      4.48985 
      11   -1876.1567    1.4369251 9.6152695e-05 -0.0025298583      4.48985    16.916531      4.48985 
      12   -1876.1567    1.4369251 9.6148948e-05 -0.0025298557      4.48985    16.916531      4.48985 
Loop time of 0.129622 on 1 procs for 11 steps with 336 atoms

Minimization stats:
  Stopping criterion = energy tolerance
  Energy initial, next-to-last, final = 
         -1874.9171497     -1876.14976956     -1876.15671138
  Force two-norm initial, final = 8.22013 0.0417501
  Force max component initial, final = 1.14605 0.00433126
  Final line search alpha, max atom move = 0 0
  Iterations, force evaluations = 11 246

Pair  time (%) = 0.115579 (89.1662)
Neigh time (%) = 0 (0)
Comm  time (%) = 0.00872957 (6.73463)
Outpt time (%) = 0.000835904 (0.644878)
Other time (%) = 0.00447748 (3.45426)

Nlocal:    336 ave 336 max 336 min
Histogram: 1 0 0 0 0 0 0 0 0 0
Nghost:    1101 ave 1101 max 1101 min
Histogram: 1 0 0 0 0 0 0 0 0 0
Neighs:    8504 ave 8504 max 8504 min
Histogram: 1 0 0 0 0 0 0 0 0 0

Total # of neighbors = 8504
Ave neighs/atom = 25.3095
Neighbor list builds = 0
Dangerous builds = 0
        next i
jump SELF loop1
        read_dump orig.dump 0 x y z
  orthogonal box = (0 -0.603507 0) to (4.48985 16.1837 4.48985)
  336 atoms before read
  336 atoms in snapshot
  0 atoms purged
  336 atoms replaced
  0 atoms trimmed
  0 atoms added
  336 atoms after read
        variable stretch equal 1+$i*${strainstep}
        variable stretch equal 1+16*${strainstep}
        variable stretch equal 1+16*0.0005
        change_box all ${direction} scale ${stretch} remap
        change_box all y scale ${stretch} remap
        change_box all y scale 1.008 remap
  orthogonal box = (0 -0.672348 0) to (4.48985 16.2526 4.48985)
        min_style ${style}
        min_style hftn
        minimize ${etol} ${ftol} ${maxiter} ${maxeval}
        minimize 1e-12 ${ftol} ${maxiter} ${maxeval}
        minimize 1e-12 1e-08 ${maxiter} ${maxeval}
        minimize 1e-12 1e-08 10000 ${maxeval}
        minimize 1e-12 1e-08 10000 20000
WARNING: Resetting reneighboring criteria during minimization (../min.cpp:168)
Memory usage per processor = 4.9009 Mbytes
Step PotEng Pxx Pyy Pxy Lx Ly Lz 
       0   -1874.7543    1.1186233  -0.99059558  0.041592985      4.48985    16.924926      4.48985 
       1   -1876.1482    1.4575058  0.062883848 0.0022961564      4.48985    16.924926      4.48985 
       2   -1876.1567    1.4361774 0.00017689648 -0.0027929861      4.48985    16.924926      4.48985 
       3   -1876.1567    1.4361774 0.00017689648 -0.0027929861      4.48985    16.924926      4.48985 
       4   -1876.1567    1.4361774 0.00017689648 -0.0027929861      4.48985    16.924926      4.48985 
       5   -1876.1567    1.4361774 0.00017689648 -0.0027929861      4.48985    16.924926      4.48985 
       6   -1876.1567    1.4361774 0.00017689648 -0.0027929861      4.48985    16.924926      4.48985 
       7   -1876.1567    1.4361774 0.00017689648 -0.0027929861      4.48985    16.924926      4.48985 
       8   -1876.1567    1.4361774 0.00017689648 -0.0027929861      4.48985    16.924926      4.48985 
       9   -1876.1567    1.4361769 0.00017557777 -0.0027918854      4.48985    16.924926      4.48985 
      10   -1876.1567    1.4361764  0.000174237 -0.0027907867      4.48985    16.924926      4.48985 
      11   -1876.1567    1.4361764  0.000174237 -0.0027907867      4.48985    16.924926      4.48985 
      12   -1876.1567    1.4361762 0.00017389627 -0.0027905126      4.48985    16.924926      4.48985 
Loop time of 0.120876 on 1 procs for 11 steps with 336 atoms

Minimization stats:
  Stopping criterion = energy tolerance
  Energy initial, next-to-last, final = 
        -1874.75429418     -1876.15669702     -1876.15669703
  Force two-norm initial, final = 8.72327 0.0428531
  Force max component initial, final = 1.21586 0.00467612
  Final line search alpha, max atom move = 0 0
  Iterations, force evaluations = 11 234

Pair  time (%) = 0.108202 (89.5145)
Neigh time (%) = 0 (0)
Comm  time (%) = 0.00826088 (6.83418)
Outpt time (%) = 0.000614927 (0.508726)
Other time (%) = 0.00379862 (3.14258)

Nlocal:    336 ave 336 max 336 min
Histogram: 1 0 0 0 0 0 0 0 0 0
Nghost:    1101 ave 1101 max 1101 min
Histogram: 1 0 0 0 0 0 0 0 0 0
Neighs:    8504 ave 8504 max 8504 min
Histogram: 1 0 0 0 0 0 0 0 0 0

Total # of neighbors = 8504
Ave neighs/atom = 25.3095
Neighbor list builds = 0
Dangerous builds = 0
        next i
jump SELF loop1
        read_dump orig.dump 0 x y z
  orthogonal box = (0 -0.603507 0) to (4.48985 16.1837 4.48985)
  336 atoms before read
  336 atoms in snapshot
  0 atoms purged
  336 atoms replaced
  0 atoms trimmed
  0 atoms added
  336 atoms after read
        variable stretch equal 1+$i*${strainstep}
        variable stretch equal 1+17*${strainstep}
        variable stretch equal 1+17*0.0005
        change_box all ${direction} scale ${stretch} remap
        change_box all y scale ${stretch} remap
        change_box all y scale 1.0085 remap
  orthogonal box = (0 -0.676545 0) to (4.48985 16.2568 4.48985)
        min_style ${style}
        min_style hftn
        minimize ${etol} ${ftol} ${maxiter} ${maxeval}
        minimize 1e-12 ${ftol} ${maxiter} ${maxeval}
        minimize 1e-12 1e-08 ${maxiter} ${maxeval}
        minimize 1e-12 1e-08 10000 ${maxeval}
        minimize 1e-12 1e-08 10000 20000
WARNING: Resetting reneighboring criteria during minimization (../min.cpp:168)
Memory usage per processor = 4.9009 Mbytes
Step PotEng Pxx Pyy Pxy Lx Ly Lz 
       0   -1874.5815     1.099603   -1.0472386  0.044424622      4.48985    16.933321      4.48985 
       1    -1876.146    1.4598517  0.071981154 0.0026547904      4.48985    16.933321      4.48985 
       2   -1876.1567    1.4354732 0.00025728675 -0.0029387159      4.48985    16.933321      4.48985 
       3   -1876.1567    1.4354732 0.00025728675 -0.0029387159      4.48985    16.933321      4.48985 
       4   -1876.1567    1.4354732 0.00025728675 -0.0029387159      4.48985    16.933321      4.48985 
       5   -1876.1567    1.4353267 -0.00015143205 -0.0027090747      4.48985    16.933321      4.48985 
       6   -1876.1567    1.4353267 -0.00015143205 -0.0027090747      4.48985    16.933321      4.48985 
       7   -1876.1567    1.4353267 -0.00015143205 -0.0027090747      4.48985    16.933321      4.48985 
       8   -1876.1567    1.4353267 -0.00015143205 -0.0027090747      4.48985    16.933321      4.48985 
       9   -1876.1567    1.4353267 -0.00015143205 -0.0027090747      4.48985    16.933321      4.48985 
      10   -1876.1567    1.4353267 -0.00015143205 -0.0027090747      4.48985    16.933321      4.48985 
      11   -1876.1567    1.4353267 -0.00015143205 -0.0027090747      4.48985    16.933321      4.48985 
      12   -1876.1567    1.4353268 -0.0001514507 -0.002709087      4.48985    16.933321      4.48985 
Loop time of 0.173318 on 1 procs for 11 steps with 336 atoms

Minimization stats:
  Stopping criterion = energy tolerance
  Energy initial, next-to-last, final = 
        -1874.58150885     -1876.15668452     -1876.15668588
  Force two-norm initial, final = 9.22259 0.0298188
  Force max component initial, final = 1.28526 0.00549869
  Final line search alpha, max atom move = 0 0
  Iterations, force evaluations = 11 246

Pair  time (%) = 0.129894 (74.9456)
Neigh time (%) = 0 (0)
Comm  time (%) = 0.0101072 (5.83161)
Outpt time (%) = 0.0209919 (12.1118)
Other time (%) = 0.0123247 (7.11104)

Nlocal:    336 ave 336 max 336 min
Histogram: 1 0 0 0 0 0 0 0 0 0
Nghost:    1101 ave 1101 max 1101 min
Histogram: 1 0 0 0 0 0 0 0 0 0
Neighs:    8504 ave 8504 max 8504 min
Histogram: 1 0 0 0 0 0 0 0 0 0

Total # of neighbors = 8504
Ave neighs/atom = 25.3095
Neighbor list builds = 0
Dangerous builds = 0
        next i
jump SELF loop1
        read_dump orig.dump 0 x y z
  orthogonal box = (0 -0.603507 0) to (4.48985 16.1837 4.48985)
  336 atoms before read
  336 atoms in snapshot
  0 atoms purged
  336 atoms replaced
  0 atoms trimmed
  0 atoms added
  336 atoms after read
        variable stretch equal 1+$i*${strainstep}
        variable stretch equal 1+18*${strainstep}
        variable stretch equal 1+18*0.0005
        change_box all ${direction} scale ${stretch} remap
        change_box all y scale ${stretch} remap
        change_box all y scale 1.009 remap
  orthogonal box = (0 -0.680743 0) to (4.48985 16.261 4.48985)
        min_style ${style}
        min_style hftn
        minimize ${etol} ${ftol} ${maxiter} ${maxeval}
        minimize 1e-12 ${ftol} ${maxiter} ${maxeval}
        minimize 1e-12 1e-08 ${maxiter} ${maxeval}
        minimize 1e-12 1e-08 10000 ${maxeval}
        minimize 1e-12 1e-08 10000 20000
WARNING: Resetting reneighboring criteria during minimization (../min.cpp:168)
Memory usage per processor = 4.9009 Mbytes
Step PotEng Pxx Pyy Pxy Lx Ly Lz 
       0   -1874.3997     1.080698   -1.1034855  0.047289789      4.48985    16.941717      4.48985 
       1   -1876.1432    1.4621868  0.081271805 0.0029729964      4.48985    16.941717      4.48985 
       2   -1876.1567    1.4347701 0.00039683966 -0.0031446009      4.48985    16.941717      4.48985 
       3   -1876.1567    1.4353144 -8.6889569e-05 -9.2105764e-06      4.48985    16.941717      4.48985 
       4   -1876.1567    1.4353464 -3.3706508e-09 4.1402657e-09      4.48985    16.941717      4.48985 
       5   -1876.1567    1.4353464 -5.0644524e-12 -6.0605105e-12      4.48985    16.941717      4.48985 
Loop time of 0.18307 on 1 procs for 4 steps with 336 atoms

Minimization stats:
  Stopping criterion = force tolerance
  Energy initial, next-to-last, final = 
        -1874.39967534     -1876.15668347     -1876.15668352
  Force two-norm initial, final = 9.7187 2.13946e-09
  Force max component initial, final = 1.35408 3.54841e-10
  Final line search alpha, max atom move = 0 0
  Iterations, force evaluations = 4 358

Pair  time (%) = 0.155367 (84.8675)
Neigh time (%) = 0 (0)
Comm  time (%) = 0.0166772 (9.10971)
Outpt time (%) = 0.0017148 (0.936692)
Other time (%) = 0.00931119 (5.08613)

Nlocal:    336 ave 336 max 336 min
Histogram: 1 0 0 0 0 0 0 0 0 0
Nghost:    1101 ave 1101 max 1101 min
Histogram: 1 0 0 0 0 0 0 0 0 0
Neighs:    8504 ave 8504 max 8504 min
Histogram: 1 0 0 0 0 0 0 0 0 0

Total # of neighbors = 8504
Ave neighs/atom = 25.3095
Neighbor list builds = 0
Dangerous builds = 0
        next i
jump SELF loop1
        read_dump orig.dump 0 x y z
  orthogonal box = (0 -0.603507 0) to (4.48985 16.1837 4.48985)
  336 atoms before read
  336 atoms in snapshot
  0 atoms purged
  336 atoms replaced
  0 atoms trimmed
  0 atoms added
  336 atoms after read
        variable stretch equal 1+$i*${strainstep}
        variable stretch equal 1+19*${strainstep}
        variable stretch equal 1+19*0.0005
        change_box all ${direction} scale ${stretch} remap
        change_box all y scale ${stretch} remap
        change_box all y scale 1.0095 remap
  orthogonal box = (0 -0.684941 0) to (4.48985 16.2652 4.48985)
        min_style ${style}
        min_style hftn
        minimize ${etol} ${ftol} ${maxiter} ${maxeval}
        minimize 1e-12 ${ftol} ${maxiter} ${maxeval}
        minimize 1e-12 1e-08 ${maxiter} ${maxeval}
        minimize 1e-12 1e-08 10000 ${maxeval}
        minimize 1e-12 1e-08 10000 20000
WARNING: Resetting reneighboring criteria during minimization (../min.cpp:168)
Memory usage per processor = 4.9009 Mbytes
Step PotEng Pxx Pyy Pxy Lx Ly Lz 
       0   -1874.2081    1.0619199   -1.1593012  0.050177872      4.48985    16.950112      4.48985 
       1   -1876.1407    1.4642032  0.089843028 0.0030131553      4.48985    16.950112      4.48985 
       2   -1876.1567    1.4340393 0.00052640029 -0.0033152225      4.48985    16.950112      4.48985 
       3   -1876.1567    1.4345926 -0.00012332871 -3.036072e-06      4.48985    16.950112      4.48985 
       4   -1876.1567    1.4345926 -0.00012332871 -3.036072e-06      4.48985    16.950112      4.48985 
       5   -1876.1567    1.4345926 -0.00012332871 -3.036072e-06      4.48985    16.950112      4.48985 
       6   -1876.1567    1.4345926 -0.00012332871 -3.036072e-06      4.48985    16.950112      4.48985 
       7   -1876.1567    1.4345926 -0.00012332871 -3.036072e-06      4.48985    16.950112      4.48985 
       8   -1876.1567    1.4345926 -0.00012332871 -3.036072e-06      4.48985    16.950112      4.48985 
       9   -1876.1567    1.4345926 -0.00012332871 -3.036072e-06      4.48985    16.950112      4.48985 
      10   -1876.1567    1.4345926 -0.00012332364 -3.0361282e-06      4.48985    16.950112      4.48985 
Loop time of 0.153049 on 1 procs for 9 steps with 336 atoms

Minimization stats:
  Stopping criterion = energy tolerance
  Energy initial, next-to-last, final = 
         -1874.2080544     -1876.15665965     -1876.15668429
  Force two-norm initial, final = 10.2112 0.00168432
  Force max component initial, final = 1.42246 0.000306863
  Final line search alpha, max atom move = 0 0
  Iterations, force evaluations = 9 302

Pair  time (%) = 0.136642 (89.2797)
Neigh time (%) = 0 (0)
Comm  time (%) = 0.00938107 (6.12946)
Outpt time (%) = 0.00201292 (1.31522)
Other time (%) = 0.00501327 (3.2756)

Nlocal:    336 ave 336 max 336 min
Histogram: 1 0 0 0 0 0 0 0 0 0
Nghost:    1101 ave 1101 max 1101 min
Histogram: 1 0 0 0 0 0 0 0 0 0
Neighs:    8504 ave 8504 max 8504 min
Histogram: 1 0 0 0 0 0 0 0 0 0

Total # of neighbors = 8504
Ave neighs/atom = 25.3095
Neighbor list builds = 0
Dangerous builds = 0
        next i
jump SELF loop1
        read_dump orig.dump 0 x y z
  orthogonal box = (0 -0.603507 0) to (4.48985 16.1837 4.48985)
  336 atoms before read
  336 atoms in snapshot
  0 atoms purged
  336 atoms replaced
  0 atoms trimmed
  0 atoms added
  336 atoms after read
        variable stretch equal 1+$i*${strainstep}
        variable stretch equal 1+20*${strainstep}
        variable stretch equal 1+20*0.0005
        change_box all ${direction} scale ${stretch} remap
        change_box all y scale ${stretch} remap
        change_box all y scale 1.01 remap
  orthogonal box = (0 -0.689138 0) to (4.48985 16.2694 4.48985)
        min_style ${style}
        min_style hftn
        minimize ${etol} ${ftol} ${maxiter} ${maxeval}
        minimize 1e-12 ${ftol} ${maxiter} ${maxeval}
        minimize 1e-12 1e-08 ${maxiter} ${maxeval}
        minimize 1e-12 1e-08 10000 ${maxeval}
        minimize 1e-12 1e-08 10000 20000
WARNING: Resetting reneighboring criteria during minimization (../min.cpp:168)
Memory usage per processor = 4.9009 Mbytes
Step PotEng Pxx Pyy Pxy Lx Ly Lz 
       0   -1874.0071    1.0432603   -1.2146999  0.053099109      4.48985    16.958507      4.48985 
       1   -1876.1374    1.4667125  0.099649842 0.0035013154      4.48985    16.958507      4.48985 
       2   -1876.1566     1.433289 0.00068385042 -0.0035570522      4.48985    16.958507      4.48985 
       3   -1876.1567    1.4339183 -2.3171803e-05 1.4386609e-05      4.48985    16.958507      4.48985 
       4   -1876.1567    1.4339183 -2.3171803e-05 1.4386609e-05      4.48985    16.958507      4.48985 
       5   -1876.1567    1.4339188 -1.7587664e-05 3.5158509e-06      4.48985    16.958507      4.48985 
       6   -1876.1567    1.4339193 -1.1346861e-05 -9.9644309e-06      4.48985    16.958507      4.48985 
       7   -1876.1567    1.4339193 -1.1346861e-05 -9.9644309e-06      4.48985    16.958507      4.48985 
       8   -1876.1567    1.4339193 -1.1346861e-05 -9.9644309e-06      4.48985    16.958507      4.48985 
       9   -1876.1567    1.4339193 -1.1346861e-05 -9.9644309e-06      4.48985    16.958507      4.48985 
      10   -1876.1567    1.4339192 -1.1226278e-05 -9.9379196e-06      4.48985    16.958507      4.48985 
      11   -1876.1567    1.4339192 -1.1028281e-05 -9.8258846e-06      4.48985    16.958507      4.48985 
Loop time of 0.224224 on 1 procs for 10 steps with 336 atoms

Minimization stats:
  Stopping criterion = energy tolerance
  Energy initial, next-to-last, final = 
        -1874.00712515     -1876.15668395     -1876.15668395
  Force two-norm initial, final = 10.7005 0.000163975
  Force max component initial, final = 1.49024 2.08054e-05
  Final line search alpha, max atom move = 0 0
  Iterations, force evaluations = 10 455

Pair  time (%) = 0.189848 (84.6687)
Neigh time (%) = 0 (0)
Comm  time (%) = 0.0223215 (9.95502)
Outpt time (%) = 0.00161596 (0.720691)
Other time (%) = 0.0104389 (4.65555)

Nlocal:    336 ave 336 max 336 min
Histogram: 1 0 0 0 0 0 0 0 0 0
Nghost:    1101 ave 1101 max 1101 min
Histogram: 1 0 0 0 0 0 0 0 0 0
Neighs:    8504 ave 8504 max 8504 min
Histogram: 1 0 0 0 0 0 0 0 0 0

Total # of neighbors = 8504
Ave neighs/atom = 25.3095
Neighbor list builds = 0
Dangerous builds = 0
        next i
jump SELF loop1
        read_dump orig.dump 0 x y z
  orthogonal box = (0 -0.603507 0) to (4.48985 16.1837 4.48985)
  336 atoms before read
  336 atoms in snapshot
  0 atoms purged
  336 atoms replaced
  0 atoms trimmed
  0 atoms added
  336 atoms after read
        variable stretch equal 1+$i*${strainstep}
        variable stretch equal 1+21*${strainstep}
        variable stretch equal 1+21*0.0005
        change_box all ${direction} scale ${stretch} remap
        change_box all y scale ${stretch} remap
        change_box all y scale 1.0105 remap
  orthogonal box = (0 -0.693336 0) to (4.48985 16.2736 4.48985)
        min_style ${style}
        min_style hftn
        minimize ${etol} ${ftol} ${maxiter} ${maxeval}
        minimize 1e-12 ${ftol} ${maxiter} ${maxeval}
        minimize 1e-12 1e-08 ${maxiter} ${maxeval}
        minimize 1e-12 1e-08 10000 ${maxeval}
        minimize 1e-12 1e-08 10000 20000
WARNING: Resetting reneighboring criteria during minimization (../min.cpp:168)
Memory usage per processor = 4.9009 Mbytes
Step PotEng Pxx Pyy Pxy Lx Ly Lz 
       0   -1873.7968    1.0247217   -1.2696843  0.056044352      4.48985    16.966903      4.48985 
       1   -1876.1331    1.4697855   0.11086914 0.0037722984      4.48985    16.966903      4.48985 
       2   -1876.1566    1.4326093 0.00090407403 -0.0037317254      4.48985    16.966903      4.48985 
       3   -1876.1567    1.4332008 -4.164324e-05 2.1437251e-05      4.48985    16.966903      4.48985 
       4   -1876.1567    1.4332008 -4.164324e-05 2.1437251e-05      4.48985    16.966903      4.48985 
       5   -1876.1567    1.4332008 -4.164324e-05 2.1437251e-05      4.48985    16.966903      4.48985 
       6   -1876.1567    1.4332008 -4.164324e-05 2.1437251e-05      4.48985    16.966903      4.48985 
       7   -1876.1567    1.4332008 -4.164324e-05 2.1437251e-05      4.48985    16.966903      4.48985 
       8   -1876.1567    1.4332008 -4.164324e-05 2.1437251e-05      4.48985    16.966903      4.48985 
       9   -1876.1567    1.4332008 -4.164324e-05 2.1437251e-05      4.48985    16.966903      4.48985 
      10   -1876.1567    1.4332009 -4.1641878e-05 2.1433598e-05      4.48985    16.966903      4.48985 
Loop time of 0.14939 on 1 procs for 9 steps with 336 atoms

Minimization stats:
  Stopping criterion = energy tolerance
  Energy initial, next-to-last, final = 
        -1873.79679288     -1876.15660759     -1876.15668413
  Force two-norm initial, final = 11.186 0.00207777
  Force max component initial, final = 1.55751 0.000217193
  Final line search alpha, max atom move = 0 0
  Iterations, force evaluations = 9 298

Pair  time (%) = 0.127614 (85.4231)
Neigh time (%) = 0 (0)
Comm  time (%) = 0.015269 (10.2209)
Outpt time (%) = 0.00135091 (0.904287)
Other time (%) = 0.00515652 (3.45172)

Nlocal:    336 ave 336 max 336 min
Histogram: 1 0 0 0 0 0 0 0 0 0
Nghost:    1101 ave 1101 max 1101 min
Histogram: 1 0 0 0 0 0 0 0 0 0
Neighs:    8504 ave 8504 max 8504 min
Histogram: 1 0 0 0 0 0 0 0 0 0

Total # of neighbors = 8504
Ave neighs/atom = 25.3095
Neighbor list builds = 0
Dangerous builds = 0
        next i
jump SELF loop1
        read_dump orig.dump 0 x y z
  orthogonal box = (0 -0.603507 0) to (4.48985 16.1837 4.48985)
  336 atoms before read
  336 atoms in snapshot
  0 atoms purged
  336 atoms replaced
  0 atoms trimmed
  0 atoms added
  336 atoms after read
        variable stretch equal 1+$i*${strainstep}
        variable stretch equal 1+22*${strainstep}
        variable stretch equal 1+22*0.0005
        change_box all ${direction} scale ${stretch} remap
        change_box all y scale ${stretch} remap
        change_box all y scale 1.011 remap
  orthogonal box = (0 -0.697534 0) to (4.48985 16.2778 4.48985)
        min_style ${style}
        min_style hftn
        minimize ${etol} ${ftol} ${maxiter} ${maxeval}
        minimize 1e-12 ${ftol} ${maxiter} ${maxeval}
        minimize 1e-12 1e-08 ${maxiter} ${maxeval}
        minimize 1e-12 1e-08 10000 ${maxeval}
        minimize 1e-12 1e-08 10000 20000
WARNING: Resetting reneighboring criteria during minimization (../min.cpp:168)
Memory usage per processor = 4.9009 Mbytes
Step PotEng Pxx Pyy Pxy Lx Ly Lz 
       0   -1873.5774    1.0063036   -1.3242657  0.059017372      4.48985    16.975298      4.48985 
       1   -1876.0137    1.4525318  0.058408869  0.013168295      4.48985    16.975298      4.48985 
       2   -1876.1558    1.4344465 0.0097948701 -0.0034342001      4.48985    16.975298      4.48985 
       3   -1876.1567      1.43252 2.4989444e-06 -4.9948155e-06      4.48985    16.975298      4.48985 
       4   -1876.1567      1.43252 2.4989444e-06 -4.9948155e-06      4.48985    16.975298      4.48985 
       5   -1876.1567      1.43252 2.4989444e-06 -4.9948155e-06      4.48985    16.975298      4.48985 
       6   -1876.1567      1.43252 2.4989444e-06 -4.9948155e-06      4.48985    16.975298      4.48985 
       7   -1876.1567      1.43252 2.4989444e-06 -4.9948155e-06      4.48985    16.975298      4.48985 
       8   -1876.1567      1.43252 2.4989444e-06 -4.9948155e-06      4.48985    16.975298      4.48985 
       9   -1876.1567      1.43252 2.4989444e-06 -4.9948155e-06      4.48985    16.975298      4.48985 
      10   -1876.1567      1.43252 2.5025052e-06 -5.0015588e-06      4.48985    16.975298      4.48985 
Loop time of 0.131082 on 1 procs for 9 steps with 336 atoms

Minimization stats:
  Stopping criterion = energy tolerance
  Energy initial, next-to-last, final = 
        -1873.57736847     -1876.15579831     -1876.15668582
  Force two-norm initial, final = 11.6685 0.00952997
  Force max component initial, final = 1.62427 0.00117714
[...]
       7   -1876.1463    1.4579342  0.046222493 -0.022814148      4.48985    16.819895      4.48985 
       8   -1876.1567    1.4458355 0.00039712597 -0.00014890654      4.48985    16.819895      4.48985 
       9   -1876.1567    1.4458355 0.00039712597 -0.00014890654      4.48985    16.819895      4.48985 
      10   -1876.1567    1.4458355 0.00039712597 -0.00014890654      4.48985    16.819895      4.48985 
      11   -1876.1567    1.4458355 0.00039712597 -0.00014890654      4.48985    16.819895      4.48985 
      12   -1876.1567    1.4458355 0.00039712597 -0.00014890654      4.48985    16.819895      4.48985 
      13   -1876.1567    1.4458355 0.00039712597 -0.00014890654      4.48985    16.819895      4.48985 
      14   -1876.1567    1.4458355 0.00039712597 -0.00014890654      4.48985    16.819895      4.48985 
      15   -1876.1567    1.4458355 0.00039712597 -0.00014890654      4.48985    16.819895      4.48985 
      16   -1876.1567    1.4458355 0.00039712899 -0.00014891608      4.48985    16.819895      4.48985 
Loop time of 0.19013 on 1 procs for 15 steps with 336 atoms

Minimization stats:
  Stopping criterion = energy tolerance
  Energy initial, next-to-last, final = 
        -1836.71260416     -1876.14629147     -1876.15670732
  Force two-norm initial, final = 39.1522 0.0188766
  Force max component initial, final = 5.31218 0.00199361
  Final line search alpha, max atom move = 0 0
  Iterations, force evaluations = 15 368

Pair  time (%) = 0.159515 (83.8977)
Neigh time (%) = 0.000771125 (0.405578)
Comm  time (%) = 0.0224587 (11.8123)
Outpt time (%) = 0.00112636 (0.592417)
Other time (%) = 0.0062591 (3.29201)

Nlocal:    336 ave 336 max 336 min
Histogram: 1 0 0 0 0 0 0 0 0 0
Nghost:    1101 ave 1101 max 1101 min
Histogram: 1 0 0 0 0 0 0 0 0 0
Neighs:    8504 ave 8504 max 8504 min
Histogram: 1 0 0 0 0 0 0 0 0 0

Total # of neighbors = 8504
Ave neighs/atom = 25.3095
Neighbor list builds = 2
Dangerous builds = 0
        next i
jump SELF loop1
        read_dump orig.dump 0 x y z
  orthogonal box = (0 -0.603507 0) to (4.48985 16.1837 4.48985)
  336 atoms before read
  336 atoms in snapshot
  0 atoms purged
  336 atoms replaced
  0 atoms trimmed
  0 atoms added
  336 atoms after read
        variable stretch equal 1+$i*${strainstep}
        variable stretch equal 1+96*${strainstep}
        variable stretch equal 1+96*0.0005
        change_box all ${direction} scale ${stretch} remap
        change_box all y scale ${stretch} remap
        change_box all y scale 1.048 remap
  orthogonal box = (0 -1.00816 0) to (4.48985 16.5884 4.48985)
        min_style ${style}
        min_style hftn
        minimize ${etol} ${ftol} ${maxiter} ${maxeval}
        minimize 1e-12 ${ftol} ${maxiter} ${maxeval}
        minimize 1e-12 1e-08 ${maxiter} ${maxeval}
        minimize 1e-12 1e-08 10000 ${maxeval}
        minimize 1e-12 1e-08 10000 20000
WARNING: Resetting reneighboring criteria during minimization (../min.cpp:168)
Memory usage per processor = 4.90121 Mbytes
Step PotEng Pxx Pyy Pxy Lx Ly Lz 
       0   -1835.9732 -0.069135005   -4.3846696   0.31907328      4.48985     17.59655      4.48985 
       1   -1843.1088   0.18119097   -3.0778926   0.14501015      4.48985     17.59655      4.48985 
       2   -1852.7906   0.40532342   -2.8818685   0.16222528      4.48985     17.59655      4.48985 
       3    -1860.214   0.60483984   -2.0741913  0.066450957      4.48985    17.157273      4.48985 
       4   -1866.9808   0.80505957   -1.8777965  0.042875945      4.48985    17.157273      4.48985 
       5   -1871.4831    1.0110999   -1.2077817  0.041234681      4.48985    17.157273      4.48985 
       6   -1874.9323    1.2365609  -0.45937846 -0.011923844      4.48985    16.820533      4.48985 
       7   -1876.1457    1.4584808  0.048215463 -0.023378633      4.48985    16.820533      4.48985 
       8   -1876.1567    1.4457596 0.00044357597 -0.00020156191      4.48985    16.820533      4.48985 
       9   -1876.1567    1.4457596 0.00044357597 -0.00020156191      4.48985    16.820533      4.48985 
      10   -1876.1567    1.4457596 0.00044357597 -0.00020156191      4.48985    16.820533      4.48985 
      11   -1876.1567    1.4457596 0.00044357597 -0.00020156191      4.48985    16.820533      4.48985 
      12   -1876.1567    1.4457596 0.00044357597 -0.00020156191      4.48985    16.820533      4.48985 
      13   -1876.1567    1.4457596 0.00044357597 -0.00020156191      4.48985    16.820533      4.48985 
      14   -1876.1567    1.4457596 0.00044357597 -0.00020156191      4.48985    16.820533      4.48985 
      15   -1876.1567    1.4457596 0.00044357597 -0.00020156191      4.48985    16.820533      4.48985 
      16   -1876.1567    1.4457595 0.00044357973 -0.00020157495      4.48985    16.820533      4.48985 
Loop time of 0.190786 on 1 procs for 15 steps with 336 atoms

Minimization stats:
  Stopping criterion = energy tolerance
  Energy initial, next-to-last, final = 
        -1835.97316146     -1876.14569892     -1876.15671714
  Force two-norm initial, final = 39.4398 0.0205966
  Force max component initial, final = 5.34883 0.00255116
  Final line search alpha, max atom move = 0 0
  Iterations, force evaluations = 15 374

Pair  time (%) = 0.164058 (85.9907)
Neigh time (%) = 0.000988082 (0.517901)
Comm  time (%) = 0.0165562 (8.67786)
Outpt time (%) = 0.00117627 (0.616539)
Other time (%) = 0.00800737 (4.19704)

Nlocal:    336 ave 336 max 336 min
Histogram: 1 0 0 0 0 0 0 0 0 0
Nghost:    1101 ave 1101 max 1101 min
Histogram: 1 0 0 0 0 0 0 0 0 0
Neighs:    8504 ave 8504 max 8504 min
Histogram: 1 0 0 0 0 0 0 0 0 0

Total # of neighbors = 8504
Ave neighs/atom = 25.3095
Neighbor list builds = 2
Dangerous builds = 0
        next i
jump SELF loop1
        read_dump orig.dump 0 x y z
  orthogonal box = (0 -0.603507 0) to (4.48985 16.1837 4.48985)
  336 atoms before read
  336 atoms in snapshot
  0 atoms purged
  336 atoms replaced
  0 atoms trimmed
  0 atoms added
  336 atoms after read
        variable stretch equal 1+$i*${strainstep}
        variable stretch equal 1+97*${strainstep}
        variable stretch equal 1+97*0.0005
        change_box all ${direction} scale ${stretch} remap
        change_box all y scale ${stretch} remap
        change_box all y scale 1.0485 remap
  orthogonal box = (0 -1.01236 0) to (4.48985 16.5926 4.48985)
        min_style ${style}
        min_style hftn
        minimize ${etol} ${ftol} ${maxiter} ${maxeval}
        minimize 1e-12 ${ftol} ${maxiter} ${maxeval}
        minimize 1e-12 1e-08 ${maxiter} ${maxeval}
        minimize 1e-12 1e-08 10000 ${maxeval}
        minimize 1e-12 1e-08 10000 20000
WARNING: Resetting reneighboring criteria during minimization (../min.cpp:168)
Memory usage per processor = 4.90121 Mbytes
Step PotEng Pxx Pyy Pxy Lx Ly Lz 
       0   -1835.2284 -0.080333052    -4.414926   0.32277086      4.48985    17.604945      4.48985 
       1   -1842.4255   0.17262026   -3.0954802   0.14578681      4.48985    17.604945      4.48985 
       2   -1852.3407   0.40470672   -2.9526694    0.1662244      4.48985    17.301792      4.48985 
       3   -1859.8888    0.5935169   -2.0694932  0.067186658      4.48985    17.301792      4.48985 
       4   -1866.7673   0.79088056   -1.8816267  0.042945872      4.48985    17.301792      4.48985 
       5   -1871.3161    1.0106654   -1.2502534  0.045495671      4.48985    16.983524      4.48985 
       6   -1874.8988    1.2305262  -0.43520104 -0.0093124513      4.48985    16.983524      4.48985 
       7   -1876.1453    1.4451255  0.049337076 -0.022873395      4.48985    16.983524      4.48985 
       8   -1876.1567    1.4318796 0.00043862566 -0.00021183306      4.48985    16.983524      4.48985 
       9   -1876.1567    1.4318796 0.00043862566 -0.00021183306      4.48985    16.983524      4.48985 
      10   -1876.1567    1.4318796 0.00043862566 -0.00021183306      4.48985    16.983524      4.48985 
      11   -1876.1567    1.4318796 0.00043862566 -0.00021183306      4.48985    16.983524      4.48985 
      12   -1876.1567    1.4318796 0.00043862566 -0.00021183306      4.48985    16.983524      4.48985 
      13   -1876.1567    1.4318796 0.00043862566 -0.00021183306      4.48985    16.983524      4.48985 
      14   -1876.1567    1.4318796 0.00043862566 -0.00021183306      4.48985    16.983524      4.48985 
      15   -1876.1567    1.4318796 0.00043864004 -0.00021190625      4.48985    16.983524      4.48985 
Loop time of 0.186431 on 1 procs for 14 steps with 336 atoms

Minimization stats:
  Stopping criterion = energy tolerance
  Energy initial, next-to-last, final = 
         -1835.2284201     -1876.14529077     -1876.15671535
  Force two-norm initial, final = 39.725 0.0217061
  Force max component initial, final = 5.38505 0.00285303
  Final line search alpha, max atom move = 0 0
  Iterations, force evaluations = 14 361

Pair  time (%) = 0.157864 (84.677)
Neigh time (%) = 0.00046696 (0.250473)
Comm  time (%) = 0.0139012 (7.4565)
Outpt time (%) = 0.0070728 (3.79379)
Other time (%) = 0.00712591 (3.82228)

Nlocal:    336 ave 336 max 336 min
Histogram: 1 0 0 0 0 0 0 0 0 0
Nghost:    1101 ave 1101 max 1101 min
Histogram: 1 0 0 0 0 0 0 0 0 0
Neighs:    8504 ave 8504 max 8504 min
Histogram: 1 0 0 0 0 0 0 0 0 0

Total # of neighbors = 8504
Ave neighs/atom = 25.3095
Neighbor list builds = 2
Dangerous builds = 0
        next i
jump SELF loop1
        read_dump orig.dump 0 x y z
  orthogonal box = (0 -0.603507 0) to (4.48985 16.1837 4.48985)
  336 atoms before read
  336 atoms in snapshot
  0 atoms purged
  336 atoms replaced
  0 atoms trimmed
  0 atoms added
  336 atoms after read
        variable stretch equal 1+$i*${strainstep}
        variable stretch equal 1+98*${strainstep}
        variable stretch equal 1+98*0.0005
        change_box all ${direction} scale ${stretch} remap
        change_box all y scale ${stretch} remap
        change_box all y scale 1.049 remap
  orthogonal box = (0 -1.01656 0) to (4.48985 16.5968 4.48985)
        min_style ${style}
        min_style hftn
        minimize ${etol} ${ftol} ${maxiter} ${maxeval}
        minimize 1e-12 ${ftol} ${maxiter} ${maxeval}
        minimize 1e-12 1e-08 ${maxiter} ${maxeval}
        minimize 1e-12 1e-08 10000 ${maxeval}
        minimize 1e-12 1e-08 10000 20000
WARNING: Resetting reneighboring criteria during minimization (../min.cpp:168)
Memory usage per processor = 4.90121 Mbytes
Step PotEng Pxx Pyy Pxy Lx Ly Lz 
       0   -1834.4787  -0.09146161   -4.4449465   0.32647118      4.48985    17.613341      4.48985 
       1   -1841.7503   0.16330155   -3.1134547    0.1472877      4.48985    17.613341      4.48985 
       2   -1851.8655   0.39799729   -2.9743537   0.16913261      4.48985     17.30697      4.48985 
       3    -1859.579   0.58675294   -2.0798759  0.068553993      4.48985     17.30697      4.48985 
       4   -1866.6047   0.78606063   -1.8911531  0.043294177      4.48985     17.30697      4.48985 
       5   -1871.2203    1.0021317   -1.2730407  0.047274492      4.48985    16.986899      4.48985 
       6   -1874.8613    1.2310711  -0.43153426 -0.011845854      4.48985    16.986899      4.48985 
       7   -1876.1449    1.4454679  0.051450169 -0.022986113      4.48985    16.986899      4.48985 
       8   -1876.1567    1.4316004 0.00044912806 -0.00021292744      4.48985    16.986899      4.48985 
       9   -1876.1567    1.4316004 0.00044912806 -0.00021292744      4.48985    16.986899      4.48985 
      10   -1876.1567    1.4316004 0.00044912806 -0.00021292744      4.48985    16.986899      4.48985 
      11   -1876.1567    1.4316004 0.00044912806 -0.00021292744      4.48985    16.986899      4.48985 
      12   -1876.1567    1.4316004 0.00044912806 -0.00021292744      4.48985    16.986899      4.48985 
      13   -1876.1567    1.4316004 0.00044912806 -0.00021292744      4.48985    16.986899      4.48985 
      14   -1876.1567    1.4316004 0.00044912806 -0.00021292744      4.48985    16.986899      4.48985 
      15   -1876.1567    1.4316004 0.00044912806 -0.00021292744      4.48985    16.986899      4.48985 
      16   -1876.1567    1.4316004 0.00044913058 -0.00021294109      4.48985    16.986899      4.48985 
Loop time of 0.232118 on 1 procs for 15 steps with 336 atoms

Minimization stats:
  Stopping criterion = energy tolerance
  Energy initial, next-to-last, final = 
        -1834.47871095     -1876.14488135     -1876.15671571
  Force two-norm initial, final = 40.0086 0.020345
  Force max component initial, final = 5.42107 0.00274193
  Final line search alpha, max atom move = 0 0
  Iterations, force evaluations = 15 368

Pair  time (%) = 0.194292 (83.704)
Neigh time (%) = 0.00146693 (0.631976)
Comm  time (%) = 0.0189899 (8.18116)
Outpt time (%) = 0.000866852 (0.373453)
Other time (%) = 0.0165022 (7.10942)

Nlocal:    336 ave 336 max 336 min
Histogram: 1 0 0 0 0 0 0 0 0 0
Nghost:    1101 ave 1101 max 1101 min
Histogram: 1 0 0 0 0 0 0 0 0 0
Neighs:    8504 ave 8504 max 8504 min
Histogram: 1 0 0 0 0 0 0 0 0 0

Total # of neighbors = 8504
Ave neighs/atom = 25.3095
Neighbor list builds = 2
Dangerous builds = 0
        next i
jump SELF loop1
        read_dump orig.dump 0 x y z
  orthogonal box = (0 -0.603507 0) to (4.48985 16.1837 4.48985)
  336 atoms before read
  336 atoms in snapshot
  0 atoms purged
  336 atoms replaced
  0 atoms trimmed
  0 atoms added
  336 atoms after read
        variable stretch equal 1+$i*${strainstep}
        variable stretch equal 1+99*${strainstep}
        variable stretch equal 1+99*0.0005
        change_box all ${direction} scale ${stretch} remap
        change_box all y scale ${stretch} remap
        change_box all y scale 1.0495 remap
  orthogonal box = (0 -1.02075 0) to (4.48985 16.601 4.48985)
        min_style ${style}
        min_style hftn
        minimize ${etol} ${ftol} ${maxiter} ${maxeval}
        minimize 1e-12 ${ftol} ${maxiter} ${maxeval}
        minimize 1e-12 1e-08 ${maxiter} ${maxeval}
        minimize 1e-12 1e-08 10000 ${maxeval}
        minimize 1e-12 1e-08 10000 20000
WARNING: Resetting reneighboring criteria during minimization (../min.cpp:168)
Memory usage per processor = 4.90121 Mbytes
Step PotEng Pxx Pyy Pxy Lx Ly Lz 
       0   -1833.7239  -0.10251313   -4.4747219   0.33016824      4.48985    17.621736      4.48985 
       1   -1839.5233  0.017979478   -3.6069845   0.17233802      4.48985    17.621736      4.48985 
       2   -1850.0171   0.35162409   -3.0558117   0.09858419      4.48985    17.621736      4.48985 
       3   -1856.3136   0.40368371   -2.7235488  0.051726372      4.48985    17.263764      4.48985 
       4   -1861.0224    0.5759917   -2.4259422   0.10918269      4.48985    17.263764      4.48985 
       5   -1867.3018   0.69641809   -1.9597994  0.022302867      4.48985    17.263764      4.48985 
       6    -1871.916    1.1061353   -0.8584185 -0.016142802      4.48985     16.91682      4.48985 
       7   -1875.9575    1.4653547   0.10591756 -0.048743872      4.48985     16.91682      4.48985 
       8   -1876.1564    1.4392424 0.0057842054 -1.5144244e-05      4.48985     16.91682      4.48985 
       9   -1876.1567    1.4374647 1.2776445e-06 -1.2802401e-06      4.48985     16.91682      4.48985 
      10   -1876.1567    1.4374647 1.2776445e-06 -1.2802401e-06      4.48985     16.91682      4.48985 
      11   -1876.1567    1.4374647 1.2776445e-06 -1.2802401e-06      4.48985     16.91682      4.48985 
      12   -1876.1567    1.4374647 1.2776445e-06 -1.2802401e-06      4.48985     16.91682      4.48985 
      13   -1876.1567    1.4374647 1.2776445e-06 -1.2802401e-06      4.48985     16.91682      4.48985 
      14   -1876.1567    1.4374647 1.2776445e-06 -1.2802401e-06      4.48985     16.91682      4.48985 
      15   -1876.1567    1.4374647 1.2867274e-06 -1.2859105e-06      4.48985     16.91682      4.48985 
Loop time of 0.203986 on 1 procs for 14 steps with 336 atoms

Minimization stats:
  Stopping criterion = energy tolerance
  Energy initial, next-to-last, final = 
        -1833.72385749     -1876.15637616     -1876.15668373
  Force two-norm initial, final = 40.29 0.00280582
  Force max component initial, final = 5.45666 0.000526286
  Final line search alpha, max atom move = 0 0
  Iterations, force evaluations = 14 415

Pair  time (%) = 0.175293 (85.9336)
Neigh time (%) = 0.000801126 (0.392736)
Comm  time (%) = 0.0172203 (8.44192)
Outpt time (%) = 0.00361317 (1.77128)
Other time (%) = 0.00705882 (3.46044)

Nlocal:    336 ave 336 max 336 min
Histogram: 1 0 0 0 0 0 0 0 0 0
Nghost:    1101 ave 1101 max 1101 min
Histogram: 1 0 0 0 0 0 0 0 0 0
Neighs:    8504 ave 8504 max 8504 min
Histogram: 1 0 0 0 0 0 0 0 0 0

Total # of neighbors = 8504
Ave neighs/atom = 25.3095
Neighbor list builds = 2
Dangerous builds = 0
        next i
jump SELF loop1
        read_dump orig.dump 0 x y z
  orthogonal box = (0 -0.603507 0) to (4.48985 16.1837 4.48985)
  336 atoms before read
  336 atoms in snapshot
  0 atoms purged
  336 atoms replaced
  0 atoms trimmed
  0 atoms added
  336 atoms after read
        variable stretch equal 1+$i*${strainstep}
        variable stretch equal 1+100*${strainstep}
        variable stretch equal 1+100*0.0005
        change_box all ${direction} scale ${stretch} remap
        change_box all y scale ${stretch} remap
        change_box all y scale 1.05 remap
  orthogonal box = (0 -1.02495 0) to (4.48985 16.6052 4.48985)
        min_style ${style}
        min_style hftn
        minimize ${etol} ${ftol} ${maxiter} ${maxeval}
        minimize 1e-12 ${ftol} ${maxiter} ${maxeval}
        minimize 1e-12 1e-08 ${maxiter} ${maxeval}
        minimize 1e-12 1e-08 10000 ${maxeval}
        minimize 1e-12 1e-08 10000 20000
WARNING: Resetting reneighboring criteria during minimization (../min.cpp:168)
Memory usage per processor = 4.90121 Mbytes
Step PotEng Pxx Pyy Pxy Lx Ly Lz 
       0    -1832.964  -0.11349133   -4.5042547   0.33386447      4.48985    17.630131      4.48985 
       1   -1838.8367 0.0085817214   -3.6284874   0.17345297      4.48985    17.630131      4.48985 
       2   -1849.5486   0.34498007   -3.0724035  0.098393255      4.48985    17.630131      4.48985 
       3   -1855.9534   0.39443548   -2.7457997  0.054078969      4.48985    17.268107      4.48985 
       4   -1863.4477   0.84197209   -1.7868825  0.036980845      4.48985    17.268107      4.48985 
       5   -1869.4477   0.83016999   -1.6787065  0.045480255      4.48985    17.268107      4.48985 
       6   -1872.7481    1.0992739  -0.91960812 0.0047226334      4.48985    16.935644      4.48985 
       7   -1876.0739    1.4846737   0.15942441  -0.03599745      4.48985    16.935644      4.48985 
       8   -1876.1566     1.436992 0.0032273967 -2.5379073e-05      4.48985    16.935644      4.48985 
       9   -1876.1567    1.4358627 1.1568314e-05 -3.446553e-06      4.48985    16.935644      4.48985 
      10   -1876.1567    1.4358611 -1.6352947e-09 3.3524991e-09      4.48985    16.935644      4.48985 
      11   -1876.1567    1.4358611 8.0372091e-11 3.4902145e-11      4.48985    16.935644      4.48985 
Loop time of 0.249294 on 1 procs for 10 steps with 336 atoms

Minimization stats:
  Stopping criterion = force tolerance
  Energy initial, next-to-last, final = 
        -1832.96400695     -1876.15668339     -1876.15668352
  Force two-norm initial, final = 40.5697 5.7502e-09
  Force max component initial, final = 5.49205 2.73945e-09
  Final line search alpha, max atom move = 0 0
  Iterations, force evaluations = 10 498

Pair  time (%) = 0.216805 (86.9674)
Neigh time (%) = 0.000891895 (0.357768)
Comm  time (%) = 0.0202277 (8.114)
Outpt time (%) = 0.001542 (0.618548)
Other time (%) = 0.0098278 (3.94225)

Nlocal:    336 ave 336 max 336 min
Histogram: 1 0 0 0 0 0 0 0 0 0
Nghost:    1101 ave 1101 max 1101 min
Histogram: 1 0 0 0 0 0 0 0 0 0
Neighs:    8504 ave 8504 max 8504 min
Histogram: 1 0 0 0 0 0 0 0 0 0

Total # of neighbors = 8504
Ave neighs/atom = 25.3095
Neighbor list builds = 2
Dangerous builds = 0
        next i
jump SELF loop1

