LAMMPS (28 Jun 2014)
# attempt at getting tensile strain-stress curve for infinite slab

#file prefix
variable prefix string tension_Warner_ductile
variable dumpfile string ${prefix}.*.dump
variable dumpfile string tension_Warner_ductile.*.dump
variable restartfile string ${prefix}.*.equil
variable restartfile string tension_Warner_ductile.*.equil

#Mass (g/mol)
variable m equal 1

# lattice constant (in Angstroms) and orientation of axes (given by lattice vectors)
variable rho equal 0.9165
variable x1 equal 1
variable x2 equal 0
variable x3 equal 0
variable y1 equal 0
variable y2 equal 1
variable y3 equal 0
# length of lattice in different directions (using orientation of lattice vectors)
variable ax equal sqrt(${x1}*${x1}+${x2}*${x2}+${x3}*${x3})
variable ax equal sqrt(1*${x1}+${x2}*${x2}+${x3}*${x3})
variable ax equal sqrt(1*1+${x2}*${x2}+${x3}*${x3})
variable ax equal sqrt(1*1+0*${x2}+${x3}*${x3})
variable ax equal sqrt(1*1+0*0+${x3}*${x3})
variable ax equal sqrt(1*1+0*0+0*${x3})
variable ax equal sqrt(1*1+0*0+0*0)
variable ay equal sqrt(${y1}*${y1}+${y2}*${y2}+${y3}*${y3})
variable ay equal sqrt(0*${y1}+${y2}*${y2}+${y3}*${y3})
variable ay equal sqrt(0*0+${y2}*${y2}+${y3}*${y3})
variable ay equal sqrt(0*0+1*${y2}+${y3}*${y3})
variable ay equal sqrt(0*0+1*1+${y3}*${y3})
variable ay equal sqrt(0*0+1*1+0*${y3})
variable ay equal sqrt(0*0+1*1+0*0)
variable az equal 1

# size of box in lattice units
variable lxpos equal 3
variable lxneg equal 0
variable lypos equal 3
variable lyneg equal 0
variable lzpos equal 0.25
variable lzneg equal -0.25

# Define minimization parameters and damping
variable etol equal 1.0e-12
variable ftol equal 1.0e-8
variable maxiter equal 10000
variable maxeval equal 20000
variable style string hftn

# boundary conditions
dimension	2
boundary	p p p
atom_style	atomic

# create geometry
units		lj
lattice         hex ${rho}
lattice         hex 0.9165
Lattice spacing in x,y,z = 1.12245 1.94415 1.12245
region		myregion block ${lxneg} ${lxpos} ${lyneg} ${lypos} ${lzneg} ${lzpos} units lattice
region		myregion block 0 ${lxpos} ${lyneg} ${lypos} ${lzneg} ${lzpos} units lattice
region		myregion block 0 3 ${lyneg} ${lypos} ${lzneg} ${lzpos} units lattice
region		myregion block 0 3 0 ${lypos} ${lzneg} ${lzpos} units lattice
region		myregion block 0 3 0 3 ${lzneg} ${lzpos} units lattice
region		myregion block 0 3 0 3 -0.25 ${lzpos} units lattice
region		myregion block 0 3 0 3 -0.25 0.25 units lattice
create_box	1 myregion
Created orthogonal box = (0 0 -0.280613) to (3.36736 5.83244 0.280613)
  1 by 1 by 1 MPI processor grid
create_atoms	1 box
Created 18 atoms

# define masses
mass * $m
mass * 1

# my fake/morse potential
pair_style      table linear 3001
pair_coeff      * * da_potential_ductile dummy
neighbor	0.3 bin
neigh_modify	delay 5

# Setup output
thermo 1
thermo_style custom step pe pxx pyy pxy lx ly lz
thermo_modify norm no

# Compute initial state by relaxing box
min_style ${style}
min_style hftn
minimize ${etol} ${ftol} ${maxiter} ${maxeval}
minimize 1e-12 ${ftol} ${maxiter} ${maxeval}
minimize 1e-12 1e-08 ${maxiter} ${maxeval}
minimize 1e-12 1e-08 10000 ${maxeval}
minimize 1e-12 1e-08 10000 20000
WARNING: Resetting reneighboring criteria during minimization (../min.cpp:168)
Memory usage per processor = 4.85096 Mbytes
Step PotEng Pxx Pyy Pxy Lx Ly Lz 
       0   -53.999999 -0.031632625 -0.031632625 3.2456778e-18    3.3673612    5.8324407   0.56122687 
Loop time of 1.49842e-05 on 1 procs for 0 steps with 18 atoms

Minimization stats:
  Stopping criterion = force tolerance
  Energy initial, next-to-last, final = 
         -53.999999314      -53.999999314      -53.999999314
  Force two-norm initial, final = 1.09869e-13 1.09869e-13
  Force max component initial, final = 4.96682e-14 4.96682e-14
  Final line search alpha, max atom move = 0 0
  Iterations, force evaluations = 0 0

Pair  time (%) = 6.97735e-06 (46.5648)
Neigh time (%) = 0 (0)
Comm  time (%) = 9.94187e-07 (6.63492)
Outpt time (%) = 0 (0)
Other time (%) = 7.01263e-06 (46.8002)

Nlocal:    18 ave 18 max 18 min
Histogram: 1 0 0 0 0 0 0 0 0 0
Nghost:    65 ave 65 max 65 min
Histogram: 1 0 0 0 0 0 0 0 0 0
Neighs:    162 ave 162 max 162 min
Histogram: 1 0 0 0 0 0 0 0 0 0

Total # of neighbors = 162
Ave neighs/atom = 9
Neighbor list builds = 0
Dangerous builds = 0
reset_timestep 0
write_dump all atom orig.dump

# Energy curve will have nstep steps
variable strainmax equal 0.05
variable strainstep equal 0.0005
variable nsteps equal round(${strainmax}/${strainstep})
variable nsteps equal round(0.05/${strainstep})
variable nsteps equal round(0.05/0.0005)
variable direction string y

variable i loop ${nsteps}
variable i loop 100
label loop1
	read_dump orig.dump 0 x y
  orthogonal box = (0 0 -0.280613) to (3.36736 5.83244 0.280613)
  18 atoms before read
  18 atoms in snapshot
  0 atoms purged
  18 atoms replaced
  0 atoms trimmed
  0 atoms added
  18 atoms after read
        variable stretch equal 1+$i*${strainstep}
        variable stretch equal 1+1*${strainstep}
        variable stretch equal 1+1*0.0005
        change_box all ${direction} scale ${stretch} remap
        change_box all y scale ${stretch} remap
        change_box all y scale 1.0005 remap
  orthogonal box = (0 -0.00145811 -0.280613) to (3.36736 5.8339 0.280613)
        min_style ${style}
        min_style hftn
        minimize ${etol} ${ftol} ${maxiter} ${maxeval}
        minimize 1e-12 ${ftol} ${maxiter} ${maxeval}
        minimize 1e-12 1e-08 ${maxiter} ${maxeval}
        minimize 1e-12 1e-08 10000 ${maxeval}
        minimize 1e-12 1e-08 10000 20000
WARNING: Resetting reneighboring criteria during minimization (../min.cpp:168)
Memory usage per processor = 4.85096 Mbytes
Step PotEng Pxx Pyy Pxy Lx Ly Lz 
       0   -53.999849 -0.036828101 -0.047328088 -7.9435237e-18      3.36736    5.8353562   0.56122687 
       1   -53.999849 -0.036828156 -0.047328087 1.5427955e-18      3.36736    5.8353562   0.56122687 
       2   -53.999849 -0.036828156 -0.047328087 2.2360109e-18      3.36736    5.8353562   0.56122687 
Loop time of 0.000213954 on 1 procs for 1 steps with 18 atoms

Minimization stats:
  Stopping criterion = force tolerance
  Energy initial, next-to-last, final = 
        -53.9998490345     -53.9998490345     -53.9998491094
  Force two-norm initial, final = 0.000847025 2.69079e-09
  Force max component initial, final = 0.000211774 7.77434e-10
  Final line search alpha, max atom move = 0 0
  Iterations, force evaluations = 1 15

Pair  time (%) = 9.39328e-05 (43.9032)
Neigh time (%) = 0 (0)
Comm  time (%) = 1.10881e-05 (5.18246)
Outpt time (%) = 4.10117e-05 (19.1685)
Other time (%) = 6.79216e-05 (31.7458)

Nlocal:    18 ave 18 max 18 min
Histogram: 1 0 0 0 0 0 0 0 0 0
Nghost:    65 ave 65 max 65 min
Histogram: 1 0 0 0 0 0 0 0 0 0
Neighs:    162 ave 162 max 162 min
Histogram: 1 0 0 0 0 0 0 0 0 0

Total # of neighbors = 162
Ave neighs/atom = 9
Neighbor list builds = 0
Dangerous builds = 0
        next i
jump SELF loop1
	read_dump orig.dump 0 x y
  orthogonal box = (0 0 -0.280613) to (3.36736 5.83244 0.280613)
  18 atoms before read
  18 atoms in snapshot
  0 atoms purged
  18 atoms replaced
  0 atoms trimmed
  0 atoms added
  18 atoms after read
        variable stretch equal 1+$i*${strainstep}
        variable stretch equal 1+2*${strainstep}
        variable stretch equal 1+2*0.0005
        change_box all ${direction} scale ${stretch} remap
        change_box all y scale ${stretch} remap
        change_box all y scale 1.001 remap
  orthogonal box = (0 -0.00291622 -0.280613) to (3.36736 5.83536 0.280613)
        min_style ${style}
        min_style hftn
        minimize ${etol} ${ftol} ${maxiter} ${maxeval}
        minimize 1e-12 ${ftol} ${maxiter} ${maxeval}
        minimize 1e-12 1e-08 ${maxiter} ${maxeval}
        minimize 1e-12 1e-08 10000 ${maxeval}
        minimize 1e-12 1e-08 10000 20000
WARNING: Resetting reneighboring criteria during minimization (../min.cpp:168)
Memory usage per processor = 4.85096 Mbytes
Step PotEng Pxx Pyy Pxy Lx Ly Lz 
       0    -53.99969 -0.042031954 -0.063049844 -2.3995622e-16      3.36736    5.8382724   0.56122687 
       1    -53.99969  -0.04203201 -0.063049843 5.7577849e-17      3.36736    5.8382724   0.56122687 
       2    -53.99969  -0.04203201 -0.063049843 5.9798687e-17      3.36736    5.8382724   0.56122687 
Loop time of 0.000209082 on 1 procs for 1 steps with 18 atoms

Minimization stats:
  Stopping criterion = force tolerance
  Energy initial, next-to-last, final = 
        -53.9996902343     -53.9996902343     -53.9996903092
  Force two-norm initial, final = 0.000840686 3.22901e-09
  Force max component initial, final = 0.000209881 9.33325e-10
  Final line search alpha, max atom move = 0 0
  Iterations, force evaluations = 1 15

Pair  time (%) = 9.59799e-05 (45.9053)
Neigh time (%) = 0 (0)
Comm  time (%) = 1.38908e-05 (6.64369)
Outpt time (%) = 3.90009e-05 (18.6534)
Other time (%) = 6.02108e-05 (28.7977)

Nlocal:    18 ave 18 max 18 min
Histogram: 1 0 0 0 0 0 0 0 0 0
Nghost:    65 ave 65 max 65 min
Histogram: 1 0 0 0 0 0 0 0 0 0
Neighs:    162 ave 162 max 162 min
Histogram: 1 0 0 0 0 0 0 0 0 0

Total # of neighbors = 162
Ave neighs/atom = 9
Neighbor list builds = 0
Dangerous builds = 0
        next i
jump SELF loop1
	read_dump orig.dump 0 x y
  orthogonal box = (0 0 -0.280613) to (3.36736 5.83244 0.280613)
  18 atoms before read
  18 atoms in snapshot
  0 atoms purged
  18 atoms replaced
  0 atoms trimmed
  0 atoms added
  18 atoms after read
        variable stretch equal 1+$i*${strainstep}
        variable stretch equal 1+3*${strainstep}
        variable stretch equal 1+3*0.0005
        change_box all ${direction} scale ${stretch} remap
        change_box all y scale ${stretch} remap
        change_box all y scale 1.0015 remap
  orthogonal box = (0 -0.00437433 -0.280613) to (3.36736 5.83681 0.280613)
        min_style ${style}
        min_style hftn
        minimize ${etol} ${ftol} ${maxiter} ${maxeval}
        minimize 1e-12 ${ftol} ${maxiter} ${maxeval}
        minimize 1e-12 1e-08 ${maxiter} ${maxeval}
        minimize 1e-12 1e-08 10000 ${maxeval}
        minimize 1e-12 1e-08 10000 20000
WARNING: Resetting reneighboring criteria during minimization (../min.cpp:168)
Memory usage per processor = 4.85096 Mbytes
Step PotEng Pxx Pyy Pxy Lx Ly Lz 
       0   -53.999234 -0.047177669 -0.078627977 -1.7166766e-16      3.36736    5.8411887   0.56122687 
       1   -53.999234 -0.047177724 -0.078627977 1.2377485e-16      3.36736    5.8411887   0.56122687 
       2   -53.999234 -0.047177724 -0.078627977 1.2959057e-16      3.36736    5.8411887   0.56122687 
Loop time of 0.000144962 on 1 procs for 1 steps with 18 atoms

Minimization stats:
  Stopping criterion = force tolerance
  Energy initial, next-to-last, final = 
        -53.9992338993     -53.9992338993     -53.9992339742
  Force two-norm initial, final = 0.000842046 2.69787e-09
  Force max component initial, final = 0.0002103 7.79475e-10
  Final line search alpha, max atom move = 0 0
  Iterations, force evaluations = 1 15

Pair  time (%) = 9.22967e-05 (63.6694)
Neigh time (%) = 0 (0)
Comm  time (%) = 1.27691e-05 (8.80858)
Outpt time (%) = 7.07305e-06 (4.87923)
Other time (%) = 3.28235e-05 (22.6428)

Nlocal:    18 ave 18 max 18 min
Histogram: 1 0 0 0 0 0 0 0 0 0
Nghost:    65 ave 65 max 65 min
Histogram: 1 0 0 0 0 0 0 0 0 0
Neighs:    162 ave 162 max 162 min
Histogram: 1 0 0 0 0 0 0 0 0 0

Total # of neighbors = 162
Ave neighs/atom = 9
Neighbor list builds = 0
Dangerous builds = 0
        next i
jump SELF loop1
	read_dump orig.dump 0 x y
  orthogonal box = (0 0 -0.280613) to (3.36736 5.83244 0.280613)
  18 atoms before read
  18 atoms in snapshot
  0 atoms purged
  18 atoms replaced
  0 atoms trimmed
  0 atoms added
  18 atoms after read
        variable stretch equal 1+$i*${strainstep}
        variable stretch equal 1+4*${strainstep}
        variable stretch equal 1+4*0.0005
        change_box all ${direction} scale ${stretch} remap
        change_box all y scale ${stretch} remap
        change_box all y scale 1.002 remap
  orthogonal box = (0 -0.00583244 -0.280613) to (3.36736 5.83827 0.280613)
        min_style ${style}
        min_style hftn
        minimize ${etol} ${ftol} ${maxiter} ${maxeval}
        minimize 1e-12 ${ftol} ${maxiter} ${maxeval}
        minimize 1e-12 1e-08 ${maxiter} ${maxeval}
        minimize 1e-12 1e-08 10000 ${maxeval}
        minimize 1e-12 1e-08 10000 20000
WARNING: Resetting reneighboring criteria during minimization (../min.cpp:168)
Memory usage per processor = 4.85096 Mbytes
Step PotEng Pxx Pyy Pxy Lx Ly Lz 
       0   -53.998761 -0.052317753 -0.094220144 -2.4916545e-18      3.36736    5.8441049   0.56122687 
       1   -53.998761 -0.052317809 -0.094220144 -1.1297617e-16      3.36736    5.8441049   0.56122687 
       2   -53.998761 -0.052317809 -0.094220144 -1.0174163e-17      3.36736    5.8441049   0.56122687 
Loop time of 0.0001461 on 1 procs for 1 steps with 18 atoms

Minimization stats:
  Stopping criterion = force tolerance
  Energy initial, next-to-last, final = 
        -53.9987608916     -53.9987608916     -53.9987609665
  Force two-norm initial, final = 0.000835753 2.7885e-09
  Force max component initial, final = 0.000208419 8.06542e-10
  Final line search alpha, max atom move = 0 0
  Iterations, force evaluations = 1 15

Pair  time (%) = 9.37681e-05 (64.1808)
Neigh time (%) = 0 (0)
Comm  time (%) = 1.39972e-05 (9.58056)
Outpt time (%) = 7.97224e-06 (5.4567)
Other time (%) = 3.03624e-05 (20.7819)

Nlocal:    18 ave 18 max 18 min
Histogram: 1 0 0 0 0 0 0 0 0 0
Nghost:    65 ave 65 max 65 min
Histogram: 1 0 0 0 0 0 0 0 0 0
Neighs:    162 ave 162 max 162 min
Histogram: 1 0 0 0 0 0 0 0 0 0

Total # of neighbors = 162
Ave neighs/atom = 9
Neighbor list builds = 0
Dangerous builds = 0
        next i
jump SELF loop1
	read_dump orig.dump 0 x y
  orthogonal box = (0 0 -0.280613) to (3.36736 5.83244 0.280613)
  18 atoms before read
  18 atoms in snapshot
  0 atoms purged
  18 atoms replaced
  0 atoms trimmed
  0 atoms added
  18 atoms after read
        variable stretch equal 1+$i*${strainstep}
        variable stretch equal 1+5*${strainstep}
        variable stretch equal 1+5*0.0005
        change_box all ${direction} scale ${stretch} remap
        change_box all y scale ${stretch} remap
        change_box all y scale 1.0025 remap
  orthogonal box = (0 -0.00729055 -0.280613) to (3.36736 5.83973 0.280613)
        min_style ${style}
        min_style hftn
        minimize ${etol} ${ftol} ${maxiter} ${maxeval}
        minimize 1e-12 ${ftol} ${maxiter} ${maxeval}
        minimize 1e-12 1e-08 ${maxiter} ${maxeval}
        minimize 1e-12 1e-08 10000 ${maxeval}
        minimize 1e-12 1e-08 10000 20000
WARNING: Resetting reneighboring criteria during minimization (../min.cpp:168)
Memory usage per processor = 4.85096 Mbytes
Step PotEng Pxx Pyy Pxy Lx Ly Lz 
       0   -53.998001 -0.057401796  -0.10967433 -1.2891307e-17      3.36736    5.8470211   0.56122687 
       1   -53.998001 -0.057401852  -0.10967432 -1.3007116e-16      3.36736    5.8470211   0.56122687 
       2   -53.998001 -0.057401852  -0.10967432 -5.3743871e-17      3.36736    5.8470211   0.56122687 
Loop time of 0.000145041 on 1 procs for 1 steps with 18 atoms

Minimization stats:
  Stopping criterion = force tolerance
  Energy initial, next-to-last, final = 
        -53.9980013056     -53.9980013056     -53.9980013805
  Force two-norm initial, final = 0.000837101 2.70497e-09
  Force max component initial, final = 0.000208835 7.81505e-10
  Final line search alpha, max atom move = 0 0
  Iterations, force evaluations = 1 15

Pair  time (%) = 9.40858e-05 (64.8684)
Neigh time (%) = 0 (0)
Comm  time (%) = 1.37253e-05 (9.463)
Outpt time (%) = 8.10542e-06 (5.58836)
Other time (%) = 2.91247e-05 (20.0803)

Nlocal:    18 ave 18 max 18 min
Histogram: 1 0 0 0 0 0 0 0 0 0
Nghost:    65 ave 65 max 65 min
Histogram: 1 0 0 0 0 0 0 0 0 0
Neighs:    162 ave 162 max 162 min
Histogram: 1 0 0 0 0 0 0 0 0 0

Total # of neighbors = 162
Ave neighs/atom = 9
Neighbor list builds = 0
Dangerous builds = 0
        next i
jump SELF loop1
	read_dump orig.dump 0 x y
  orthogonal box = (0 0 -0.280613) to (3.36736 5.83244 0.280613)
  18 atoms before read
  18 atoms in snapshot
  0 atoms purged
  18 atoms replaced
  0 atoms trimmed
  0 atoms added
  18 atoms after read
        variable stretch equal 1+$i*${strainstep}
        variable stretch equal 1+6*${strainstep}
        variable stretch equal 1+6*0.0005
        change_box all ${direction} scale ${stretch} remap
        change_box all y scale ${stretch} remap
        change_box all y scale 1.003 remap
  orthogonal box = (0 -0.00874866 -0.280613) to (3.36736 5.84119 0.280613)
        min_style ${style}
        min_style hftn
        minimize ${etol} ${ftol} ${maxiter} ${maxeval}
        minimize 1e-12 ${ftol} ${maxiter} ${maxeval}
        minimize 1e-12 1e-08 ${maxiter} ${maxeval}
        minimize 1e-12 1e-08 10000 ${maxeval}
        minimize 1e-12 1e-08 10000 20000
WARNING: Resetting reneighboring criteria during minimization (../min.cpp:168)
Memory usage per processor = 4.85096 Mbytes
Step PotEng Pxx Pyy Pxy Lx Ly Lz 
       0   -53.997216 -0.062478657   -0.1251375 2.2434046e-16      3.36736    5.8499373   0.56122687 
       1   -53.997216 -0.062478713   -0.1251375 1.1635019e-16      3.36736    5.8499373   0.56122687 
       2   -53.997216 -0.062478713   -0.1251375 4.0580791e-17      3.36736    5.8499373   0.56122687 
Loop time of 0.000143924 on 1 procs for 1 steps with 18 atoms

Minimization stats:
  Stopping criterion = force tolerance
  Energy initial, next-to-last, final = 
         -53.997216408      -53.997216408     -53.9972164829
  Force two-norm initial, final = 0.000830853 2.71331e-09
  Force max component initial, final = 0.000206966 7.83886e-10
  Final line search alpha, max atom move = 0 0
  Iterations, force evaluations = 1 15

Pair  time (%) = 9.37285e-05 (65.1238)
Neigh time (%) = 0 (0)
Comm  time (%) = 1.00108e-05 (6.95562)
Outpt time (%) = 7.03428e-06 (4.88751)
Other time (%) = 3.31501e-05 (23.0331)

Nlocal:    18 ave 18 max 18 min
Histogram: 1 0 0 0 0 0 0 0 0 0
Nghost:    65 ave 65 max 65 min
Histogram: 1 0 0 0 0 0 0 0 0 0
Neighs:    162 ave 162 max 162 min
Histogram: 1 0 0 0 0 0 0 0 0 0

Total # of neighbors = 162
Ave neighs/atom = 9
Neighbor list builds = 0
Dangerous builds = 0
        next i
jump SELF loop1
	read_dump orig.dump 0 x y
  orthogonal box = (0 0 -0.280613) to (3.36736 5.83244 0.280613)
  18 atoms before read
  18 atoms in snapshot
  0 atoms purged
  18 atoms replaced
  0 atoms trimmed
  0 atoms added
  18 atoms after read
        variable stretch equal 1+$i*${strainstep}
        variable stretch equal 1+7*${strainstep}
        variable stretch equal 1+7*0.0005
        change_box all ${direction} scale ${stretch} remap
        change_box all y scale ${stretch} remap
        change_box all y scale 1.0035 remap
  orthogonal box = (0 -0.0102068 -0.280613) to (3.36736 5.84265 0.280613)
        min_style ${style}
        min_style hftn
        minimize ${etol} ${ftol} ${maxiter} ${maxeval}
        minimize 1e-12 ${ftol} ${maxiter} ${maxeval}
        minimize 1e-12 1e-08 ${maxiter} ${maxeval}
        minimize 1e-12 1e-08 10000 ${maxeval}
        minimize 1e-12 1e-08 10000 20000
WARNING: Resetting reneighboring criteria during minimization (../min.cpp:168)
Memory usage per processor = 4.85096 Mbytes
Step PotEng Pxx Pyy Pxy Lx Ly Lz 
       0   -53.996156 -0.067501647  -0.14046857 4.3198445e-17      3.36736    5.8528535   0.56122687 
       1   -53.996156 -0.067501703  -0.14046857 -1.2054081e-16      3.36736    5.8528535   0.56122687 
       2   -53.996156 -0.067501703  -0.14046857 9.8090603e-18      3.36736    5.8528535   0.56122687 
Loop time of 0.000144024 on 1 procs for 1 steps with 18 atoms

Minimization stats:
  Stopping criterion = force tolerance
  Energy initial, next-to-last, final = 
        -53.9961562832     -53.9961562832     -53.9961563582
  Force two-norm initial, final = 0.000832187 2.71199e-09
  Force max component initial, final = 0.000207377 7.83501e-10
  Final line search alpha, max atom move = 0 0
  Iterations, force evaluations = 1 15

Pair  time (%) = 9.39133e-05 (65.2066)
Neigh time (%) = 0 (0)
Comm  time (%) = 1.6049e-05 (11.1433)
Outpt time (%) = 8.08842e-06 (5.61602)
Other time (%) = 2.59734e-05 (18.0341)

Nlocal:    18 ave 18 max 18 min
Histogram: 1 0 0 0 0 0 0 0 0 0
Nghost:    65 ave 65 max 65 min
Histogram: 1 0 0 0 0 0 0 0 0 0
Neighs:    162 ave 162 max 162 min
Histogram: 1 0 0 0 0 0 0 0 0 0

Total # of neighbors = 162
Ave neighs/atom = 9
Neighbor list builds = 0
Dangerous builds = 0
        next i
jump SELF loop1
	read_dump orig.dump 0 x y
  orthogonal box = (0 0 -0.280613) to (3.36736 5.83244 0.280613)
  18 atoms before read
  18 atoms in snapshot
  0 atoms purged
  18 atoms replaced
  0 atoms trimmed
  0 atoms added
  18 atoms after read
        variable stretch equal 1+$i*${strainstep}
        variable stretch equal 1+8*${strainstep}
        variable stretch equal 1+8*0.0005
        change_box all ${direction} scale ${stretch} remap
        change_box all y scale ${stretch} remap
        change_box all y scale 1.004 remap
  orthogonal box = (0 -0.0116649 -0.280613) to (3.36736 5.8441 0.280613)
        min_style ${style}
        min_style hftn
        minimize ${etol} ${ftol} ${maxiter} ${maxeval}
        minimize 1e-12 ${ftol} ${maxiter} ${maxeval}
        minimize 1e-12 1e-08 ${maxiter} ${maxeval}
        minimize 1e-12 1e-08 10000 ${maxeval}
        minimize 1e-12 1e-08 10000 20000
WARNING: Resetting reneighboring criteria during minimization (../min.cpp:168)
Memory usage per processor = 4.85096 Mbytes
Step PotEng Pxx Pyy Pxy Lx Ly Lz 
       0   -53.995062 -0.072515827  -0.15580334 -1.0845693e-16      3.36736    5.8557698   0.56122687 
       1   -53.995062 -0.072515882  -0.15580334 -1.0436358e-16      3.36736    5.8557698   0.56122687 
       2   -53.995062 -0.072515882  -0.15580334 8.1244106e-18      3.36736    5.8557698   0.56122687 
Loop time of 0.000141046 on 1 procs for 1 steps with 18 atoms

Minimization stats:
  Stopping criterion = force tolerance
  Energy initial, next-to-last, final = 
        -53.9950618053     -53.9950618053     -53.9950618802
  Force two-norm initial, final = 0.000825985 2.72033e-09
  Force max component initial, final = 0.00020552 7.85894e-10
  Final line search alpha, max atom move = 0 0
  Iterations, force evaluations = 1 15

Pair  time (%) = 8.80982e-05 (62.4608)
Neigh time (%) = 0 (0)
Comm  time (%) = 1.42336e-05 (10.0915)
Outpt time (%) = 7.91787e-06 (5.61369)
Other time (%) = 3.07959e-05 (21.834)

Nlocal:    18 ave 18 max 18 min
Histogram: 1 0 0 0 0 0 0 0 0 0
Nghost:    65 ave 65 max 65 min
Histogram: 1 0 0 0 0 0 0 0 0 0
Neighs:    162 ave 162 max 162 min
Histogram: 1 0 0 0 0 0 0 0 0 0

Total # of neighbors = 162
Ave neighs/atom = 9
Neighbor list builds = 0
Dangerous builds = 0
        next i
jump SELF loop1
	read_dump orig.dump 0 x y
  orthogonal box = (0 0 -0.280613) to (3.36736 5.83244 0.280613)
  18 atoms before read
  18 atoms in snapshot
  0 atoms purged
  18 atoms replaced
  0 atoms trimmed
  0 atoms added
  18 atoms after read
        variable stretch equal 1+$i*${strainstep}
        variable stretch equal 1+9*${strainstep}
        variable stretch equal 1+9*0.0005
        change_box all ${direction} scale ${stretch} remap
        change_box all y scale ${stretch} remap
        change_box all y scale 1.0045 remap
  orthogonal box = (0 -0.013123 -0.280613) to (3.36736 5.84556 0.280613)
        min_style ${style}
        min_style hftn
        minimize ${etol} ${ftol} ${maxiter} ${maxeval}
        minimize 1e-12 ${ftol} ${maxiter} ${maxeval}
        minimize 1e-12 1e-08 ${maxiter} ${maxeval}
        minimize 1e-12 1e-08 10000 ${maxeval}
        minimize 1e-12 1e-08 10000 20000
WARNING: Resetting reneighboring criteria during minimization (../min.cpp:168)
Memory usage per processor = 4.85096 Mbytes
Step PotEng Pxx Pyy Pxy Lx Ly Lz 
       0   -53.993704 -0.077478377  -0.17101214 -1.4677468e-16      3.36736     5.858686   0.56122687 
       1   -53.993704 -0.077478432  -0.17101214 -1.402229e-16      3.36736     5.858686   0.56122687 
       2   -53.993704 -0.077478432  -0.17101214 -1.8223218e-17      3.36736     5.858686   0.56122687 
Loop time of 0.000146004 on 1 procs for 1 steps with 18 atoms

Minimization stats:
  Stopping criterion = force tolerance
  Energy initial, next-to-last, final = 
        -53.9937038189     -53.9937038189     -53.9937038938
  Force two-norm initial, final = 0.000827306 2.71902e-09
  Force max component initial, final = 0.000205928 7.85512e-10
  Final line search alpha, max atom move = 0 0
  Iterations, force evaluations = 1 15

Pair  time (%) = 9.40003e-05 (64.3818)
Neigh time (%) = 0 (0)
Comm  time (%) = 1.27924e-05 (8.76167)
Outpt time (%) = 8.11496e-06 (5.55803)
Other time (%) = 3.10967e-05 (21.2985)

Nlocal:    18 ave 18 max 18 min
Histogram: 1 0 0 0 0 0 0 0 0 0
Nghost:    65 ave 65 max 65 min
Histogram: 1 0 0 0 0 0 0 0 0 0
Neighs:    162 ave 162 max 162 min
Histogram: 1 0 0 0 0 0 0 0 0 0

Total # of neighbors = 162
Ave neighs/atom = 9
Neighbor list builds = 0
Dangerous builds = 0
        next i
jump SELF loop1
	read_dump orig.dump 0 x y
  orthogonal box = (0 0 -0.280613) to (3.36736 5.83244 0.280613)
  18 atoms before read
  18 atoms in snapshot
  0 atoms purged
  18 atoms replaced
  0 atoms trimmed
  0 atoms added
  18 atoms after read
        variable stretch equal 1+$i*${strainstep}
        variable stretch equal 1+10*${strainstep}
        variable stretch equal 1+10*0.0005
        change_box all ${direction} scale ${stretch} remap
        change_box all y scale ${stretch} remap
        change_box all y scale 1.005 remap
  orthogonal box = (0 -0.0145811 -0.280613) to (3.36736 5.84702 0.280613)
        min_style ${style}
        min_style hftn
        minimize ${etol} ${ftol} ${maxiter} ${maxeval}
        minimize 1e-12 ${ftol} ${maxiter} ${maxeval}
        minimize 1e-12 1e-08 ${maxiter} ${maxeval}
        minimize 1e-12 1e-08 10000 ${maxeval}
        minimize 1e-12 1e-08 10000 20000
WARNING: Resetting reneighboring criteria during minimization (../min.cpp:168)
Memory usage per processor = 4.85096 Mbytes
Step PotEng Pxx Pyy Pxy Lx Ly Lz 
       0   -53.992302 -0.082430413  -0.18621912 1.5342411e-17      3.36736    5.8616022   0.56122687 
       1   -53.992302 -0.082430469  -0.18621912 5.9392368e-18      3.36736    5.8616022   0.56122687 
       2   -53.992302 -0.082430469  -0.18621912 -1.1547935e-16      3.36736    5.8616022   0.56122687 
Loop time of 0.000145946 on 1 procs for 1 steps with 18 atoms

Minimization stats:
  Stopping criterion = force tolerance
  Energy initial, next-to-last, final = 
        -53.9923020536     -53.9923020536     -53.9923021285
  Force two-norm initial, final = 0.000821149 2.72728e-09
  Force max component initial, final = 0.000204083 7.87879e-10
  Final line search alpha, max atom move = 0 0
  Iterations, force evaluations = 1 15

Pair  time (%) = 9.292e-05 (63.6676)
Neigh time (%) = 0 (0)
Comm  time (%) = 1.22082e-05 (8.36493)
Outpt time (%) = 8.05617e-06 (5.51998)
Other time (%) = 3.27611e-05 (22.4475)

Nlocal:    18 ave 18 max 18 min
Histogram: 1 0 0 0 0 0 0 0 0 0
Nghost:    65 ave 65 max 65 min
Histogram: 1 0 0 0 0 0 0 0 0 0
Neighs:    162 ave 162 max 162 min
Histogram: 1 0 0 0 0 0 0 0 0 0

Total # of neighbors = 162
Ave neighs/atom = 9
Neighbor list builds = 0
Dangerous builds = 0
        next i
jump SELF loop1
	read_dump orig.dump 0 x y
  orthogonal box = (0 0 -0.280613) to (3.36736 5.83244 0.280613)
  18 atoms before read
  18 atoms in snapshot
  0 atoms purged
  18 atoms replaced
  0 atoms trimmed
  0 atoms added
  18 atoms after read
        variable stretch equal 1+$i*${strainstep}
        variable stretch equal 1+11*${strainstep}
        variable stretch equal 1+11*0.0005
        change_box all ${direction} scale ${stretch} remap
        change_box all y scale ${stretch} remap
        change_box all y scale 1.0055 remap
  orthogonal box = (0 -0.0160392 -0.280613) to (3.36736 5.84848 0.280613)
        min_style ${style}
        min_style hftn
        minimize ${etol} ${ftol} ${maxiter} ${maxeval}
        minimize 1e-12 ${ftol} ${maxiter} ${maxeval}
        minimize 1e-12 1e-08 ${maxiter} ${maxeval}
        minimize 1e-12 1e-08 10000 ${maxeval}
        minimize 1e-12 1e-08 10000 20000
WARNING: Resetting reneighboring criteria during minimization (../min.cpp:168)
Memory usage per processor = 4.85096 Mbytes
Step PotEng Pxx Pyy Pxy Lx Ly Lz 
       0   -53.990649 -0.087333129  -0.20130648 1.7551321e-16      3.36736    5.8645184   0.56122687 
       1   -53.990649 -0.087333185  -0.20130648 1.1622654e-16      3.36736    5.8645184   0.56122687 
       2   -53.990649 -0.087333185  -0.20130648 8.1146998e-18      3.36736    5.8645184   0.56122687 
Loop time of 0.000143914 on 1 procs for 1 steps with 18 atoms

Minimization stats:
  Stopping criterion = force tolerance
  Energy initial, next-to-last, final = 
        -53.9906488697     -53.9906488697     -53.9906489446
  Force two-norm initial, final = 0.000822458 2.726e-09
  Force max component initial, final = 0.000204487 7.87511e-10
  Final line search alpha, max atom move = 0 0
  Iterations, force evaluations = 1 15

Pair  time (%) = 9.27119e-05 (64.4218)
Neigh time (%) = 0 (0)
Comm  time (%) = 1.38843e-05 (9.64762)
Outpt time (%) = 7.0245e-06 (4.88104)
Other time (%) = 3.02932e-05 (21.0496)

Nlocal:    18 ave 18 max 18 min
Histogram: 1 0 0 0 0 0 0 0 0 0
Nghost:    65 ave 65 max 65 min
Histogram: 1 0 0 0 0 0 0 0 0 0
Neighs:    162 ave 162 max 162 min
Histogram: 1 0 0 0 0 0 0 0 0 0

Total # of neighbors = 162
Ave neighs/atom = 9
Neighbor list builds = 0
Dangerous builds = 0
        next i
jump SELF loop1
	read_dump orig.dump 0 x y
  orthogonal box = (0 0 -0.280613) to (3.36736 5.83244 0.280613)
  18 atoms before read
  18 atoms in snapshot
  0 atoms purged
  18 atoms replaced
  0 atoms trimmed
  0 atoms added
  18 atoms after read
        variable stretch equal 1+$i*${strainstep}
        variable stretch equal 1+12*${strainstep}
        variable stretch equal 1+12*0.0005
        change_box all ${direction} scale ${stretch} remap
        change_box all y scale ${stretch} remap
        change_box all y scale 1.006 remap
  orthogonal box = (0 -0.0174973 -0.280613) to (3.36736 5.84994 0.280613)
        min_style ${style}
        min_style hftn
        minimize ${etol} ${ftol} ${maxiter} ${maxeval}
        minimize 1e-12 ${ftol} ${maxiter} ${maxeval}
        minimize 1e-12 1e-08 ${maxiter} ${maxeval}
        minimize 1e-12 1e-08 10000 ${maxeval}
        minimize 1e-12 1e-08 10000 20000
WARNING: Resetting reneighboring criteria during minimization (../min.cpp:168)
Memory usage per processor = 4.85096 Mbytes
Step PotEng Pxx Pyy Pxy Lx Ly Lz 
       0   -53.988942 -0.092223559  -0.21638625 1.3039566e-17      3.36736    5.8674346   0.56122687 
       1   -53.988942 -0.092223614  -0.21638625 6.8016773e-17      3.36736    5.8674346   0.56122687 
       2   -53.988942 -0.092223614  -0.21638625 -5.0855777e-17      3.36736    5.8674346   0.56122687 
Loop time of 0.0001451 on 1 procs for 1 steps with 18 atoms

Minimization stats:
  Stopping criterion = force tolerance
  Energy initial, next-to-last, final = 
        -53.9889421139     -53.9889421139     -53.9889421888
  Force two-norm initial, final = 0.000816345 2.73425e-09
  Force max component initial, final = 0.000202653 7.89847e-10
  Final line search alpha, max atom move = 0 0
  Iterations, force evaluations = 1 15

Pair  time (%) = 9.36341e-05 (64.5306)
Neigh time (%) = 0 (0)
Comm  time (%) = 1.52522e-05 (10.5115)
Outpt time (%) = 6.97246e-06 (4.80527)
Other time (%) = 2.92415e-05 (20.1526)

Nlocal:    18 ave 18 max 18 min
Histogram: 1 0 0 0 0 0 0 0 0 0
Nghost:    65 ave 65 max 65 min
Histogram: 1 0 0 0 0 0 0 0 0 0
Neighs:    162 ave 162 max 162 min
Histogram: 1 0 0 0 0 0 0 0 0 0

Total # of neighbors = 162
Ave neighs/atom = 9
Neighbor list builds = 0
Dangerous builds = 0
        next i
jump SELF loop1
	read_dump orig.dump 0 x y
  orthogonal box = (0 0 -0.280613) to (3.36736 5.83244 0.280613)
  18 atoms before read
  18 atoms in snapshot
  0 atoms purged
  18 atoms replaced
  0 atoms trimmed
  0 atoms added
  18 atoms after read
        variable stretch equal 1+$i*${strainstep}
        variable stretch equal 1+13*${strainstep}
        variable stretch equal 1+13*0.0005
        change_box all ${direction} scale ${stretch} remap
        change_box all y scale ${stretch} remap
        change_box all y scale 1.0065 remap
  orthogonal box = (0 -0.0189554 -0.280613) to (3.36736 5.8514 0.280613)
        min_style ${style}
        min_style hftn
        minimize ${etol} ${ftol} ${maxiter} ${maxeval}
        minimize 1e-12 ${ftol} ${maxiter} ${maxeval}
        minimize 1e-12 1e-08 ${maxiter} ${maxeval}
        minimize 1e-12 1e-08 10000 ${maxeval}
        minimize 1e-12 1e-08 10000 20000
WARNING: Resetting reneighboring criteria during minimization (../min.cpp:168)
Memory usage per processor = 4.85096 Mbytes
Step PotEng Pxx Pyy Pxy Lx Ly Lz 
       0   -53.986996 -0.097067042  -0.23135299 -3.5123633e-17      3.36736    5.8703509   0.56122687 
       1   -53.986996 -0.097067097  -0.23135299 3.6368371e-17      3.36736    5.8703509   0.56122687 
       2   -53.986996 -0.097067097  -0.23135299 -1.2565942e-16      3.36736    5.8703509   0.56122687 
Loop time of 0.000144909 on 1 procs for 1 steps with 18 atoms

Minimization stats:
  Stopping criterion = force tolerance
  Energy initial, next-to-last, final = 
        -53.9869963809     -53.9869963809     -53.9869964558
  Force two-norm initial, final = 0.000817641 2.73291e-09
  Force max component initial, final = 0.000203054 7.89481e-10
  Final line search alpha, max atom move = 0 0
  Iterations, force evaluations = 1 15

Pair  time (%) = 9.21012e-05 (63.5578)
Neigh time (%) = 0 (0)
Comm  time (%) = 1.55703e-05 (10.7449)
Outpt time (%) = 8.01985e-06 (5.5344)
Other time (%) = 2.92179e-05 (20.1629)

Nlocal:    18 ave 18 max 18 min
Histogram: 1 0 0 0 0 0 0 0 0 0
Nghost:    65 ave 65 max 65 min
Histogram: 1 0 0 0 0 0 0 0 0 0
Neighs:    162 ave 162 max 162 min
Histogram: 1 0 0 0 0 0 0 0 0 0

Total # of neighbors = 162
Ave neighs/atom = 9
Neighbor list builds = 0
Dangerous builds = 0
        next i
jump SELF loop1
	read_dump orig.dump 0 x y
  orthogonal box = (0 0 -0.280613) to (3.36736 5.83244 0.280613)
  18 atoms before read
  18 atoms in snapshot
  0 atoms purged
  18 atoms replaced
  0 atoms trimmed
  0 atoms added
  18 atoms after read
        variable stretch equal 1+$i*${strainstep}
        variable stretch equal 1+14*${strainstep}
        variable stretch equal 1+14*0.0005
        change_box all ${direction} scale ${stretch} remap
        change_box all y scale ${stretch} remap
        change_box all y scale 1.007 remap
  orthogonal box = (0 -0.0204135 -0.280613) to (3.36736 5.85285 0.280613)
        min_style ${style}
        min_style hftn
        minimize ${etol} ${ftol} ${maxiter} ${maxeval}
        minimize 1e-12 ${ftol} ${maxiter} ${maxeval}
        minimize 1e-12 1e-08 ${maxiter} ${maxeval}
        minimize 1e-12 1e-08 10000 ${maxeval}
        minimize 1e-12 1e-08 10000 20000
WARNING: Resetting reneighboring criteria during minimization (../min.cpp:168)
Memory usage per processor = 4.85096 Mbytes
Step PotEng Pxx Pyy Pxy Lx Ly Lz 
       0   -53.984987   -0.1018964  -0.24630615 -7.3322097e-18      3.36736    5.8732671   0.56122687 
       1   -53.984987  -0.10189645  -0.24630615 6.9554298e-17      3.36736    5.8732671   0.56122687 
       2   -53.984987  -0.10189645  -0.24630615 -1.2226049e-16      3.36736    5.8732671   0.56122687 
Loop time of 0.000145008 on 1 procs for 1 steps with 18 atoms

Minimization stats:
  Stopping criterion = force tolerance
  Energy initial, next-to-last, final = 
        -53.9849869315     -53.9849869315     -53.9849870064
  Force two-norm initial, final = 0.000811572 2.74115e-09
  Force max component initial, final = 0.000201231 7.91816e-10
  Final line search alpha, max atom move = 0 0
  Iterations, force evaluations = 1 15

Pair  time (%) = 9.38238e-05 (64.7025)
Neigh time (%) = 0 (0)
Comm  time (%) = 1.53467e-05 (10.5833)
Outpt time (%) = 7.11845e-06 (4.90901)
Other time (%) = 2.8719e-05 (19.8051)

Nlocal:    18 ave 18 max 18 min
Histogram: 1 0 0 0 0 0 0 0 0 0
Nghost:    65 ave 65 max 65 min
Histogram: 1 0 0 0 0 0 0 0 0 0
Neighs:    162 ave 162 max 162 min
Histogram: 1 0 0 0 0 0 0 0 0 0

Total # of neighbors = 162
Ave neighs/atom = 9
Neighbor list builds = 0
Dangerous builds = 0
        next i
jump SELF loop1
	read_dump orig.dump 0 x y
  orthogonal box = (0 0 -0.280613) to (3.36736 5.83244 0.280613)
  18 atoms before read
  18 atoms in snapshot
  0 atoms purged
  18 atoms replaced
  0 atoms trimmed
  0 atoms added
  18 atoms after read
        variable stretch equal 1+$i*${strainstep}
        variable stretch equal 1+15*${strainstep}
        variable stretch equal 1+15*0.0005
        change_box all ${direction} scale ${stretch} remap
        change_box all y scale ${stretch} remap
        change_box all y scale 1.0075 remap
  orthogonal box = (0 -0.0218717 -0.280613) to (3.36736 5.85431 0.280613)
        min_style ${style}
        min_style hftn
        minimize ${etol} ${ftol} ${maxiter} ${maxeval}
        minimize 1e-12 ${ftol} ${maxiter} ${maxeval}
        minimize 1e-12 1e-08 ${maxiter} ${maxeval}
        minimize 1e-12 1e-08 10000 ${maxeval}
        minimize 1e-12 1e-08 10000 20000
WARNING: Resetting reneighboring criteria during minimization (../min.cpp:168)
Memory usage per processor = 4.85096 Mbytes
Step PotEng Pxx Pyy Pxy Lx Ly Lz 
       0   -53.982751  -0.10668124  -0.26115311 9.9426803e-17      3.36736    5.8761833   0.56122687 
       1   -53.982751  -0.10668129  -0.26115311 8.6895896e-18      3.36736    5.8761833   0.56122687 
       2   -53.982751  -0.10668129  -0.26115311 -5.8484001e-18      3.36736    5.8761833   0.56122687 
Loop time of 0.00019507 on 1 procs for 1 steps with 18 atoms

Minimization stats:
  Stopping criterion = force tolerance
  Energy initial, next-to-last, final = 
        -53.9827512782     -53.9827512782     -53.9827513531
  Force two-norm initial, final = 0.000812856 2.73984e-09
  Force max component initial, final = 0.000201628 7.91445e-10
  Final line search alpha, max atom move = 0 0
  Iterations, force evaluations = 1 15

Pair  time (%) = 9.31217e-05 (47.7376)
Neigh time (%) = 0 (0)
Comm  time (%) = 1.70885e-05 (8.76019)
Outpt time (%) = 3.9081e-05 (20.0344)
Other time (%) = 4.57787e-05 (23.4679)

Nlocal:    18 ave 18 max 18 min
Histogram: 1 0 0 0 0 0 0 0 0 0
Nghost:    65 ave 65 max 65 min
Histogram: 1 0 0 0 0 0 0 0 0 0
Neighs:    162 ave 162 max 162 min
Histogram: 1 0 0 0 0 0 0 0 0 0

Total # of neighbors = 162
Ave neighs/atom = 9
Neighbor list builds = 0
Dangerous builds = 0
        next i
jump SELF loop1
	read_dump orig.dump 0 x y
  orthogonal box = (0 0 -0.280613) to (3.36736 5.83244 0.280613)
  18 atoms before read
  18 atoms in snapshot
  0 atoms purged
  18 atoms replaced
  0 atoms trimmed
  0 atoms added
  18 atoms after read
        variable stretch equal 1+$i*${strainstep}
        variable stretch equal 1+16*${strainstep}
        variable stretch equal 1+16*0.0005
        change_box all ${direction} scale ${stretch} remap
        change_box all y scale ${stretch} remap
        change_box all y scale 1.008 remap
  orthogonal box = (0 -0.0233298 -0.280613) to (3.36736 5.85577 0.280613)
        min_style ${style}
        min_style hftn
        minimize ${etol} ${ftol} ${maxiter} ${maxeval}
        minimize 1e-12 ${ftol} ${maxiter} ${maxeval}
        minimize 1e-12 1e-08 ${maxiter} ${maxeval}
        minimize 1e-12 1e-08 10000 ${maxeval}
        minimize 1e-12 1e-08 10000 20000
WARNING: Resetting reneighboring criteria during minimization (../min.cpp:168)
Memory usage per processor = 4.85096 Mbytes
Step PotEng Pxx Pyy Pxy Lx Ly Lz 
       0   -53.980441  -0.11145005  -0.27598026 -4.4936423e-17      3.36736    5.8790995   0.56122687 
       1   -53.980441   -0.1114501  -0.27598026 -3.6364031e-17      3.36736    5.8790995   0.56122687 
       2   -53.980441   -0.1114501  -0.27598026 1.9316393e-17      3.36736    5.8790995   0.56122687 
Loop time of 0.00014491 on 1 procs for 1 steps with 18 atoms

Minimization stats:
  Stopping criterion = force tolerance
  Energy initial, next-to-last, final = 
        -53.9804414236     -53.9804414236     -53.9804414985
  Force two-norm initial, final = 0.000806831 2.74802e-09
  Force max component initial, final = 0.000199817 7.93771e-10
  Final line search alpha, max atom move = 0 0
  Iterations, force evaluations = 1 15

Pair  time (%) = 9.29325e-05 (64.131)
Neigh time (%) = 0 (0)
Comm  time (%) = 1.35641e-05 (9.36036)
Outpt time (%) = 8.0209e-06 (5.53508)
Other time (%) = 3.03928e-05 (20.9735)

Nlocal:    18 ave 18 max 18 min
Histogram: 1 0 0 0 0 0 0 0 0 0
Nghost:    65 ave 65 max 65 min
Histogram: 1 0 0 0 0 0 0 0 0 0
Neighs:    162 ave 162 max 162 min
Histogram: 1 0 0 0 0 0 0 0 0 0

Total # of neighbors = 162
Ave neighs/atom = 9
Neighbor list builds = 0
Dangerous builds = 0
        next i
jump SELF loop1
	read_dump orig.dump 0 x y
  orthogonal box = (0 0 -0.280613) to (3.36736 5.83244 0.280613)
  18 atoms before read
  18 atoms in snapshot
  0 atoms purged
  18 atoms replaced
  0 atoms trimmed
  0 atoms added
  18 atoms after read
        variable stretch equal 1+$i*${strainstep}
        variable stretch equal 1+17*${strainstep}
        variable stretch equal 1+17*0.0005
        change_box all ${direction} scale ${stretch} remap
        change_box all y scale ${stretch} remap
        change_box all y scale 1.0085 remap
  orthogonal box = (0 -0.0247879 -0.280613) to (3.36736 5.85723 0.280613)
        min_style ${style}
        min_style hftn
        minimize ${etol} ${ftol} ${maxiter} ${maxeval}
        minimize 1e-12 ${ftol} ${maxiter} ${maxeval}
        minimize 1e-12 1e-08 ${maxiter} ${maxeval}
        minimize 1e-12 1e-08 10000 ${maxeval}
        minimize 1e-12 1e-08 10000 20000
WARNING: Resetting reneighboring criteria during minimization (../min.cpp:168)
Memory usage per processor = 4.85096 Mbytes
Step PotEng Pxx Pyy Pxy Lx Ly Lz 
       0   -53.977918  -0.11617684  -0.29070823 -1.3044635e-17      3.36736    5.8820157   0.56122687 
       1   -53.977919   -0.1161769  -0.29070823 -5.0488511e-17      3.36736    5.8820157   0.56122687 
       2   -53.977919   -0.1161769  -0.29070823 -1.513555e-16      3.36736    5.8820157   0.56122687 
Loop time of 0.000145885 on 1 procs for 1 steps with 18 atoms

Minimization stats:
  Stopping criterion = force tolerance
  Energy initial, next-to-last, final = 
        -53.9779184417     -53.9779184417     -53.9779185166
  Force two-norm initial, final = 0.000808102 2.74672e-09
  Force max component initial, final = 0.000200211 7.93388e-10
  Final line search alpha, max atom move = 0 0
  Iterations, force evaluations = 1 15

Pair  time (%) = 9.40372e-05 (64.4596)
Neigh time (%) = 0 (0)
Comm  time (%) = 1.27273e-05 (8.7242)
Outpt time (%) = 8.04244e-06 (5.51285)
Other time (%) = 3.10785e-05 (21.3033)

Nlocal:    18 ave 18 max 18 min
Histogram: 1 0 0 0 0 0 0 0 0 0
Nghost:    65 ave 65 max 65 min
Histogram: 1 0 0 0 0 0 0 0 0 0
Neighs:    162 ave 162 max 162 min
Histogram: 1 0 0 0 0 0 0 0 0 0

Total # of neighbors = 162
Ave neighs/atom = 9
Neighbor list builds = 0
Dangerous builds = 0
        next i
jump SELF loop1
	read_dump orig.dump 0 x y
  orthogonal box = (0 0 -0.280613) to (3.36736 5.83244 0.280613)
  18 atoms before read
  18 atoms in snapshot
  0 atoms purged
  18 atoms replaced
  0 atoms trimmed
  0 atoms added
  18 atoms after read
        variable stretch equal 1+$i*${strainstep}
        variable stretch equal 1+18*${strainstep}
        variable stretch equal 1+18*0.0005
        change_box all ${direction} scale ${stretch} remap
        change_box all y scale ${stretch} remap
        change_box all y scale 1.009 remap
  orthogonal box = (0 -0.026246 -0.280613) to (3.36736 5.85869 0.280613)
        min_style ${style}
        min_style hftn
        minimize ${etol} ${ftol} ${maxiter} ${maxeval}
        minimize 1e-12 ${ftol} ${maxiter} ${maxeval}
        minimize 1e-12 1e-08 ${maxiter} ${maxeval}
        minimize 1e-12 1e-08 10000 ${maxeval}
        minimize 1e-12 1e-08 10000 20000
WARNING: Resetting reneighboring criteria during minimization (../min.cpp:168)
Memory usage per processor = 4.85096 Mbytes
Step PotEng Pxx Pyy Pxy Lx Ly Lz 
       0    -53.97531  -0.12088563  -0.30540998 1.2004502e-16      3.36736     5.884932   0.56122687 
       1   -53.975311  -0.12088568  -0.30540998 2.9479298e-17      3.36736     5.884932   0.56122687 
       2   -53.975311  -0.12088568  -0.30540998 -1.3207851e-16      3.36736     5.884932   0.56122687 
Loop time of 0.000143933 on 1 procs for 1 steps with 18 atoms

Minimization stats:
  Stopping criterion = force tolerance
  Energy initial, next-to-last, final = 
        -53.9753104535     -53.9753104535     -53.9753105285
  Force two-norm initial, final = 0.000802122 2.75489e-09
  Force max component initial, final = 0.00019841 7.95706e-10
  Final line search alpha, max atom move = 0 0
  Iterations, force evaluations = 1 15

Pair  time (%) = 9.39755e-05 (65.2912)
Neigh time (%) = 0 (0)
Comm  time (%) = 1.40276e-05 (9.74592)
Outpt time (%) = 7.99715e-06 (5.55617)
Other time (%) = 2.79327e-05 (19.4067)

Nlocal:    18 ave 18 max 18 min
Histogram: 1 0 0 0 0 0 0 0 0 0
Nghost:    65 ave 65 max 65 min
Histogram: 1 0 0 0 0 0 0 0 0 0
Neighs:    162 ave 162 max 162 min
Histogram: 1 0 0 0 0 0 0 0 0 0

Total # of neighbors = 162
Ave neighs/atom = 9
Neighbor list builds = 0
Dangerous builds = 0
        next i
jump SELF loop1
	read_dump orig.dump 0 x y
  orthogonal box = (0 0 -0.280613) to (3.36736 5.83244 0.280613)
  18 atoms before read
  18 atoms in snapshot
  0 atoms purged
  18 atoms replaced
  0 atoms trimmed
  0 atoms added
  18 atoms after read
        variable stretch equal 1+$i*${strainstep}
        variable stretch equal 1+19*${strainstep}
        variable stretch equal 1+19*0.0005
        change_box all ${direction} scale ${stretch} remap
        change_box all y scale ${stretch} remap
        change_box all y scale 1.0095 remap
  orthogonal box = (0 -0.0277041 -0.280613) to (3.36736 5.86014 0.280613)
        min_style ${style}
        min_style hftn
        minimize ${etol} ${ftol} ${maxiter} ${maxeval}
        minimize 1e-12 ${ftol} ${maxiter} ${maxeval}
        minimize 1e-12 1e-08 ${maxiter} ${maxeval}
        minimize 1e-12 1e-08 10000 ${maxeval}
        minimize 1e-12 1e-08 10000 20000
WARNING: Resetting reneighboring criteria during minimization (../min.cpp:168)
Memory usage per processor = 4.85096 Mbytes
Step PotEng Pxx Pyy Pxy Lx Ly Lz 
       0   -53.972503  -0.12555495  -0.32001977 -8.5270195e-18      3.36736    5.8878482   0.56122687 
       1   -53.972503  -0.12555501  -0.32001977 -5.7524083e-18      3.36736    5.8878482   0.56122687 
       2   -53.972503  -0.12555501  -0.32001977 6.7254153e-17      3.36736    5.8878482   0.56122687 
Loop time of 0.000145067 on 1 procs for 1 steps with 18 atoms

Minimization stats:
  Stopping criterion = force tolerance
  Energy initial, next-to-last, final = 
        -53.9725027195     -53.9725027195     -53.9725027944
  Force two-norm initial, final = 0.00080338 2.75363e-09
  Force max component initial, final = 0.000198801 7.95351e-10
  Final line search alpha, max atom move = 0 0
  Iterations, force evaluations = 1 15

Pair  time (%) = 9.23519e-05 (63.6614)
Neigh time (%) = 0 (0)
Comm  time (%) = 1.26415e-05 (8.71426)
Outpt time (%) = 6.93952e-06 (4.78365)
Other time (%) = 3.31344e-05 (22.8407)

Nlocal:    18 ave 18 max 18 min
Histogram: 1 0 0 0 0 0 0 0 0 0
Nghost:    65 ave 65 max 65 min
Histogram: 1 0 0 0 0 0 0 0 0 0
Neighs:    162 ave 162 max 162 min
Histogram: 1 0 0 0 0 0 0 0 0 0

Total # of neighbors = 162
Ave neighs/atom = 9
Neighbor list builds = 0
Dangerous builds = 0
        next i
jump SELF loop1
	read_dump orig.dump 0 x y
  orthogonal box = (0 0 -0.280613) to (3.36736 5.83244 0.280613)
  18 atoms before read
  18 atoms in snapshot
  0 atoms purged
  18 atoms replaced
  0 atoms trimmed
  0 atoms added
  18 atoms after read
        variable stretch equal 1+$i*${strainstep}
        variable stretch equal 1+20*${strainstep}
        variable stretch equal 1+20*0.0005
        change_box all ${direction} scale ${stretch} remap
        change_box all y scale ${stretch} remap
        change_box all y scale 1.01 remap
  orthogonal box = (0 -0.0291622 -0.280613) to (3.36736 5.8616 0.280613)
        min_style ${style}
        min_style hftn
        minimize ${etol} ${ftol} ${maxiter} ${maxeval}
        minimize 1e-12 ${ftol} ${maxiter} ${maxeval}
        minimize 1e-12 1e-08 ${maxiter} ${maxeval}
        minimize 1e-12 1e-08 10000 ${maxeval}
        minimize 1e-12 1e-08 10000 20000
WARNING: Resetting reneighboring criteria during minimization (../min.cpp:168)
Memory usage per processor = 4.85096 Mbytes
Step PotEng Pxx Pyy Pxy Lx Ly Lz 
       0   -53.969599  -0.13020424  -0.33459672 -2.6875255e-17      3.36736    5.8907644   0.56122687 
       1   -53.969599   -0.1302043  -0.33459672 -3.6813701e-17      3.36736    5.8907644   0.56122687 
       2   -53.969599   -0.1302043  -0.33459672 7.4794043e-17      3.36736    5.8907644   0.56122687 
Loop time of 0.000115949 on 1 procs for 1 steps with 18 atoms

Minimization stats:
  Stopping criterion = force tolerance
  Energy initial, next-to-last, final = 
        -53.9695988672     -53.9695988672     -53.9695989421
  Force two-norm initial, final = 0.000797443 2.7617e-09
  Force max component initial, final = 0.000197012 7.97635e-10
  Final line search alpha, max atom move = 0 0
  Iterations, force evaluations = 1 15

Pair  time (%) = 7.18465e-05 (61.9639)
Neigh time (%) = 0 (0)
Comm  time (%) = 9.46585e-06 (8.1638)
Outpt time (%) = 7.97503e-06 (6.87805)
Other time (%) = 2.66617e-05 (22.9943)

Nlocal:    18 ave 18 max 18 min
Histogram: 1 0 0 0 0 0 0 0 0 0
Nghost:    65 ave 65 max 65 min
Histogram: 1 0 0 0 0 0 0 0 0 0
Neighs:    162 ave 162 max 162 min
Histogram: 1 0 0 0 0 0 0 0 0 0

Total # of neighbors = 162
Ave neighs/atom = 9
Neighbor list builds = 0
Dangerous builds = 0
        next i
jump SELF loop1
	read_dump orig.dump 0 x y
  orthogonal box = (0 0 -0.280613) to (3.36736 5.83244 0.280613)
  18 atoms before read
  18 atoms in snapshot
  0 atoms purged
  18 atoms replaced
  0 atoms trimmed
  0 atoms added
  18 atoms after read
        variable stretch equal 1+$i*${strainstep}
        variable stretch equal 1+21*${strainstep}
        variable stretch equal 1+21*0.0005
        change_box all ${direction} scale ${stretch} remap
        change_box all y scale ${stretch} remap
        change_box all y scale 1.0105 remap
  orthogonal box = (0 -0.0306203 -0.280613) to (3.36736 5.86306 0.280613)
        min_style ${style}
        min_style hftn
        minimize ${etol} ${ftol} ${maxiter} ${maxeval}
        minimize 1e-12 ${ftol} ${maxiter} ${maxeval}
        minimize 1e-12 1e-08 ${maxiter} ${maxeval}
        minimize 1e-12 1e-08 10000 ${maxeval}
        minimize 1e-12 1e-08 10000 20000
WARNING: Resetting reneighboring criteria during minimization (../min.cpp:168)
Memory usage per processor = 4.85096 Mbytes
Step PotEng Pxx Pyy Pxy Lx Ly Lz 
       0   -53.966509  -0.13481668  -0.34908913 1.1682764e-16      3.36736    5.8936806   0.56122687 
       1   -53.966509  -0.13481673  -0.34908913 -9.1348259e-17      3.36736    5.8936806   0.56122687 
       2   -53.966509  -0.13481673  -0.34908913 -3.8608082e-17      3.36736    5.8936806   0.56122687 
Loop time of 0.000145097 on 1 procs for 1 steps with 18 atoms

Minimization stats:
  Stopping criterion = force tolerance
  Energy initial, next-to-last, final = 
        -53.9665089353     -53.9665089353     -53.9665090103
  Force two-norm initial, final = 0.000798689 2.76044e-09
  Force max component initial, final = 0.000197399 7.9728e-10
  Final line search alpha, max atom move = 0 0
  Iterations, force evaluations = 1 15

Pair  time (%) = 9.3583e-05 (64.4968)
Neigh time (%) = 0 (0)
Comm  time (%) = 1.41038e-05 (9.72027)
Outpt time (%) = 6.96932e-06 (4.80321)
Other time (%) = 3.0441e-05 (20.9797)

Nlocal:    18 ave 18 max 18 min
Histogram: 1 0 0 0 0 0 0 0 0 0
Nghost:    65 ave 65 max 65 min
Histogram: 1 0 0 0 0 0 0 0 0 0
Neighs:    162 ave 162 max 162 min
Histogram: 1 0 0 0 0 0 0 0 0 0

Total # of neighbors = 162
Ave neighs/atom = 9
Neighbor list builds = 0
Dangerous builds = 0
        next i
jump SELF loop1
	read_dump orig.dump 0 x y
  orthogonal box = (0 0 -0.280613) to (3.36736 5.83244 0.280613)
  18 atoms before read
  18 atoms in snapshot
  0 atoms purged
  18 atoms replaced
  0 atoms trimmed
  0 atoms added
  18 atoms after read
        variable stretch equal 1+$i*${strainstep}
        variable stretch equal 1+22*${strainstep}
        variable stretch equal 1+22*0.0005
        change_box all ${direction} scale ${stretch} remap
        change_box all y scale ${stretch} remap
        change_box all y scale 1.011 remap
  orthogonal box = (0 -0.0320784 -0.280613) to (3.36736 5.86452 0.280613)
        min_style ${style}
        min_style hftn
        minimize ${etol} ${ftol} ${maxiter} ${maxeval}
        minimize 1e-12 ${ftol} ${maxiter} ${maxeval}
        minimize 1e-12 1e-08 ${maxiter} ${maxeval}
        minimize 1e-12 1e-08 10000 ${maxeval}
        minimize 1e-12 1e-08 10000 20000
WARNING: Resetting reneighboring criteria during minimization (../min.cpp:168)
Memory usage per processor = 4.85096 Mbytes
Step PotEng Pxx Pyy Pxy Lx Ly Lz 
       0   -53.963311  -0.13940699  -0.36354188 -1.2539411e-16      3.36736    5.8965968   0.56122687 
       1   -53.963312  -0.13940704  -0.36354188 4.9887694e-17      3.36736    5.8965968   0.56122687 
       2   -53.963312  -0.13940704  -0.36354188 -1.2237221e-16      3.36736    5.8965968   0.56122687 
Loop time of 2.11678e-06 on 1 procs for 1 steps with 18 atoms

Minimization stats:
  Stopping criterion = force tolerance
  Energy initial, next-to-last, final = 
        -53.9633114847     -53.9633114847     -53.9633115597
  Force two-norm initial, final = 0.000792795 2.76849e-09
  Force max component initial, final = 0.000195621 7.99566e-10
  Final line search alpha, max atom move = 0 0
  Iterations, force evaluations = 1 15

Pair  time (%) = -2.96277e-07 (-13.9966)
Neigh time (%) = 0 (0)
Comm  time (%) = 3.61237e-07 (17.0654)
Outpt time (%) = -7.52043e-08 (-3.55277)
Other time (%) = 2.12702e-06 (100.484)

Nlocal:    18 ave 18 max 18 min
Histogram: 1 0 0 0 0 0 0 0 0 0
Nghost:    65 ave 65 max 65 min
Histogram: 1 0 0 0 0 0 0 0 0 0
Neighs:    162 ave 162 max 162 min
Histogram: 1 0 0 0 0 0 0 0 0 0

Total # of neighbors = 162
Ave neighs/atom = 9
Neighbor list builds = 0
Dangerous builds = 0
        next i
jump SELF loop1
	read_dump orig.dump 0 x y
  orthogonal box = (0 0 -0.280613) to (3.36736 5.83244 0.280613)
  18 atoms before read
  18 atoms in snapshot
  0 atoms purged
  18 atoms replaced
  0 atoms trimmed
  0 atoms added
  18 atoms after read
        variable stretch equal 1+$i*${strainstep}
        variable stretch equal 1+23*${strainstep}
        variable stretch equal 1+23*0.0005
        change_box all ${direction} scale ${stretch} remap
        change_box all y scale ${stretch} remap
        change_box all y scale 1.0115 remap
  orthogonal box = (0 -0.0335365 -0.280613) to (3.36736 5.86598 0.280613)
        min_style ${style}
        min_style hftn
        minimize ${etol} ${ftol} ${maxiter} ${maxeval}
        minimize 1e-12 ${ftol} ${maxiter} ${maxeval}
        minimize 1e-12 1e-08 ${maxiter} ${maxeval}
        minimize 1e-12 1e-08 10000 ${maxeval}
        minimize 1e-12 1e-08 10000 20000
WARNING: Resetting reneighboring criteria during minimization (../min.cpp:168)
Memory usage per processor = 4.85096 Mbytes
Step PotEng Pxx Pyy Pxy Lx Ly Lz 
       0   -53.959942   -0.1439631  -0.37791771 -7.3694336e-18      3.36736    5.8995131   0.56122687 
       1   -53.959942  -0.14396315  -0.37791771 8.5593022e-17      3.36736    5.8995131   0.56122687 
       2   -53.959942  -0.14396315  -0.37791771 1.7678739e-16      3.36736    5.8995131   0.56122687 
Loop time of 0.00135505 on 1 procs for 1 steps with 18 atoms

Minimization stats:
  Stopping criterion = force tolerance
  Energy initial, next-to-last, final = 
        -53.9599418969     -53.9599418969     -53.9599419719
  Force two-norm initial, final = 0.000794029 2.76723e-09
  Force max component initial, final = 0.000196004 7.99212e-10
  Final line search alpha, max atom move = 0 0
  Iterations, force evaluations = 1 15

Pair  time (%) = 0.00129902 (95.8653)
Neigh time (%) = 0 (0)
Comm  time (%) = 8.91916e-06 (0.658215)
Outpt time (%) = 6.88434e-06 (0.50805)
Other time (%) = 4.02241e-05 (2.96845)

Nlocal:    18 ave 18 max 18 min
Histogram: 1 0 0 0 0 0 0 0 0 0
Nghost:    65 ave 65 max 65 min
Histogram: 1 0 0 0 0 0 0 0 0 0
Neighs:    162 ave 162 max 162 min
Histogram: 1 0 0 0 0 0 0 0 0 0

Total # of neighbors = 162
Ave neighs/atom = 9
Neighbor list builds = 0
Dangerous builds = 0
        next i
jump SELF loop1
	read_dump orig.dump 0 x y
  orthogonal box = (0 0 -0.280613) to (3.36736 5.83244 0.280613)
  18 atoms before read
  18 atoms in snapshot
  0 atoms purged
  18 atoms replaced
  0 atoms trimmed
  0 atoms added
  18 atoms after read
        variable stretch equal 1+$i*${strainstep}
        variable stretch equal 1+24*${strainstep}
        variable stretch equal 1+24*0.0005
        change_box all ${direction} scale ${stretch} remap
        change_box all y scale ${stretch} remap
        change_box all y scale 1.012 remap
  orthogonal box = (0 -0.0349946 -0.280613) to (3.36736 5.86743 0.280613)
        min_style ${style}
        min_style hftn
        minimize ${etol} ${ftol} ${maxiter} ${maxeval}
        minimize 1e-12 ${ftol} ${maxiter} ${maxeval}
        minimize 1e-12 1e-08 ${maxiter} ${maxeval}
        minimize 1e-12 1e-08 10000 ${maxeval}
        minimize 1e-12 1e-08 10000 20000
WARNING: Resetting reneighboring criteria during minimization (../min.cpp:168)
Memory usage per processor = 4.85096 Mbytes
Step PotEng Pxx Pyy Pxy Lx Ly Lz 
       0   -53.956453  -0.14849495  -0.39224686 -1.7499589e-17      3.36736    5.9024293   0.56122687 
       1   -53.956453    -0.148495  -0.39224686 -1.4014018e-16      3.36736    5.9024293   0.56122687 
       2   -53.956453    -0.148495  -0.39224686 -7.8886662e-17      3.36736    5.9024293   0.56122687 
Loop time of 0.00013108 on 1 procs for 1 steps with 18 atoms

Minimization stats:
  Stopping criterion = force tolerance
  Energy initial, next-to-last, final = 
        -53.9564531128     -53.9564531128     -53.9564531877
  Force two-norm initial, final = 0.000788178 2.77525e-09
  Force max component initial, final = 0.000194237 8.01471e-10
  Final line search alpha, max atom move = 0 0
  Iterations, force evaluations = 1 15

Pair  time (%) = 8.24997e-05 (62.9386)
Neigh time (%) = 0 (0)
Comm  time (%) = 1.21427e-05 (9.2636)
Outpt time (%) = 6.91228e-06 (5.27334)
Other time (%) = 2.9525e-05 (22.5245)

Nlocal:    18 ave 18 max 18 min
Histogram: 1 0 0 0 0 0 0 0 0 0
Nghost:    65 ave 65 max 65 min
Histogram: 1 0 0 0 0 0 0 0 0 0
Neighs:    162 ave 162 max 162 min
Histogram: 1 0 0 0 0 0 0 0 0 0

Total # of neighbors = 162
Ave neighs/atom = 9
Neighbor list builds = 0
Dangerous builds = 0
        next i
jump SELF loop1
	read_dump orig.dump 0 x y
  orthogonal box = (0 0 -0.280613) to (3.36736 5.83244 0.280613)
  18 atoms before read
  18 atoms in snapshot
  0 atoms purged
  18 atoms replaced
  0 atoms trimmed
  0 atoms added
  18 atoms after read
        variable stretch equal 1+$i*${strainstep}
        variable stretch equal 1+25*${strainstep}
        variable stretch equal 1+25*0.0005
        change_box all ${direction} scale ${stretch} remap
        change_box all y scale ${stretch} remap
        change_box all y scale 1.0125 remap
  orthogonal box = (0 -0.0364527 -0.280613) to (3.36736 5.86889 0.280613)
        min_style ${style}
        min_style hftn
        minimize ${etol} ${ftol} ${maxiter} ${maxeval}
        minimize 1e-12 ${ftol} ${maxiter} ${maxeval}
        minimize 1e-12 1e-08 ${maxiter} ${maxeval}
        minimize 1e-12 1e-08 10000 ${maxeval}
        minimize 1e-12 1e-08 10000 20000
WARNING: Resetting reneighboring criteria during minimization (../min.cpp:168)
Memory usage per processor = 4.85096 Mbytes
Step PotEng Pxx Pyy Pxy Lx Ly Lz 
       0   -53.952806   -0.1529953  -0.40650689 -6.9124714e-17      3.36736    5.9053455   0.56122687 
       1   -53.952806  -0.15299536  -0.40650689 1.0063631e-16      3.36736    5.9053455   0.56122687 
       2   -53.952806  -0.15299536  -0.40650689 -6.3187328e-17      3.36736    5.9053455   0.56122687 
Loop time of 0.000101931 on 1 procs for 1 steps with 18 atoms

Minimization stats:
  Stopping criterion = force tolerance
  Energy initial, next-to-last, final = 
        -53.9528063895     -53.9528063895     -53.9528064645
  Force two-norm initial, final = 0.0007894 2.77402e-09
  Force max component initial, final = 0.000194617 8.01116e-10
  Final line search alpha, max atom move = 0 0
  Iterations, force evaluations = 1 15

Pair  time (%) = 6.21343e-05 (60.9575)
Neigh time (%) = 0 (0)
Comm  time (%) = 9.86317e-06 (9.67636)
Outpt time (%) = 7.00168e-06 (6.86907)
Other time (%) = 2.29314e-05 (22.4971)

Nlocal:    18 ave 18 max 18 min
Histogram: 1 0 0 0 0 0 0 0 0 0
Nghost:    65 ave 65 max 65 min
Histogram: 1 0 0 0 0 0 0 0 0 0
Neighs:    162 ave 162 max 162 min
Histogram: 1 0 0 0 0 0 0 0 0 0

Total # of neighbors = 162
Ave neighs/atom = 9
Neighbor list builds = 0
Dangerous builds = 0
        next i
jump SELF loop1
	read_dump orig.dump 0 x y
  orthogonal box = (0 0 -0.280613) to (3.36736 5.83244 0.280613)
  18 atoms before read
  18 atoms in snapshot
  0 atoms purged
  18 atoms replaced
  0 atoms trimmed
  0 atoms added
  18 atoms after read
        variable stretch equal 1+$i*${strainstep}
        variable stretch equal 1+26*${strainstep}
        variable stretch equal 1+26*0.0005
        change_box all ${direction} scale ${stretch} remap
        change_box all y scale ${stretch} remap
        change_box all y scale 1.013 remap
  orthogonal box = (0 -0.0379109 -0.280613) to (3.36736 5.87035 0.280613)
        min_style ${style}
        min_style hftn
        minimize ${etol} ${ftol} ${maxiter} ${maxeval}
        minimize 1e-12 ${ftol} ${maxiter} ${maxeval}
        minimize 1e-12 1e-08 ${maxiter} ${maxeval}
        minimize 1e-12 1e-08 10000 ${maxeval}
        minimize 1e-12 1e-08 10000 20000
WARNING: Resetting reneighboring criteria during minimization (../min.cpp:168)
Memory usage per processor = 4.85096 Mbytes
Step PotEng Pxx Pyy Pxy Lx Ly Lz 
       0   -53.949029   -0.1574692  -0.42071304 5.542552e-17      3.36736    5.9082617   0.56122687 
       1   -53.949029  -0.15746925  -0.42071304 -9.6003615e-18      3.36736    5.9082617   0.56122687 
       2   -53.949029  -0.15746925  -0.42071304 -3.3330457e-17      3.36736    5.9082617   0.56122687 
Loop time of 0.000130107 on 1 procs for 1 steps with 18 atoms

Minimization stats:
  Stopping criterion = force tolerance
  Energy initial, next-to-last, final = 
        -53.9490285314     -53.9490285314     -53.9490286063
  Force two-norm initial, final = 0.000783592 2.78199e-09
  Force max component initial, final = 0.000192861 8.03375e-10
  Final line search alpha, max atom move = 0 0
  Iterations, force evaluations = 1 15

Pair  time (%) = 8.22754e-05 (63.2367)
Neigh time (%) = 0 (0)
Comm  time (%) = 1.14555e-05 (8.80467)
Outpt time (%) = 6.93963e-06 (5.33379)
Other time (%) = 2.94365e-05 (22.6249)

Nlocal:    18 ave 18 max 18 min
Histogram: 1 0 0 0 0 0 0 0 0 0
Nghost:    65 ave 65 max 65 min
Histogram: 1 0 0 0 0 0 0 0 0 0
Neighs:    162 ave 162 max 162 min
Histogram: 1 0 0 0 0 0 0 0 0 0

Total # of neighbors = 162
Ave neighs/atom = 9
Neighbor list builds = 0
Dangerous builds = 0
        next i
jump SELF loop1
	read_dump orig.dump 0 x y
  orthogonal box = (0 0 -0.280613) to (3.36736 5.83244 0.280613)
  18 atoms before read
  18 atoms in snapshot
  0 atoms purged
  18 atoms replaced
  0 atoms trimmed
  0 atoms added
  18 atoms after read
        variable stretch equal 1+$i*${strainstep}
        variable stretch equal 1+27*${strainstep}
        variable stretch equal 1+27*0.0005
        change_box all ${direction} scale ${stretch} remap
        change_box all y scale ${stretch} remap
        change_box all y scale 1.0135 remap
  orthogonal box = (0 -0.039369 -0.280613) to (3.36736 5.87181 0.280613)
        min_style ${style}
        min_style hftn
        minimize ${etol} ${ftol} ${maxiter} ${maxeval}
        minimize 1e-12 ${ftol} ${maxiter} ${maxeval}
        minimize 1e-12 1e-08 ${maxiter} ${maxeval}
        minimize 1e-12 1e-08 10000 ${maxeval}
        minimize 1e-12 1e-08 10000 20000
WARNING: Resetting reneighboring criteria during minimization (../min.cpp:168)
Memory usage per processor = 4.85096 Mbytes
Step PotEng Pxx Pyy Pxy Lx Ly Lz 
       0   -53.945107  -0.16191436  -0.43485806 -9.0241406e-17      3.36736    5.9111779   0.56122687 
       1   -53.945107  -0.16191441  -0.43485806 7.5995049e-17      3.36736    5.9111779   0.56122687 
       2   -53.945107  -0.16191441  -0.43485806 -7.4956681e-17      3.36736    5.9111779   0.56122687 
Loop time of 0.000103064 on 1 procs for 1 steps with 18 atoms

Minimization stats:
  Stopping criterion = force tolerance
  Energy initial, next-to-last, final = 
        -53.9451071761     -53.9451071761      -53.945107251
  Force two-norm initial, final = 0.000784802 2.78074e-09
  Force max component initial, final = 0.000193238 8.03014e-10
  Final line search alpha, max atom move = 0 0
  Iterations, force evaluations = 1 15

Pair  time (%) = 7.0559e-05 (68.4612)
Neigh time (%) = 0 (0)
Comm  time (%) = 1.0983e-05 (10.6564)
Outpt time (%) = -3.6438e-08 (-0.0353546)
Other time (%) = 2.15587e-05 (20.9178)

Nlocal:    18 ave 18 max 18 min
Histogram: 1 0 0 0 0 0 0 0 0 0
Nghost:    65 ave 65 max 65 min
Histogram: 1 0 0 0 0 0 0 0 0 0
Neighs:    162 ave 162 max 162 min
Histogram: 1 0 0 0 0 0 0 0 0 0

Total # of neighbors = 162
Ave neighs/atom = 9
Neighbor list builds = 0
Dangerous builds = 0
        next i
jump SELF loop1
	read_dump orig.dump 0 x y
  orthogonal box = (0 0 -0.280613) to (3.36736 5.83244 0.280613)
  18 atoms before read
  18 atoms in snapshot
  0 atoms purged
  18 atoms replaced
  0 atoms trimmed
  0 atoms added
  18 atoms after read
        variable stretch equal 1+$i*${strainstep}
        variable stretch equal 1+28*${strainstep}
        variable stretch equal 1+28*0.0005
        change_box all ${direction} scale ${stretch} remap
        change_box all y scale ${stretch} remap
        change_box all y scale 1.014 remap
  orthogonal box = (0 -0.0408271 -0.280613) to (3.36736 5.87327 0.280613)
        min_style ${style}
        min_style hftn
        minimize ${etol} ${ftol} ${maxiter} ${maxeval}
        minimize 1e-12 ${ftol} ${maxiter} ${maxeval}
        minimize 1e-12 1e-08 ${maxiter} ${maxeval}
        minimize 1e-12 1e-08 10000 ${maxeval}
        minimize 1e-12 1e-08 10000 20000
WARNING: Resetting reneighboring criteria during minimization (../min.cpp:168)
Memory usage per processor = 4.85096 Mbytes
Step PotEng Pxx Pyy Pxy Lx Ly Lz 
       0   -53.941042  -0.16633081  -0.44894182 2.5792589e-16      3.36736    5.9140942   0.56122687 
       1   -53.941043  -0.16633087  -0.44894182 -5.3814641e-17      3.36736    5.9140942   0.56122687 
       2   -53.941043  -0.16633087  -0.44894182 1.0615986e-16      3.36736    5.9140942   0.56122687 
Loop time of 0.000210118 on 1 procs for 1 steps with 18 atoms

Minimization stats:
  Stopping criterion = force tolerance
  Energy initial, next-to-last, final = 
        -53.9410424884     -53.9410424884     -53.9410425633
  Force two-norm initial, final = 0.000779036 2.78868e-09
  Force max component initial, final = 0.000191493 8.05262e-10
  Final line search alpha, max atom move = 0 0
  Iterations, force evaluations = 1 15

Pair  time (%) = 9.01854e-05 (42.9214)
Neigh time (%) = 0 (0)
Comm  time (%) = 9.93139e-06 (4.72658)
Outpt time (%) = 4.68906e-05 (22.3163)
Other time (%) = 6.31104e-05 (30.0357)

Nlocal:    18 ave 18 max 18 min
Histogram: 1 0 0 0 0 0 0 0 0 0
Nghost:    65 ave 65 max 65 min
Histogram: 1 0 0 0 0 0 0 0 0 0
Neighs:    162 ave 162 max 162 min
Histogram: 1 0 0 0 0 0 0 0 0 0

Total # of neighbors = 162
Ave neighs/atom = 9
Neighbor list builds = 0
Dangerous builds = 0
        next i
jump SELF loop1
	read_dump orig.dump 0 x y
  orthogonal box = (0 0 -0.280613) to (3.36736 5.83244 0.280613)
  18 atoms before read
  18 atoms in snapshot
  0 atoms purged
  18 atoms replaced
  0 atoms trimmed
  0 atoms added
  18 atoms after read
        variable stretch equal 1+$i*${strainstep}
        variable stretch equal 1+29*${strainstep}
        variable stretch equal 1+29*0.0005
        change_box all ${direction} scale ${stretch} remap
        change_box all y scale ${stretch} remap
        change_box all y scale 1.0145 remap
  orthogonal box = (0 -0.0422852 -0.280613) to (3.36736 5.87473 0.280613)
        min_style ${style}
        min_style hftn
        minimize ${etol} ${ftol} ${maxiter} ${maxeval}
        minimize 1e-12 ${ftol} ${maxiter} ${maxeval}
        minimize 1e-12 1e-08 ${maxiter} ${maxeval}
        minimize 1e-12 1e-08 10000 ${maxeval}
        minimize 1e-12 1e-08 10000 20000
WARNING: Resetting reneighboring criteria during minimization (../min.cpp:168)
Memory usage per processor = 4.85096 Mbytes
Step PotEng Pxx Pyy Pxy Lx Ly Lz 
       0   -53.936849  -0.17072133   -0.4629726 -1.2441512e-18      3.36736    5.9170104   0.56122687 
       1   -53.936849  -0.17072138   -0.4629726 1.4812173e-16      3.36736    5.9170104   0.56122687 
       2   -53.936849  -0.17072138   -0.4629726 -9.0259871e-18      3.36736    5.9170104   0.56122687 
Loop time of 0.000131934 on 1 procs for 1 steps with 18 atoms

Minimization stats:
  Stopping criterion = force tolerance
  Energy initial, next-to-last, final = 
         -53.936848964      -53.936848964      -53.936849039
  Force two-norm initial, final = 0.000780234 2.78743e-09
  Force max component initial, final = 0.000191866 8.04897e-10
  Final line search alpha, max atom move = 0 0
  Iterations, force evaluations = 1 15

Pair  time (%) = 8.58277e-05 (65.0536)
Neigh time (%) = 0 (0)
Comm  time (%) = 1.61231e-05 (12.2206)
Outpt time (%) = 7.05116e-06 (5.34447)
Other time (%) = 2.2932e-05 (17.3814)

Nlocal:    18 ave 18 max 18 min
Histogram: 1 0 0 0 0 0 0 0 0 0
Nghost:    65 ave 65 max 65 min
Histogram: 1 0 0 0 0 0 0 0 0 0
Neighs:    162 ave 162 max 162 min
Histogram: 1 0 0 0 0 0 0 0 0 0

Total # of neighbors = 162
Ave neighs/atom = 9
Neighbor list builds = 0
Dangerous builds = 0
        next i
jump SELF loop1
	read_dump orig.dump 0 x y
  orthogonal box = (0 0 -0.280613) to (3.36736 5.83244 0.280613)
  18 atoms before read
  18 atoms in snapshot
  0 atoms purged
  18 atoms replaced
  0 atoms trimmed
  0 atoms added
  18 atoms after read
        variable stretch equal 1+$i*${strainstep}
        variable stretch equal 1+30*${strainstep}
        variable stretch equal 1+30*0.0005
        change_box all ${direction} scale ${stretch} remap
        change_box all y scale ${stretch} remap
        change_box all y scale 1.015 remap
  orthogonal box = (0 -0.0437433 -0.280613) to (3.36736 5.87618 0.280613)
        min_style ${style}
        min_style hftn
        minimize ${etol} ${ftol} ${maxiter} ${maxeval}
        minimize 1e-12 ${ftol} ${maxiter} ${maxeval}
        minimize 1e-12 1e-08 ${maxiter} ${maxeval}
        minimize 1e-12 1e-08 10000 ${maxeval}
        minimize 1e-12 1e-08 10000 20000
WARNING: Resetting reneighboring criteria during minimization (../min.cpp:168)
Memory usage per processor = 4.85096 Mbytes
Step PotEng Pxx Pyy Pxy Lx Ly Lz 
       0     -53.9325  -0.17508085  -0.47693457 5.0312421e-18      3.36736    5.9199266   0.56122687 
       1     -53.9325   -0.1750809  -0.47693457 5.0724399e-18      3.36736    5.9199266   0.56122687 
       2     -53.9325   -0.1750809  -0.47693457 -5.0215851e-17      3.36736    5.9199266   0.56122687 
Loop time of 0.000131049 on 1 procs for 1 steps with 18 atoms

Minimization stats:
  Stopping criterion = force tolerance
  Energy initial, next-to-last, final = 
        -53.9324996767     -53.9324996767     -53.9324997517
  Force two-norm initial, final = 0.000774511 2.79536e-09
  Force max component initial, final = 0.000190132 8.07142e-10
  Final line search alpha, max atom move = 0 0
  Iterations, force evaluations = 1 15

Pair  time (%) = 8.38782e-05 (64.0052)
Neigh time (%) = 0 (0)
Comm  time (%) = 1.20853e-05 (9.22197)
Outpt time (%) = 5.88177e-06 (4.48822)
Other time (%) = 2.92038e-05 (22.2847)

Nlocal:    18 ave 18 max 18 min
Histogram: 1 0 0 0 0 0 0 0 0 0
Nghost:    65 ave 65 max 65 min
Histogram: 1 0 0 0 0 0 0 0 0 0
Neighs:    162 ave 162 max 162 min
Histogram: 1 0 0 0 0 0 0 0 0 0

Total # of neighbors = 162
Ave neighs/atom = 9
Neighbor list builds = 0
Dangerous builds = 0
        next i
jump SELF loop1
	read_dump orig.dump 0 x y
  orthogonal box = (0 0 -0.280613) to (3.36736 5.83244 0.280613)
  18 atoms before read
  18 atoms in snapshot
  0 atoms purged
  18 atoms replaced
  0 atoms trimmed
  0 atoms added
  18 atoms after read
        variable stretch equal 1+$i*${strainstep}
        variable stretch equal 1+31*${strainstep}
        variable stretch equal 1+31*0.0005
        change_box all ${direction} scale ${stretch} remap
        change_box all y scale ${stretch} remap
        change_box all y scale 1.0155 remap
  orthogonal box = (0 -0.0452014 -0.280613) to (3.36736 5.87764 0.280613)
        min_style ${style}
        min_style hftn
        minimize ${etol} ${ftol} ${maxiter} ${maxeval}
        minimize 1e-12 ${ftol} ${maxiter} ${maxeval}
        minimize 1e-12 1e-08 ${maxiter} ${maxeval}
        minimize 1e-12 1e-08 10000 ${maxeval}
        minimize 1e-12 1e-08 10000 20000
WARNING: Resetting reneighboring criteria during minimization (../min.cpp:168)
Memory usage per processor = 4.85096 Mbytes
Step PotEng Pxx Pyy Pxy Lx Ly Lz 
       0   -53.928036  -0.17941727  -0.49085189 -6.080748e-17      3.36736    5.9228428   0.56122687 
       1   -53.928037  -0.17941733  -0.49085189 -9.2174714e-17      3.36736    5.9228428   0.56122687 
       2   -53.928037  -0.17941733  -0.49085189 -9.2155686e-17      3.36736    5.9228428   0.56122687 
Loop time of 0.000131092 on 1 procs for 1 steps with 18 atoms

Minimization stats:
  Stopping criterion = force tolerance
  Energy initial, next-to-last, final = 
        -53.9280364331     -53.9280364331      -53.928036508
  Force two-norm initial, final = 0.000775697 2.79414e-09
  Force max component initial, final = 0.000190502 8.06791e-10
  Final line search alpha, max atom move = 0 0
  Iterations, force evaluations = 1 15

Pair  time (%) = 8.08841e-05 (61.7002)
Neigh time (%) = 0 (0)
Comm  time (%) = 1.62495e-05 (12.3955)
Outpt time (%) = 6.92473e-06 (5.28234)
Other time (%) = 2.70338e-05 (20.622)

Nlocal:    18 ave 18 max 18 min
Histogram: 1 0 0 0 0 0 0 0 0 0
Nghost:    65 ave 65 max 65 min
Histogram: 1 0 0 0 0 0 0 0 0 0
Neighs:    162 ave 162 max 162 min
Histogram: 1 0 0 0 0 0 0 0 0 0

Total # of neighbors = 162
Ave neighs/atom = 9
Neighbor list builds = 0
Dangerous builds = 0
        next i
jump SELF loop1
	read_dump orig.dump 0 x y
  orthogonal box = (0 0 -0.280613) to (3.36736 5.83244 0.280613)
  18 atoms before read
  18 atoms in snapshot
  0 atoms purged
  18 atoms replaced
  0 atoms trimmed
  0 atoms added
  18 atoms after read
        variable stretch equal 1+$i*${strainstep}
        variable stretch equal 1+32*${strainstep}
        variable stretch equal 1+32*0.0005
        change_box all ${direction} scale ${stretch} remap
        change_box all y scale ${stretch} remap
        change_box all y scale 1.016 remap
  orthogonal box = (0 -0.0466595 -0.280613) to (3.36736 5.8791 0.280613)
        min_style ${style}
        min_style hftn
        minimize ${etol} ${ftol} ${maxiter} ${maxeval}
        minimize 1e-12 ${ftol} ${maxiter} ${maxeval}
        minimize 1e-12 1e-08 ${maxiter} ${maxeval}
        minimize 1e-12 1e-08 10000 ${maxeval}
        minimize 1e-12 1e-08 10000 20000
WARNING: Resetting reneighboring criteria during minimization (../min.cpp:168)
Memory usage per processor = 4.85096 Mbytes
Step PotEng Pxx Pyy Pxy Lx Ly Lz 
       0   -53.923405  -0.18372036  -0.50469267 5.9158803e-17      3.36736     5.925759   0.56122687 
       1   -53.923405  -0.18372041  -0.50469267 -2.7622823e-18      3.36736     5.925759   0.56122687 
       2   -53.923405  -0.18372041  -0.50469267 2.9971905e-18      3.36736     5.925759   0.56122687 
Loop time of 0.000129943 on 1 procs for 1 steps with 18 atoms

Minimization stats:
  Stopping criterion = force tolerance
  Energy initial, next-to-last, final = 
        -53.9234047811     -53.9234047811     -53.9234048561
  Force two-norm initial, final = 0.000770015 2.802e-09
  Force max component initial, final = 0.000188778 8.09004e-10
  Final line search alpha, max atom move = 0 0
  Iterations, force evaluations = 1 15

Pair  time (%) = 8.58044e-05 (66.0323)
Neigh time (%) = 0 (0)
Comm  time (%) = 7.79121e-06 (5.99587)
Outpt time (%) = 6.01413e-06 (4.62828)
Other time (%) = 3.03333e-05 (23.3435)

Nlocal:    18 ave 18 max 18 min
Histogram: 1 0 0 0 0 0 0 0 0 0
Nghost:    65 ave 65 max 65 min
Histogram: 1 0 0 0 0 0 0 0 0 0
Neighs:    162 ave 162 max 162 min
Histogram: 1 0 0 0 0 0 0 0 0 0

Total # of neighbors = 162
Ave neighs/atom = 9
Neighbor list builds = 0
Dangerous builds = 0
        next i
jump SELF loop1
	read_dump orig.dump 0 x y
  orthogonal box = (0 0 -0.280613) to (3.36736 5.83244 0.280613)
  18 atoms before read
  18 atoms in snapshot
  0 atoms purged
  18 atoms replaced
  0 atoms trimmed
  0 atoms added
  18 atoms after read
        variable stretch equal 1+$i*${strainstep}
        variable stretch equal 1+33*${strainstep}
        variable stretch equal 1+33*0.0005
        change_box all ${direction} scale ${stretch} remap
        change_box all y scale ${stretch} remap
        change_box all y scale 1.0165 remap
  orthogonal box = (0 -0.0481176 -0.280613) to (3.36736 5.88056 0.280613)
        min_style ${style}
        min_style hftn
        minimize ${etol} ${ftol} ${maxiter} ${maxeval}
        minimize 1e-12 ${ftol} ${maxiter} ${maxeval}
        minimize 1e-12 1e-08 ${maxiter} ${maxeval}
        minimize 1e-12 1e-08 10000 ${maxeval}
        minimize 1e-12 1e-08 10000 20000
WARNING: Resetting reneighboring criteria during minimization (../min.cpp:168)
Memory usage per processor = 4.85096 Mbytes
Step PotEng Pxx Pyy Pxy Lx Ly Lz 
       0   -53.918674  -0.18800323  -0.51849729 -3.3985717e-17      3.36736    5.9286753   0.56122687 
       1   -53.918674  -0.18800328  -0.51849729 -1.2291952e-16      3.36736    5.9286753   0.56122687 
       2   -53.918674  -0.18800328  -0.51849729 1.9657745e-17      3.36736    5.9286753   0.56122687 
Loop time of 0.000130032 on 1 procs for 1 steps with 18 atoms

Minimization stats:
  Stopping criterion = force tolerance
  Energy initial, next-to-last, final = 
        -53.9186742608     -53.9186742608     -53.9186743358
  Force two-norm initial, final = 0.000771189 2.80075e-09
  Force max component initial, final = 0.000189145 8.08657e-10
  Final line search alpha, max atom move = 0 0
  Iterations, force evaluations = 1 15

Pair  time (%) = 8.07967e-05 (62.1358)
Neigh time (%) = 0 (0)
Comm  time (%) = 1.4644e-05 (11.2618)
Outpt time (%) = 6.10354e-06 (4.69386)
Other time (%) = 2.84882e-05 (21.9086)

Nlocal:    18 ave 18 max 18 min
Histogram: 1 0 0 0 0 0 0 0 0 0
Nghost:    65 ave 65 max 65 min
Histogram: 1 0 0 0 0 0 0 0 0 0
Neighs:    162 ave 162 max 162 min
[...]
        min_style ${style}
        min_style hftn
        minimize ${etol} ${ftol} ${maxiter} ${maxeval}
        minimize 1e-12 ${ftol} ${maxiter} ${maxeval}
        minimize 1e-12 1e-08 ${maxiter} ${maxeval}
        minimize 1e-12 1e-08 10000 ${maxeval}
        minimize 1e-12 1e-08 10000 20000
WARNING: Resetting reneighboring criteria during minimization (../min.cpp:168)
Memory usage per processor = 4.85096 Mbytes
Step PotEng Pxx Pyy Pxy Lx Ly Lz 
       0   -53.415797  -0.39633502   -1.2347661 1.2804885e-16      3.36736    6.1007322   0.56122687 
       1   -53.415797  -0.39633507   -1.2347661 -6.6231186e-17      3.36736    6.1007322   0.56122687 
       2   -53.415797  -0.39633507   -1.2347661 -2.7240072e-17      3.36736    6.1007322   0.56122687 
Loop time of 0.000129996 on 1 procs for 1 steps with 18 atoms

Minimization stats:
  Stopping criterion = force tolerance
  Energy initial, next-to-last, final = 
        -53.4157972126     -53.4157972126     -53.4157972877
  Force two-norm initial, final = 0.000643035 2.99479e-09
  Force max component initial, final = 0.000149692 8.65645e-10
  Final line search alpha, max atom move = 0 0
  Iterations, force evaluations = 1 15

Pair  time (%) = 8.38483e-05 (64.5005)
Neigh time (%) = 0 (0)
Comm  time (%) = 1.03099e-05 (7.93088)
Outpt time (%) = 6.06733e-06 (4.66731)
Other time (%) = 2.97709e-05 (22.9013)

Nlocal:    18 ave 18 max 18 min
Histogram: 1 0 0 0 0 0 0 0 0 0
Nghost:    65 ave 65 max 65 min
Histogram: 1 0 0 0 0 0 0 0 0 0
Neighs:    162 ave 162 max 162 min
Histogram: 1 0 0 0 0 0 0 0 0 0

Total # of neighbors = 162
Ave neighs/atom = 9
Neighbor list builds = 0
Dangerous builds = 0
        next i
jump SELF loop1
	read_dump orig.dump 0 x y
  orthogonal box = (0 0 -0.280613) to (3.36736 5.83244 0.280613)
  18 atoms before read
  18 atoms in snapshot
  0 atoms purged
  18 atoms replaced
  0 atoms trimmed
  0 atoms added
  18 atoms after read
        variable stretch equal 1+$i*${strainstep}
        variable stretch equal 1+93*${strainstep}
        variable stretch equal 1+93*0.0005
        change_box all ${direction} scale ${stretch} remap
        change_box all y scale ${stretch} remap
        change_box all y scale 1.0465 remap
  orthogonal box = (0 -0.135604 -0.280613) to (3.36736 5.96804 0.280613)
        min_style ${style}
        min_style hftn
        minimize ${etol} ${ftol} ${maxiter} ${maxeval}
        minimize 1e-12 ${ftol} ${maxiter} ${maxeval}
        minimize 1e-12 1e-08 ${maxiter} ${maxeval}
        minimize 1e-12 1e-08 10000 ${maxeval}
        minimize 1e-12 1e-08 10000 20000
WARNING: Resetting reneighboring criteria during minimization (../min.cpp:168)
Memory usage per processor = 4.85096 Mbytes
Step PotEng Pxx Pyy Pxy Lx Ly Lz 
       0   -53.403843  -0.39919103   -1.2453619 -1.5685584e-17      3.36736    6.1036485   0.56122687 
       1   -53.403843  -0.39919109   -1.2453619 4.8290907e-17      3.36736    6.1036485   0.56122687 
       2   -53.403843  -0.39919109   -1.2453619 -1.0166981e-16      3.36736    6.1036485   0.56122687 
Loop time of 0.0291041 on 1 procs for 1 steps with 18 atoms

Minimization stats:
  Stopping criterion = force tolerance
  Energy initial, next-to-last, final = 
          -53.40384285       -53.40384285      -53.403842925
  Force two-norm initial, final = 0.000638609 3.00147e-09
  Force max component initial, final = 0.000148285 8.67634e-10
  Final line search alpha, max atom move = 0 0
  Iterations, force evaluations = 1 15

Pair  time (%) = 8.55078e-05 (0.2938)
Neigh time (%) = 0 (0)
Comm  time (%) = 1.41987e-05 (0.048786)
Outpt time (%) = 6.89796e-06 (0.023701)
Other time (%) = 0.0289975 (99.6337)

Nlocal:    18 ave 18 max 18 min
Histogram: 1 0 0 0 0 0 0 0 0 0
Nghost:    65 ave 65 max 65 min
Histogram: 1 0 0 0 0 0 0 0 0 0
Neighs:    162 ave 162 max 162 min
Histogram: 1 0 0 0 0 0 0 0 0 0

Total # of neighbors = 162
Ave neighs/atom = 9
Neighbor list builds = 0
Dangerous builds = 0
        next i
jump SELF loop1
	read_dump orig.dump 0 x y
  orthogonal box = (0 0 -0.280613) to (3.36736 5.83244 0.280613)
  18 atoms before read
  18 atoms in snapshot
  0 atoms purged
  18 atoms replaced
  0 atoms trimmed
  0 atoms added
  18 atoms after read
        variable stretch equal 1+$i*${strainstep}
        variable stretch equal 1+94*${strainstep}
        variable stretch equal 1+94*0.0005
        change_box all ${direction} scale ${stretch} remap
        change_box all y scale ${stretch} remap
        change_box all y scale 1.047 remap
  orthogonal box = (0 -0.137062 -0.280613) to (3.36736 5.9695 0.280613)
        min_style ${style}
        min_style hftn
        minimize ${etol} ${ftol} ${maxiter} ${maxeval}
        minimize 1e-12 ${ftol} ${maxiter} ${maxeval}
        minimize 1e-12 1e-08 ${maxiter} ${maxeval}
        minimize 1e-12 1e-08 10000 ${maxeval}
        minimize 1e-12 1e-08 10000 20000
WARNING: Resetting reneighboring criteria during minimization (../min.cpp:168)
Memory usage per processor = 4.85096 Mbytes
Step PotEng Pxx Pyy Pxy Lx Ly Lz 
       0   -53.391752  -0.40202049   -1.2558889 -9.7435505e-17      3.36736    6.1065647   0.56122687 
       1   -53.391752  -0.40202054   -1.2558889 8.3561869e-17      3.36736    6.1065647   0.56122687 
       2   -53.391752  -0.40202054   -1.2558889 -6.1740086e-17      3.36736    6.1065647   0.56122687 
Loop time of 0.000121908 on 1 procs for 1 steps with 18 atoms

Minimization stats:
  Stopping criterion = force tolerance
  Energy initial, next-to-last, final = 
        -53.3917522641     -53.3917522641     -53.3917523391
  Force two-norm initial, final = 0.000639441 3.00045e-09
  Force max component initial, final = 0.000148557 8.6733e-10
  Final line search alpha, max atom move = 0 0
  Iterations, force evaluations = 1 15

Pair  time (%) = 8.12034e-05 (66.6101)
Neigh time (%) = 0 (0)
Comm  time (%) = 1.03582e-05 (8.49668)
Outpt time (%) = 7.07223e-06 (5.80126)
Other time (%) = 2.32747e-05 (19.0919)

Nlocal:    18 ave 18 max 18 min
Histogram: 1 0 0 0 0 0 0 0 0 0
Nghost:    65 ave 65 max 65 min
Histogram: 1 0 0 0 0 0 0 0 0 0
Neighs:    162 ave 162 max 162 min
Histogram: 1 0 0 0 0 0 0 0 0 0

Total # of neighbors = 162
Ave neighs/atom = 9
Neighbor list builds = 0
Dangerous builds = 0
        next i
jump SELF loop1
	read_dump orig.dump 0 x y
  orthogonal box = (0 0 -0.280613) to (3.36736 5.83244 0.280613)
  18 atoms before read
  18 atoms in snapshot
  0 atoms purged
  18 atoms replaced
  0 atoms trimmed
  0 atoms added
  18 atoms after read
        variable stretch equal 1+$i*${strainstep}
        variable stretch equal 1+95*${strainstep}
        variable stretch equal 1+95*0.0005
        change_box all ${direction} scale ${stretch} remap
        change_box all y scale ${stretch} remap
        change_box all y scale 1.0475 remap
  orthogonal box = (0 -0.13852 -0.280613) to (3.36736 5.97096 0.280613)
        min_style ${style}
        min_style hftn
        minimize ${etol} ${ftol} ${maxiter} ${maxeval}
        minimize 1e-12 ${ftol} ${maxiter} ${maxeval}
        minimize 1e-12 1e-08 ${maxiter} ${maxeval}
        minimize 1e-12 1e-08 10000 ${maxeval}
        minimize 1e-12 1e-08 10000 20000
WARNING: Resetting reneighboring criteria during minimization (../min.cpp:168)
Memory usage per processor = 4.85096 Mbytes
Step PotEng Pxx Pyy Pxy Lx Ly Lz 
       0   -53.379579  -0.40483376   -1.2663809 -1.5168224e-16      3.36736    6.1094809   0.56122687 
       1   -53.379579  -0.40483381   -1.2663809 5.7613342e-17      3.36736    6.1094809   0.56122687 
       2   -53.379579  -0.40483381   -1.2663809 4.7104822e-17      3.36736    6.1094809   0.56122687 
Loop time of 0.000131099 on 1 procs for 1 steps with 18 atoms

Minimization stats:
  Stopping criterion = force tolerance
  Energy initial, next-to-last, final = 
        -53.3795790005     -53.3795790005     -53.3795790755
  Force two-norm initial, final = 0.000635049 3.00708e-09
  Force max component initial, final = 0.000147159 8.69293e-10
  Final line search alpha, max atom move = 0 0
  Iterations, force evaluations = 1 15

Pair  time (%) = 8.40923e-05 (64.1441)
Neigh time (%) = 0 (0)
Comm  time (%) = 1.19901e-05 (9.14583)
Outpt time (%) = 6.9316e-06 (5.28731)
Other time (%) = 2.8085e-05 (21.4227)

Nlocal:    18 ave 18 max 18 min
Histogram: 1 0 0 0 0 0 0 0 0 0
Nghost:    65 ave 65 max 65 min
Histogram: 1 0 0 0 0 0 0 0 0 0
Neighs:    162 ave 162 max 162 min
Histogram: 1 0 0 0 0 0 0 0 0 0

Total # of neighbors = 162
Ave neighs/atom = 9
Neighbor list builds = 0
Dangerous builds = 0
        next i
jump SELF loop1
	read_dump orig.dump 0 x y
  orthogonal box = (0 0 -0.280613) to (3.36736 5.83244 0.280613)
  18 atoms before read
  18 atoms in snapshot
  0 atoms purged
  18 atoms replaced
  0 atoms trimmed
  0 atoms added
  18 atoms after read
        variable stretch equal 1+$i*${strainstep}
        variable stretch equal 1+96*${strainstep}
        variable stretch equal 1+96*0.0005
        change_box all ${direction} scale ${stretch} remap
        change_box all y scale ${stretch} remap
        change_box all y scale 1.048 remap
  orthogonal box = (0 -0.139979 -0.280613) to (3.36736 5.97242 0.280613)
        min_style ${style}
        min_style hftn
        minimize ${etol} ${ftol} ${maxiter} ${maxeval}
        minimize 1e-12 ${ftol} ${maxiter} ${maxeval}
        minimize 1e-12 1e-08 ${maxiter} ${maxeval}
        minimize 1e-12 1e-08 10000 ${maxeval}
        minimize 1e-12 1e-08 10000 20000
WARNING: Resetting reneighboring criteria during minimization (../min.cpp:168)
Memory usage per processor = 4.85096 Mbytes
Step PotEng Pxx Pyy Pxy Lx Ly Lz 
       0   -53.367292  -0.40762478    -1.276818 -4.5648492e-17      3.36736    6.1123971   0.56122687 
       1   -53.367292  -0.40762483    -1.276818 8.315379e-17      3.36736    6.1123971   0.56122687 
       2   -53.367292  -0.40762483    -1.276818 -5.6183601e-17      3.36736    6.1123971   0.56122687 
Loop time of 0.000130043 on 1 procs for 1 steps with 18 atoms

Minimization stats:
  Stopping criterion = force tolerance
  Energy initial, next-to-last, final = 
        -53.3672916535     -53.3672916535     -53.3672917286
  Force two-norm initial, final = 0.000635872 3.00609e-09
  Force max component initial, final = 0.000147428 8.69001e-10
  Final line search alpha, max atom move = 0 0
  Iterations, force evaluations = 1 15

Pair  time (%) = 8.57729e-05 (65.9576)
Neigh time (%) = 0 (0)
Comm  time (%) = 8.01333e-06 (6.16208)
Outpt time (%) = 7.11356e-06 (5.47018)
Other time (%) = 2.91427e-05 (22.4101)

Nlocal:    18 ave 18 max 18 min
Histogram: 1 0 0 0 0 0 0 0 0 0
Nghost:    65 ave 65 max 65 min
Histogram: 1 0 0 0 0 0 0 0 0 0
Neighs:    162 ave 162 max 162 min
Histogram: 1 0 0 0 0 0 0 0 0 0

Total # of neighbors = 162
Ave neighs/atom = 9
Neighbor list builds = 0
Dangerous builds = 0
        next i
jump SELF loop1
	read_dump orig.dump 0 x y
  orthogonal box = (0 0 -0.280613) to (3.36736 5.83244 0.280613)
  18 atoms before read
  18 atoms in snapshot
  0 atoms purged
  18 atoms replaced
  0 atoms trimmed
  0 atoms added
  18 atoms after read
        variable stretch equal 1+$i*${strainstep}
        variable stretch equal 1+97*${strainstep}
        variable stretch equal 1+97*0.0005
        change_box all ${direction} scale ${stretch} remap
        change_box all y scale ${stretch} remap
        change_box all y scale 1.0485 remap
  orthogonal box = (0 -0.141437 -0.280613) to (3.36736 5.97388 0.280613)
        min_style ${style}
        min_style hftn
        minimize ${etol} ${ftol} ${maxiter} ${maxeval}
        minimize 1e-12 ${ftol} ${maxiter} ${maxeval}
        minimize 1e-12 1e-08 ${maxiter} ${maxeval}
        minimize 1e-12 1e-08 10000 ${maxeval}
        minimize 1e-12 1e-08 10000 20000
WARNING: Resetting reneighboring criteria during minimization (../min.cpp:168)
Memory usage per processor = 4.85096 Mbytes
Step PotEng Pxx Pyy Pxy Lx Ly Lz 
       0   -53.354901  -0.41039571   -1.2872069 -1.6271139e-16      3.36736    6.1153133   0.56122687 
       1   -53.354902  -0.41039576   -1.2872069 7.9312163e-17      3.36736    6.1153133   0.56122687 
       2   -53.354902  -0.41039576   -1.2872069 -4.0951974e-17      3.36736    6.1153133   0.56122687 
Loop time of 0.0001309 on 1 procs for 1 steps with 18 atoms

Minimization stats:
  Stopping criterion = force tolerance
  Energy initial, next-to-last, final = 
          -53.35490149       -53.35490149      -53.354901565
  Force two-norm initial, final = 0.000631515 3.01267e-09
  Force max component initial, final = 0.000146039 8.7096e-10
  Final line search alpha, max atom move = 0 0
  Iterations, force evaluations = 1 15

Pair  time (%) = 8.57745e-05 (65.5266)
Neigh time (%) = 0 (0)
Comm  time (%) = 1.32548e-05 (10.1259)
Outpt time (%) = 6.9713e-06 (5.32566)
Other time (%) = 2.48996e-05 (19.0218)

Nlocal:    18 ave 18 max 18 min
Histogram: 1 0 0 0 0 0 0 0 0 0
Nghost:    65 ave 65 max 65 min
Histogram: 1 0 0 0 0 0 0 0 0 0
Neighs:    162 ave 162 max 162 min
Histogram: 1 0 0 0 0 0 0 0 0 0

Total # of neighbors = 162
Ave neighs/atom = 9
Neighbor list builds = 0
Dangerous builds = 0
        next i
jump SELF loop1
	read_dump orig.dump 0 x y
  orthogonal box = (0 0 -0.280613) to (3.36736 5.83244 0.280613)
  18 atoms before read
  18 atoms in snapshot
  0 atoms purged
  18 atoms replaced
  0 atoms trimmed
  0 atoms added
  18 atoms after read
        variable stretch equal 1+$i*${strainstep}
        variable stretch equal 1+98*${strainstep}
        variable stretch equal 1+98*0.0005
        change_box all ${direction} scale ${stretch} remap
        change_box all y scale ${stretch} remap
        change_box all y scale 1.049 remap
  orthogonal box = (0 -0.142895 -0.280613) to (3.36736 5.97533 0.280613)
        min_style ${style}
        min_style hftn
        minimize ${etol} ${ftol} ${maxiter} ${maxeval}
        minimize 1e-12 ${ftol} ${maxiter} ${maxeval}
        minimize 1e-12 1e-08 ${maxiter} ${maxeval}
        minimize 1e-12 1e-08 10000 ${maxeval}
        minimize 1e-12 1e-08 10000 20000
WARNING: Resetting reneighboring criteria during minimization (../min.cpp:168)
Memory usage per processor = 4.85096 Mbytes
Step PotEng Pxx Pyy Pxy Lx Ly Lz 
       0   -53.342419  -0.41314867   -1.2975546 1.3403603e-16      3.36736    6.1182296   0.56122687 
       1   -53.342419  -0.41314872   -1.2975546 1.7027384e-16      3.36736    6.1182296   0.56122687 
       2   -53.342419  -0.41314872   -1.2975546 3.2163886e-17      3.36736    6.1182296   0.56122687 
Loop time of 0.000129943 on 1 procs for 1 steps with 18 atoms

Minimization stats:
  Stopping criterion = force tolerance
  Energy initial, next-to-last, final = 
        -53.3424192264     -53.3424192264     -53.3424193014
  Force two-norm initial, final = 0.000632328 3.0117e-09
  Force max component initial, final = 0.000146305 8.70667e-10
  Final line search alpha, max atom move = 0 0
  Iterations, force evaluations = 1 15

Pair  time (%) = 8.69533e-05 (66.9164)
Neigh time (%) = 0 (0)
Comm  time (%) = 8.89739e-06 (6.84714)
Outpt time (%) = 6.01436e-06 (4.62846)
Other time (%) = 2.80782e-05 (21.6081)

Nlocal:    18 ave 18 max 18 min
Histogram: 1 0 0 0 0 0 0 0 0 0
Nghost:    65 ave 65 max 65 min
Histogram: 1 0 0 0 0 0 0 0 0 0
Neighs:    162 ave 162 max 162 min
Histogram: 1 0 0 0 0 0 0 0 0 0

Total # of neighbors = 162
Ave neighs/atom = 9
Neighbor list builds = 0
Dangerous builds = 0
        next i
jump SELF loop1
	read_dump orig.dump 0 x y
  orthogonal box = (0 0 -0.280613) to (3.36736 5.83244 0.280613)
  18 atoms before read
  18 atoms in snapshot
  0 atoms purged
  18 atoms replaced
  0 atoms trimmed
  0 atoms added
  18 atoms after read
        variable stretch equal 1+$i*${strainstep}
        variable stretch equal 1+99*${strainstep}
        variable stretch equal 1+99*0.0005
        change_box all ${direction} scale ${stretch} remap
        change_box all y scale ${stretch} remap
        change_box all y scale 1.0495 remap
  orthogonal box = (0 -0.144353 -0.280613) to (3.36736 5.97679 0.280613)
        min_style ${style}
        min_style hftn
        minimize ${etol} ${ftol} ${maxiter} ${maxeval}
        minimize 1e-12 ${ftol} ${maxiter} ${maxeval}
        minimize 1e-12 1e-08 ${maxiter} ${maxeval}
        minimize 1e-12 1e-08 10000 ${maxeval}
        minimize 1e-12 1e-08 10000 20000
WARNING: Resetting reneighboring criteria during minimization (../min.cpp:168)
Memory usage per processor = 4.85096 Mbytes
Step PotEng Pxx Pyy Pxy Lx Ly Lz 
       0   -53.329814  -0.41587766    -1.307841 -5.8755306e-17      3.36736    6.1211458   0.56122687 
       1   -53.329814  -0.41587772    -1.307841 -8.3161833e-17      3.36736    6.1211458   0.56122687 
       2   -53.329814  -0.41587772    -1.307841 -4.5573678e-17      3.36736    6.1211458   0.56122687 
Loop time of 0.000130039 on 1 procs for 1 steps with 18 atoms

Minimization stats:
  Stopping criterion = force tolerance
  Energy initial, next-to-last, final = 
        -53.3298141543     -53.3298141543     -53.3298142294
  Force two-norm initial, final = 0.000628005 3.01825e-09
  Force max component initial, final = 0.000144924 8.72623e-10
  Final line search alpha, max atom move = 0 0
  Iterations, force evaluations = 1 15

Pair  time (%) = 8.56305e-05 (65.8496)
Neigh time (%) = 0 (0)
Comm  time (%) = 6.92054e-06 (5.32188)
Outpt time (%) = 6.11052e-06 (4.69898)
Other time (%) = 3.13779e-05 (24.1295)

Nlocal:    18 ave 18 max 18 min
Histogram: 1 0 0 0 0 0 0 0 0 0
Nghost:    65 ave 65 max 65 min
Histogram: 1 0 0 0 0 0 0 0 0 0
Neighs:    162 ave 162 max 162 min
Histogram: 1 0 0 0 0 0 0 0 0 0

Total # of neighbors = 162
Ave neighs/atom = 9
Neighbor list builds = 0
Dangerous builds = 0
        next i
jump SELF loop1
	read_dump orig.dump 0 x y
  orthogonal box = (0 0 -0.280613) to (3.36736 5.83244 0.280613)
  18 atoms before read
  18 atoms in snapshot
  0 atoms purged
  18 atoms replaced
  0 atoms trimmed
  0 atoms added
  18 atoms after read
        variable stretch equal 1+$i*${strainstep}
        variable stretch equal 1+100*${strainstep}
        variable stretch equal 1+100*0.0005
        change_box all ${direction} scale ${stretch} remap
        change_box all y scale ${stretch} remap
        change_box all y scale 1.05 remap
  orthogonal box = (0 -0.145811 -0.280613) to (3.36736 5.97825 0.280613)
        min_style ${style}
        min_style hftn
        minimize ${etol} ${ftol} ${maxiter} ${maxeval}
        minimize 1e-12 ${ftol} ${maxiter} ${maxeval}
        minimize 1e-12 1e-08 ${maxiter} ${maxeval}
        minimize 1e-12 1e-08 10000 ${maxeval}
        minimize 1e-12 1e-08 10000 20000
WARNING: Resetting reneighboring criteria during minimization (../min.cpp:168)
Memory usage per processor = 4.85096 Mbytes
Step PotEng Pxx Pyy Pxy Lx Ly Lz 
       0   -53.317139  -0.41859295   -1.3180999 1.3895567e-16      3.36736     6.124062   0.56122687 
       1   -53.317139  -0.41859301   -1.3180999 -2.3301997e-17      3.36736     6.124062   0.56122687 
       2   -53.317139  -0.41859301   -1.3180999 8.0328379e-18      3.36736     6.124062   0.56122687 
Loop time of 0.00011704 on 1 procs for 1 steps with 18 atoms

Minimization stats:
  Stopping criterion = force tolerance
  Energy initial, next-to-last, final = 
        -53.3171388063     -53.3171388063     -53.3171388813
  Force two-norm initial, final = 0.00062881 3.01727e-09
  Force max component initial, final = 0.000145188 8.72333e-10
  Final line search alpha, max atom move = 0 0
  Iterations, force evaluations = 1 15

Pair  time (%) = 6.67935e-05 (57.0691)
Neigh time (%) = 0 (0)
Comm  time (%) = 1.06979e-05 (9.14037)
Outpt time (%) = 1.08996e-05 (9.31275)
Other time (%) = 2.86488e-05 (24.4778)

Nlocal:    18 ave 18 max 18 min
Histogram: 1 0 0 0 0 0 0 0 0 0
Nghost:    65 ave 65 max 65 min
Histogram: 1 0 0 0 0 0 0 0 0 0
Neighs:    162 ave 162 max 162 min
Histogram: 1 0 0 0 0 0 0 0 0 0

Total # of neighbors = 162
Ave neighs/atom = 9
Neighbor list builds = 0
Dangerous builds = 0
        next i
jump SELF loop1

