LAMMPS (28 Jun 2014)
# attempt at getting tensile strain-stress curve for infinite slab

#file prefix
variable prefix string tension_V_inter5new2
variable dumpfile string ${prefix}.*.dump
variable dumpfile string tension_V_inter5new2.*.dump
variable restartfile string ${prefix}.*.equil
variable restartfile string tension_V_inter5new2.*.equil

#Mass (g/mol)
variable m equal 1

# lattice constant (in Angstroms) and orientation of axes (given by lattice vectors)
variable rho equal 0.9165
variable x1 equal 1
variable x2 equal 0
variable x3 equal 0
variable y1 equal 0
variable y2 equal 1
variable y3 equal 0
# length of lattice in different directions (using orientation of lattice vectors)
variable ax equal sqrt(${x1}*${x1}+${x2}*${x2}+${x3}*${x3})
variable ax equal sqrt(1*${x1}+${x2}*${x2}+${x3}*${x3})
variable ax equal sqrt(1*1+${x2}*${x2}+${x3}*${x3})
variable ax equal sqrt(1*1+0*${x2}+${x3}*${x3})
variable ax equal sqrt(1*1+0*0+${x3}*${x3})
variable ax equal sqrt(1*1+0*0+0*${x3})
variable ax equal sqrt(1*1+0*0+0*0)
variable ay equal sqrt(${y1}*${y1}+${y2}*${y2}+${y3}*${y3})
variable ay equal sqrt(0*${y1}+${y2}*${y2}+${y3}*${y3})
variable ay equal sqrt(0*0+${y2}*${y2}+${y3}*${y3})
variable ay equal sqrt(0*0+1*${y2}+${y3}*${y3})
variable ay equal sqrt(0*0+1*1+${y3}*${y3})
variable ay equal sqrt(0*0+1*1+0*${y3})
variable ay equal sqrt(0*0+1*1+0*0)
variable az equal 1

# size of box in lattice units
variable lxpos equal 3
variable lxneg equal 0
variable lypos equal 3
variable lyneg equal 0
variable lzpos equal 0.25
variable lzneg equal -0.25

# Define minimization parameters and damping
variable etol equal 1.0e-12
variable ftol equal 1.0e-8
variable maxiter equal 10000
variable maxeval equal 20000
variable style string cg

# boundary conditions
dimension	2
boundary	p p p
atom_style	atomic

# create geometry
units		lj
lattice         hex ${rho}
lattice         hex 0.9165
Lattice spacing in x,y,z = 1.12245 1.94415 1.12245
region		myregion block ${lxneg} ${lxpos} ${lyneg} ${lypos} ${lzneg} ${lzpos} units lattice
region		myregion block 0 ${lxpos} ${lyneg} ${lypos} ${lzneg} ${lzpos} units lattice
region		myregion block 0 3 ${lyneg} ${lypos} ${lzneg} ${lzpos} units lattice
region		myregion block 0 3 0 ${lypos} ${lzneg} ${lzpos} units lattice
region		myregion block 0 3 0 3 ${lzneg} ${lzpos} units lattice
region		myregion block 0 3 0 3 -0.25 ${lzpos} units lattice
region		myregion block 0 3 0 3 -0.25 0.25 units lattice
create_box	1 myregion
Created orthogonal box = (0 0 -0.280613) to (3.36736 5.83244 0.280613)
  1 by 1 by 1 MPI processor grid
create_atoms	1 box
Created 18 atoms

# define masses
mass * $m
mass * 1

# my fake/morse potential
pair_style      table linear 3001
pair_coeff      * * vpotential_inter5new2 dummy
neighbor	0.3 bin
neigh_modify	delay 5

# Setup output
thermo 1
thermo_style custom step pe pxx pyy pxy lx ly lz
thermo_modify norm no

# Compute initial state by relaxing box
min_style ${style}
min_style cg
minimize ${etol} ${ftol} ${maxiter} ${maxeval}
minimize 1e-12 ${ftol} ${maxiter} ${maxeval}
minimize 1e-12 1e-08 ${maxiter} ${maxeval}
minimize 1e-12 1e-08 10000 ${maxeval}
minimize 1e-12 1e-08 10000 20000
WARNING: Resetting reneighboring criteria during minimization (../min.cpp:168)
Memory usage per processor = 3.35099 Mbytes
Step PotEng Pxx Pyy Pxy Lx Ly Lz 
       0   -53.999984 0.0003469208 0.0003469208 1.4825282e-22    3.3673612    5.8324407   0.56122687 
       1   -53.999984 0.0003469208 0.0003469208 -2.4069537e-16    3.3673612    5.8324407   0.56122687 
Loop time of 0.000219075 on 1 procs for 1 steps with 18 atoms

Minimization stats:
  Stopping criterion = energy tolerance
  Energy initial, next-to-last, final = 
         -53.999983866      -53.999983866      -53.999983866
  Force two-norm initial, final = 1.11801e-13 1.30891e-11
  Force max component initial, final = 5.05401e-14 5.36567e-12
  Final line search alpha, max atom move = 1 5.36567e-12
  Iterations, force evaluations = 1 1

Pair  time (%) = 0.000201176 (91.8297)
Neigh time (%) = 0 (0)
Comm  time (%) = 1.07987e-06 (0.492922)
Outpt time (%) = 0 (0)
Other time (%) = 1.68192e-05 (7.67738)

Nlocal:    18 ave 18 max 18 min
Histogram: 1 0 0 0 0 0 0 0 0 0
Nghost:    65 ave 65 max 65 min
Histogram: 1 0 0 0 0 0 0 0 0 0
Neighs:    162 ave 162 max 162 min
Histogram: 1 0 0 0 0 0 0 0 0 0

Total # of neighbors = 162
Ave neighs/atom = 9
Neighbor list builds = 0
Dangerous builds = 0
reset_timestep 0
write_dump all atom orig.dump

# Energy curve will have nstep steps
variable strainmax equal 0.05
variable strainstep equal 0.0005
variable nsteps equal round(${strainmax}/${strainstep})
variable nsteps equal round(0.05/${strainstep})
variable nsteps equal round(0.05/0.0005)
variable direction string y

variable i loop ${nsteps}
variable i loop 100
label loop1
	read_dump orig.dump 0 x y
  orthogonal box = (0 0 -0.280613) to (3.36736 5.83244 0.280613)
  18 atoms before read
  18 atoms in snapshot
  0 atoms purged
  18 atoms replaced
  0 atoms trimmed
  0 atoms added
  18 atoms after read
        variable stretch equal 1+$i*${strainstep}
        variable stretch equal 1+1*${strainstep}
        variable stretch equal 1+1*0.0005
        change_box all ${direction} scale ${stretch} remap
        change_box all y scale ${stretch} remap
        change_box all y scale 1.0005 remap
  orthogonal box = (0 -0.00145811 -0.280613) to (3.36736 5.8339 0.280613)
        min_style ${style}
        min_style cg
        minimize ${etol} ${ftol} ${maxiter} ${maxeval}
        minimize 1e-12 ${ftol} ${maxiter} ${maxeval}
        minimize 1e-12 1e-08 ${maxiter} ${maxeval}
        minimize 1e-12 1e-08 10000 ${maxeval}
        minimize 1e-12 1e-08 10000 20000
WARNING: Resetting reneighboring criteria during minimization (../min.cpp:168)
Memory usage per processor = 3.35099 Mbytes
Step PotEng Pxx Pyy Pxy Lx Ly Lz 
       0   -53.999884 -0.0049247753 -0.015513808 5.9772076e-17      3.36736    5.8353562   0.56122687 
       1   -53.999884 -0.0049247753 -0.015513808 5.9772076e-17      3.36736    5.8353562   0.56122687 
Loop time of 7.40458e-05 on 1 procs for 1 steps with 18 atoms

Minimization stats:
  Stopping criterion = linesearch alpha is zero
  Energy initial, next-to-last, final = 
        -53.9998837515     -53.9998837515     -53.9998837515
  Force two-norm initial, final = 0.000856117 0.000856117
  Force max component initial, final = 0.000213831 0.000213831
  Final line search alpha, max atom move = 0.015625 3.3411e-06
  Iterations, force evaluations = 1 7

Pair  time (%) = 3.66966e-05 (49.5592)
Neigh time (%) = 0 (0)
Comm  time (%) = 7.82928e-06 (10.5736)
Outpt time (%) = 0 (0)
Other time (%) = 2.952e-05 (39.8672)

Nlocal:    18 ave 18 max 18 min
Histogram: 1 0 0 0 0 0 0 0 0 0
Nghost:    65 ave 65 max 65 min
Histogram: 1 0 0 0 0 0 0 0 0 0
Neighs:    162 ave 162 max 162 min
Histogram: 1 0 0 0 0 0 0 0 0 0

Total # of neighbors = 162
Ave neighs/atom = 9
Neighbor list builds = 0
Dangerous builds = 0
        next i
jump SELF loop1
	read_dump orig.dump 0 x y
  orthogonal box = (0 0 -0.280613) to (3.36736 5.83244 0.280613)
  18 atoms before read
  18 atoms in snapshot
  0 atoms purged
  18 atoms replaced
  0 atoms trimmed
  0 atoms added
  18 atoms after read
        variable stretch equal 1+$i*${strainstep}
        variable stretch equal 1+2*${strainstep}
        variable stretch equal 1+2*0.0005
        change_box all ${direction} scale ${stretch} remap
        change_box all y scale ${stretch} remap
        change_box all y scale 1.001 remap
  orthogonal box = (0 -0.00291622 -0.280613) to (3.36736 5.83536 0.280613)
        min_style ${style}
        min_style cg
        minimize ${etol} ${ftol} ${maxiter} ${maxeval}
        minimize 1e-12 ${ftol} ${maxiter} ${maxeval}
        minimize 1e-12 1e-08 ${maxiter} ${maxeval}
        minimize 1e-12 1e-08 10000 ${maxeval}
        minimize 1e-12 1e-08 10000 20000
WARNING: Resetting reneighboring criteria during minimization (../min.cpp:168)
Memory usage per processor = 3.35099 Mbytes
Step PotEng Pxx Pyy Pxy Lx Ly Lz 
       0   -53.999654 -0.010182196 -0.031332786 -6.273594e-17      3.36736    5.8382724   0.56122687 
       1   -53.999654 -0.010182196 -0.031332786 -6.273594e-17      3.36736    5.8382724   0.56122687 
Loop time of 5.39691e-05 on 1 procs for 1 steps with 18 atoms

Minimization stats:
  Stopping criterion = linesearch alpha is zero
  Energy initial, next-to-last, final = 
        -53.9996543937     -53.9996543937     -53.9996543937
  Force two-norm initial, final = 0.000851934 0.000851934
  Force max component initial, final = 0.000212585 0.000212585
  Final line search alpha, max atom move = 0.015625 3.32164e-06
  Iterations, force evaluations = 1 7

Pair  time (%) = 3.18858e-05 (59.0816)
Neigh time (%) = 0 (0)
Comm  time (%) = 5.59201e-06 (10.3615)
Outpt time (%) = 0 (0)
Other time (%) = 1.64913e-05 (30.5569)

Nlocal:    18 ave 18 max 18 min
Histogram: 1 0 0 0 0 0 0 0 0 0
Nghost:    65 ave 65 max 65 min
Histogram: 1 0 0 0 0 0 0 0 0 0
Neighs:    162 ave 162 max 162 min
Histogram: 1 0 0 0 0 0 0 0 0 0

Total # of neighbors = 162
Ave neighs/atom = 9
Neighbor list builds = 0
Dangerous builds = 0
        next i
jump SELF loop1
	read_dump orig.dump 0 x y
  orthogonal box = (0 0 -0.280613) to (3.36736 5.83244 0.280613)
  18 atoms before read
  18 atoms in snapshot
  0 atoms purged
  18 atoms replaced
  0 atoms trimmed
  0 atoms added
  18 atoms after read
        variable stretch equal 1+$i*${strainstep}
        variable stretch equal 1+3*${strainstep}
        variable stretch equal 1+3*0.0005
        change_box all ${direction} scale ${stretch} remap
        change_box all y scale ${stretch} remap
        change_box all y scale 1.0015 remap
  orthogonal box = (0 -0.00437433 -0.280613) to (3.36736 5.83681 0.280613)
        min_style ${style}
        min_style cg
        minimize ${etol} ${ftol} ${maxiter} ${maxeval}
        minimize 1e-12 ${ftol} ${maxiter} ${maxeval}
        minimize 1e-12 1e-08 ${maxiter} ${maxeval}
        minimize 1e-12 1e-08 10000 ${maxeval}
        minimize 1e-12 1e-08 10000 20000
WARNING: Resetting reneighboring criteria during minimization (../min.cpp:168)
Memory usage per processor = 3.35099 Mbytes
Step PotEng Pxx Pyy Pxy Lx Ly Lz 
       0   -53.999296 -0.015412661 -0.047102243 5.8222912e-17      3.36736    5.8411887   0.56122687 
       1   -53.999296 -0.015412661 -0.047102243 5.8222912e-17      3.36736    5.8411887   0.56122687 
Loop time of 5.2975e-05 on 1 procs for 1 steps with 18 atoms

Minimization stats:
  Stopping criterion = linesearch alpha is zero
  Energy initial, next-to-last, final = 
        -53.9992956634     -53.9992956634     -53.9992956634
  Force two-norm initial, final = 0.000847795 0.000847795
  Force max component initial, final = 0.000211352 0.000211352
  Final line search alpha, max atom move = 0.015625 3.30237e-06
  Iterations, force evaluations = 1 7

Pair  time (%) = 3.38473e-05 (63.8929)
Neigh time (%) = 0 (0)
Comm  time (%) = 6.56117e-06 (12.3854)
Outpt time (%) = 0 (0)
Other time (%) = 1.25666e-05 (23.7217)

Nlocal:    18 ave 18 max 18 min
Histogram: 1 0 0 0 0 0 0 0 0 0
Nghost:    65 ave 65 max 65 min
Histogram: 1 0 0 0 0 0 0 0 0 0
Neighs:    162 ave 162 max 162 min
Histogram: 1 0 0 0 0 0 0 0 0 0

Total # of neighbors = 162
Ave neighs/atom = 9
Neighbor list builds = 0
Dangerous builds = 0
        next i
jump SELF loop1
	read_dump orig.dump 0 x y
  orthogonal box = (0 0 -0.280613) to (3.36736 5.83244 0.280613)
  18 atoms before read
  18 atoms in snapshot
  0 atoms purged
  18 atoms replaced
  0 atoms trimmed
  0 atoms added
  18 atoms after read
        variable stretch equal 1+$i*${strainstep}
        variable stretch equal 1+4*${strainstep}
        variable stretch equal 1+4*0.0005
        change_box all ${direction} scale ${stretch} remap
        change_box all y scale ${stretch} remap
        change_box all y scale 1.002 remap
  orthogonal box = (0 -0.00583244 -0.280613) to (3.36736 5.83827 0.280613)
        min_style ${style}
        min_style cg
        minimize ${etol} ${ftol} ${maxiter} ${maxeval}
        minimize 1e-12 ${ftol} ${maxiter} ${maxeval}
        minimize 1e-12 1e-08 ${maxiter} ${maxeval}
        minimize 1e-12 1e-08 10000 ${maxeval}
        minimize 1e-12 1e-08 10000 20000
WARNING: Resetting reneighboring criteria during minimization (../min.cpp:168)
Memory usage per processor = 3.35099 Mbytes
Step PotEng Pxx Pyy Pxy Lx Ly Lz 
       0   -53.998736 -0.020602799 -0.062781691 -4.9638825e-17      3.36736    5.8441049   0.56122687 
       1   -53.998736 -0.020602799 -0.062781691 -4.9638825e-17      3.36736    5.8441049   0.56122687 
Loop time of 5.29425e-05 on 1 procs for 1 steps with 18 atoms

Minimization stats:
  Stopping criterion = linesearch alpha is zero
  Energy initial, next-to-last, final = 
        -53.9987360433     -53.9987360433     -53.9987360433
  Force two-norm initial, final = 0.000849163 0.000849163
  Force max component initial, final = 0.000211773 0.000211773
  Final line search alpha, max atom move = 0.015625 3.30896e-06
  Iterations, force evaluations = 1 7

Pair  time (%) = 3.28195e-05 (61.9907)
Neigh time (%) = 0 (0)
Comm  time (%) = 5.93613e-06 (11.2124)
Outpt time (%) = 0 (0)
Other time (%) = 1.4187e-05 (26.7969)

Nlocal:    18 ave 18 max 18 min
Histogram: 1 0 0 0 0 0 0 0 0 0
Nghost:    65 ave 65 max 65 min
Histogram: 1 0 0 0 0 0 0 0 0 0
Neighs:    162 ave 162 max 162 min
Histogram: 1 0 0 0 0 0 0 0 0 0

Total # of neighbors = 162
Ave neighs/atom = 9
Neighbor list builds = 0
Dangerous builds = 0
        next i
jump SELF loop1
	read_dump orig.dump 0 x y
  orthogonal box = (0 0 -0.280613) to (3.36736 5.83244 0.280613)
  18 atoms before read
  18 atoms in snapshot
  0 atoms purged
  18 atoms replaced
  0 atoms trimmed
  0 atoms added
  18 atoms after read
        variable stretch equal 1+$i*${strainstep}
        variable stretch equal 1+5*${strainstep}
        variable stretch equal 1+5*0.0005
        change_box all ${direction} scale ${stretch} remap
        change_box all y scale ${stretch} remap
        change_box all y scale 1.0025 remap
  orthogonal box = (0 -0.00729055 -0.280613) to (3.36736 5.83973 0.280613)
        min_style ${style}
        min_style cg
        minimize ${etol} ${ftol} ${maxiter} ${maxeval}
        minimize 1e-12 ${ftol} ${maxiter} ${maxeval}
        minimize 1e-12 1e-08 ${maxiter} ${maxeval}
        minimize 1e-12 1e-08 10000 ${maxeval}
        minimize 1e-12 1e-08 10000 20000
WARNING: Resetting reneighboring criteria during minimization (../min.cpp:168)
Memory usage per processor = 3.35099 Mbytes
Step PotEng Pxx Pyy Pxy Lx Ly Lz 
       0   -53.998032 -0.025763191 -0.078402686 -1.2072671e-16      3.36736    5.8470211   0.56122687 
       1   -53.998032 -0.025763191 -0.078402686 -1.2072671e-16      3.36736    5.8470211   0.56122687 
Loop time of 5.31079e-05 on 1 procs for 1 steps with 18 atoms

Minimization stats:
  Stopping criterion = linesearch alpha is zero
  Energy initial, next-to-last, final = 
        -53.9980321141     -53.9980321141     -53.9980321141
  Force two-norm initial, final = 0.000845024 0.000845024
  Force max component initial, final = 0.000210539 0.000210539
  Final line search alpha, max atom move = 0.015625 3.28967e-06
  Iterations, force evaluations = 1 7

Pair  time (%) = 3.43799e-05 (64.736)
Neigh time (%) = 0 (0)
Comm  time (%) = 4.67279e-06 (8.79869)
Outpt time (%) = 0 (0)
Other time (%) = 1.40552e-05 (26.4653)

Nlocal:    18 ave 18 max 18 min
Histogram: 1 0 0 0 0 0 0 0 0 0
Nghost:    65 ave 65 max 65 min
Histogram: 1 0 0 0 0 0 0 0 0 0
Neighs:    162 ave 162 max 162 min
Histogram: 1 0 0 0 0 0 0 0 0 0

Total # of neighbors = 162
Ave neighs/atom = 9
Neighbor list builds = 0
Dangerous builds = 0
        next i
jump SELF loop1
	read_dump orig.dump 0 x y
  orthogonal box = (0 0 -0.280613) to (3.36736 5.83244 0.280613)
  18 atoms before read
  18 atoms in snapshot
  0 atoms purged
  18 atoms replaced
  0 atoms trimmed
  0 atoms added
  18 atoms after read
        variable stretch equal 1+$i*${strainstep}
        variable stretch equal 1+6*${strainstep}
        variable stretch equal 1+6*0.0005
        change_box all ${direction} scale ${stretch} remap
        change_box all y scale ${stretch} remap
        change_box all y scale 1.003 remap
  orthogonal box = (0 -0.00874866 -0.280613) to (3.36736 5.84119 0.280613)
        min_style ${style}
        min_style cg
        minimize ${etol} ${ftol} ${maxiter} ${maxeval}
        minimize 1e-12 ${ftol} ${maxiter} ${maxeval}
        minimize 1e-12 1e-08 ${maxiter} ${maxeval}
        minimize 1e-12 1e-08 10000 ${maxeval}
        minimize 1e-12 1e-08 10000 20000
WARNING: Resetting reneighboring criteria during minimization (../min.cpp:168)
Memory usage per processor = 3.35099 Mbytes
Step PotEng Pxx Pyy Pxy Lx Ly Lz 
       0     -53.9972 -0.030897012 -0.093974569 1.6580872e-16      3.36736    5.8499373   0.56122687 
       1     -53.9972 -0.030897012 -0.093974569 1.6580872e-16      3.36736    5.8499373   0.56122687 
Loop time of 5.29488e-05 on 1 procs for 1 steps with 18 atoms

Minimization stats:
  Stopping criterion = linesearch alpha is zero
  Energy initial, next-to-last, final = 
        -53.9972003828     -53.9972003828     -53.9972003828
  Force two-norm initial, final = 0.00084092 0.00084092
  Force max component initial, final = 0.000209314 0.000209314
  Final line search alpha, max atom move = 0.015625 3.27053e-06
  Iterations, force evaluations = 1 7

Pair  time (%) = 3.45382e-05 (65.2294)
Neigh time (%) = 0 (0)
Comm  time (%) = 3.79723e-06 (7.17152)
Outpt time (%) = 0 (0)
Other time (%) = 1.46134e-05 (27.5991)

Nlocal:    18 ave 18 max 18 min
Histogram: 1 0 0 0 0 0 0 0 0 0
Nghost:    65 ave 65 max 65 min
Histogram: 1 0 0 0 0 0 0 0 0 0
Neighs:    162 ave 162 max 162 min
Histogram: 1 0 0 0 0 0 0 0 0 0

Total # of neighbors = 162
Ave neighs/atom = 9
Neighbor list builds = 0
Dangerous builds = 0
        next i
jump SELF loop1
	read_dump orig.dump 0 x y
  orthogonal box = (0 0 -0.280613) to (3.36736 5.83244 0.280613)
  18 atoms before read
  18 atoms in snapshot
  0 atoms purged
  18 atoms replaced
  0 atoms trimmed
  0 atoms added
  18 atoms after read
        variable stretch equal 1+$i*${strainstep}
        variable stretch equal 1+7*${strainstep}
        variable stretch equal 1+7*0.0005
        change_box all ${direction} scale ${stretch} remap
        change_box all y scale ${stretch} remap
        change_box all y scale 1.0035 remap
  orthogonal box = (0 -0.0102068 -0.280613) to (3.36736 5.84265 0.280613)
        min_style ${style}
        min_style cg
        minimize ${etol} ${ftol} ${maxiter} ${maxeval}
        minimize 1e-12 ${ftol} ${maxiter} ${maxeval}
        minimize 1e-12 1e-08 ${maxiter} ${maxeval}
        minimize 1e-12 1e-08 10000 ${maxeval}
        minimize 1e-12 1e-08 10000 20000
WARNING: Resetting reneighboring criteria during minimization (../min.cpp:168)
Memory usage per processor = 3.35099 Mbytes
Step PotEng Pxx Pyy Pxy Lx Ly Lz 
       0    -53.99621 -0.035998465  -0.10947961 -1.074071e-16      3.36736    5.8528535   0.56122687 
       1    -53.99621 -0.035998465  -0.10947961 -1.074071e-16      3.36736    5.8528535   0.56122687 
Loop time of 5.29492e-05 on 1 procs for 1 steps with 18 atoms

Minimization stats:
  Stopping criterion = linesearch alpha is zero
  Energy initial, next-to-last, final = 
        -53.9962096735     -53.9962096735     -53.9962096735
  Force two-norm initial, final = 0.000842269 0.000842269
  Force max component initial, final = 0.000209731 0.000209731
  Final line search alpha, max atom move = 0.015625 3.27704e-06
  Iterations, force evaluations = 1 7

Pair  time (%) = 3.2733e-05 (61.8196)
Neigh time (%) = 0 (0)
Comm  time (%) = 7.04767e-06 (13.3102)
Outpt time (%) = 0 (0)
Other time (%) = 1.31686e-05 (24.8702)

Nlocal:    18 ave 18 max 18 min
Histogram: 1 0 0 0 0 0 0 0 0 0
Nghost:    65 ave 65 max 65 min
Histogram: 1 0 0 0 0 0 0 0 0 0
Neighs:    162 ave 162 max 162 min
Histogram: 1 0 0 0 0 0 0 0 0 0

Total # of neighbors = 162
Ave neighs/atom = 9
Neighbor list builds = 0
Dangerous builds = 0
        next i
jump SELF loop1
	read_dump orig.dump 0 x y
  orthogonal box = (0 0 -0.280613) to (3.36736 5.83244 0.280613)
  18 atoms before read
  18 atoms in snapshot
  0 atoms purged
  18 atoms replaced
  0 atoms trimmed
  0 atoms added
  18 atoms after read
        variable stretch equal 1+$i*${strainstep}
        variable stretch equal 1+8*${strainstep}
        variable stretch equal 1+8*0.0005
        change_box all ${direction} scale ${stretch} remap
        change_box all y scale ${stretch} remap
        change_box all y scale 1.004 remap
  orthogonal box = (0 -0.0116649 -0.280613) to (3.36736 5.8441 0.280613)
        min_style ${style}
        min_style cg
        minimize ${etol} ${ftol} ${maxiter} ${maxeval}
        minimize 1e-12 ${ftol} ${maxiter} ${maxeval}
        minimize 1e-12 1e-08 ${maxiter} ${maxeval}
        minimize 1e-12 1e-08 10000 ${maxeval}
        minimize 1e-12 1e-08 10000 20000
WARNING: Resetting reneighboring criteria during minimization (../min.cpp:168)
Memory usage per processor = 3.35099 Mbytes
Step PotEng Pxx Pyy Pxy Lx Ly Lz 
       0   -53.995037 -0.041063234  -0.12490448 -6.1943657e-17      3.36736    5.8557698   0.56122687 
       1   -53.995037 -0.041063234  -0.12490448 -6.1943657e-17      3.36736    5.8557698   0.56122687 
Loop time of 8.30063e-05 on 1 procs for 1 steps with 18 atoms

Minimization stats:
  Stopping criterion = linesearch alpha is zero
  Energy initial, next-to-last, final = 
        -53.9950368591     -53.9950368591     -53.9950368591
  Force two-norm initial, final = 0.000838185 0.000838185
  Force max component initial, final = 0.000208511 0.000208511
  Final line search alpha, max atom move = 0.015625 3.25799e-06
  Iterations, force evaluations = 1 7

Pair  time (%) = 3.32167e-05 (40.017)
Neigh time (%) = 0 (0)
Comm  time (%) = 7.44569e-06 (8.97003)
Outpt time (%) = 0 (0)
Other time (%) = 4.2344e-05 (51.0129)

Nlocal:    18 ave 18 max 18 min
Histogram: 1 0 0 0 0 0 0 0 0 0
Nghost:    65 ave 65 max 65 min
Histogram: 1 0 0 0 0 0 0 0 0 0
Neighs:    162 ave 162 max 162 min
Histogram: 1 0 0 0 0 0 0 0 0 0

Total # of neighbors = 162
Ave neighs/atom = 9
Neighbor list builds = 0
Dangerous builds = 0
        next i
jump SELF loop1
	read_dump orig.dump 0 x y
  orthogonal box = (0 0 -0.280613) to (3.36736 5.83244 0.280613)
  18 atoms before read
  18 atoms in snapshot
  0 atoms purged
  18 atoms replaced
  0 atoms trimmed
  0 atoms added
  18 atoms after read
        variable stretch equal 1+$i*${strainstep}
        variable stretch equal 1+9*${strainstep}
        variable stretch equal 1+9*0.0005
        change_box all ${direction} scale ${stretch} remap
        change_box all y scale ${stretch} remap
        change_box all y scale 1.0045 remap
  orthogonal box = (0 -0.013123 -0.280613) to (3.36736 5.84556 0.280613)
        min_style ${style}
        min_style cg
        minimize ${etol} ${ftol} ${maxiter} ${maxeval}
        minimize 1e-12 ${ftol} ${maxiter} ${maxeval}
        minimize 1e-12 1e-08 ${maxiter} ${maxeval}
        minimize 1e-12 1e-08 10000 ${maxeval}
        minimize 1e-12 1e-08 10000 20000
WARNING: Resetting reneighboring criteria during minimization (../min.cpp:168)
Memory usage per processor = 3.35099 Mbytes
Step PotEng Pxx Pyy Pxy Lx Ly Lz 
       0   -53.993738 -0.046101772  -0.14028053 -1.5014165e-17      3.36736     5.858686   0.56122687 
       1   -53.993738 -0.046101772  -0.14028053 -1.5014165e-17      3.36736     5.858686   0.56122687 
Loop time of 4.0906e-05 on 1 procs for 1 steps with 18 atoms

Minimization stats:
  Stopping criterion = linesearch alpha is zero
  Energy initial, next-to-last, final = 
        -53.9937377172     -53.9937377172     -53.9937377172
  Force two-norm initial, final = 0.000834106 0.000834106
  Force max component initial, final = 0.000207292 0.000207292
  Final line search alpha, max atom move = 0.015625 3.23894e-06
  Iterations, force evaluations = 1 7

Pair  time (%) = 2.48877e-05 (60.8413)
Neigh time (%) = 0 (0)
Comm  time (%) = 6.27129e-06 (15.331)
Outpt time (%) = 0 (0)
Other time (%) = 9.74699e-06 (23.8278)

Nlocal:    18 ave 18 max 18 min
Histogram: 1 0 0 0 0 0 0 0 0 0
Nghost:    65 ave 65 max 65 min
Histogram: 1 0 0 0 0 0 0 0 0 0
Neighs:    162 ave 162 max 162 min
Histogram: 1 0 0 0 0 0 0 0 0 0

Total # of neighbors = 162
Ave neighs/atom = 9
Neighbor list builds = 0
Dangerous builds = 0
        next i
jump SELF loop1
	read_dump orig.dump 0 x y
  orthogonal box = (0 0 -0.280613) to (3.36736 5.83244 0.280613)
  18 atoms before read
  18 atoms in snapshot
  0 atoms purged
  18 atoms replaced
  0 atoms trimmed
  0 atoms added
  18 atoms after read
        variable stretch equal 1+$i*${strainstep}
        variable stretch equal 1+10*${strainstep}
        variable stretch equal 1+10*0.0005
        change_box all ${direction} scale ${stretch} remap
        change_box all y scale ${stretch} remap
        change_box all y scale 1.005 remap
  orthogonal box = (0 -0.0145811 -0.280613) to (3.36736 5.84702 0.280613)
        min_style ${style}
        min_style cg
        minimize ${etol} ${ftol} ${maxiter} ${maxeval}
        minimize 1e-12 ${ftol} ${maxiter} ${maxeval}
        minimize 1e-12 1e-08 ${maxiter} ${maxeval}
        minimize 1e-12 1e-08 10000 ${maxeval}
        minimize 1e-12 1e-08 10000 20000
WARNING: Resetting reneighboring criteria during minimization (../min.cpp:168)
Memory usage per processor = 3.35099 Mbytes
Step PotEng Pxx Pyy Pxy Lx Ly Lz 
       0   -53.992312 -0.051114095  -0.15560757 -6.2953144e-17      3.36736    5.8616022   0.56122687 
       1   -53.992312 -0.051114095  -0.15560757 -6.2953144e-17      3.36736    5.8616022   0.56122687 
Loop time of 5.40781e-05 on 1 procs for 1 steps with 18 atoms

Minimization stats:
  Stopping criterion = linesearch alpha is zero
  Energy initial, next-to-last, final = 
        -53.9923122513     -53.9923122513     -53.9923122513
  Force two-norm initial, final = 0.000830064 0.000830064
  Force max component initial, final = 0.000206083 0.000206083
  Final line search alpha, max atom move = 0.015625 3.22005e-06
  Iterations, force evaluations = 1 7

Pair  time (%) = 3.32344e-05 (61.4563)
Neigh time (%) = 0 (0)
Comm  time (%) = 5.2891e-06 (9.78049)
Outpt time (%) = 0 (0)
Other time (%) = 1.55546e-05 (28.7632)

Nlocal:    18 ave 18 max 18 min
Histogram: 1 0 0 0 0 0 0 0 0 0
Nghost:    65 ave 65 max 65 min
Histogram: 1 0 0 0 0 0 0 0 0 0
Neighs:    162 ave 162 max 162 min
Histogram: 1 0 0 0 0 0 0 0 0 0

Total # of neighbors = 162
Ave neighs/atom = 9
Neighbor list builds = 0
Dangerous builds = 0
        next i
jump SELF loop1
	read_dump orig.dump 0 x y
  orthogonal box = (0 0 -0.280613) to (3.36736 5.83244 0.280613)
  18 atoms before read
  18 atoms in snapshot
  0 atoms purged
  18 atoms replaced
  0 atoms trimmed
  0 atoms added
  18 atoms after read
        variable stretch equal 1+$i*${strainstep}
        variable stretch equal 1+11*${strainstep}
        variable stretch equal 1+11*0.0005
        change_box all ${direction} scale ${stretch} remap
        change_box all y scale ${stretch} remap
        change_box all y scale 1.0055 remap
  orthogonal box = (0 -0.0160392 -0.280613) to (3.36736 5.84848 0.280613)
        min_style ${style}
        min_style cg
        minimize ${etol} ${ftol} ${maxiter} ${maxeval}
        minimize 1e-12 ${ftol} ${maxiter} ${maxeval}
        minimize 1e-12 1e-08 ${maxiter} ${maxeval}
        minimize 1e-12 1e-08 10000 ${maxeval}
        minimize 1e-12 1e-08 10000 20000
WARNING: Resetting reneighboring criteria during minimization (../min.cpp:168)
Memory usage per processor = 3.35099 Mbytes
Step PotEng Pxx Pyy Pxy Lx Ly Lz 
       0   -53.990685 -0.056086167  -0.17084284 1.8545904e-17      3.36736    5.8645184   0.56122687 
       1   -53.990685 -0.056086167  -0.17084284 1.8545904e-17      3.36736    5.8645184   0.56122687 
Loop time of 5.29055e-05 on 1 procs for 1 steps with 18 atoms

Minimization stats:
  Stopping criterion = linesearch alpha is zero
  Energy initial, next-to-last, final = 
        -53.9906854536     -53.9906854536     -53.9906854536
  Force two-norm initial, final = 0.000831386 0.000831386
  Force max component initial, final = 0.000206492 0.000206492
  Final line search alpha, max atom move = 0.015625 3.22643e-06
  Iterations, force evaluations = 1 7

Pair  time (%) = 3.50988e-05 (66.3423)
Neigh time (%) = 0 (0)
Comm  time (%) = 6.15674e-06 (11.6372)
Outpt time (%) = 0 (0)
Other time (%) = 1.165e-05 (22.0204)

Nlocal:    18 ave 18 max 18 min
Histogram: 1 0 0 0 0 0 0 0 0 0
Nghost:    65 ave 65 max 65 min
Histogram: 1 0 0 0 0 0 0 0 0 0
Neighs:    162 ave 162 max 162 min
Histogram: 1 0 0 0 0 0 0 0 0 0

Total # of neighbors = 162
Ave neighs/atom = 9
Neighbor list builds = 0
Dangerous builds = 0
        next i
jump SELF loop1
	read_dump orig.dump 0 x y
  orthogonal box = (0 0 -0.280613) to (3.36736 5.83244 0.280613)
  18 atoms before read
  18 atoms in snapshot
  0 atoms purged
  18 atoms replaced
  0 atoms trimmed
  0 atoms added
  18 atoms after read
        variable stretch equal 1+$i*${strainstep}
        variable stretch equal 1+12*${strainstep}
        variable stretch equal 1+12*0.0005
        change_box all ${direction} scale ${stretch} remap
        change_box all y scale ${stretch} remap
        change_box all y scale 1.006 remap
  orthogonal box = (0 -0.0174973 -0.280613) to (3.36736 5.84994 0.280613)
        min_style ${style}
        min_style cg
        minimize ${etol} ${ftol} ${maxiter} ${maxeval}
        minimize 1e-12 ${ftol} ${maxiter} ${maxeval}
        minimize 1e-12 1e-08 ${maxiter} ${maxeval}
        minimize 1e-12 1e-08 10000 ${maxeval}
        minimize 1e-12 1e-08 10000 20000
WARNING: Resetting reneighboring criteria during minimization (../min.cpp:168)
Memory usage per processor = 3.35099 Mbytes
Step PotEng Pxx Pyy Pxy Lx Ly Lz 
       0   -53.988925 -0.061030673  -0.18602448 -1.3113691e-17      3.36736    5.8674346   0.56122687 
       1   -53.988925 -0.061030673  -0.18602448 -1.3113691e-17      3.36736    5.8674346   0.56122687 
Loop time of 5.30707e-05 on 1 procs for 1 steps with 18 atoms

Minimization stats:
  Stopping criterion = linesearch alpha is zero
  Energy initial, next-to-last, final = 
        -53.9889245652     -53.9889245652     -53.9889245652
  Force two-norm initial, final = 0.00082736 0.00082736
  Force max component initial, final = 0.000205287 0.000205287
  Final line search alpha, max atom move = 0.015625 3.2076e-06
  Iterations, force evaluations = 1 7

Pair  time (%) = 3.32288e-05 (62.6123)
Neigh time (%) = 0 (0)
Comm  time (%) = 6.03939e-06 (11.3799)
Outpt time (%) = 0 (0)
Other time (%) = 1.38025e-05 (26.0078)

Nlocal:    18 ave 18 max 18 min
Histogram: 1 0 0 0 0 0 0 0 0 0
Nghost:    65 ave 65 max 65 min
Histogram: 1 0 0 0 0 0 0 0 0 0
Neighs:    162 ave 162 max 162 min
Histogram: 1 0 0 0 0 0 0 0 0 0

Total # of neighbors = 162
Ave neighs/atom = 9
Neighbor list builds = 0
Dangerous builds = 0
        next i
jump SELF loop1
	read_dump orig.dump 0 x y
  orthogonal box = (0 0 -0.280613) to (3.36736 5.83244 0.280613)
  18 atoms before read
  18 atoms in snapshot
  0 atoms purged
  18 atoms replaced
  0 atoms trimmed
  0 atoms added
  18 atoms after read
        variable stretch equal 1+$i*${strainstep}
        variable stretch equal 1+13*${strainstep}
        variable stretch equal 1+13*0.0005
        change_box all ${direction} scale ${stretch} remap
        change_box all y scale ${stretch} remap
        change_box all y scale 1.0065 remap
  orthogonal box = (0 -0.0189554 -0.280613) to (3.36736 5.8514 0.280613)
        min_style ${style}
        min_style cg
        minimize ${etol} ${ftol} ${maxiter} ${maxeval}
        minimize 1e-12 ${ftol} ${maxiter} ${maxeval}
        minimize 1e-12 1e-08 ${maxiter} ${maxeval}
        minimize 1e-12 1e-08 10000 ${maxeval}
        minimize 1e-12 1e-08 10000 20000
WARNING: Resetting reneighboring criteria during minimization (../min.cpp:168)
Memory usage per processor = 3.35099 Mbytes
Step PotEng Pxx Pyy Pxy Lx Ly Lz 
       0   -53.987039 -0.065949359   -0.2011576 -1.1492603e-16      3.36736    5.8703509   0.56122687 
       1   -53.987039 -0.065949359   -0.2011576 -1.1492603e-16      3.36736    5.8703509   0.56122687 
Loop time of 5.2958e-05 on 1 procs for 1 steps with 18 atoms

Minimization stats:
  Stopping criterion = linesearch alpha is zero
  Energy initial, next-to-last, final = 
        -53.9870387838     -53.9870387838     -53.9870387838
  Force two-norm initial, final = 0.000823351 0.000823351
  Force max component initial, final = 0.000204086 0.000204086
  Final line search alpha, max atom move = 0.015625 3.18884e-06
  Iterations, force evaluations = 1 7

Pair  time (%) = 3.37576e-05 (63.7442)
Neigh time (%) = 0 (0)
Comm  time (%) = 8.0507e-06 (15.202)
Outpt time (%) = 0 (0)
Other time (%) = 1.11497e-05 (21.0538)

Nlocal:    18 ave 18 max 18 min
Histogram: 1 0 0 0 0 0 0 0 0 0
Nghost:    65 ave 65 max 65 min
Histogram: 1 0 0 0 0 0 0 0 0 0
Neighs:    162 ave 162 max 162 min
Histogram: 1 0 0 0 0 0 0 0 0 0

Total # of neighbors = 162
Ave neighs/atom = 9
Neighbor list builds = 0
Dangerous builds = 0
        next i
jump SELF loop1
	read_dump orig.dump 0 x y
  orthogonal box = (0 0 -0.280613) to (3.36736 5.83244 0.280613)
  18 atoms before read
  18 atoms in snapshot
  0 atoms purged
  18 atoms replaced
  0 atoms trimmed
  0 atoms added
  18 atoms after read
        variable stretch equal 1+$i*${strainstep}
        variable stretch equal 1+14*${strainstep}
        variable stretch equal 1+14*0.0005
        change_box all ${direction} scale ${stretch} remap
        change_box all y scale ${stretch} remap
        change_box all y scale 1.007 remap
  orthogonal box = (0 -0.0204135 -0.280613) to (3.36736 5.85285 0.280613)
        min_style ${style}
        min_style cg
        minimize ${etol} ${ftol} ${maxiter} ${maxeval}
        minimize 1e-12 ${ftol} ${maxiter} ${maxeval}
        minimize 1e-12 1e-08 ${maxiter} ${maxeval}
        minimize 1e-12 1e-08 10000 ${maxeval}
        minimize 1e-12 1e-08 10000 20000
WARNING: Resetting reneighboring criteria during minimization (../min.cpp:168)
Memory usage per processor = 3.35099 Mbytes
Step PotEng Pxx Pyy Pxy Lx Ly Lz 
       0   -53.984995 -0.070835885  -0.21622268 -7.5107848e-17      3.36736    5.8732671   0.56122687 
       1   -53.984995 -0.070835885  -0.21622268 -7.5107848e-17      3.36736    5.8732671   0.56122687 
Loop time of 5.29584e-05 on 1 procs for 1 steps with 18 atoms

Minimization stats:
  Stopping criterion = linesearch alpha is zero
  Energy initial, next-to-last, final = 
        -53.9849945236     -53.9849945236     -53.9849945236
  Force two-norm initial, final = 0.000824655 0.000824655
  Force max component initial, final = 0.000204489 0.000204489
  Final line search alpha, max atom move = 0.015625 3.19515e-06
  Iterations, force evaluations = 1 7

Pair  time (%) = 3.37602e-05 (63.7486)
Neigh time (%) = 0 (0)
Comm  time (%) = 6.19481e-06 (11.6975)
Outpt time (%) = 0 (0)
Other time (%) = 1.30034e-05 (24.5539)

Nlocal:    18 ave 18 max 18 min
Histogram: 1 0 0 0 0 0 0 0 0 0
Nghost:    65 ave 65 max 65 min
Histogram: 1 0 0 0 0 0 0 0 0 0
Neighs:    162 ave 162 max 162 min
Histogram: 1 0 0 0 0 0 0 0 0 0

Total # of neighbors = 162
Ave neighs/atom = 9
Neighbor list builds = 0
Dangerous builds = 0
        next i
jump SELF loop1
	read_dump orig.dump 0 x y
  orthogonal box = (0 0 -0.280613) to (3.36736 5.83244 0.280613)
  18 atoms before read
  18 atoms in snapshot
  0 atoms purged
  18 atoms replaced
  0 atoms trimmed
  0 atoms added
  18 atoms after read
        variable stretch equal 1+$i*${strainstep}
        variable stretch equal 1+15*${strainstep}
        variable stretch equal 1+15*0.0005
        change_box all ${direction} scale ${stretch} remap
        change_box all y scale ${stretch} remap
        change_box all y scale 1.0075 remap
  orthogonal box = (0 -0.0218717 -0.280613) to (3.36736 5.85431 0.280613)
        min_style ${style}
        min_style cg
        minimize ${etol} ${ftol} ${maxiter} ${maxeval}
        minimize 1e-12 ${ftol} ${maxiter} ${maxeval}
        minimize 1e-12 1e-08 ${maxiter} ${maxeval}
        minimize 1e-12 1e-08 10000 ${maxeval}
        minimize 1e-12 1e-08 10000 20000
WARNING: Resetting reneighboring criteria during minimization (../min.cpp:168)
Memory usage per processor = 3.35099 Mbytes
Step PotEng Pxx Pyy Pxy Lx Ly Lz 
       0   -53.982778 -0.075687697  -0.23121169 -8.5479881e-17      3.36736    5.8761833   0.56122687 
       1   -53.982778 -0.075687697  -0.23121169 -8.5479881e-17      3.36736    5.8761833   0.56122687 
Loop time of 5.30841e-05 on 1 procs for 1 steps with 18 atoms

Minimization stats:
  Stopping criterion = linesearch alpha is zero
  Energy initial, next-to-last, final = 
        -53.9827776587     -53.9827776587     -53.9827776587
  Force two-norm initial, final = 0.000820672 0.000820672
  Force max component initial, final = 0.000203296 0.000203296
  Final line search alpha, max atom move = 0.015625 3.17649e-06
  Iterations, force evaluations = 1 7

Pair  time (%) = 3.50043e-05 (65.9413)
Neigh time (%) = 0 (0)
Comm  time (%) = 4.92157e-06 (9.27128)
Outpt time (%) = 0 (0)
Other time (%) = 1.31582e-05 (24.7874)

Nlocal:    18 ave 18 max 18 min
Histogram: 1 0 0 0 0 0 0 0 0 0
Nghost:    65 ave 65 max 65 min
Histogram: 1 0 0 0 0 0 0 0 0 0
Neighs:    162 ave 162 max 162 min
Histogram: 1 0 0 0 0 0 0 0 0 0

Total # of neighbors = 162
Ave neighs/atom = 9
Neighbor list builds = 0
Dangerous builds = 0
        next i
jump SELF loop1
	read_dump orig.dump 0 x y
  orthogonal box = (0 0 -0.280613) to (3.36736 5.83244 0.280613)
  18 atoms before read
  18 atoms in snapshot
  0 atoms purged
  18 atoms replaced
  0 atoms trimmed
  0 atoms added
  18 atoms after read
        variable stretch equal 1+$i*${strainstep}
        variable stretch equal 1+16*${strainstep}
        variable stretch equal 1+16*0.0005
        change_box all ${direction} scale ${stretch} remap
        change_box all y scale ${stretch} remap
        change_box all y scale 1.008 remap
  orthogonal box = (0 -0.0233298 -0.280613) to (3.36736 5.85577 0.280613)
        min_style ${style}
        min_style cg
        minimize ${etol} ${ftol} ${maxiter} ${maxeval}
        minimize 1e-12 ${ftol} ${maxiter} ${maxeval}
        minimize 1e-12 1e-08 ${maxiter} ${maxeval}
        minimize 1e-12 1e-08 10000 ${maxeval}
        minimize 1e-12 1e-08 10000 20000
WARNING: Resetting reneighboring criteria during minimization (../min.cpp:168)
Memory usage per processor = 3.35099 Mbytes
Step PotEng Pxx Pyy Pxy Lx Ly Lz 
       0   -53.980437 -0.080514021  -0.24615244 -1.7667193e-16      3.36736    5.8790995   0.56122687 
       1   -53.980437 -0.080514021  -0.24615244 -1.7667193e-16      3.36736    5.8790995   0.56122687 
Loop time of 5.50331e-05 on 1 procs for 1 steps with 18 atoms

Minimization stats:
  Stopping criterion = linesearch alpha is zero
  Energy initial, next-to-last, final = 
        -53.9804373476     -53.9804373476     -53.9804373476
  Force two-norm initial, final = 0.000816697 0.000816697
  Force max component initial, final = 0.000202103 0.000202103
  Final line search alpha, max atom move = 0.015625 3.15786e-06
  Iterations, force evaluations = 1 7

Pair  time (%) = 3.41524e-05 (62.0579)
Neigh time (%) = 0 (0)
Comm  time (%) = 6.21774e-06 (11.2982)
Outpt time (%) = 0 (0)
Other time (%) = 1.4663e-05 (26.6439)

Nlocal:    18 ave 18 max 18 min
Histogram: 1 0 0 0 0 0 0 0 0 0
Nghost:    65 ave 65 max 65 min
Histogram: 1 0 0 0 0 0 0 0 0 0
Neighs:    162 ave 162 max 162 min
Histogram: 1 0 0 0 0 0 0 0 0 0

Total # of neighbors = 162
Ave neighs/atom = 9
Neighbor list builds = 0
Dangerous builds = 0
        next i
jump SELF loop1
	read_dump orig.dump 0 x y
  orthogonal box = (0 0 -0.280613) to (3.36736 5.83244 0.280613)
  18 atoms before read
  18 atoms in snapshot
  0 atoms purged
  18 atoms replaced
  0 atoms trimmed
  0 atoms added
  18 atoms after read
        variable stretch equal 1+$i*${strainstep}
        variable stretch equal 1+17*${strainstep}
        variable stretch equal 1+17*0.0005
        change_box all ${direction} scale ${stretch} remap
        change_box all y scale ${stretch} remap
        change_box all y scale 1.0085 remap
  orthogonal box = (0 -0.0247879 -0.280613) to (3.36736 5.85723 0.280613)
        min_style ${style}
        min_style cg
        minimize ${etol} ${ftol} ${maxiter} ${maxeval}
        minimize 1e-12 ${ftol} ${maxiter} ${maxeval}
        minimize 1e-12 1e-08 ${maxiter} ${maxeval}
        minimize 1e-12 1e-08 10000 ${maxeval}
        minimize 1e-12 1e-08 10000 20000
WARNING: Resetting reneighboring criteria during minimization (../min.cpp:168)
Memory usage per processor = 3.35099 Mbytes
Step PotEng Pxx Pyy Pxy Lx Ly Lz 
       0   -53.977974 -0.085314877   -0.2610448 -7.5328673e-17      3.36736    5.8820157   0.56122687 
       1   -53.977974 -0.085314877   -0.2610448 -7.5328673e-17      3.36736    5.8820157   0.56122687 
Loop time of 5.40126e-05 on 1 procs for 1 steps with 18 atoms

Minimization stats:
  Stopping criterion = linesearch alpha is zero
  Energy initial, next-to-last, final = 
         -53.977973626      -53.977973626      -53.977973626
  Force two-norm initial, final = 0.000812766 0.000812766
  Force max component initial, final = 0.000200923 0.000200923
  Final line search alpha, max atom move = 0.015625 3.13941e-06
  Iterations, force evaluations = 1 7

Pair  time (%) = 3.29026e-05 (60.9164)
Neigh time (%) = 0 (0)
Comm  time (%) = 4.67175e-06 (8.64936)
Outpt time (%) = 0 (0)
Other time (%) = 1.64383e-05 (30.4342)

Nlocal:    18 ave 18 max 18 min
Histogram: 1 0 0 0 0 0 0 0 0 0
Nghost:    65 ave 65 max 65 min
Histogram: 1 0 0 0 0 0 0 0 0 0
Neighs:    162 ave 162 max 162 min
Histogram: 1 0 0 0 0 0 0 0 0 0

Total # of neighbors = 162
Ave neighs/atom = 9
Neighbor list builds = 0
Dangerous builds = 0
        next i
jump SELF loop1
	read_dump orig.dump 0 x y
  orthogonal box = (0 0 -0.280613) to (3.36736 5.83244 0.280613)
  18 atoms before read
  18 atoms in snapshot
  0 atoms purged
  18 atoms replaced
  0 atoms trimmed
  0 atoms added
  18 atoms after read
        variable stretch equal 1+$i*${strainstep}
        variable stretch equal 1+18*${strainstep}
        variable stretch equal 1+18*0.0005
        change_box all ${direction} scale ${stretch} remap
        change_box all y scale ${stretch} remap
        change_box all y scale 1.009 remap
  orthogonal box = (0 -0.026246 -0.280613) to (3.36736 5.85869 0.280613)
        min_style ${style}
        min_style cg
        minimize ${etol} ${ftol} ${maxiter} ${maxeval}
        minimize 1e-12 ${ftol} ${maxiter} ${maxeval}
        minimize 1e-12 1e-08 ${maxiter} ${maxeval}
        minimize 1e-12 1e-08 10000 ${maxeval}
        minimize 1e-12 1e-08 10000 20000
WARNING: Resetting reneighboring criteria during minimization (../min.cpp:168)
Memory usage per processor = 3.35099 Mbytes
Step PotEng Pxx Pyy Pxy Lx Ly Lz 
       0   -53.975314 -0.090076639  -0.27584693 -9.779969e-17      3.36736     5.884932   0.56122687 
       1   -53.975314 -0.090076639  -0.27584693 -9.779969e-17      3.36736     5.884932   0.56122687 
Loop time of 8.91031e-06 on 1 procs for 1 steps with 18 atoms

Minimization stats:
  Stopping criterion = linesearch alpha is zero
  Energy initial, next-to-last, final = 
        -53.9753136643     -53.9753136643     -53.9753136643
  Force two-norm initial, final = 0.000814042 0.000814042
  Force max component initial, final = 0.000201319 0.000201319
  Final line search alpha, max atom move = 0.015625 3.1456e-06
  Iterations, force evaluations = 1 7

Pair  time (%) = -7.1805e-07 (-8.05864)
Neigh time (%) = 0 (0)
Comm  time (%) = -1.4361e-06 (-16.1173)
Outpt time (%) = 0 (0)
Other time (%) = 1.10645e-05 (124.176)

Nlocal:    18 ave 18 max 18 min
Histogram: 1 0 0 0 0 0 0 0 0 0
Nghost:    65 ave 65 max 65 min
Histogram: 1 0 0 0 0 0 0 0 0 0
Neighs:    162 ave 162 max 162 min
Histogram: 1 0 0 0 0 0 0 0 0 0

Total # of neighbors = 162
Ave neighs/atom = 9
Neighbor list builds = 0
Dangerous builds = 0
        next i
jump SELF loop1
	read_dump orig.dump 0 x y
  orthogonal box = (0 0 -0.280613) to (3.36736 5.83244 0.280613)
  18 atoms before read
  18 atoms in snapshot
  0 atoms purged
  18 atoms replaced
  0 atoms trimmed
  0 atoms added
  18 atoms after read
        variable stretch equal 1+$i*${strainstep}
        variable stretch equal 1+19*${strainstep}
        variable stretch equal 1+19*0.0005
        change_box all ${direction} scale ${stretch} remap
        change_box all y scale ${stretch} remap
        change_box all y scale 1.0095 remap
  orthogonal box = (0 -0.0277041 -0.280613) to (3.36736 5.86014 0.280613)
        min_style ${style}
        min_style cg
        minimize ${etol} ${ftol} ${maxiter} ${maxeval}
        minimize 1e-12 ${ftol} ${maxiter} ${maxeval}
        minimize 1e-12 1e-08 ${maxiter} ${maxeval}
        minimize 1e-12 1e-08 10000 ${maxeval}
        minimize 1e-12 1e-08 10000 20000
WARNING: Resetting reneighboring criteria during minimization (../min.cpp:168)
Memory usage per processor = 3.35099 Mbytes
Step PotEng Pxx Pyy Pxy Lx Ly Lz 
       0   -53.972524  -0.09481187  -0.29059691 6.6168226e-17      3.36736    5.8878482   0.56122687 
       1   -53.972524  -0.09481187  -0.29059691 6.6168226e-17      3.36736    5.8878482   0.56122687 
Loop time of 5.28982e-05 on 1 procs for 1 steps with 18 atoms

Minimization stats:
  Stopping criterion = linesearch alpha is zero
  Energy initial, next-to-last, final = 
        -53.9725242836     -53.9725242836     -53.9725242836
  Force two-norm initial, final = 0.000810105 0.000810105
  Force max component initial, final = 0.000200135 0.000200135
  Final line search alpha, max atom move = 0.015625 3.12711e-06
  Iterations, force evaluations = 1 7

Pair  time (%) = 3.31799e-05 (62.724)
Neigh time (%) = 0 (0)
Comm  time (%) = 6.18014e-06 (11.6831)
Outpt time (%) = 0 (0)
Other time (%) = 1.35382e-05 (25.5929)

Nlocal:    18 ave 18 max 18 min
Histogram: 1 0 0 0 0 0 0 0 0 0
Nghost:    65 ave 65 max 65 min
Histogram: 1 0 0 0 0 0 0 0 0 0
Neighs:    162 ave 162 max 162 min
Histogram: 1 0 0 0 0 0 0 0 0 0

Total # of neighbors = 162
Ave neighs/atom = 9
Neighbor list builds = 0
Dangerous builds = 0
        next i
jump SELF loop1
	read_dump orig.dump 0 x y
  orthogonal box = (0 0 -0.280613) to (3.36736 5.83244 0.280613)
  18 atoms before read
  18 atoms in snapshot
  0 atoms purged
  18 atoms replaced
  0 atoms trimmed
  0 atoms added
  18 atoms after read
        variable stretch equal 1+$i*${strainstep}
        variable stretch equal 1+20*${strainstep}
        variable stretch equal 1+20*0.0005
        change_box all ${direction} scale ${stretch} remap
        change_box all y scale ${stretch} remap
        change_box all y scale 1.01 remap
  orthogonal box = (0 -0.0291622 -0.280613) to (3.36736 5.8616 0.280613)
        min_style ${style}
        min_style cg
        minimize ${etol} ${ftol} ${maxiter} ${maxeval}
        minimize 1e-12 ${ftol} ${maxiter} ${maxeval}
        minimize 1e-12 1e-08 ${maxiter} ${maxeval}
        minimize 1e-12 1e-08 10000 ${maxeval}
        minimize 1e-12 1e-08 10000 20000
WARNING: Resetting reneighboring criteria during minimization (../min.cpp:168)
Memory usage per processor = 3.35099 Mbytes
Step PotEng Pxx Pyy Pxy Lx Ly Lz 
       0   -53.969613 -0.099522005  -0.30529892 -1.9949956e-19      3.36736    5.8907644   0.56122687 
       1   -53.969613 -0.099522005  -0.30529892 -1.9949956e-19      3.36736    5.8907644   0.56122687 
Loop time of 5.30172e-05 on 1 procs for 1 steps with 18 atoms

Minimization stats:
  Stopping criterion = linesearch alpha is zero
  Energy initial, next-to-last, final = 
        -53.9696128682     -53.9696128682     -53.9696128682
  Force two-norm initial, final = 0.000806212 0.000806212
  Force max component initial, final = 0.000198965 0.000198965
  Final line search alpha, max atom move = 0.015625 3.10882e-06
  Iterations, force evaluations = 1 7

Pair  time (%) = 3.3946e-05 (64.0283)
Neigh time (%) = 0 (0)
Comm  time (%) = 6.75861e-06 (12.748)
Outpt time (%) = 0 (0)
Other time (%) = 1.23126e-05 (23.2237)

Nlocal:    18 ave 18 max 18 min
Histogram: 1 0 0 0 0 0 0 0 0 0
Nghost:    65 ave 65 max 65 min
Histogram: 1 0 0 0 0 0 0 0 0 0
Neighs:    162 ave 162 max 162 min
Histogram: 1 0 0 0 0 0 0 0 0 0

Total # of neighbors = 162
Ave neighs/atom = 9
Neighbor list builds = 0
Dangerous builds = 0
        next i
jump SELF loop1
	read_dump orig.dump 0 x y
  orthogonal box = (0 0 -0.280613) to (3.36736 5.83244 0.280613)
  18 atoms before read
  18 atoms in snapshot
  0 atoms purged
  18 atoms replaced
  0 atoms trimmed
  0 atoms added
  18 atoms after read
        variable stretch equal 1+$i*${strainstep}
        variable stretch equal 1+21*${strainstep}
        variable stretch equal 1+21*0.0005
        change_box all ${direction} scale ${stretch} remap
        change_box all y scale ${stretch} remap
        change_box all y scale 1.0105 remap
  orthogonal box = (0 -0.0306203 -0.280613) to (3.36736 5.86306 0.280613)
        min_style ${style}
        min_style cg
        minimize ${etol} ${ftol} ${maxiter} ${maxeval}
        minimize 1e-12 ${ftol} ${maxiter} ${maxeval}
        minimize 1e-12 1e-08 ${maxiter} ${maxeval}
        minimize 1e-12 1e-08 10000 ${maxeval}
        minimize 1e-12 1e-08 10000 20000
WARNING: Resetting reneighboring criteria during minimization (../min.cpp:168)
Memory usage per processor = 3.35099 Mbytes
Step PotEng Pxx Pyy Pxy Lx Ly Lz 
       0   -53.966549  -0.10420126  -0.31993501 3.2114462e-17      3.36736    5.8936806   0.56122687 
       1   -53.966549  -0.10420126  -0.31993501 3.2114462e-17      3.36736    5.8936806   0.56122687 
Loop time of 5.3057e-05 on 1 procs for 1 steps with 18 atoms

Minimization stats:
  Stopping criterion = linesearch alpha is zero
  Energy initial, next-to-last, final = 
        -53.9665485375     -53.9665485375     -53.9665485375
  Force two-norm initial, final = 0.000807471 0.000807471
  Force max component initial, final = 0.000199356 0.000199356
  Final line search alpha, max atom move = 0.015625 3.11494e-06
  Iterations, force evaluations = 1 7

Pair  time (%) = 3.32581e-05 (62.6838)
Neigh time (%) = 0 (0)
Comm  time (%) = 4.90586e-06 (9.2464)
Outpt time (%) = 0 (0)
Other time (%) = 1.4893e-05 (28.0698)

Nlocal:    18 ave 18 max 18 min
Histogram: 1 0 0 0 0 0 0 0 0 0
Nghost:    65 ave 65 max 65 min
Histogram: 1 0 0 0 0 0 0 0 0 0
Neighs:    162 ave 162 max 162 min
Histogram: 1 0 0 0 0 0 0 0 0 0

Total # of neighbors = 162
Ave neighs/atom = 9
Neighbor list builds = 0
Dangerous builds = 0
        next i
jump SELF loop1
	read_dump orig.dump 0 x y
  orthogonal box = (0 0 -0.280613) to (3.36736 5.83244 0.280613)
  18 atoms before read
  18 atoms in snapshot
  0 atoms purged
  18 atoms replaced
  0 atoms trimmed
  0 atoms added
  18 atoms after read
        variable stretch equal 1+$i*${strainstep}
        variable stretch equal 1+22*${strainstep}
        variable stretch equal 1+22*0.0005
        change_box all ${direction} scale ${stretch} remap
        change_box all y scale ${stretch} remap
        change_box all y scale 1.011 remap
  orthogonal box = (0 -0.0320784 -0.280613) to (3.36736 5.86452 0.280613)
        min_style ${style}
        min_style cg
        minimize ${etol} ${ftol} ${maxiter} ${maxeval}
        minimize 1e-12 ${ftol} ${maxiter} ${maxeval}
        minimize 1e-12 1e-08 ${maxiter} ${maxeval}
        minimize 1e-12 1e-08 10000 ${maxeval}
        minimize 1e-12 1e-08 10000 20000
WARNING: Resetting reneighboring criteria during minimization (../min.cpp:168)
Memory usage per processor = 3.35099 Mbytes
Step PotEng Pxx Pyy Pxy Lx Ly Lz 
       0   -53.963316  -0.10884673  -0.33449606 -9.7106598e-17      3.36736    5.8965968   0.56122687 
       1   -53.963316  -0.10884673  -0.33449606 -9.7106598e-17      3.36736    5.8965968   0.56122687 
Loop time of 6.19998e-05 on 1 procs for 1 steps with 18 atoms

Minimization stats:
  Stopping criterion = linesearch alpha is zero
  Energy initial, next-to-last, final = 
        -53.9633157907     -53.9633157907     -53.9633157907
  Force two-norm initial, final = 0.000803583 0.000803583
  Force max component initial, final = 0.000198186 0.000198186
  Final line search alpha, max atom move = 0.015625 3.09665e-06
  Iterations, force evaluations = 1 7

Pair  time (%) = 3.70102e-05 (59.6941)
Neigh time (%) = 0 (0)
Comm  time (%) = 9.21811e-06 (14.868)
Outpt time (%) = 0 (0)
Other time (%) = 1.57715e-05 (25.438)

Nlocal:    18 ave 18 max 18 min
Histogram: 1 0 0 0 0 0 0 0 0 0
Nghost:    65 ave 65 max 65 min
Histogram: 1 0 0 0 0 0 0 0 0 0
Neighs:    162 ave 162 max 162 min
Histogram: 1 0 0 0 0 0 0 0 0 0

Total # of neighbors = 162
Ave neighs/atom = 9
Neighbor list builds = 0
Dangerous builds = 0
        next i
jump SELF loop1
	read_dump orig.dump 0 x y
  orthogonal box = (0 0 -0.280613) to (3.36736 5.83244 0.280613)
  18 atoms before read
  18 atoms in snapshot
  0 atoms purged
  18 atoms replaced
  0 atoms trimmed
  0 atoms added
  18 atoms after read
        variable stretch equal 1+$i*${strainstep}
        variable stretch equal 1+23*${strainstep}
        variable stretch equal 1+23*0.0005
        change_box all ${direction} scale ${stretch} remap
        change_box all y scale ${stretch} remap
        change_box all y scale 1.0115 remap
  orthogonal box = (0 -0.0335365 -0.280613) to (3.36736 5.86598 0.280613)
        min_style ${style}
        min_style cg
        minimize ${etol} ${ftol} ${maxiter} ${maxeval}
        minimize 1e-12 ${ftol} ${maxiter} ${maxeval}
        minimize 1e-12 1e-08 ${maxiter} ${maxeval}
        minimize 1e-12 1e-08 10000 ${maxeval}
        minimize 1e-12 1e-08 10000 20000
WARNING: Resetting reneighboring criteria during minimization (../min.cpp:168)
Memory usage per processor = 3.35099 Mbytes
Step PotEng Pxx Pyy Pxy Lx Ly Lz 
       0   -53.959962  -0.11346743  -0.34900939 -5.0821505e-17      3.36736    5.8995131   0.56122687 
       1   -53.959962  -0.11346743  -0.34900939 -5.0821505e-17      3.36736    5.8995131   0.56122687 
Loop time of 1.0248e-06 on 1 procs for 1 steps with 18 atoms

Minimization stats:
  Stopping criterion = linesearch alpha is zero
  Energy initial, next-to-last, final = 
        -53.9599624923     -53.9599624923     -53.9599624923
  Force two-norm initial, final = 0.000799706 0.000799706
  Force max component initial, final = 0.000197018 0.000197018
  Final line search alpha, max atom move = 0.015625 3.0784e-06
  Iterations, force evaluations = 1 7

Pair  time (%) = 1.33738e-06 (130.501)
Neigh time (%) = 0 (0)
Comm  time (%) = 7.21077e-07 (70.3624)
Outpt time (%) = 0 (0)
Other time (%) = -1.03365e-06 (-100.863)

Nlocal:    18 ave 18 max 18 min
Histogram: 1 0 0 0 0 0 0 0 0 0
Nghost:    65 ave 65 max 65 min
Histogram: 1 0 0 0 0 0 0 0 0 0
Neighs:    162 ave 162 max 162 min
Histogram: 1 0 0 0 0 0 0 0 0 0

Total # of neighbors = 162
Ave neighs/atom = 9
Neighbor list builds = 0
Dangerous builds = 0
        next i
jump SELF loop1
	read_dump orig.dump 0 x y
  orthogonal box = (0 0 -0.280613) to (3.36736 5.83244 0.280613)
  18 atoms before read
  18 atoms in snapshot
  0 atoms purged
  18 atoms replaced
  0 atoms trimmed
  0 atoms added
  18 atoms after read
        variable stretch equal 1+$i*${strainstep}
        variable stretch equal 1+24*${strainstep}
        variable stretch equal 1+24*0.0005
        change_box all ${direction} scale ${stretch} remap
        change_box all y scale ${stretch} remap
        change_box all y scale 1.012 remap
  orthogonal box = (0 -0.0349946 -0.280613) to (3.36736 5.86743 0.280613)
        min_style ${style}
        min_style cg
        minimize ${etol} ${ftol} ${maxiter} ${maxeval}
        minimize 1e-12 ${ftol} ${maxiter} ${maxeval}
        minimize 1e-12 1e-08 ${maxiter} ${maxeval}
        minimize 1e-12 1e-08 10000 ${maxeval}
        minimize 1e-12 1e-08 10000 20000
WARNING: Resetting reneighboring criteria during minimization (../min.cpp:168)
Memory usage per processor = 3.35099 Mbytes
Step PotEng Pxx Pyy Pxy Lx Ly Lz 
       0   -53.956489  -0.11806337  -0.36347489  -6.7974e-17      3.36736    5.9024293   0.56122687 
       1   -53.956489  -0.11806337  -0.36347489  -6.7974e-17      3.36736    5.9024293   0.56122687 
Loop time of 5.30863e-05 on 1 procs for 1 steps with 18 atoms

Minimization stats:
  Stopping criterion = linesearch alpha is zero
  Energy initial, next-to-last, final = 
        -53.9564887145     -53.9564887145     -53.9564887145
  Force two-norm initial, final = 0.000795874 0.000795874
  Force max component initial, final = 0.000195863 0.000195863
  Final line search alpha, max atom move = 0.015625 3.06035e-06
  Iterations, force evaluations = 1 7

Pair  time (%) = 3.41678e-05 (64.3627)
Neigh time (%) = 0 (0)
Comm  time (%) = 4.77175e-06 (8.98866)
Outpt time (%) = 0 (0)
Other time (%) = 1.41468e-05 (26.6487)

Nlocal:    18 ave 18 max 18 min
Histogram: 1 0 0 0 0 0 0 0 0 0
Nghost:    65 ave 65 max 65 min
Histogram: 1 0 0 0 0 0 0 0 0 0
Neighs:    162 ave 162 max 162 min
Histogram: 1 0 0 0 0 0 0 0 0 0

Total # of neighbors = 162
Ave neighs/atom = 9
Neighbor list builds = 0
Dangerous builds = 0
        next i
jump SELF loop1
	read_dump orig.dump 0 x y
  orthogonal box = (0 0 -0.280613) to (3.36736 5.83244 0.280613)
  18 atoms before read
  18 atoms in snapshot
  0 atoms purged
  18 atoms replaced
  0 atoms trimmed
  0 atoms added
  18 atoms after read
        variable stretch equal 1+$i*${strainstep}
        variable stretch equal 1+25*${strainstep}
        variable stretch equal 1+25*0.0005
        change_box all ${direction} scale ${stretch} remap
        change_box all y scale ${stretch} remap
        change_box all y scale 1.0125 remap
  orthogonal box = (0 -0.0364527 -0.280613) to (3.36736 5.86889 0.280613)
        min_style ${style}
        min_style cg
        minimize ${etol} ${ftol} ${maxiter} ${maxeval}
        minimize 1e-12 ${ftol} ${maxiter} ${maxeval}
        minimize 1e-12 1e-08 ${maxiter} ${maxeval}
        minimize 1e-12 1e-08 10000 ${maxeval}
        minimize 1e-12 1e-08 10000 20000
WARNING: Resetting reneighboring criteria during minimization (../min.cpp:168)
Memory usage per processor = 3.35099 Mbytes
Step PotEng Pxx Pyy Pxy Lx Ly Lz 
       0   -53.952828  -0.12262219  -0.37785427 -5.0746776e-17      3.36736    5.9053455   0.56122687 
       1   -53.952828  -0.12262219  -0.37785427 -5.0746776e-17      3.36736    5.9053455   0.56122687 
Loop time of 5.38932e-05 on 1 procs for 1 steps with 18 atoms

Minimization stats:
  Stopping criterion = linesearch alpha is zero
  Energy initial, next-to-last, final = 
        -53.9528282801     -53.9528282801     -53.9528282801
  Force two-norm initial, final = 0.000797106 0.000797106
  Force max component initial, final = 0.000196246 0.000196246
  Final line search alpha, max atom move = 0.015625 3.06635e-06
  Iterations, force evaluations = 1 7

Pair  time (%) = 3.30399e-05 (61.3063)
Neigh time (%) = 0 (0)
Comm  time (%) = 6.90005e-06 (12.8032)
Outpt time (%) = 0 (0)
Other time (%) = 1.39532e-05 (25.8905)

Nlocal:    18 ave 18 max 18 min
Histogram: 1 0 0 0 0 0 0 0 0 0
Nghost:    65 ave 65 max 65 min
Histogram: 1 0 0 0 0 0 0 0 0 0
Neighs:    162 ave 162 max 162 min
Histogram: 1 0 0 0 0 0 0 0 0 0

Total # of neighbors = 162
Ave neighs/atom = 9
Neighbor list builds = 0
Dangerous builds = 0
        next i
jump SELF loop1
	read_dump orig.dump 0 x y
  orthogonal box = (0 0 -0.280613) to (3.36736 5.83244 0.280613)
  18 atoms before read
  18 atoms in snapshot
  0 atoms purged
  18 atoms replaced
  0 atoms trimmed
  0 atoms added
  18 atoms after read
        variable stretch equal 1+$i*${strainstep}
        variable stretch equal 1+26*${strainstep}
        variable stretch equal 1+26*0.0005
        change_box all ${direction} scale ${stretch} remap
        change_box all y scale ${stretch} remap
        change_box all y scale 1.013 remap
  orthogonal box = (0 -0.0379109 -0.280613) to (3.36736 5.87035 0.280613)
        min_style ${style}
        min_style cg
        minimize ${etol} ${ftol} ${maxiter} ${maxeval}
        minimize 1e-12 ${ftol} ${maxiter} ${maxeval}
        minimize 1e-12 1e-08 ${maxiter} ${maxeval}
        minimize 1e-12 1e-08 10000 ${maxeval}
        minimize 1e-12 1e-08 10000 20000
WARNING: Resetting reneighboring criteria during minimization (../min.cpp:168)
Memory usage per processor = 3.35099 Mbytes
Step PotEng Pxx Pyy Pxy Lx Ly Lz 
       0   -53.949039  -0.12715465  -0.39218041 -2.7157855e-17      3.36736    5.9082617   0.56122687 
       1   -53.949039  -0.12715465  -0.39218041 -2.7157855e-17      3.36736    5.9082617   0.56122687 
Loop time of 5.30584e-05 on 1 procs for 1 steps with 18 atoms

Minimization stats:
  Stopping criterion = linesearch alpha is zero
  Energy initial, next-to-last, final = 
        -53.9490385042     -53.9490385042     -53.9490385042
  Force two-norm initial, final = 0.000793272 0.000793272
  Force max component initial, final = 0.000195089 0.000195089
  Final line search alpha, max atom move = 0.015625 3.04827e-06
  Iterations, force evaluations = 1 7

Pair  time (%) = 3.41303e-05 (64.3259)
Neigh time (%) = 0 (0)
Comm  time (%) = 5.9352e-06 (11.1862)
Outpt time (%) = 0 (0)
Other time (%) = 1.29929e-05 (24.4879)

Nlocal:    18 ave 18 max 18 min
Histogram: 1 0 0 0 0 0 0 0 0 0
Nghost:    65 ave 65 max 65 min
Histogram: 1 0 0 0 0 0 0 0 0 0
Neighs:    162 ave 162 max 162 min
Histogram: 1 0 0 0 0 0 0 0 0 0

Total # of neighbors = 162
Ave neighs/atom = 9
Neighbor list builds = 0
Dangerous builds = 0
        next i
jump SELF loop1
	read_dump orig.dump 0 x y
  orthogonal box = (0 0 -0.280613) to (3.36736 5.83244 0.280613)
  18 atoms before read
  18 atoms in snapshot
  0 atoms purged
  18 atoms replaced
  0 atoms trimmed
  0 atoms added
  18 atoms after read
        variable stretch equal 1+$i*${strainstep}
        variable stretch equal 1+27*${strainstep}
        variable stretch equal 1+27*0.0005
        change_box all ${direction} scale ${stretch} remap
        change_box all y scale ${stretch} remap
        change_box all y scale 1.0135 remap
  orthogonal box = (0 -0.039369 -0.280613) to (3.36736 5.87181 0.280613)
        min_style ${style}
        min_style cg
        minimize ${etol} ${ftol} ${maxiter} ${maxeval}
        minimize 1e-12 ${ftol} ${maxiter} ${maxeval}
        minimize 1e-12 1e-08 ${maxiter} ${maxeval}
        minimize 1e-12 1e-08 10000 ${maxeval}
        minimize 1e-12 1e-08 10000 20000
WARNING: Resetting reneighboring criteria during minimization (../min.cpp:168)
Memory usage per processor = 3.35099 Mbytes
Step PotEng Pxx Pyy Pxy Lx Ly Lz 
       0    -53.94513  -0.13166273  -0.40645918 -4.5838101e-17      3.36736    5.9111779   0.56122687 
       1    -53.94513  -0.13166273  -0.40645918 -4.5838101e-17      3.36736    5.9111779   0.56122687 
Loop time of 5.30847e-05 on 1 procs for 1 steps with 18 atoms

Minimization stats:
  Stopping criterion = linesearch alpha is zero
  Energy initial, next-to-last, final = 
        -53.9451296251     -53.9451296251     -53.9451296251
  Force two-norm initial, final = 0.000789472 0.000789472
  Force max component initial, final = 0.000193942 0.000193942
  Final line search alpha, max atom move = 0.015625 3.03034e-06
  Iterations, force evaluations = 1 7

Pair  time (%) = 3.30027e-05 (62.1699)
Neigh time (%) = 0 (0)
Comm  time (%) = 5.1104e-06 (9.62688)
Outpt time (%) = 0 (0)
Other time (%) = 1.49716e-05 (28.2032)

Nlocal:    18 ave 18 max 18 min
Histogram: 1 0 0 0 0 0 0 0 0 0
Nghost:    65 ave 65 max 65 min
Histogram: 1 0 0 0 0 0 0 0 0 0
Neighs:    162 ave 162 max 162 min
Histogram: 1 0 0 0 0 0 0 0 0 0

Total # of neighbors = 162
Ave neighs/atom = 9
Neighbor list builds = 0
Dangerous builds = 0
        next i
jump SELF loop1
	read_dump orig.dump 0 x y
  orthogonal box = (0 0 -0.280613) to (3.36736 5.83244 0.280613)
  18 atoms before read
  18 atoms in snapshot
  0 atoms purged
  18 atoms replaced
  0 atoms trimmed
  0 atoms added
  18 atoms after read
        variable stretch equal 1+$i*${strainstep}
        variable stretch equal 1+28*${strainstep}
        variable stretch equal 1+28*0.0005
        change_box all ${direction} scale ${stretch} remap
        change_box all y scale ${stretch} remap
        change_box all y scale 1.014 remap
  orthogonal box = (0 -0.0408271 -0.280613) to (3.36736 5.87327 0.280613)
        min_style ${style}
        min_style cg
        minimize ${etol} ${ftol} ${maxiter} ${maxeval}
        minimize 1e-12 ${ftol} ${maxiter} ${maxeval}
        minimize 1e-12 1e-08 ${maxiter} ${maxeval}
        minimize 1e-12 1e-08 10000 ${maxeval}
        minimize 1e-12 1e-08 10000 20000
WARNING: Resetting reneighboring criteria during minimization (../min.cpp:168)
Memory usage per processor = 3.35099 Mbytes
Step PotEng Pxx Pyy Pxy Lx Ly Lz 
       0   -53.941078  -0.13614193  -0.42067645 2.1668382e-16      3.36736    5.9140942   0.56122687 
       1   -53.941078  -0.13614193  -0.42067645 2.1668382e-16      3.36736    5.9140942   0.56122687 
Loop time of 5.29189e-05 on 1 procs for 1 steps with 18 atoms

Minimization stats:
  Stopping criterion = linesearch alpha is zero
  Energy initial, next-to-last, final = 
         -53.941077593      -53.941077593      -53.941077593
  Force two-norm initial, final = 0.000790687 0.000790687
  Force max component initial, final = 0.000194321 0.000194321
  Final line search alpha, max atom move = 0.015625 3.03626e-06
  Iterations, force evaluations = 1 7

Pair  time (%) = 3.29146e-05 (62.1981)
Neigh time (%) = 0 (0)
Comm  time (%) = 5.36465e-06 (10.1375)
Outpt time (%) = 0 (0)
Other time (%) = 1.46397e-05 (27.6644)

Nlocal:    18 ave 18 max 18 min
Histogram: 1 0 0 0 0 0 0 0 0 0
Nghost:    65 ave 65 max 65 min
Histogram: 1 0 0 0 0 0 0 0 0 0
Neighs:    162 ave 162 max 162 min
Histogram: 1 0 0 0 0 0 0 0 0 0

Total # of neighbors = 162
Ave neighs/atom = 9
Neighbor list builds = 0
Dangerous builds = 0
        next i
jump SELF loop1
	read_dump orig.dump 0 x y
  orthogonal box = (0 0 -0.280613) to (3.36736 5.83244 0.280613)
  18 atoms before read
  18 atoms in snapshot
  0 atoms purged
  18 atoms replaced
  0 atoms trimmed
  0 atoms added
  18 atoms after read
        variable stretch equal 1+$i*${strainstep}
        variable stretch equal 1+29*${strainstep}
        variable stretch equal 1+29*0.0005
        change_box all ${direction} scale ${stretch} remap
        change_box all y scale ${stretch} remap
        change_box all y scale 1.0145 remap
  orthogonal box = (0 -0.0422852 -0.280613) to (3.36736 5.87473 0.280613)
        min_style ${style}
        min_style cg
        minimize ${etol} ${ftol} ${maxiter} ${maxeval}
        minimize 1e-12 ${ftol} ${maxiter} ${maxeval}
        minimize 1e-12 1e-08 ${maxiter} ${maxeval}
        minimize 1e-12 1e-08 10000 ${maxeval}
        minimize 1e-12 1e-08 10000 20000
WARNING: Resetting reneighboring criteria during minimization (../min.cpp:168)
Memory usage per processor = 3.35099 Mbytes
Step PotEng Pxx Pyy Pxy Lx Ly Lz 
       0   -53.936857  -0.14058741  -0.43481705 -2.1001458e-17      3.36736    5.9170104   0.56122687 
       1   -53.936857  -0.14058741  -0.43481705 -2.1001458e-17      3.36736    5.9170104   0.56122687 
Loop time of 5.28989e-05 on 1 procs for 1 steps with 18 atoms

Minimization stats:
  Stopping criterion = linesearch alpha is zero
  Energy initial, next-to-last, final = 
        -53.9368569922     -53.9368569922     -53.9368569922
  Force two-norm initial, final = 0.000786895 0.000786895
  Force max component initial, final = 0.000193175 0.000193175
  Final line search alpha, max atom move = 0.015625 3.01835e-06
  Iterations, force evaluations = 1 7

Pair  time (%) = 3.30457e-05 (62.4695)
Neigh time (%) = 0 (0)
Comm  time (%) = 7.15e-06 (13.5163)
Outpt time (%) = 0 (0)
Other time (%) = 1.27032e-05 (24.0142)

Nlocal:    18 ave 18 max 18 min
Histogram: 1 0 0 0 0 0 0 0 0 0
Nghost:    65 ave 65 max 65 min
Histogram: 1 0 0 0 0 0 0 0 0 0
Neighs:    162 ave 162 max 162 min
Histogram: 1 0 0 0 0 0 0 0 0 0

Total # of neighbors = 162
Ave neighs/atom = 9
Neighbor list builds = 0
Dangerous builds = 0
        next i
jump SELF loop1
	read_dump orig.dump 0 x y
  orthogonal box = (0 0 -0.280613) to (3.36736 5.83244 0.280613)
  18 atoms before read
  18 atoms in snapshot
  0 atoms purged
  18 atoms replaced
  0 atoms trimmed
  0 atoms added
  18 atoms after read
        variable stretch equal 1+$i*${strainstep}
        variable stretch equal 1+30*${strainstep}
        variable stretch equal 1+30*0.0005
        change_box all ${direction} scale ${stretch} remap
        change_box all y scale ${stretch} remap
        change_box all y scale 1.015 remap
  orthogonal box = (0 -0.0437433 -0.280613) to (3.36736 5.87618 0.280613)
        min_style ${style}
        min_style cg
        minimize ${etol} ${ftol} ${maxiter} ${maxeval}
        minimize 1e-12 ${ftol} ${maxiter} ${maxeval}
        minimize 1e-12 1e-08 ${maxiter} ${maxeval}
        minimize 1e-12 1e-08 10000 ${maxeval}
        minimize 1e-12 1e-08 10000 20000
WARNING: Resetting reneighboring criteria during minimization (../min.cpp:168)
Memory usage per processor = 3.35099 Mbytes
Step PotEng Pxx Pyy Pxy Lx Ly Lz 
       0   -53.932519  -0.14500885  -0.44891065 1.8336698e-16      3.36736    5.9199266   0.56122687 
       1   -53.932519  -0.14500885  -0.44891065 1.8336698e-16      3.36736    5.9199266   0.56122687 
Loop time of 5.49743e-05 on 1 procs for 1 steps with 18 atoms

Minimization stats:
  Stopping criterion = linesearch alpha is zero
  Energy initial, next-to-last, final = 
        -53.9325186101     -53.9325186101     -53.9325186101
  Force two-norm initial, final = 0.000783128 0.000783128
  Force max component initial, final = 0.000192035 0.000192035
  Final line search alpha, max atom move = 0.015625 3.00055e-06
  Iterations, force evaluations = 1 7

Pair  time (%) = 3.42523e-05 (62.306)
Neigh time (%) = 0 (0)
Comm  time (%) = 6.94068e-06 (12.6253)
Outpt time (%) = 0 (0)
Other time (%) = 1.37814e-05 (25.0687)

Nlocal:    18 ave 18 max 18 min
Histogram: 1 0 0 0 0 0 0 0 0 0
Nghost:    65 ave 65 max 65 min
Histogram: 1 0 0 0 0 0 0 0 0 0
Neighs:    162 ave 162 max 162 min
Histogram: 1 0 0 0 0 0 0 0 0 0

Total # of neighbors = 162
Ave neighs/atom = 9
Neighbor list builds = 0
Dangerous builds = 0
        next i
jump SELF loop1
	read_dump orig.dump 0 x y
  orthogonal box = (0 0 -0.280613) to (3.36736 5.83244 0.280613)
  18 atoms before read
  18 atoms in snapshot
  0 atoms purged
  18 atoms replaced
  0 atoms trimmed
  0 atoms added
  18 atoms after read
        variable stretch equal 1+$i*${strainstep}
        variable stretch equal 1+31*${strainstep}
        variable stretch equal 1+31*0.0005
        change_box all ${direction} scale ${stretch} remap
        change_box all y scale ${stretch} remap
        change_box all y scale 1.0155 remap
  orthogonal box = (0 -0.0452014 -0.280613) to (3.36736 5.87764 0.280613)
        min_style ${style}
        min_style cg
        minimize ${etol} ${ftol} ${maxiter} ${maxeval}
        minimize 1e-12 ${ftol} ${maxiter} ${maxeval}
        minimize 1e-12 1e-08 ${maxiter} ${maxeval}
        minimize 1e-12 1e-08 10000 ${maxeval}
        minimize 1e-12 1e-08 10000 20000
WARNING: Resetting reneighboring criteria during minimization (../min.cpp:168)
Memory usage per processor = 3.35099 Mbytes
Step PotEng Pxx Pyy Pxy Lx Ly Lz 
       0   -53.928062   -0.1494063  -0.46295716 -6.6744909e-17      3.36736    5.9228428   0.56122687 
       1   -53.928062   -0.1494063  -0.46295716 -6.6744909e-17      3.36736    5.9228428   0.56122687 
Loop time of 5.29926e-05 on 1 procs for 1 steps with 18 atoms

Minimization stats:
  Stopping criterion = linesearch alpha is zero
  Energy initial, next-to-last, final = 
        -53.9280624885     -53.9280624885     -53.9280624885
  Force two-norm initial, final = 0.000779386 0.000779386
  Force max component initial, final = 0.000190902 0.000190902
  Final line search alpha, max atom move = 0.015625 2.98285e-06
  Iterations, force evaluations = 1 7

Pair  time (%) = 3.38425e-05 (63.8627)
Neigh time (%) = 0 (0)
Comm  time (%) = 4.83647e-06 (9.1267)
Outpt time (%) = 0 (0)
Other time (%) = 1.43136e-05 (27.0106)

Nlocal:    18 ave 18 max 18 min
Histogram: 1 0 0 0 0 0 0 0 0 0
Nghost:    65 ave 65 max 65 min
Histogram: 1 0 0 0 0 0 0 0 0 0
Neighs:    162 ave 162 max 162 min
Histogram: 1 0 0 0 0 0 0 0 0 0

Total # of neighbors = 162
Ave neighs/atom = 9
Neighbor list builds = 0
Dangerous builds = 0
        next i
jump SELF loop1
	read_dump orig.dump 0 x y
  orthogonal box = (0 0 -0.280613) to (3.36736 5.83244 0.280613)
  18 atoms before read
  18 atoms in snapshot
  0 atoms purged
  18 atoms replaced
  0 atoms trimmed
  0 atoms added
  18 atoms after read
        variable stretch equal 1+$i*${strainstep}
        variable stretch equal 1+32*${strainstep}
        variable stretch equal 1+32*0.0005
        change_box all ${direction} scale ${stretch} remap
        change_box all y scale ${stretch} remap
        change_box all y scale 1.016 remap
  orthogonal box = (0 -0.0466595 -0.280613) to (3.36736 5.8791 0.280613)
        min_style ${style}
        min_style cg
        minimize ${etol} ${ftol} ${maxiter} ${maxeval}
        minimize 1e-12 ${ftol} ${maxiter} ${maxeval}
        minimize 1e-12 1e-08 ${maxiter} ${maxeval}
        minimize 1e-12 1e-08 10000 ${maxeval}
        minimize 1e-12 1e-08 10000 20000
WARNING: Resetting reneighboring criteria during minimization (../min.cpp:168)
Memory usage per processor = 3.35099 Mbytes
Step PotEng Pxx Pyy Pxy Lx Ly Lz 
       0   -53.923434   -0.1537693  -0.47692399 -5.9659427e-17      3.36736     5.925759   0.56122687 
       1   -53.923434   -0.1537693  -0.47692399 -5.9659427e-17      3.36736     5.925759   0.56122687 
Loop time of 5.29647e-05 on 1 procs for 1 steps with 18 atoms

Minimization stats:
  Stopping criterion = linesearch alpha is zero
  Energy initial, next-to-last, final = 
        -53.9234335067     -53.9234335067     -53.9234335067
  Force two-norm initial, final = 0.000780575 0.000780575
  Force max component initial, final = 0.000191274 0.000191274
  Final line search alpha, max atom move = 0.015625 2.98865e-06
  Iterations, force evaluations = 1 7

Pair  time (%) = 3.38566e-05 (63.923)
Neigh time (%) = 0 (0)
Comm  time (%) = 5.86465e-06 (11.0728)
Outpt time (%) = 0 (0)
Other time (%) = 1.32434e-05 (25.0042)

Nlocal:    18 ave 18 max 18 min
Histogram: 1 0 0 0 0 0 0 0 0 0
Nghost:    65 ave 65 max 65 min
Histogram: 1 0 0 0 0 0 0 0 0 0
Neighs:    162 ave 162 max 162 min
Histogram: 1 0 0 0 0 0 0 0 0 0

Total # of neighbors = 162
Ave neighs/atom = 9
Neighbor list builds = 0
Dangerous builds = 0
        next i
jump SELF loop1
	read_dump orig.dump 0 x y
  orthogonal box = (0 0 -0.280613) to (3.36736 5.83244 0.280613)
  18 atoms before read
  18 atoms in snapshot
  0 atoms purged
  18 atoms replaced
  0 atoms trimmed
  0 atoms added
  18 atoms after read
        variable stretch equal 1+$i*${strainstep}
        variable stretch equal 1+33*${strainstep}
        variable stretch equal 1+33*0.0005
        change_box all ${direction} scale ${stretch} remap
        change_box all y scale ${stretch} remap
        change_box all y scale 1.0165 remap
  orthogonal box = (0 -0.0481176 -0.280613) to (3.36736 5.88056 0.280613)
        min_style ${style}
        min_style cg
        minimize ${etol} ${ftol} ${maxiter} ${maxeval}
        minimize 1e-12 ${ftol} ${maxiter} ${maxeval}
        minimize 1e-12 1e-08 ${maxiter} ${maxeval}
        minimize 1e-12 1e-08 10000 ${maxeval}
        minimize 1e-12 1e-08 10000 20000
WARNING: Resetting reneighboring criteria during minimization (../min.cpp:168)
Memory usage per processor = 3.35099 Mbytes
Step PotEng Pxx Pyy Pxy Lx Ly Lz 
       0   -53.918671   -0.1581053  -0.49083397 -1.6767566e-16      3.36736    5.9286753   0.56122687 
       1   -53.918671   -0.1581053  -0.49083397 -1.6767566e-16      3.36736    5.9286753   0.56122687 
Loop time of 5.30428e-05 on 1 procs for 1 steps with 18 atoms

Minimization stats:
  Stopping criterion = linesearch alpha is zero
  Energy initial, next-to-last, final = 
        -53.9186710902     -53.9186710902     -53.9186710902
  Force two-norm initial, final = 0.00077684 0.00077684
  Force max component initial, final = 0.000190142 0.000190142
  Final line search alpha, max atom move = 0.015625 2.97097e-06
  Iterations, force evaluations = 1 7

Pair  time (%) = 3.40053e-05 (64.1091)
Neigh time (%) = 0 (0)
Comm  time (%) = 4.6388e-06 (8.7454)
Outpt time (%) = 0 (0)
Other time (%) = 1.43987e-05 (27.1455)

Nlocal:    18 ave 18 max 18 min
Histogram: 1 0 0 0 0 0 0 0 0 0
Nghost:    65 ave 65 max 65 min
Histogram: 1 0 0 0 0 0 0 0 0 0
Neighs:    162 ave 162 max 162 min
Histogram: 1 0 0 0 0 0 0 0 0 0

Total # of neighbors = 162
Ave neighs/atom = 9
Neighbor list builds = 0
Dangerous builds = 0
        next i
jump SELF loop1
	read_dump orig.dump 0 x y
  orthogonal box = (0 0 -0.280613) to (3.36736 5.83244 0.280613)
  18 atoms before read
  18 atoms in snapshot
  0 atoms purged
  18 atoms replaced
  0 atoms trimmed
  0 atoms added
  18 atoms after read
        variable stretch equal 1+$i*${strainstep}
        variable stretch equal 1+34*${strainstep}
        variable stretch equal 1+34*0.0005
        change_box all ${direction} scale ${stretch} remap
        change_box all y scale ${stretch} remap
        change_box all y scale 1.017 remap
  orthogonal box = (0 -0.0495757 -0.280613) to (3.36736 5.88202 0.280613)
        min_style ${style}
        min_style cg
        minimize ${etol} ${ftol} ${maxiter} ${maxeval}
        minimize 1e-12 ${ftol} ${maxiter} ${maxeval}
        minimize 1e-12 1e-08 ${maxiter} ${maxeval}
        minimize 1e-12 1e-08 10000 ${maxeval}
        minimize 1e-12 1e-08 10000 20000
WARNING: Resetting reneighboring criteria during minimization (../min.cpp:168)
Memory usage per processor = 3.35099 Mbytes
Step PotEng Pxx Pyy Pxy Lx Ly Lz 
       0   -53.913792  -0.16241764  -0.50469723 -8.0184198e-17      3.36736    5.9315915   0.56122687 
       1   -53.913792  -0.16241764  -0.50469723 -8.0184198e-17      3.36736    5.9315915   0.56122687 
Loop time of 5.30487e-05 on 1 procs for 1 steps with 18 atoms

Minimization stats:
  Stopping criterion = linesearch alpha is zero
  Energy initial, next-to-last, final = 
        -53.9137924557     -53.9137924557     -53.9137924557
  Force two-norm initial, final = 0.000773139 0.000773139
  Force max component initial, final = 0.00018902 0.00018902
  Final line search alpha, max atom move = 0.015625 2.95344e-06
  Iterations, force evaluations = 1 7

Pair  time (%) = 3.39135e-05 (63.929)
Neigh time (%) = 0 (0)
Comm  time (%) = 3.74008e-06 (7.05026)
Outpt time (%) = 0 (0)
Other time (%) = 1.53951e-05 (29.0207)

Nlocal:    18 ave 18 max 18 min
Histogram: 1 0 0 0 0 0 0 0 0 0
Nghost:    65 ave 65 max 65 min
Histogram: 1 0 0 0 0 0 0 0 0 0
Neighs:    162 ave 162 max 162 min
Histogram: 1 0 0 0 0 0 0 0 0 0

Total # of neighbors = 162
Ave neighs/atom = 9
Neighbor list builds = 0
Dangerous builds = 0
        next i
jump SELF loop1
	read_dump orig.dump 0 x y
  orthogonal box = (0 0 -0.280613) to (3.36736 5.83244 0.280613)
  18 atoms before read
  18 atoms in snapshot
  0 atoms purged
  18 atoms replaced
  0 atoms trimmed
  0 atoms added
  18 atoms after read
        variable stretch equal 1+$i*${strainstep}
        variable stretch equal 1+35*${strainstep}
        variable stretch equal 1+35*0.0005
        change_box all ${direction} scale ${stretch} remap
        change_box all y scale ${stretch} remap
        change_box all y scale 1.0175 remap
  orthogonal box = (0 -0.0510339 -0.280613) to (3.36736 5.88347 0.280613)
        min_style ${style}
        min_style cg
        minimize ${etol} ${ftol} ${maxiter} ${maxeval}
[...]
Histogram: 1 0 0 0 0 0 0 0 0 0
Nghost:    65 ave 65 max 65 min
Histogram: 1 0 0 0 0 0 0 0 0 0
Neighs:    126 ave 126 max 126 min
Histogram: 1 0 0 0 0 0 0 0 0 0

Total # of neighbors = 126
Ave neighs/atom = 7
Neighbor list builds = 0
Dangerous builds = 0
        next i
jump SELF loop1
	read_dump orig.dump 0 x y
  orthogonal box = (0 0 -0.280613) to (3.36736 5.83244 0.280613)
  18 atoms before read
  18 atoms in snapshot
  0 atoms purged
  18 atoms replaced
  0 atoms trimmed
  0 atoms added
  18 atoms after read
        variable stretch equal 1+$i*${strainstep}
        variable stretch equal 1+92*${strainstep}
        variable stretch equal 1+92*0.0005
        change_box all ${direction} scale ${stretch} remap
        change_box all y scale ${stretch} remap
        change_box all y scale 1.046 remap
  orthogonal box = (0 -0.134146 -0.280613) to (3.36736 5.96659 0.280613)
        min_style ${style}
        min_style cg
        minimize ${etol} ${ftol} ${maxiter} ${maxeval}
        minimize 1e-12 ${ftol} ${maxiter} ${maxeval}
        minimize 1e-12 1e-08 ${maxiter} ${maxeval}
        minimize 1e-12 1e-08 10000 ${maxeval}
        minimize 1e-12 1e-08 10000 20000
WARNING: Resetting reneighboring criteria during minimization (../min.cpp:168)
Memory usage per processor = 3.35099 Mbytes
Step PotEng Pxx Pyy Pxy Lx Ly Lz 
       0   -53.415812  -0.36955706   -1.2137731 -2.0392754e-17      3.36736    6.1007322   0.56122687 
       1   -53.415812  -0.36955706   -1.2137731 -2.0392754e-17      3.36736    6.1007322   0.56122687 
Loop time of 4.80413e-05 on 1 procs for 1 steps with 18 atoms

Minimization stats:
  Stopping criterion = linesearch alpha is zero
  Energy initial, next-to-last, final = 
        -53.4158121578     -53.4158121578     -53.4158121578
  Force two-norm initial, final = 0.000650048 0.000650048
  Force max component initial, final = 0.000151065 0.000151065
  Final line search alpha, max atom move = 0.015625 2.36039e-06
  Iterations, force evaluations = 1 7

Pair  time (%) = 2.4299e-05 (50.5794)
Neigh time (%) = 0 (0)
Comm  time (%) = 1.26241e-05 (26.2775)
Outpt time (%) = 0 (0)
Other time (%) = 1.11182e-05 (23.1431)

Nlocal:    18 ave 18 max 18 min
Histogram: 1 0 0 0 0 0 0 0 0 0
Nghost:    65 ave 65 max 65 min
Histogram: 1 0 0 0 0 0 0 0 0 0
Neighs:    126 ave 126 max 126 min
Histogram: 1 0 0 0 0 0 0 0 0 0

Total # of neighbors = 126
Ave neighs/atom = 7
Neighbor list builds = 0
Dangerous builds = 0
        next i
jump SELF loop1
	read_dump orig.dump 0 x y
  orthogonal box = (0 0 -0.280613) to (3.36736 5.83244 0.280613)
  18 atoms before read
  18 atoms in snapshot
  0 atoms purged
  18 atoms replaced
  0 atoms trimmed
  0 atoms added
  18 atoms after read
        variable stretch equal 1+$i*${strainstep}
        variable stretch equal 1+93*${strainstep}
        variable stretch equal 1+93*0.0005
        change_box all ${direction} scale ${stretch} remap
        change_box all y scale ${stretch} remap
        change_box all y scale 1.0465 remap
  orthogonal box = (0 -0.135604 -0.280613) to (3.36736 5.96804 0.280613)
        min_style ${style}
        min_style cg
        minimize ${etol} ${ftol} ${maxiter} ${maxeval}
        minimize 1e-12 ${ftol} ${maxiter} ${maxeval}
        minimize 1e-12 1e-08 ${maxiter} ${maxeval}
        minimize 1e-12 1e-08 10000 ${maxeval}
        minimize 1e-12 1e-08 10000 20000
WARNING: Resetting reneighboring criteria during minimization (../min.cpp:168)
Memory usage per processor = 3.35099 Mbytes
Step PotEng Pxx Pyy Pxy Lx Ly Lz 
       0    -53.40384  -0.37245667     -1.22446 5.9249993e-17      3.36736    6.1036485   0.56122687 
       1    -53.40384  -0.37245667     -1.22446 5.9249993e-17      3.36736    6.1036485   0.56122687 
Loop time of 4.78823e-05 on 1 procs for 1 steps with 18 atoms

Minimization stats:
  Stopping criterion = linesearch alpha is zero
  Energy initial, next-to-last, final = 
          -53.40384043       -53.40384043       -53.40384043
  Force two-norm initial, final = 0.000647108 0.000647108
  Force max component initial, final = 0.000150132 0.000150132
  Final line search alpha, max atom move = 0.015625 2.34582e-06
  Iterations, force evaluations = 1 7

Pair  time (%) = 3.16099e-05 (66.0158)
Neigh time (%) = 0 (0)
Comm  time (%) = -1.30385e-08 (-0.0272303)
Outpt time (%) = 0 (0)
Other time (%) = 1.62855e-05 (34.0114)

Nlocal:    18 ave 18 max 18 min
Histogram: 1 0 0 0 0 0 0 0 0 0
Nghost:    65 ave 65 max 65 min
Histogram: 1 0 0 0 0 0 0 0 0 0
Neighs:    126 ave 126 max 126 min
Histogram: 1 0 0 0 0 0 0 0 0 0

Total # of neighbors = 126
Ave neighs/atom = 7
Neighbor list builds = 0
Dangerous builds = 0
        next i
jump SELF loop1
	read_dump orig.dump 0 x y
  orthogonal box = (0 0 -0.280613) to (3.36736 5.83244 0.280613)
  18 atoms before read
  18 atoms in snapshot
  0 atoms purged
  18 atoms replaced
  0 atoms trimmed
  0 atoms added
  18 atoms after read
        variable stretch equal 1+$i*${strainstep}
        variable stretch equal 1+94*${strainstep}
        variable stretch equal 1+94*0.0005
        change_box all ${direction} scale ${stretch} remap
        change_box all y scale ${stretch} remap
        change_box all y scale 1.047 remap
  orthogonal box = (0 -0.137062 -0.280613) to (3.36736 5.9695 0.280613)
        min_style ${style}
        min_style cg
        minimize ${etol} ${ftol} ${maxiter} ${maxeval}
        minimize 1e-12 ${ftol} ${maxiter} ${maxeval}
        minimize 1e-12 1e-08 ${maxiter} ${maxeval}
        minimize 1e-12 1e-08 10000 ${maxeval}
        minimize 1e-12 1e-08 10000 20000
WARNING: Resetting reneighboring criteria during minimization (../min.cpp:168)
Memory usage per processor = 3.35099 Mbytes
Step PotEng Pxx Pyy Pxy Lx Ly Lz 
       0   -53.391776  -0.37533798   -1.2351056 -1.6437818e-16      3.36736    6.1065647   0.56122687 
       1   -53.391776  -0.37533798   -1.2351056 -1.6437818e-16      3.36736    6.1065647   0.56122687 
Loop time of 5.29462e-05 on 1 procs for 1 steps with 18 atoms

Minimization stats:
  Stopping criterion = linesearch alpha is zero
  Energy initial, next-to-last, final = 
        -53.3917759432     -53.3917759432     -53.3917759432
  Force two-norm initial, final = 0.000644184 0.000644184
  Force max component initial, final = 0.000149203 0.000149203
  Final line search alpha, max atom move = 0.015625 2.3313e-06
  Iterations, force evaluations = 1 7

Pair  time (%) = 3.1285e-05 (59.0883)
Neigh time (%) = 0 (0)
Comm  time (%) = 5.2976e-06 (10.0056)
Outpt time (%) = 0 (0)
Other time (%) = 1.63636e-05 (30.9061)

Nlocal:    18 ave 18 max 18 min
Histogram: 1 0 0 0 0 0 0 0 0 0
Nghost:    65 ave 65 max 65 min
Histogram: 1 0 0 0 0 0 0 0 0 0
Neighs:    126 ave 126 max 126 min
Histogram: 1 0 0 0 0 0 0 0 0 0

Total # of neighbors = 126
Ave neighs/atom = 7
Neighbor list builds = 0
Dangerous builds = 0
        next i
jump SELF loop1
	read_dump orig.dump 0 x y
  orthogonal box = (0 0 -0.280613) to (3.36736 5.83244 0.280613)
  18 atoms before read
  18 atoms in snapshot
  0 atoms purged
  18 atoms replaced
  0 atoms trimmed
  0 atoms added
  18 atoms after read
        variable stretch equal 1+$i*${strainstep}
        variable stretch equal 1+95*${strainstep}
        variable stretch equal 1+95*0.0005
        change_box all ${direction} scale ${stretch} remap
        change_box all y scale ${stretch} remap
        change_box all y scale 1.0475 remap
  orthogonal box = (0 -0.13852 -0.280613) to (3.36736 5.97096 0.280613)
        min_style ${style}
        min_style cg
        minimize ${etol} ${ftol} ${maxiter} ${maxeval}
        minimize 1e-12 ${ftol} ${maxiter} ${maxeval}
        minimize 1e-12 1e-08 ${maxiter} ${maxeval}
        minimize 1e-12 1e-08 10000 ${maxeval}
        minimize 1e-12 1e-08 10000 20000
WARNING: Resetting reneighboring criteria during minimization (../min.cpp:168)
Memory usage per processor = 3.35099 Mbytes
Step PotEng Pxx Pyy Pxy Lx Ly Lz 
       0   -53.379592  -0.37819586   -1.2456926 -1.3613646e-16      3.36736    6.1094809   0.56122687 
       1   -53.379592  -0.37819586   -1.2456926 -1.3613646e-16      3.36736    6.1094809   0.56122687 
Loop time of 4.89987e-05 on 1 procs for 1 steps with 18 atoms

Minimization stats:
  Stopping criterion = linesearch alpha is zero
  Energy initial, next-to-last, final = 
         -53.379592419      -53.379592419      -53.379592419
  Force two-norm initial, final = 0.00064502 0.00064502
  Force max component initial, final = 0.000149476 0.000149476
  Final line search alpha, max atom move = 0.015625 2.33556e-06
  Iterations, force evaluations = 1 7

Pair  time (%) = 3.01969e-05 (61.6278)
Neigh time (%) = 0 (0)
Comm  time (%) = 9.93593e-06 (20.2779)
Outpt time (%) = 0 (0)
Other time (%) = 8.86596e-06 (18.0943)

Nlocal:    18 ave 18 max 18 min
Histogram: 1 0 0 0 0 0 0 0 0 0
Nghost:    65 ave 65 max 65 min
Histogram: 1 0 0 0 0 0 0 0 0 0
Neighs:    126 ave 126 max 126 min
Histogram: 1 0 0 0 0 0 0 0 0 0

Total # of neighbors = 126
Ave neighs/atom = 7
Neighbor list builds = 0
Dangerous builds = 0
        next i
jump SELF loop1
	read_dump orig.dump 0 x y
  orthogonal box = (0 0 -0.280613) to (3.36736 5.83244 0.280613)
  18 atoms before read
  18 atoms in snapshot
  0 atoms purged
  18 atoms replaced
  0 atoms trimmed
  0 atoms added
  18 atoms after read
        variable stretch equal 1+$i*${strainstep}
        variable stretch equal 1+96*${strainstep}
        variable stretch equal 1+96*0.0005
        change_box all ${direction} scale ${stretch} remap
        change_box all y scale ${stretch} remap
        change_box all y scale 1.048 remap
  orthogonal box = (0 -0.139979 -0.280613) to (3.36736 5.97242 0.280613)
        min_style ${style}
        min_style cg
        minimize ${etol} ${ftol} ${maxiter} ${maxeval}
        minimize 1e-12 ${ftol} ${maxiter} ${maxeval}
        minimize 1e-12 1e-08 ${maxiter} ${maxeval}
        minimize 1e-12 1e-08 10000 ${maxeval}
        minimize 1e-12 1e-08 10000 20000
WARNING: Resetting reneighboring criteria during minimization (../min.cpp:168)
Memory usage per processor = 3.35099 Mbytes
Step PotEng Pxx Pyy Pxy Lx Ly Lz 
       0   -53.367298  -0.38103183    -1.256226 -1.7572567e-16      3.36736    6.1123971   0.56122687 
       1   -53.367298  -0.38103183    -1.256226 -1.7572567e-16      3.36736    6.1123971   0.56122687 
Loop time of 4.71177e-05 on 1 procs for 1 steps with 18 atoms

Minimization stats:
  Stopping criterion = linesearch alpha is zero
  Energy initial, next-to-last, final = 
        -53.3672976137     -53.3672976137     -53.3672976137
  Force two-norm initial, final = 0.000642106 0.000642106
  Force max component initial, final = 0.000148549 0.000148549
  Final line search alpha, max atom move = 0.015625 2.32108e-06
  Iterations, force evaluations = 1 7

Pair  time (%) = 2.95857e-05 (62.791)
Neigh time (%) = 0 (0)
Comm  time (%) = 7.04452e-06 (14.9509)
Outpt time (%) = 0 (0)
Other time (%) = 1.04875e-05 (22.2581)

Nlocal:    18 ave 18 max 18 min
Histogram: 1 0 0 0 0 0 0 0 0 0
Nghost:    65 ave 65 max 65 min
Histogram: 1 0 0 0 0 0 0 0 0 0
Neighs:    126 ave 126 max 126 min
Histogram: 1 0 0 0 0 0 0 0 0 0

Total # of neighbors = 126
Ave neighs/atom = 7
Neighbor list builds = 0
Dangerous builds = 0
        next i
jump SELF loop1
	read_dump orig.dump 0 x y
  orthogonal box = (0 0 -0.280613) to (3.36736 5.83244 0.280613)
  18 atoms before read
  18 atoms in snapshot
  0 atoms purged
  18 atoms replaced
  0 atoms trimmed
  0 atoms added
  18 atoms after read
        variable stretch equal 1+$i*${strainstep}
        variable stretch equal 1+97*${strainstep}
        variable stretch equal 1+97*0.0005
        change_box all ${direction} scale ${stretch} remap
        change_box all y scale ${stretch} remap
        change_box all y scale 1.0485 remap
  orthogonal box = (0 -0.141437 -0.280613) to (3.36736 5.97388 0.280613)
        min_style ${style}
        min_style cg
        minimize ${etol} ${ftol} ${maxiter} ${maxeval}
        minimize 1e-12 ${ftol} ${maxiter} ${maxeval}
        minimize 1e-12 1e-08 ${maxiter} ${maxeval}
        minimize 1e-12 1e-08 10000 ${maxeval}
        minimize 1e-12 1e-08 10000 20000
WARNING: Resetting reneighboring criteria during minimization (../min.cpp:168)
Memory usage per processor = 3.35099 Mbytes
Step PotEng Pxx Pyy Pxy Lx Ly Lz 
       0   -53.354911  -0.38384978   -1.2667184 -1.5943606e-16      3.36736    6.1153133   0.56122687 
       1   -53.354911  -0.38384978   -1.2667184 -1.5943606e-16      3.36736    6.1153133   0.56122687 
Loop time of 4.20976e-05 on 1 procs for 1 steps with 18 atoms

Minimization stats:
  Stopping criterion = linesearch alpha is zero
  Energy initial, next-to-last, final = 
        -53.3549113149     -53.3549113149     -53.3549113149
  Force two-norm initial, final = 0.00063922 0.00063922
  Force max component initial, final = 0.00014763 0.00014763
  Final line search alpha, max atom move = 0.015625 2.30672e-06
  Iterations, force evaluations = 1 7

Pair  time (%) = 2.41619e-05 (57.3949)
Neigh time (%) = 0 (0)
Comm  time (%) = 8.6613e-07 (2.05743)
Outpt time (%) = 0 (0)
Other time (%) = 1.70696e-05 (40.5477)

Nlocal:    18 ave 18 max 18 min
Histogram: 1 0 0 0 0 0 0 0 0 0
Nghost:    65 ave 65 max 65 min
Histogram: 1 0 0 0 0 0 0 0 0 0
Neighs:    126 ave 126 max 126 min
Histogram: 1 0 0 0 0 0 0 0 0 0

Total # of neighbors = 126
Ave neighs/atom = 7
Neighbor list builds = 0
Dangerous builds = 0
        next i
jump SELF loop1
	read_dump orig.dump 0 x y
  orthogonal box = (0 0 -0.280613) to (3.36736 5.83244 0.280613)
  18 atoms before read
  18 atoms in snapshot
  0 atoms purged
  18 atoms replaced
  0 atoms trimmed
  0 atoms added
  18 atoms after read
        variable stretch equal 1+$i*${strainstep}
        variable stretch equal 1+98*${strainstep}
        variable stretch equal 1+98*0.0005
        change_box all ${direction} scale ${stretch} remap
        change_box all y scale ${stretch} remap
        change_box all y scale 1.049 remap
  orthogonal box = (0 -0.142895 -0.280613) to (3.36736 5.97533 0.280613)
        min_style ${style}
        min_style cg
        minimize ${etol} ${ftol} ${maxiter} ${maxeval}
        minimize 1e-12 ${ftol} ${maxiter} ${maxeval}
        minimize 1e-12 1e-08 ${maxiter} ${maxeval}
        minimize 1e-12 1e-08 10000 ${maxeval}
        minimize 1e-12 1e-08 10000 20000
WARNING: Resetting reneighboring criteria during minimization (../min.cpp:168)
Memory usage per processor = 3.35099 Mbytes
Step PotEng Pxx Pyy Pxy Lx Ly Lz 
       0   -53.342434  -0.38664977   -1.2771698 7.4643789e-17      3.36736    6.1182296   0.56122687 
       1   -53.342434  -0.38664977   -1.2771698 7.4643789e-17      3.36736    6.1182296   0.56122687 
Loop time of 4.69454e-05 on 1 procs for 1 steps with 18 atoms

Minimization stats:
  Stopping criterion = linesearch alpha is zero
  Energy initial, next-to-last, final = 
        -53.3424337115     -53.3424337115     -53.3424337115
  Force two-norm initial, final = 0.000636341 0.000636341
  Force max component initial, final = 0.000146712 0.000146712
  Final line search alpha, max atom move = 0.015625 2.29237e-06
  Iterations, force evaluations = 1 7

Pair  time (%) = 3.21147e-05 (68.4086)
Neigh time (%) = 0 (0)
Comm  time (%) = 1.71177e-06 (3.6463)
Outpt time (%) = 0 (0)
Other time (%) = 1.3119e-05 (27.9451)

Nlocal:    18 ave 18 max 18 min
Histogram: 1 0 0 0 0 0 0 0 0 0
Nghost:    65 ave 65 max 65 min
Histogram: 1 0 0 0 0 0 0 0 0 0
Neighs:    126 ave 126 max 126 min
Histogram: 1 0 0 0 0 0 0 0 0 0

Total # of neighbors = 126
Ave neighs/atom = 7
Neighbor list builds = 0
Dangerous builds = 0
        next i
jump SELF loop1
	read_dump orig.dump 0 x y
  orthogonal box = (0 0 -0.280613) to (3.36736 5.83244 0.280613)
  18 atoms before read
  18 atoms in snapshot
  0 atoms purged
  18 atoms replaced
  0 atoms trimmed
  0 atoms added
  18 atoms after read
        variable stretch equal 1+$i*${strainstep}
        variable stretch equal 1+99*${strainstep}
        variable stretch equal 1+99*0.0005
        change_box all ${direction} scale ${stretch} remap
        change_box all y scale ${stretch} remap
        change_box all y scale 1.0495 remap
  orthogonal box = (0 -0.144353 -0.280613) to (3.36736 5.97679 0.280613)
        min_style ${style}
        min_style cg
        minimize ${etol} ${ftol} ${maxiter} ${maxeval}
        minimize 1e-12 ${ftol} ${maxiter} ${maxeval}
        minimize 1e-12 1e-08 ${maxiter} ${maxeval}
        minimize 1e-12 1e-08 10000 ${maxeval}
        minimize 1e-12 1e-08 10000 20000
WARNING: Resetting reneighboring criteria during minimization (../min.cpp:168)
Memory usage per processor = 3.35099 Mbytes
Step PotEng Pxx Pyy Pxy Lx Ly Lz 
       0   -53.329835   -0.3894258   -1.2875602 -2.4017285e-17      3.36736    6.1211458   0.56122687 
       1   -53.329835   -0.3894258   -1.2875602 -2.4017285e-17      3.36736    6.1211458   0.56122687 
Loop time of 4.78927e-05 on 1 procs for 1 steps with 18 atoms

Minimization stats:
  Stopping criterion = linesearch alpha is zero
  Energy initial, next-to-last, final = 
        -53.3298345149     -53.3298345149     -53.3298345149
  Force two-norm initial, final = 0.000637157 0.000637157
  Force max component initial, final = 0.000146979 0.000146979
  Final line search alpha, max atom move = 0.015625 2.29655e-06
  Iterations, force evaluations = 1 7

Pair  time (%) = 3.00627e-05 (62.7711)
Neigh time (%) = 0 (0)
Comm  time (%) = 8.23743e-06 (17.1998)
Outpt time (%) = 0 (0)
Other time (%) = 9.59251e-06 (20.0292)

Nlocal:    18 ave 18 max 18 min
Histogram: 1 0 0 0 0 0 0 0 0 0
Nghost:    65 ave 65 max 65 min
Histogram: 1 0 0 0 0 0 0 0 0 0
Neighs:    126 ave 126 max 126 min
Histogram: 1 0 0 0 0 0 0 0 0 0

Total # of neighbors = 126
Ave neighs/atom = 7
Neighbor list builds = 0
Dangerous builds = 0
        next i
jump SELF loop1
	read_dump orig.dump 0 x y
  orthogonal box = (0 0 -0.280613) to (3.36736 5.83244 0.280613)
  18 atoms before read
  18 atoms in snapshot
  0 atoms purged
  18 atoms replaced
  0 atoms trimmed
  0 atoms added
  18 atoms after read
        variable stretch equal 1+$i*${strainstep}
        variable stretch equal 1+100*${strainstep}
        variable stretch equal 1+100*0.0005
        change_box all ${direction} scale ${stretch} remap
        change_box all y scale ${stretch} remap
        change_box all y scale 1.05 remap
  orthogonal box = (0 -0.145811 -0.280613) to (3.36736 5.97825 0.280613)
        min_style ${style}
        min_style cg
        minimize ${etol} ${ftol} ${maxiter} ${maxeval}
        minimize 1e-12 ${ftol} ${maxiter} ${maxeval}
        minimize 1e-12 1e-08 ${maxiter} ${maxeval}
        minimize 1e-12 1e-08 10000 ${maxeval}
        minimize 1e-12 1e-08 10000 20000
WARNING: Resetting reneighboring criteria during minimization (../min.cpp:168)
Memory usage per processor = 3.35099 Mbytes
Step PotEng Pxx Pyy Pxy Lx Ly Lz 
       0   -53.317131   -0.3921813   -1.2979008 6.0335329e-17      3.36736     6.124062   0.56122687 
       1   -53.317131   -0.3921813   -1.2979008 6.0335329e-17      3.36736     6.124062   0.56122687 
Loop time of 4.79992e-05 on 1 procs for 1 steps with 18 atoms

Minimization stats:
  Stopping criterion = linesearch alpha is zero
  Energy initial, next-to-last, final = 
        -53.3171311886     -53.3171311886     -53.3171311886
  Force two-norm initial, final = 0.000634289 0.000634289
  Force max component initial, final = 0.000146064 0.000146064
  Final line search alpha, max atom move = 0.015625 2.28224e-06
  Iterations, force evaluations = 1 7

Pair  time (%) = 3.25446e-05 (67.8024)
Neigh time (%) = 0 (0)
Comm  time (%) = 6.18049e-07 (1.28762)
Outpt time (%) = 0 (0)
Other time (%) = 1.48366e-05 (30.91)

Nlocal:    18 ave 18 max 18 min
Histogram: 1 0 0 0 0 0 0 0 0 0
Nghost:    65 ave 65 max 65 min
Histogram: 1 0 0 0 0 0 0 0 0 0
Neighs:    126 ave 126 max 126 min
Histogram: 1 0 0 0 0 0 0 0 0 0

Total # of neighbors = 126
Ave neighs/atom = 7
Neighbor list builds = 0
Dangerous builds = 0
        next i
jump SELF loop1

