LAMMPS (28 Jun 2014)
# attempt at getting tensile strain-stress curve for infinite slab

#file prefix
variable prefix string tension_V_brittle_twin
variable dumpfile string ${prefix}.*.dump
variable dumpfile string tension_V_brittle_twin.*.dump
variable restartfile string ${prefix}.*.equil
variable restartfile string tension_V_brittle_twin.*.equil

#Mass (g/mol)
variable m equal 1

# lattice constant (in Angstroms) and orientation of axes (given by lattice vectors)
variable rho equal 1.0
variable x1 equal 1
variable x2 equal 1
variable x3 equal -2
variable y1 equal 1
variable y2 equal 1
variable y3 equal 1
variable z1 equal 1
variable z2 equal -1
variable z3 equal 0
# length of lattice in different directions (using orientation of lattice vectors)
variable ax equal sqrt(${x1}*${x1}+${x2}*${x2}+${x3}*${x3})
variable ax equal sqrt(1*${x1}+${x2}*${x2}+${x3}*${x3})
variable ax equal sqrt(1*1+${x2}*${x2}+${x3}*${x3})
variable ax equal sqrt(1*1+1*${x2}+${x3}*${x3})
variable ax equal sqrt(1*1+1*1+${x3}*${x3})
variable ax equal sqrt(1*1+1*1+-2*${x3})
variable ax equal sqrt(1*1+1*1+-2*-2)
variable ay equal sqrt(${y1}*${y1}+${y2}*${y2}+${y3}*${y3})
variable ay equal sqrt(1*${y1}+${y2}*${y2}+${y3}*${y3})
variable ay equal sqrt(1*1+${y2}*${y2}+${y3}*${y3})
variable ay equal sqrt(1*1+1*${y2}+${y3}*${y3})
variable ay equal sqrt(1*1+1*1+${y3}*${y3})
variable ay equal sqrt(1*1+1*1+1*${y3})
variable ay equal sqrt(1*1+1*1+1*1)
variable az equal sqrt(${z1}*${z1}+${z2}*${z2}+${z3}*${z3})
variable az equal sqrt(1*${z1}+${z2}*${z2}+${z3}*${z3})
variable az equal sqrt(1*1+${z2}*${z2}+${z3}*${z3})
variable az equal sqrt(1*1+-1*${z2}+${z3}*${z3})
variable az equal sqrt(1*1+-1*-1+${z3}*${z3})
variable az equal sqrt(1*1+-1*-1+0*${z3})
variable az equal sqrt(1*1+-1*-1+0*0)

# size of box in lattice units
variable lxpos equal 2
variable lxneg equal 0
variable lypos equal 5
variable lyneg equal -5
variable lzpos equal 2
variable lzneg equal 0

# Define minimization parameters and damping
variable etol equal 1.0e-12
variable ftol equal 1.0e-8
variable maxiter equal 10000
variable maxeval equal 20000
variable style string hftn

# boundary conditions
dimension	3
boundary	p s p
atom_style	atomic

# create geometry
units		lj
lattice         fcc ${rho} orient x 1 1 -2 orient y 1 1 1 orient z 1 -1 0 spacing ${ax} ${ay} ${az}
lattice         fcc 1 orient x 1 1 -2 orient y 1 1 1 orient z 1 -1 0 spacing ${ax} ${ay} ${az}
lattice         fcc 1 orient x 1 1 -2 orient y 1 1 1 orient z 1 -1 0 spacing 2.44948974278318 ${ay} ${az}
lattice         fcc 1 orient x 1 1 -2 orient y 1 1 1 orient z 1 -1 0 spacing 2.44948974278318 1.73205080756888 ${az}
lattice         fcc 1 orient x 1 1 -2 orient y 1 1 1 orient z 1 -1 0 spacing 2.44948974278318 1.73205080756888 1.4142135623731
Lattice spacing in x,y,z = 3.88832 2.74946 2.24492
region		myregion block ${lxneg} ${lxpos} ${lyneg} ${lypos} ${lzneg} ${lzpos} units lattice
region		myregion block 0 ${lxpos} ${lyneg} ${lypos} ${lzneg} ${lzpos} units lattice
region		myregion block 0 2 ${lyneg} ${lypos} ${lzneg} ${lzpos} units lattice
region		myregion block 0 2 -5 ${lypos} ${lzneg} ${lzpos} units lattice
region		myregion block 0 2 -5 5 ${lzneg} ${lzpos} units lattice
region		myregion block 0 2 -5 5 0 ${lzpos} units lattice
region		myregion block 0 2 -5 5 0 2 units lattice
create_box	1 myregion
Created orthogonal box = (0 -13.7473 0) to (7.77665 13.7473 4.48985)
  1 by 1 by 1 MPI processor grid

region		upper block INF INF 0.01 INF INF INF
create_atoms	1 region upper
Created 480 atoms

region		lower block INF INF INF 0.01 INF INF
lattice         fcc ${rho} orient x 1 1 -2 orient y -1 -1 -1 orient z -1 1 0 spacing ${ax} ${ay} ${az}
lattice         fcc 1 orient x 1 1 -2 orient y -1 -1 -1 orient z -1 1 0 spacing ${ax} ${ay} ${az}
lattice         fcc 1 orient x 1 1 -2 orient y -1 -1 -1 orient z -1 1 0 spacing 2.44948974278318 ${ay} ${az}
lattice         fcc 1 orient x 1 1 -2 orient y -1 -1 -1 orient z -1 1 0 spacing 2.44948974278318 1.73205080756888 ${az}
lattice         fcc 1 orient x 1 1 -2 orient y -1 -1 -1 orient z -1 1 0 spacing 2.44948974278318 1.73205080756888 1.4142135623731
Lattice spacing in x,y,z = 3.88832 2.74946 2.24492
create_atoms	1 region lower
Created 512 atoms

# define masses
mass * $m
mass * 1

# my fake/morse potential
pair_style      table linear 3001
pair_coeff      * * vpotential_ductile3d dummy
neighbor	0.3 bin
neigh_modify	delay 5

# Setup output
thermo 1
thermo_style custom step pe pxx pyy pxy lx ly lz
thermo_modify norm no

# Compute initial state by relaxing box
min_style ${style}
min_style hftn
minimize ${etol} ${ftol} ${maxiter} ${maxeval}
minimize 1e-12 ${ftol} ${maxiter} ${maxeval}
minimize 1e-12 1e-08 ${maxiter} ${maxeval}
minimize 1e-12 1e-08 10000 ${maxeval}
minimize 1e-12 1e-08 10000 20000
WARNING: Resetting reneighboring criteria during minimization (../min.cpp:168)
Memory usage per processor = 4.98699 Mbytes
Step PotEng Pxx Pyy Pxy Lx Ly Lz 
       0   -5855.9951 0.00029659795 0.00028936385 5.561773e-17    7.7766452    27.500092    4.4898482 
       1   -5855.9952 0.00022425677 -8.5630004e-10 2.3807272e-14    7.7766452    27.500092    4.4898482 
Loop time of 0.0328049 on 1 procs for 0 steps with 992 atoms

Minimization stats:
  Stopping criterion = force tolerance
  Energy initial, next-to-last, final = 
         -5855.9951306      -5855.9951306     -5855.99522767
  Force two-norm initial, final = 0.00252636 7.5136e-09
  Force max component initial, final = 0.000315795 9.88198e-10
  Final line search alpha, max atom move = 0 0
  Iterations, force evaluations = 0 33

Pair  time (%) = 0.0303116 (92.3997)
Neigh time (%) = 0 (0)
Comm  time (%) = 0.000559218 (1.70468)
Outpt time (%) = 0 (0)
Other time (%) = 0.00193406 (5.89563)

Nlocal:    992 ave 992 max 992 min
Histogram: 1 0 0 0 0 0 0 0 0 0
Nghost:    2429 ave 2429 max 2429 min
Histogram: 1 0 0 0 0 0 0 0 0 0
Neighs:    26048 ave 26048 max 26048 min
Histogram: 1 0 0 0 0 0 0 0 0 0

Total # of neighbors = 26048
Ave neighs/atom = 26.2581
Neighbor list builds = 0
Dangerous builds = 0
reset_timestep 0
write_dump all atom orig.dump

# Energy curve will have nstep steps
variable strainmax equal 0.05
variable strainstep equal 0.0005
variable nsteps equal round(${strainmax}/${strainstep})
variable nsteps equal round(0.05/${strainstep})
variable nsteps equal round(0.05/0.0005)
variable direction string y

variable i loop ${nsteps}
variable i loop 100
label loop1
        read_dump orig.dump 0 x y z
  orthogonal box = (0 -13.75 0) to (7.77665 13.75 4.48985)
  992 atoms before read
  992 atoms in snapshot
  0 atoms purged
  992 atoms replaced
  0 atoms trimmed
  0 atoms added
  992 atoms after read
        variable stretch equal 1+$i*${strainstep}
        variable stretch equal 1+1*${strainstep}
        variable stretch equal 1+1*0.0005
        change_box all ${direction} scale ${stretch} remap
        change_box all y scale ${stretch} remap
        change_box all y scale 1.0005 remap
  orthogonal box = (0 -13.7597 0) to (7.77665 13.7597 4.48985)
        min_style ${style}
        min_style hftn
        minimize ${etol} ${ftol} ${maxiter} ${maxeval}
        minimize 1e-12 ${ftol} ${maxiter} ${maxeval}
        minimize 1e-12 1e-08 ${maxiter} ${maxeval}
        minimize 1e-12 1e-08 10000 ${maxeval}
        minimize 1e-12 1e-08 10000 20000
WARNING: Resetting reneighboring criteria during minimization (../min.cpp:168)
Memory usage per processor = 4.98699 Mbytes
Step PotEng Pxx Pyy Pxy Lx Ly Lz 
       0   -5855.9581 -0.024431787 -0.098382497 9.1541524e-10      7.77665    27.519308      4.48985 
       1   -5855.9953 0.00012259711 -1.9668032e-05 1.0782428e-09      7.77665    27.519308      4.48985 
       2   -5855.9953 0.00012259711 -1.9668032e-05 1.0782428e-09      7.77665    27.519308      4.48985 
       3   -5855.9953 0.00012259711 -1.9668032e-05 1.0782428e-09      7.77665    27.519308      4.48985 
       4   -5855.9953 0.00012259711 -1.9668032e-05 1.0782428e-09      7.77665    27.519308      4.48985 
       5   -5855.9953 0.00012262663 -1.9650825e-05 1.0670904e-09      7.77665    27.519308      4.48985 
Loop time of 0.0884739 on 1 procs for 4 steps with 992 atoms

Minimization stats:
  Stopping criterion = energy tolerance
  Energy initial, next-to-last, final = 
        -5855.95814685     -5855.95814685     -5855.99527216
  Force two-norm initial, final = 0.86953 0.0106533
  Force max component initial, final = 0.10869 0.00105516
  Final line search alpha, max atom move = 0 0
  Iterations, force evaluations = 4 103

Pair  time (%) = 0.0777747 (87.9069)
Neigh time (%) = 0 (0)
Comm  time (%) = 0.00302769 (3.42212)
Outpt time (%) = 0.00265091 (2.99627)
Other time (%) = 0.00502064 (5.67471)

Nlocal:    992 ave 992 max 992 min
Histogram: 1 0 0 0 0 0 0 0 0 0
Nghost:    2429 ave 2429 max 2429 min
Histogram: 1 0 0 0 0 0 0 0 0 0
Neighs:    26048 ave 26048 max 26048 min
Histogram: 1 0 0 0 0 0 0 0 0 0

Total # of neighbors = 26048
Ave neighs/atom = 26.2581
Neighbor list builds = 0
Dangerous builds = 0
        next i
jump SELF loop1
        read_dump orig.dump 0 x y z
  orthogonal box = (0 -13.75 0) to (7.77665 13.75 4.48985)
  992 atoms before read
  992 atoms in snapshot
  0 atoms purged
  992 atoms replaced
  0 atoms trimmed
  0 atoms added
  992 atoms after read
        variable stretch equal 1+$i*${strainstep}
        variable stretch equal 1+2*${strainstep}
        variable stretch equal 1+2*0.0005
        change_box all ${direction} scale ${stretch} remap
        change_box all y scale ${stretch} remap
        change_box all y scale 1.001 remap
  orthogonal box = (0 -13.7665 0) to (7.77665 13.7665 4.48985)
        min_style ${style}
        min_style hftn
        minimize ${etol} ${ftol} ${maxiter} ${maxeval}
        minimize 1e-12 ${ftol} ${maxiter} ${maxeval}
        minimize 1e-12 1e-08 ${maxiter} ${maxeval}
        minimize 1e-12 1e-08 10000 ${maxeval}
        minimize 1e-12 1e-08 10000 20000
WARNING: Resetting reneighboring criteria during minimization (../min.cpp:168)
Memory usage per processor = 4.98699 Mbytes
Step PotEng Pxx Pyy Pxy Lx Ly Lz 
       0   -5855.8897 -0.041863525   -0.1683748 9.0449012e-10      7.77665     27.53306      4.48985 
       1   -5855.9948 0.00046855737 0.0013645141 1.1251384e-09      7.77665     27.53306      4.48985 
       2   -5855.9953 0.00013041825 5.9332698e-08 -3.1374839e-10      7.77665     27.53306      4.48985 
       3   -5855.9953 0.0001304076 -1.4059933e-10 1.107751e-10      7.77665     27.53306      4.48985 
Loop time of 0.141748 on 1 procs for 2 steps with 992 atoms

Minimization stats:
  Stopping criterion = force tolerance
  Energy initial, next-to-last, final = 
        -5855.88969926     -5855.99480729     -5855.99526556
  Force two-norm initial, final = 1.47814 5.09517e-09
  Force max component initial, final = 0.185061 3.70372e-10
  Final line search alpha, max atom move = 0 0
  Iterations, force evaluations = 2 171

Pair  time (%) = 0.124832 (88.0663)
Neigh time (%) = 0 (0)
Comm  time (%) = 0.00812473 (5.73181)
Outpt time (%) = 0.000344882 (0.243307)
Other time (%) = 0.00844624 (5.95863)

Nlocal:    992 ave 992 max 992 min
Histogram: 1 0 0 0 0 0 0 0 0 0
Nghost:    2429 ave 2429 max 2429 min
Histogram: 1 0 0 0 0 0 0 0 0 0
Neighs:    26048 ave 26048 max 26048 min
Histogram: 1 0 0 0 0 0 0 0 0 0

Total # of neighbors = 26048
Ave neighs/atom = 26.2581
Neighbor list builds = 0
Dangerous builds = 0
        next i
jump SELF loop1
        read_dump orig.dump 0 x y z
  orthogonal box = (0 -13.75 0) to (7.77665 13.75 4.48985)
  992 atoms before read
  992 atoms in snapshot
  0 atoms purged
  992 atoms replaced
  0 atoms trimmed
  0 atoms added
  992 atoms after read
        variable stretch equal 1+$i*${strainstep}
        variable stretch equal 1+3*${strainstep}
        variable stretch equal 1+3*0.0005
        change_box all ${direction} scale ${stretch} remap
        change_box all y scale ${stretch} remap
        change_box all y scale 1.0015 remap
  orthogonal box = (0 -13.7734 0) to (7.77665 13.7734 4.48985)
        min_style ${style}
        min_style hftn
        minimize ${etol} ${ftol} ${maxiter} ${maxeval}
        minimize 1e-12 ${ftol} ${maxiter} ${maxeval}
        minimize 1e-12 1e-08 ${maxiter} ${maxeval}
        minimize 1e-12 1e-08 10000 ${maxeval}
        minimize 1e-12 1e-08 10000 20000
WARNING: Resetting reneighboring criteria during minimization (../min.cpp:168)
Memory usage per processor = 4.98699 Mbytes
Step PotEng Pxx Pyy Pxy Lx Ly Lz 
       0   -5855.7991  -0.05919107  -0.23808864 8.9370134e-10      7.77665    27.546813      4.48985 
       1   -5855.9939 0.0011659655 0.0041542691 1.1613516e-09      7.77665    27.546813      4.48985 
       2   -5855.9953 0.00012997812 -2.9990499e-07 -3.8179234e-10      7.77665    27.546813      4.48985 
       3   -5855.9953 0.00012997812 -2.9990499e-07 -3.8179234e-10      7.77665    27.546813      4.48985 
       4   -5855.9953 0.00012997812 -2.9990499e-07 -3.8179234e-10      7.77665    27.546813      4.48985 
       5   -5855.9953 0.00012998787 -2.9196002e-07 -3.8063744e-10      7.77665    27.546813      4.48985 
Loop time of 0.1264 on 1 procs for 4 steps with 992 atoms

Minimization stats:
  Stopping criterion = energy tolerance
  Energy initial, next-to-last, final = 
        -5855.79914938     -5855.99386961     -5855.99526566
  Force two-norm initial, final = 2.08574 0.000657219
  Force max component initial, final = 0.261128 3.3408e-05
  Final line search alpha, max atom move = 0 0
  Iterations, force evaluations = 4 149

Pair  time (%) = 0.112869 (89.2954)
Neigh time (%) = 0 (0)
Comm  time (%) = 0.00335515 (2.65439)
Outpt time (%) = 0.00301204 (2.38294)
Other time (%) = 0.00716342 (5.66726)

Nlocal:    992 ave 992 max 992 min
Histogram: 1 0 0 0 0 0 0 0 0 0
Nghost:    2429 ave 2429 max 2429 min
Histogram: 1 0 0 0 0 0 0 0 0 0
Neighs:    26048 ave 26048 max 26048 min
Histogram: 1 0 0 0 0 0 0 0 0 0

Total # of neighbors = 26048
Ave neighs/atom = 26.2581
Neighbor list builds = 0
Dangerous builds = 0
        next i
jump SELF loop1
        read_dump orig.dump 0 x y z
  orthogonal box = (0 -13.75 0) to (7.77665 13.75 4.48985)
  992 atoms before read
  992 atoms in snapshot
  0 atoms purged
  992 atoms replaced
  0 atoms trimmed
  0 atoms added
  992 atoms after read
        variable stretch equal 1+$i*${strainstep}
        variable stretch equal 1+4*${strainstep}
        variable stretch equal 1+4*0.0005
        change_box all ${direction} scale ${stretch} remap
        change_box all y scale ${stretch} remap
        change_box all y scale 1.002 remap
  orthogonal box = (0 -13.7803 0) to (7.77665 13.7803 4.48985)
        min_style ${style}
        min_style hftn
        minimize ${etol} ${ftol} ${maxiter} ${maxeval}
        minimize 1e-12 ${ftol} ${maxiter} ${maxeval}
        minimize 1e-12 1e-08 ${maxiter} ${maxeval}
        minimize 1e-12 1e-08 10000 ${maxeval}
        minimize 1e-12 1e-08 10000 20000
WARNING: Resetting reneighboring criteria during minimization (../min.cpp:168)
Memory usage per processor = 4.98699 Mbytes
Step PotEng Pxx Pyy Pxy Lx Ly Lz 
       0   -5855.6628  -0.07631203  -0.30711146 8.9477158e-10      7.77665    27.560566      4.48985 
       1    -5855.994 0.0010602999 0.0037319348 1.1670798e-09      7.77665    27.560566      4.48985 
       2   -5855.9953 0.00013008835 -1.9374754e-07 -3.7493927e-10      7.77665    27.560566      4.48985 
       3   -5855.9953 0.00013008835 -1.9374754e-07 -3.7493927e-10      7.77665    27.560566      4.48985 
       4   -5855.9953 0.00013008835 -1.9374754e-07 -3.7493927e-10      7.77665    27.560566      4.48985 
       5   -5855.9953 0.00013009467 -1.8979416e-07 -3.7344895e-10      7.77665    27.560566      4.48985 
Loop time of 0.140977 on 1 procs for 4 steps with 992 atoms

Minimization stats:
  Stopping criterion = energy tolerance
  Energy initial, next-to-last, final = 
        -5855.66279514     -5855.99401091     -5855.99526562
  Force two-norm initial, final = 2.68787 0.000291453
  Force max component initial, final = 0.336458 2.33695e-05
  Final line search alpha, max atom move = 0 0
  Iterations, force evaluations = 4 171

Pair  time (%) = 0.129089 (91.5674)
Neigh time (%) = 0 (0)
Comm  time (%) = 0.00250492 (1.77683)
Outpt time (%) = 0.000307066 (0.217812)
Other time (%) = 0.00907606 (6.43797)

Nlocal:    992 ave 992 max 992 min
Histogram: 1 0 0 0 0 0 0 0 0 0
Nghost:    2429 ave 2429 max 2429 min
Histogram: 1 0 0 0 0 0 0 0 0 0
Neighs:    26048 ave 26048 max 26048 min
Histogram: 1 0 0 0 0 0 0 0 0 0

Total # of neighbors = 26048
Ave neighs/atom = 26.2581
Neighbor list builds = 0
Dangerous builds = 0
        next i
jump SELF loop1
        read_dump orig.dump 0 x y z
  orthogonal box = (0 -13.75 0) to (7.77665 13.75 4.48985)
  992 atoms before read
  992 atoms in snapshot
  0 atoms purged
  992 atoms replaced
  0 atoms trimmed
  0 atoms added
  992 atoms after read
        variable stretch equal 1+$i*${strainstep}
        variable stretch equal 1+5*${strainstep}
        variable stretch equal 1+5*0.0005
        change_box all ${direction} scale ${stretch} remap
        change_box all y scale ${stretch} remap
        change_box all y scale 1.0025 remap
  orthogonal box = (0 -13.7872 0) to (7.77665 13.7872 4.48985)
        min_style ${style}
        min_style hftn
        minimize ${etol} ${ftol} ${maxiter} ${maxeval}
        minimize 1e-12 ${ftol} ${maxiter} ${maxeval}
        minimize 1e-12 1e-08 ${maxiter} ${maxeval}
        minimize 1e-12 1e-08 10000 ${maxeval}
        minimize 1e-12 1e-08 10000 20000
WARNING: Resetting reneighboring criteria during minimization (../min.cpp:168)
Memory usage per processor = 4.98699 Mbytes
Step PotEng Pxx Pyy Pxy Lx Ly Lz 
       0   -5855.4978 -0.093300486  -0.37573889 8.8405874e-10      7.77665    27.574319      4.48985 
       1   -5855.9926 0.0020880834 0.0078427291 1.1399402e-09      7.77665    27.574319      4.48985 
       2   -5855.9953 0.00012957398 -6.6817247e-07 -4.158044e-10      7.77665    27.574319      4.48985 
       3   -5855.9953 0.00012957398 -6.6817247e-07 -4.158044e-10      7.77665    27.574319      4.48985 
       4   -5855.9953 0.00012957398 -6.6817247e-07 -4.158044e-10      7.77665    27.574319      4.48985 
       5   -5855.9953 0.00012958601 -6.6201744e-07 -4.1468523e-10      7.77665    27.574319      4.48985 
Loop time of 0.132957 on 1 procs for 4 steps with 992 atoms

Minimization stats:
  Stopping criterion = energy tolerance
  Energy initial, next-to-last, final = 
        -5855.49781142     -5855.99262742     -5855.99526578
  Force two-norm initial, final = 3.28663 0.00128893
  Force max component initial, final = 0.411339 0.000100141
  Final line search alpha, max atom move = 0 0
  Iterations, force evaluations = 4 159

Pair  time (%) = 0.121378 (91.2916)
Neigh time (%) = 0 (0)
Comm  time (%) = 0.00295334 (2.22127)
Outpt time (%) = 0.000300915 (0.226325)
Other time (%) = 0.00832418 (6.26081)

Nlocal:    992 ave 992 max 992 min
Histogram: 1 0 0 0 0 0 0 0 0 0
Nghost:    2429 ave 2429 max 2429 min
Histogram: 1 0 0 0 0 0 0 0 0 0
Neighs:    26048 ave 26048 max 26048 min
Histogram: 1 0 0 0 0 0 0 0 0 0

Total # of neighbors = 26048
Ave neighs/atom = 26.2581
Neighbor list builds = 0
Dangerous builds = 0
        next i
jump SELF loop1
        read_dump orig.dump 0 x y z
  orthogonal box = (0 -13.75 0) to (7.77665 13.75 4.48985)
  992 atoms before read
  992 atoms in snapshot
  0 atoms purged
  992 atoms replaced
  0 atoms trimmed
  0 atoms added
  992 atoms after read
        variable stretch equal 1+$i*${strainstep}
        variable stretch equal 1+6*${strainstep}
        variable stretch equal 1+6*0.0005
        change_box all ${direction} scale ${stretch} remap
        change_box all y scale ${stretch} remap
        change_box all y scale 1.003 remap
  orthogonal box = (0 -13.794 0) to (7.77665 13.794 4.48985)
        min_style ${style}
        min_style hftn
        minimize ${etol} ${ftol} ${maxiter} ${maxeval}
        minimize 1e-12 ${ftol} ${maxiter} ${maxeval}
        minimize 1e-12 1e-08 ${maxiter} ${maxeval}
        minimize 1e-12 1e-08 10000 ${maxeval}
        minimize 1e-12 1e-08 10000 20000
WARNING: Resetting reneighboring criteria during minimization (../min.cpp:168)
Memory usage per processor = 4.98699 Mbytes
Step PotEng Pxx Pyy Pxy Lx Ly Lz 
       0   -5855.3092  -0.11017844  -0.44405794 8.8511584e-10      7.77665    27.588072      4.48985 
       1   -5855.9928 0.0019278698 0.0072022906 1.137155e-09      7.77665    27.588072      4.48985 
       2   -5855.9953 0.00012953611 -5.6982148e-07 -4.0038187e-10      7.77665    27.588072      4.48985 
       3   -5855.9953 0.00012953611 -5.6982148e-07 -4.0038187e-10      7.77665    27.588072      4.48985 
       4   -5855.9953 0.00012953611 -5.6982148e-07 -4.0038187e-10      7.77665    27.588072      4.48985 
       5   -5855.9953 0.00012954815 -5.6362671e-07 -3.9928763e-10      7.77665    27.588072      4.48985 
Loop time of 0.136458 on 1 procs for 4 steps with 992 atoms

Minimization stats:
  Stopping criterion = energy tolerance
  Energy initial, next-to-last, final = 
        -5855.30921947     -5855.99284166     -5855.99526575
  Force two-norm initial, final = 3.8829 0.00127744
  Force max component initial, final = 0.485901 9.66516e-05
  Final line search alpha, max atom move = 0 0
  Iterations, force evaluations = 4 159

Pair  time (%) = 0.118958 (87.1752)
Neigh time (%) = 0 (0)
Comm  time (%) = 0.00959793 (7.03361)
Outpt time (%) = 0.000515938 (0.378093)
Other time (%) = 0.00738664 (5.41312)

Nlocal:    992 ave 992 max 992 min
Histogram: 1 0 0 0 0 0 0 0 0 0
Nghost:    2429 ave 2429 max 2429 min
Histogram: 1 0 0 0 0 0 0 0 0 0
Neighs:    26048 ave 26048 max 26048 min
Histogram: 1 0 0 0 0 0 0 0 0 0

Total # of neighbors = 26048
Ave neighs/atom = 26.2581
Neighbor list builds = 0
Dangerous builds = 0
        next i
jump SELF loop1
        read_dump orig.dump 0 x y z
  orthogonal box = (0 -13.75 0) to (7.77665 13.75 4.48985)
  992 atoms before read
  992 atoms in snapshot
  0 atoms purged
  992 atoms replaced
  0 atoms trimmed
  0 atoms added
  992 atoms after read
        variable stretch equal 1+$i*${strainstep}
        variable stretch equal 1+7*${strainstep}
        variable stretch equal 1+7*0.0005
        change_box all ${direction} scale ${stretch} remap
        change_box all y scale ${stretch} remap
        change_box all y scale 1.0035 remap
  orthogonal box = (0 -13.8009 0) to (7.77665 13.8009 4.48985)
        min_style ${style}
        min_style hftn
        minimize ${etol} ${ftol} ${maxiter} ${maxeval}
        minimize 1e-12 ${ftol} ${maxiter} ${maxeval}
        minimize 1e-12 1e-08 ${maxiter} ${maxeval}
        minimize 1e-12 1e-08 10000 ${maxeval}
        minimize 1e-12 1e-08 10000 20000
WARNING: Resetting reneighboring criteria during minimization (../min.cpp:168)
Memory usage per processor = 4.9874 Mbytes
Step PotEng Pxx Pyy Pxy Lx Ly Lz 
       0   -5855.0709  -0.12683234  -0.51160985 8.7451181e-10      7.77665    27.601824      4.48985 
       1    -5855.991 0.0032865199  0.012635702 1.1701369e-09      7.77665    27.601824      4.48985 
       2   -5855.9953 0.0001291931 -1.2386496e-06 -4.4630108e-10      7.77665    27.601824      4.48985 
       3   -5855.9953 0.0001291931 -1.2386496e-06 -4.4630108e-10      7.77665    27.601824      4.48985 
       4   -5855.9953 0.0001291931 -1.2386496e-06 -4.4630108e-10      7.77665    27.601824      4.48985 
       5   -5855.9953 0.00012920192 -1.2337948e-06 -4.4364487e-10      7.77665    27.601824      4.48985 
Loop time of 0.110673 on 1 procs for 4 steps with 992 atoms

Minimization stats:
  Stopping criterion = energy tolerance
  Energy initial, next-to-last, final = 
        -5855.07085189     -5855.99101063     -5855.99526598
  Force two-norm initial, final = 4.47245 0.00306493
  Force max component initial, final = 0.559609 0.000202268
  Final line search alpha, max atom move = 0 0
  Iterations, force evaluations = 4 129

Pair  time (%) = 0.101808 (91.9897)
Neigh time (%) = 0 (0)
Comm  time (%) = 0.00187876 (1.69758)
Outpt time (%) = 0.000337108 (0.304598)
Other time (%) = 0.00664936 (6.00811)

Nlocal:    992 ave 992 max 992 min
Histogram: 1 0 0 0 0 0 0 0 0 0
Nghost:    2429 ave 2429 max 2429 min
Histogram: 1 0 0 0 0 0 0 0 0 0
Neighs:    26048 ave 26048 max 26048 min
Histogram: 1 0 0 0 0 0 0 0 0 0

Total # of neighbors = 26048
Ave neighs/atom = 26.2581
Neighbor list builds = 0
Dangerous builds = 0
        next i
jump SELF loop1
        read_dump orig.dump 0 x y z
  orthogonal box = (0 -13.75 0) to (7.77665 13.75 4.48985)
  992 atoms before read
  992 atoms in snapshot
  0 atoms purged
  992 atoms replaced
  0 atoms trimmed
  0 atoms added
  992 atoms after read
        variable stretch equal 1+$i*${strainstep}
        variable stretch equal 1+8*${strainstep}
        variable stretch equal 1+8*0.0005
        change_box all ${direction} scale ${stretch} remap
        change_box all y scale ${stretch} remap
        change_box all y scale 1.004 remap
  orthogonal box = (0 -13.8078 0) to (7.77665 13.8078 4.48985)
        min_style ${style}
        min_style hftn
        minimize ${etol} ${ftol} ${maxiter} ${maxeval}
        minimize 1e-12 ${ftol} ${maxiter} ${maxeval}
        minimize 1e-12 1e-08 ${maxiter} ${maxeval}
        minimize 1e-12 1e-08 10000 ${maxeval}
        minimize 1e-12 1e-08 10000 20000
WARNING: Resetting reneighboring criteria during minimization (../min.cpp:168)
Memory usage per processor = 4.9874 Mbytes
Step PotEng Pxx Pyy Pxy Lx Ly Lz 
       0   -5854.8111  -0.14338547  -0.57888931 8.6402175e-10      7.77665    27.615577      4.48985 
       1   -5855.9887 0.0050093123  0.019524083 1.1651704e-09      7.77665    27.615577      4.48985 
       2   -5855.9953 0.00012869646 -2.9397111e-06 -4.488151e-10      7.77665    27.615577      4.48985 
       3   -5855.9953 0.00012869646 -2.9397111e-06 -4.488151e-10      7.77665    27.615577      4.48985 
       4   -5855.9953 0.00012869646 -2.9397111e-06 -4.488151e-10      7.77665    27.615577      4.48985 
       5   -5855.9953 0.00012869646 -2.9397111e-06 -4.488151e-10      7.77665    27.615577      4.48985 
       6   -5855.9953 0.00012869786 -2.9344844e-06 -4.4833233e-10      7.77665    27.615577      4.48985 
Loop time of 0.155476 on 1 procs for 5 steps with 992 atoms

Minimization stats:
  Stopping criterion = energy tolerance
  Energy initial, next-to-last, final = 
        -5854.81108019     -5855.98868713     -5855.99526655
  Force two-norm initial, final = 5.05966 0.00633183
  Force max component initial, final = 0.63302 0.000485103
  Final line search alpha, max atom move = 0 0
  Iterations, force evaluations = 5 120

Pair  time (%) = 0.133874 (86.1057)
Neigh time (%) = 0 (0)
Comm  time (%) = 0.00169194 (1.08823)
Outpt time (%) = 0.0112731 (7.25071)
Other time (%) = 0.0086372 (5.55533)

Nlocal:    992 ave 992 max 992 min
Histogram: 1 0 0 0 0 0 0 0 0 0
Nghost:    2429 ave 2429 max 2429 min
Histogram: 1 0 0 0 0 0 0 0 0 0
Neighs:    26048 ave 26048 max 26048 min
Histogram: 1 0 0 0 0 0 0 0 0 0

Total # of neighbors = 26048
Ave neighs/atom = 26.2581
Neighbor list builds = 0
Dangerous builds = 0
        next i
jump SELF loop1
        read_dump orig.dump 0 x y z
  orthogonal box = (0 -13.75 0) to (7.77665 13.75 4.48985)
  992 atoms before read
  992 atoms in snapshot
  0 atoms purged
  992 atoms replaced
  0 atoms trimmed
  0 atoms added
  992 atoms after read
        variable stretch equal 1+$i*${strainstep}
        variable stretch equal 1+9*${strainstep}
        variable stretch equal 1+9*0.0005
        change_box all ${direction} scale ${stretch} remap
        change_box all y scale ${stretch} remap
        change_box all y scale 1.0045 remap
  orthogonal box = (0 -13.8147 0) to (7.77665 13.8147 4.48985)
        min_style ${style}
        min_style hftn
        minimize ${etol} ${ftol} ${maxiter} ${maxeval}
        minimize 1e-12 ${ftol} ${maxiter} ${maxeval}
        minimize 1e-12 1e-08 ${maxiter} ${maxeval}
        minimize 1e-12 1e-08 10000 ${maxeval}
        minimize 1e-12 1e-08 10000 20000
WARNING: Resetting reneighboring criteria during minimization (../min.cpp:168)
Memory usage per processor = 4.9874 Mbytes
Step PotEng Pxx Pyy Pxy Lx Ly Lz 
       0   -5854.5199  -0.15979453  -0.64572032 8.6505339e-10      7.77665     27.62933      4.48985 
       1    -5855.989 0.0047648714  0.018547119 1.2370887e-09      7.77665     27.62933      4.48985 
       2   -5855.9953 0.00012873746 -2.5079334e-06 -4.9114931e-10      7.77665     27.62933      4.48985 
       3   -5855.9953 0.00012873746 -2.5079334e-06 -4.9114931e-10      7.77665     27.62933      4.48985 
       4   -5855.9953 0.00012873746 -2.5079334e-06 -4.9114931e-10      7.77665     27.62933      4.48985 
       5   -5855.9953 0.00012873746 -2.5079334e-06 -4.9114931e-10      7.77665     27.62933      4.48985 
       6   -5855.9953 0.00012873891 -2.502645e-06 -4.9071474e-10      7.77665     27.62933      4.48985 
Loop time of 0.103723 on 1 procs for 5 steps with 992 atoms

Minimization stats:
  Stopping criterion = energy tolerance
  Energy initial, next-to-last, final = 
        -5854.51990424     -5855.98901328      -5855.9952664
  Force two-norm initial, final = 5.64306 0.00629733
  Force max component initial, final = 0.705957 0.000476079
  Final line search alpha, max atom move = 0 0
  Iterations, force evaluations = 5 120

Pair  time (%) = 0.0899515 (86.7229)
Neigh time (%) = 0 (0)
Comm  time (%) = 0.00790172 (7.6181)
Outpt time (%) = 0.000435125 (0.419507)
Other time (%) = 0.00543454 (5.23948)

Nlocal:    992 ave 992 max 992 min
Histogram: 1 0 0 0 0 0 0 0 0 0
Nghost:    2429 ave 2429 max 2429 min
Histogram: 1 0 0 0 0 0 0 0 0 0
Neighs:    26048 ave 26048 max 26048 min
Histogram: 1 0 0 0 0 0 0 0 0 0

Total # of neighbors = 26048
Ave neighs/atom = 26.2581
Neighbor list builds = 0
Dangerous builds = 0
        next i
jump SELF loop1
        read_dump orig.dump 0 x y z
  orthogonal box = (0 -13.75 0) to (7.77665 13.75 4.48985)
  992 atoms before read
  992 atoms in snapshot
  0 atoms purged
  992 atoms replaced
  0 atoms trimmed
  0 atoms added
  992 atoms after read
        variable stretch equal 1+$i*${strainstep}
        variable stretch equal 1+10*${strainstep}
        variable stretch equal 1+10*0.0005
        change_box all ${direction} scale ${stretch} remap
        change_box all y scale ${stretch} remap
        change_box all y scale 1.005 remap
  orthogonal box = (0 -13.8215 0) to (7.77665 13.8215 4.48985)
        min_style ${style}
        min_style hftn
        minimize ${etol} ${ftol} ${maxiter} ${maxeval}
        minimize 1e-12 ${ftol} ${maxiter} ${maxeval}
        minimize 1e-12 1e-08 ${maxiter} ${maxeval}
        minimize 1e-12 1e-08 10000 ${maxeval}
        minimize 1e-12 1e-08 10000 20000
WARNING: Resetting reneighboring criteria during minimization (../min.cpp:168)
Memory usage per processor = 4.9874 Mbytes
Step PotEng Pxx Pyy Pxy Lx Ly Lz 
       0   -5854.1882  -0.17601951   -0.7119396 8.5463335e-10      7.77665    27.643083      4.48985 
       1   -5855.9862 0.0068321759  0.026811387 1.2445141e-09      7.77665    27.643083      4.48985 
       2   -5855.9953 0.00012760336 -6.7864522e-06 -4.4731976e-10      7.77665    27.643083      4.48985 
       3   -5855.9953 0.00012760336 -6.7864522e-06 -4.4731976e-10      7.77665    27.643083      4.48985 
       4   -5855.9953 0.00012760336 -6.7864522e-06 -4.4731976e-10      7.77665    27.643083      4.48985 
       5   -5855.9953 0.00012760336 -6.7864522e-06 -4.4731976e-10      7.77665    27.643083      4.48985 
       6   -5855.9953 0.00012760497 -6.7804006e-06 -4.471306e-10      7.77665    27.643083      4.48985 
Loop time of 0.119143 on 1 procs for 5 steps with 992 atoms

Minimization stats:
  Stopping criterion = energy tolerance
  Energy initial, next-to-last, final = 
        -5854.18823605     -5855.98622182     -5855.99526785
  Force two-norm initial, final = 6.22106 0.00658281
  Force max component initial, final = 0.778211 0.00054249
  Final line search alpha, max atom move = 0 0
  Iterations, force evaluations = 5 142

Pair  time (%) = 0.107976 (90.627)
Neigh time (%) = 0 (0)
Comm  time (%) = 0.00347178 (2.91396)
Outpt time (%) = 0.00116093 (0.974403)
Other time (%) = 0.0065346 (5.48467)

Nlocal:    992 ave 992 max 992 min
Histogram: 1 0 0 0 0 0 0 0 0 0
Nghost:    2429 ave 2429 max 2429 min
Histogram: 1 0 0 0 0 0 0 0 0 0
Neighs:    26048 ave 26048 max 26048 min
Histogram: 1 0 0 0 0 0 0 0 0 0

Total # of neighbors = 26048
Ave neighs/atom = 26.2581
Neighbor list builds = 0
Dangerous builds = 0
        next i
jump SELF loop1
        read_dump orig.dump 0 x y z
  orthogonal box = (0 -13.75 0) to (7.77665 13.75 4.48985)
  992 atoms before read
  992 atoms in snapshot
  0 atoms purged
  992 atoms replaced
  0 atoms trimmed
  0 atoms added
  992 atoms after read
        variable stretch equal 1+$i*${strainstep}
        variable stretch equal 1+11*${strainstep}
        variable stretch equal 1+11*0.0005
        change_box all ${direction} scale ${stretch} remap
        change_box all y scale ${stretch} remap
        change_box all y scale 1.0055 remap
  orthogonal box = (0 -13.8284 0) to (7.77665 13.8284 4.48985)
        min_style ${style}
        min_style hftn
        minimize ${etol} ${ftol} ${maxiter} ${maxeval}
        minimize 1e-12 ${ftol} ${maxiter} ${maxeval}
        minimize 1e-12 1e-08 ${maxiter} ${maxeval}
        minimize 1e-12 1e-08 10000 ${maxeval}
        minimize 1e-12 1e-08 10000 20000
WARNING: Resetting reneighboring criteria during minimization (../min.cpp:168)
Memory usage per processor = 4.9874 Mbytes
Step PotEng Pxx Pyy Pxy Lx Ly Lz 
       0   -5853.8354  -0.19214495  -0.77788701 8.4433558e-10      7.77665    27.656835      4.48985 
       1   -5855.9829 0.0092706874  0.036557057 1.1843806e-09      7.77665    27.656835      4.48985 
       2   -5855.9953 0.00012585376 -1.352501e-05 -4.7724429e-10      7.77665    27.656835      4.48985 
       3   -5855.9953 0.00012585376 -1.352501e-05 -4.7724429e-10      7.77665    27.656835      4.48985 
       4   -5855.9953 0.00012585376 -1.352501e-05 -4.7724429e-10      7.77665    27.656835      4.48985 
       5   -5855.9953 0.00012585376 -1.352501e-05 -4.7724429e-10      7.77665    27.656835      4.48985 
       6   -5855.9953 0.00012585598 -1.3516479e-05 -4.7697714e-10      7.77665    27.656835      4.48985 
Loop time of 0.118003 on 1 procs for 5 steps with 992 atoms

Minimization stats:
  Stopping criterion = energy tolerance
  Energy initial, next-to-last, final = 
        -5853.83541643     -5855.98292668     -5855.99527012
  Force two-norm initial, final = 6.79671 0.00682777
  Force max component initial, final = 0.850168 0.000596948
  Final line search alpha, max atom move = 0 0
  Iterations, force evaluations = 5 142

Pair  time (%) = 0.108004 (91.5264)
Neigh time (%) = 0 (0)
Comm  time (%) = 0.00285786 (2.42186)
Outpt time (%) = 0.000412014 (0.349156)
Other time (%) = 0.00672921 (5.70258)

Nlocal:    992 ave 992 max 992 min
Histogram: 1 0 0 0 0 0 0 0 0 0
Nghost:    2429 ave 2429 max 2429 min
Histogram: 1 0 0 0 0 0 0 0 0 0
Neighs:    26048 ave 26048 max 26048 min
Histogram: 1 0 0 0 0 0 0 0 0 0

Total # of neighbors = 26048
Ave neighs/atom = 26.2581
Neighbor list builds = 0
Dangerous builds = 0
        next i
jump SELF loop1
        read_dump orig.dump 0 x y z
  orthogonal box = (0 -13.75 0) to (7.77665 13.75 4.48985)
  992 atoms before read
  992 atoms in snapshot
  0 atoms purged
  992 atoms replaced
  0 atoms trimmed
  0 atoms added
  992 atoms after read
        variable stretch equal 1+$i*${strainstep}
        variable stretch equal 1+12*${strainstep}
        variable stretch equal 1+12*0.0005
        change_box all ${direction} scale ${stretch} remap
        change_box all y scale ${stretch} remap
        change_box all y scale 1.006 remap
  orthogonal box = (0 -13.8353 0) to (7.77665 13.8353 4.48985)
        min_style ${style}
        min_style hftn
        minimize ${etol} ${ftol} ${maxiter} ${maxeval}
        minimize 1e-12 ${ftol} ${maxiter} ${maxeval}
        minimize 1e-12 1e-08 ${maxiter} ${maxeval}
        minimize 1e-12 1e-08 10000 ${maxeval}
        minimize 1e-12 1e-08 10000 20000
WARNING: Resetting reneighboring criteria during minimization (../min.cpp:168)
Memory usage per processor = 4.9874 Mbytes
Step PotEng Pxx Pyy Pxy Lx Ly Lz 
       0    -5853.444  -0.20809507  -0.84325455 8.4534087e-10      7.77665    27.670588      4.48985 
       1   -5855.9834 0.0089401603  0.035236554 1.1476681e-09      7.77665    27.670588      4.48985 
       2   -5855.9953 0.00012604038 -1.2512349e-05 -4.4007922e-10      7.77665    27.670588      4.48985 
       3   -5855.9953 0.00012604038 -1.2512349e-05 -4.4007922e-10      7.77665    27.670588      4.48985 
       4   -5855.9953 0.00012604038 -1.2512349e-05 -4.4007922e-10      7.77665    27.670588      4.48985 
       5   -5855.9953 0.00012604038 -1.2512349e-05 -4.4007922e-10      7.77665    27.670588      4.48985 
       6   -5855.9953 0.00012604248 -1.2504367e-05 -4.3979926e-10      7.77665    27.670588      4.48985 
Loop time of 0.119783 on 1 procs for 5 steps with 992 atoms

Minimization stats:
  Stopping criterion = energy tolerance
  Energy initial, next-to-last, final = 
         -5853.4440391     -5855.98336668     -5855.99526978
  Force two-norm initial, final = 7.36738 0.00680356
  Force max component initial, final = 0.921509 0.000590249
  Final line search alpha, max atom move = 0 0
  Iterations, force evaluations = 5 142

Pair  time (%) = 0.105411 (88.0013)
Neigh time (%) = 0 (0)
Comm  time (%) = 0.00617042 (5.15133)
Outpt time (%) = 0.00133495 (1.11447)
Other time (%) = 0.00686709 (5.73294)

Nlocal:    992 ave 992 max 992 min
Histogram: 1 0 0 0 0 0 0 0 0 0
Nghost:    2429 ave 2429 max 2429 min
Histogram: 1 0 0 0 0 0 0 0 0 0
Neighs:    26048 ave 26048 max 26048 min
Histogram: 1 0 0 0 0 0 0 0 0 0

Total # of neighbors = 26048
Ave neighs/atom = 26.2581
Neighbor list builds = 0
Dangerous builds = 0
        next i
jump SELF loop1
        read_dump orig.dump 0 x y z
  orthogonal box = (0 -13.75 0) to (7.77665 13.75 4.48985)
  992 atoms before read
  992 atoms in snapshot
  0 atoms purged
  992 atoms replaced
  0 atoms trimmed
  0 atoms added
  992 atoms after read
        variable stretch equal 1+$i*${strainstep}
        variable stretch equal 1+13*${strainstep}
        variable stretch equal 1+13*0.0005
        change_box all ${direction} scale ${stretch} remap
        change_box all y scale ${stretch} remap
        change_box all y scale 1.0065 remap
  orthogonal box = (0 -13.8422 0) to (7.77665 13.8422 4.48985)
        min_style ${style}
        min_style hftn
        minimize ${etol} ${ftol} ${maxiter} ${maxeval}
        minimize 1e-12 ${ftol} ${maxiter} ${maxeval}
        minimize 1e-12 1e-08 ${maxiter} ${maxeval}
        minimize 1e-12 1e-08 10000 ${maxeval}
        minimize 1e-12 1e-08 10000 20000
WARNING: Resetting reneighboring criteria during minimization (../min.cpp:168)
Memory usage per processor = 4.9874 Mbytes
Step PotEng Pxx Pyy Pxy Lx Ly Lz 
       0   -5853.0208  -0.22389889   -0.9081579 8.3513575e-10      7.77665    27.684341      4.48985 
       1   -5855.9796  0.011726472  0.046369307 1.1855225e-09      7.77665    27.684341      4.48985 
       2   -5855.9953 0.00012353363 -2.2279344e-05 -3.7136187e-10      7.77665    27.684341      4.48985 
       3   -5855.9953 0.00012353363 -2.2279344e-05 -3.7136187e-10      7.77665    27.684341      4.48985 
       4   -5855.9953 0.00012353363 -2.2279344e-05 -3.7136187e-10      7.77665    27.684341      4.48985 
       5   -5855.9953 0.00012353363 -2.2279344e-05 -3.7136187e-10      7.77665    27.684341      4.48985 
       6   -5855.9953 0.00012353764 -2.2263786e-05 -3.7109754e-10      7.77665    27.684341      4.48985 
Loop time of 0.118578 on 1 procs for 5 steps with 992 atoms

Minimization stats:
  Stopping criterion = energy tolerance
  Energy initial, next-to-last, final = 
         -5853.0207859     -5855.97959706     -5855.99527308
  Force two-norm initial, final = 7.93393 0.00707491
  Force max component initial, final = 0.992327 0.000640266
  Final line search alpha, max atom move = 0 0
  Iterations, force evaluations = 5 142

Pair  time (%) = 0.106872 (90.1278)
Neigh time (%) = 0 (0)
Comm  time (%) = 0.00392915 (3.31356)
Outpt time (%) = 0.00126004 (1.06263)
Other time (%) = 0.00651706 (5.49601)

Nlocal:    992 ave 992 max 992 min
Histogram: 1 0 0 0 0 0 0 0 0 0
Nghost:    2429 ave 2429 max 2429 min
Histogram: 1 0 0 0 0 0 0 0 0 0
Neighs:    26048 ave 26048 max 26048 min
Histogram: 1 0 0 0 0 0 0 0 0 0

Total # of neighbors = 26048
Ave neighs/atom = 26.2581
Neighbor list builds = 0
Dangerous builds = 0
        next i
jump SELF loop1
        read_dump orig.dump 0 x y z
  orthogonal box = (0 -13.75 0) to (7.77665 13.75 4.48985)
  992 atoms before read
  992 atoms in snapshot
  0 atoms purged
  992 atoms replaced
  0 atoms trimmed
  0 atoms added
  992 atoms after read
        variable stretch equal 1+$i*${strainstep}
        variable stretch equal 1+14*${strainstep}
        variable stretch equal 1+14*0.0005
        change_box all ${direction} scale ${stretch} remap
        change_box all y scale ${stretch} remap
        change_box all y scale 1.007 remap
  orthogonal box = (0 -13.849 0) to (7.77665 13.849 4.48985)
        min_style ${style}
        min_style hftn
        minimize ${etol} ${ftol} ${maxiter} ${maxeval}
        minimize 1e-12 ${ftol} ${maxiter} ${maxeval}
        minimize 1e-12 1e-08 ${maxiter} ${maxeval}
        minimize 1e-12 1e-08 10000 ${maxeval}
        minimize 1e-12 1e-08 10000 20000
WARNING: Resetting reneighboring criteria during minimization (../min.cpp:168)
Memory usage per processor = 4.9874 Mbytes
Step PotEng Pxx Pyy Pxy Lx Ly Lz 
       0   -5852.5766  -0.23960458  -0.97279078 8.2502532e-10      7.77665    27.698094      4.48985 
       1   -5855.7269 -0.0034554569  -0.01606764 -2.0535983e-07      7.77665    27.698094      4.48985 
       2   -5855.9821 -0.0097281338 -0.039454205 4.2419375e-10      7.77665    27.698094      4.48985 
       3   -5855.9952 0.00014121339 4.9367526e-05 -1.7604018e-09      7.77665    27.698094      4.48985 
       4   -5855.9953 0.00012961708 -3.1712623e-08 1.404628e-10      7.77665    27.698094      4.48985 
       5   -5855.9953 0.00012963063 -3.701426e-12 2.823123e-11      7.77665    27.698094      4.48985 
Loop time of 0.259381 on 1 procs for 4 steps with 992 atoms

Minimization stats:
  Stopping criterion = force tolerance
  Energy initial, next-to-last, final = 
        -5852.57664423     -5855.99524888     -5855.99526556
  Force two-norm initial, final = 8.49812 1.31781e-09
  Force max component initial, final = 1.06285 9.90476e-11
  Final line search alpha, max atom move = 0 0
  Iterations, force evaluations = 4 243

Pair  time (%) = 0.223563 (86.191)
Neigh time (%) = 0 (0)
Comm  time (%) = 0.022444 (8.6529)
Outpt time (%) = 0.000272154 (0.104924)
Other time (%) = 0.0131017 (5.05113)

Nlocal:    992 ave 992 max 992 min
Histogram: 1 0 0 0 0 0 0 0 0 0
Nghost:    2429 ave 2429 max 2429 min
Histogram: 1 0 0 0 0 0 0 0 0 0
Neighs:    26048 ave 26048 max 26048 min
Histogram: 1 0 0 0 0 0 0 0 0 0

Total # of neighbors = 26048
Ave neighs/atom = 26.2581
Neighbor list builds = 0
Dangerous builds = 0
        next i
jump SELF loop1
        read_dump orig.dump 0 x y z
  orthogonal box = (0 -13.75 0) to (7.77665 13.75 4.48985)
  992 atoms before read
  992 atoms in snapshot
  0 atoms purged
  992 atoms replaced
  0 atoms trimmed
  0 atoms added
  992 atoms after read
        variable stretch equal 1+$i*${strainstep}
        variable stretch equal 1+15*${strainstep}
        variable stretch equal 1+15*0.0005
        change_box all ${direction} scale ${stretch} remap
        change_box all y scale ${stretch} remap
        change_box all y scale 1.0075 remap
  orthogonal box = (0 -13.8559 0) to (7.77665 13.8559 4.48985)
        min_style ${style}
        min_style hftn
        minimize ${etol} ${ftol} ${maxiter} ${maxeval}
        minimize 1e-12 ${ftol} ${maxiter} ${maxeval}
        minimize 1e-12 1e-08 ${maxiter} ${maxeval}
        minimize 1e-12 1e-08 10000 ${maxeval}
        minimize 1e-12 1e-08 10000 20000
WARNING: Resetting reneighboring criteria during minimization (../min.cpp:168)
Memory usage per processor = 4.9874 Mbytes
Step PotEng Pxx Pyy Pxy Lx Ly Lz 
       0   -5852.0874  -0.25510614   -1.0367215 8.2600573e-10      7.77665    27.711846      4.48985 
       1   -5855.4466 -0.022064671 -0.091531355 -7.263855e-08      7.77665    27.711846      4.48985 
       2   -5855.9926 0.0020561955 0.0076812404 4.4099632e-08      7.77665    27.711846      4.48985 
       3   -5855.9953 0.00013838737 2.4261788e-05 -1.7417816e-09      7.77665    27.711846      4.48985 
       4   -5855.9953 0.00013186404 9.2194362e-06 -2.6330715e-10      7.77665    27.711846      4.48985 
       5   -5855.9953 0.00012956622 -2.0136381e-11 -1.1332228e-10      7.77665    27.711846      4.48985 
Loop time of 0.194514 on 1 procs for 4 steps with 992 atoms

Minimization stats:
  Stopping criterion = force tolerance
  Energy initial, next-to-last, final = 
        -5852.08742253     -5855.99525736     -5855.99526556
  Force two-norm initial, final = 9.05627 5.49517e-09
  Force max component initial, final = 1.13262 4.38782e-10
  Final line search alpha, max atom move = 0 0
  Iterations, force evaluations = 4 235

Pair  time (%) = 0.173032 (88.9559)
Neigh time (%) = 0 (0)
Comm  time (%) = 0.00905486 (4.65512)
Outpt time (%) = 0.000371849 (0.191168)
Other time (%) = 0.0120556 (6.19783)

Nlocal:    992 ave 992 max 992 min
Histogram: 1 0 0 0 0 0 0 0 0 0
Nghost:    2429 ave 2429 max 2429 min
Histogram: 1 0 0 0 0 0 0 0 0 0
Neighs:    26048 ave 26048 max 26048 min
Histogram: 1 0 0 0 0 0 0 0 0 0

Total # of neighbors = 26048
Ave neighs/atom = 26.2581
Neighbor list builds = 0
Dangerous builds = 0
        next i
jump SELF loop1
        read_dump orig.dump 0 x y z
  orthogonal box = (0 -13.75 0) to (7.77665 13.75 4.48985)
  992 atoms before read
  992 atoms in snapshot
  0 atoms purged
  992 atoms replaced
  0 atoms trimmed
  0 atoms added
  992 atoms after read
        variable stretch equal 1+$i*${strainstep}
        variable stretch equal 1+16*${strainstep}
        variable stretch equal 1+16*0.0005
        change_box all ${direction} scale ${stretch} remap
        change_box all y scale ${stretch} remap
        change_box all y scale 1.008 remap
  orthogonal box = (0 -13.8628 0) to (7.77665 13.8628 4.48985)
        min_style ${style}
        min_style hftn
        minimize ${etol} ${ftol} ${maxiter} ${maxeval}
        minimize 1e-12 ${ftol} ${maxiter} ${maxeval}
        minimize 1e-12 1e-08 ${maxiter} ${maxeval}
        minimize 1e-12 1e-08 10000 ${maxeval}
        minimize 1e-12 1e-08 10000 20000
WARNING: Resetting reneighboring criteria during minimization (../min.cpp:168)
Memory usage per processor = 4.9874 Mbytes
Step PotEng Pxx Pyy Pxy Lx Ly Lz 
       0   -5851.5743   -0.2704964   -1.1003253 8.1600043e-10      7.77665    27.725599      4.48985 
       1   -5855.0818 -0.040110523  -0.16513038 1.6949104e-07      7.77665    27.725599      4.48985 
       2   -5855.9903 0.0036795134  0.014286247 -1.6441079e-08      7.77665    27.725599      4.48985 
       3   -5855.9952 0.00014519552 4.7071465e-05 -5.2918631e-07      7.77665    27.725599      4.48985 
       4   -5855.9953 0.00012960154 5.110721e-07 4.0452023e-09      7.77665    27.725599      4.48985 
       5   -5855.9953 0.00012950203 4.6262822e-11 -8.619876e-13      7.77665    27.725599      4.48985 
Loop time of 0.260279 on 1 procs for 4 steps with 992 atoms

Minimization stats:
  Stopping criterion = force tolerance
  Energy initial, next-to-last, final = 
        -5851.57429267     -5855.99524964     -5855.99526556
  Force two-norm initial, final = 9.61149 4.37084e-09
  Force max component initial, final = 1.20202 2.9667e-10
  Final line search alpha, max atom move = 0 0
  Iterations, force evaluations = 4 321

Pair  time (%) = 0.231972 (89.1246)
Neigh time (%) = 0 (0)
Comm  time (%) = 0.0121397 (4.66411)
Outpt time (%) = 0.000335204 (0.128786)
Other time (%) = 0.0158316 (6.08254)

Nlocal:    992 ave 992 max 992 min
Histogram: 1 0 0 0 0 0 0 0 0 0
Nghost:    2429 ave 2429 max 2429 min
Histogram: 1 0 0 0 0 0 0 0 0 0
Neighs:    26048 ave 26048 max 26048 min
Histogram: 1 0 0 0 0 0 0 0 0 0

Total # of neighbors = 26048
Ave neighs/atom = 26.2581
Neighbor list builds = 0
Dangerous builds = 0
        next i
jump SELF loop1
        read_dump orig.dump 0 x y z
  orthogonal box = (0 -13.75 0) to (7.77665 13.75 4.48985)
  992 atoms before read
  992 atoms in snapshot
  0 atoms purged
  992 atoms replaced
  0 atoms trimmed
  0 atoms added
  992 atoms after read
        variable stretch equal 1+$i*${strainstep}
        variable stretch equal 1+17*${strainstep}
        variable stretch equal 1+17*0.0005
        change_box all ${direction} scale ${stretch} remap
        change_box all y scale ${stretch} remap
        change_box all y scale 1.0085 remap
  orthogonal box = (0 -13.8697 0) to (7.77665 13.8697 4.48985)
        min_style ${style}
        min_style hftn
        minimize ${etol} ${ftol} ${maxiter} ${maxeval}
        minimize 1e-12 ${ftol} ${maxiter} ${maxeval}
        minimize 1e-12 1e-08 ${maxiter} ${maxeval}
        minimize 1e-12 1e-08 10000 ${maxeval}
        minimize 1e-12 1e-08 10000 20000
WARNING: Resetting reneighboring criteria during minimization (../min.cpp:168)
Memory usage per processor = 4.9874 Mbytes
Step PotEng Pxx Pyy Pxy Lx Ly Lz 
       0   -5851.0369  -0.28577387   -1.1635947 8.1696923e-10      7.77665    27.739352      4.48985 
       1   -5854.6493 -0.063509297   -0.2602575 2.6101783e-07      7.77665    27.739352      4.48985 
       2   -5855.9881 0.0052519961  0.020690373 6.8619923e-08      7.77665    27.739352      4.48985 
       3   -5855.9953 0.00013400206 1.2268781e-05 -2.096042e-05      7.77665    27.739352      4.48985 
       4   -5855.9953 0.00012895714 -1.0091013e-06 -3.5380375e-07      7.77665    27.739352      4.48985 
       5   -5855.9953 0.00012943782 -5.1906384e-12 3.2919309e-13      7.77665    27.739352      4.48985 
Loop time of 0.317894 on 1 procs for 4 steps with 992 atoms

Minimization stats:
  Stopping criterion = force tolerance
  Energy initial, next-to-last, final = 
          -5851.036869     -5855.99526141     -5855.99526556
  Force two-norm initial, final = 10.1639 1.35149e-09
  Force max component initial, final = 1.27107 9.96034e-11
  Final line search alpha, max atom move = 0 0
  Iterations, force evaluations = 4 397

Pair  time (%) = 0.284619 (89.5328)
Neigh time (%) = 0 (0)
Comm  time (%) = 0.00885597 (2.78583)
Outpt time (%) = 0.00244117 (0.767919)
Other time (%) = 0.0219773 (6.91341)

Nlocal:    992 ave 992 max 992 min
Histogram: 1 0 0 0 0 0 0 0 0 0
Nghost:    2429 ave 2429 max 2429 min
Histogram: 1 0 0 0 0 0 0 0 0 0
Neighs:    26048 ave 26048 max 26048 min
Histogram: 1 0 0 0 0 0 0 0 0 0

Total # of neighbors = 26048
Ave neighs/atom = 26.2581
Neighbor list builds = 0
Dangerous builds = 0
        next i
jump SELF loop1
        read_dump orig.dump 0 x y z
  orthogonal box = (0 -13.75 0) to (7.77665 13.75 4.48985)
  992 atoms before read
  992 atoms in snapshot
  0 atoms purged
  992 atoms replaced
  0 atoms trimmed
  0 atoms added
  992 atoms after read
        variable stretch equal 1+$i*${strainstep}
        variable stretch equal 1+18*${strainstep}
        variable stretch equal 1+18*0.0005
        change_box all ${direction} scale ${stretch} remap
        change_box all y scale ${stretch} remap
        change_box all y scale 1.009 remap
  orthogonal box = (0 -13.8766 0) to (7.77665 13.8766 4.48985)
        min_style ${style}
        min_style hftn
        minimize ${etol} ${ftol} ${maxiter} ${maxeval}
        minimize 1e-12 ${ftol} ${maxiter} ${maxeval}
        minimize 1e-12 1e-08 ${maxiter} ${maxeval}
        minimize 1e-12 1e-08 10000 ${maxeval}
        minimize 1e-12 1e-08 10000 20000
WARNING: Resetting reneighboring criteria during minimization (../min.cpp:168)
Memory usage per processor = 4.9874 Mbytes
Step PotEng Pxx Pyy Pxy Lx Ly Lz 
       0   -5850.4558  -0.30085297   -1.2261798 8.0703437e-10      7.77665    27.753105      4.48985 
       1   -5854.4877 -0.064754357  -0.26597592 -5.006096e-08      7.77665    27.753105      4.48985 
       2   -5855.9873 0.0057251841  0.022571512 -4.9028171e-08      7.77665    27.753105      4.48985 
       3   -5855.9953 0.00014247725 4.5261127e-05 4.2565338e-08      7.77665    27.753105      4.48985 
       4   -5855.9953 0.00013071016 5.9597398e-06 -1.2403936e-07      7.77665    27.753105      4.48985 
       5   -5855.9953 0.0001293739 2.3636297e-10 2.1697627e-12      7.77665    27.753105      4.48985 
       6   -5855.9953 0.00012937368 -5.6185912e-15 2.1804546e-16      7.77665    27.753105      4.48985 
Loop time of 0.498794 on 1 procs for 5 steps with 992 atoms

Minimization stats:
  Stopping criterion = force tolerance
  Energy initial, next-to-last, final = 
        -5850.45576264     -5855.99526354     -5855.99526556
  Force two-norm initial, final = 10.7102 4.98659e-12
  Force max component initial, final = 1.33936 3.50064e-13
  Final line search alpha, max atom move = 0 0
  Iterations, force evaluations = 5 559

Pair  time (%) = 0.455651 (91.3505)
Neigh time (%) = 0 (0)
Comm  time (%) = 0.0145654 (2.92012)
Outpt time (%) = 0.00042902 (0.0860115)
Other time (%) = 0.028149 (5.64341)

Nlocal:    992 ave 992 max 992 min
Histogram: 1 0 0 0 0 0 0 0 0 0
Nghost:    2429 ave 2429 max 2429 min
Histogram: 1 0 0 0 0 0 0 0 0 0
Neighs:    26048 ave 26048 max 26048 min
Histogram: 1 0 0 0 0 0 0 0 0 0

Total # of neighbors = 26048
Ave neighs/atom = 26.2581
Neighbor list builds = 0
Dangerous builds = 0
        next i
jump SELF loop1
        read_dump orig.dump 0 x y z
  orthogonal box = (0 -13.75 0) to (7.77665 13.75 4.48985)
  992 atoms before read
  992 atoms in snapshot
  0 atoms purged
  992 atoms replaced
  0 atoms trimmed
  0 atoms added
  992 atoms after read
        variable stretch equal 1+$i*${strainstep}
        variable stretch equal 1+19*${strainstep}
        variable stretch equal 1+19*0.0005
        change_box all ${direction} scale ${stretch} remap
        change_box all y scale ${stretch} remap
        change_box all y scale 1.0095 remap
  orthogonal box = (0 -13.8834 0) to (7.77665 13.8834 4.48985)
        min_style ${style}
        min_style hftn
        minimize ${etol} ${ftol} ${maxiter} ${maxeval}
        minimize 1e-12 ${ftol} ${maxiter} ${maxeval}
        minimize 1e-12 1e-08 ${maxiter} ${maxeval}
        minimize 1e-12 1e-08 10000 ${maxeval}
        minimize 1e-12 1e-08 10000 20000
WARNING: Resetting reneighboring criteria during minimization (../min.cpp:168)
Memory usage per processor = 4.9874 Mbytes
Step PotEng Pxx Pyy Pxy Lx Ly Lz 
       0   -5849.8545  -0.31583718   -1.2885004 7.9722391e-10      7.77665    27.766858      4.48985 
       1   -5853.9154 -0.088291366  -0.36229323 -3.3406367e-07      7.77665    27.766858      4.48985 
       2   -5855.9837 0.0086549544  0.034166789 -2.9388066e-07      7.77665    27.766858      4.48985 
       3   -5855.9953 0.00014252939 1.0174324e-05 1.2906113e-05      7.77665    27.766858      4.48985 
       4   -5855.9953 0.00013042913 6.6349734e-07 5.8136072e-06      7.77665    27.766858      4.48985 
       5   -5855.9953 0.00012930975 6.570853e-10 7.3001193e-12      7.77665    27.766858      4.48985 
       6   -5855.9953 0.0001293096 3.2930937e-15 3.1658217e-16      7.77665    27.766858      4.48985 
Loop time of 0.416811 on 1 procs for 5 steps with 992 atoms

Minimization stats:
  Stopping criterion = force tolerance
  Energy initial, next-to-last, final = 
        -5849.85445098     -5855.99526533     -5855.99526556
  Force two-norm initial, final = 11.2542 5.25552e-12
  Force max component initial, final = 1.40736 3.29473e-13
  Final line search alpha, max atom move = 0 0
  Iterations, force evaluations = 5 521

Pair  time (%) = 0.370786 (88.9578)
Neigh time (%) = 0 (0)
Comm  time (%) = 0.0160627 (3.85371)
Outpt time (%) = 0.00339483 (0.814477)
Other time (%) = 0.0265675 (6.37398)

Nlocal:    992 ave 992 max 992 min
Histogram: 1 0 0 0 0 0 0 0 0 0
Nghost:    2429 ave 2429 max 2429 min
Histogram: 1 0 0 0 0 0 0 0 0 0
Neighs:    26048 ave 26048 max 26048 min
Histogram: 1 0 0 0 0 0 0 0 0 0

Total # of neighbors = 26048
Ave neighs/atom = 26.2581
Neighbor list builds = 0
Dangerous builds = 0
        next i
jump SELF loop1
        read_dump orig.dump 0 x y z
  orthogonal box = (0 -13.75 0) to (7.77665 13.75 4.48985)
  992 atoms before read
  992 atoms in snapshot
  0 atoms purged
  992 atoms replaced
  0 atoms trimmed
  0 atoms added
  992 atoms after read
        variable stretch equal 1+$i*${strainstep}
        variable stretch equal 1+20*${strainstep}
        variable stretch equal 1+20*0.0005
        change_box all ${direction} scale ${stretch} remap
        change_box all y scale ${stretch} remap
        change_box all y scale 1.01 remap
  orthogonal box = (0 -13.8903 0) to (7.77665 13.8903 4.48985)
        min_style ${style}
        min_style hftn
        minimize ${etol} ${ftol} ${maxiter} ${maxeval}
        minimize 1e-12 ${ftol} ${maxiter} ${maxeval}
        minimize 1e-12 1e-08 ${maxiter} ${maxeval}
        minimize 1e-12 1e-08 10000 ${maxeval}
        minimize 1e-12 1e-08 10000 20000
WARNING: Resetting reneighboring criteria during minimization (../min.cpp:168)
Memory usage per processor = 4.9874 Mbytes
Step PotEng Pxx Pyy Pxy Lx Ly Lz 
       0   -5849.2226   -0.3306812   -1.3503704 7.9816772e-10      7.77665     27.78061      4.48985 
       1   -5853.7056  -0.09360691  -0.38437082 -3.1192173e-07      7.77665     27.78061      4.48985 
       2   -5855.9828  0.008694379  0.034819998 2.3413208e-06      7.77665     27.78061      4.48985 
       3   -5855.9952 0.00015010702 0.00010343913 1.795462e-05      7.77665     27.78061      4.48985 
       4   -5855.9953 0.00013042079 6.8549392e-06 5.888982e-06      7.77665     27.78061      4.48985 
       5   -5855.9953 0.00012924616 3.3250677e-10 -3.9677316e-11      7.77665     27.78061      4.48985 
       6   -5855.9953 0.00012924559 -2.3700884e-14 -8.087207e-15      7.77665     27.78061      4.48985 
Loop time of 0.490203 on 1 procs for 5 steps with 992 atoms

Minimization stats:
  Stopping criterion = force tolerance
  Energy initial, next-to-last, final = 
        -5849.22257891     -5855.99526324     -5855.99526556
  Force two-norm initial, final = 11.7944 5.49678e-12
  Force max component initial, final = 1.47488 5.55985e-13
  Final line search alpha, max atom move = 0 0
  Iterations, force evaluations = 5 547

Pair  time (%) = 0.432808 (88.2916)
Neigh time (%) = 0 (0)
Comm  time (%) = 0.0185989 (3.79413)
Outpt time (%) = 0.00057785 (0.11788)
Other time (%) = 0.0382182 (7.7964)

Nlocal:    992 ave 992 max 992 min
Histogram: 1 0 0 0 0 0 0 0 0 0
Nghost:    2429 ave 2429 max 2429 min
Histogram: 1 0 0 0 0 0 0 0 0 0
Neighs:    26048 ave 26048 max 26048 min
Histogram: 1 0 0 0 0 0 0 0 0 0

Total # of neighbors = 26048
Ave neighs/atom = 26.2581
Neighbor list builds = 0
Dangerous builds = 0
        next i
jump SELF loop1
        read_dump orig.dump 0 x y z
  orthogonal box = (0 -13.75 0) to (7.77665 13.75 4.48985)
  992 atoms before read
  992 atoms in snapshot
  0 atoms purged
  992 atoms replaced
  0 atoms trimmed
  0 atoms added
  992 atoms after read
        variable stretch equal 1+$i*${strainstep}
        variable stretch equal 1+21*${strainstep}
        variable stretch equal 1+21*0.0005
        change_box all ${direction} scale ${stretch} remap
        change_box all y scale ${stretch} remap
        change_box all y scale 1.0105 remap
  orthogonal box = (0 -13.8972 0) to (7.77665 13.8972 4.48985)
        min_style ${style}
        min_style hftn
        minimize ${etol} ${ftol} ${maxiter} ${maxeval}
        minimize 1e-12 ${ftol} ${maxiter} ${maxeval}
        minimize 1e-12 1e-08 ${maxiter} ${maxeval}
        minimize 1e-12 1e-08 10000 ${maxeval}
        minimize 1e-12 1e-08 10000 20000
WARNING: Resetting reneighboring criteria during minimization (../min.cpp:168)
Memory usage per processor = 4.9874 Mbytes
Step PotEng Pxx Pyy Pxy Lx Ly Lz 
       0   -5848.5547  -0.34536042   -1.4116877 7.8841947e-10      7.77665    27.794363      4.48985 
       1   -5852.9828  -0.12043505  -0.49445499 -1.092226e-07      7.77665    27.794363      4.48985 
       2    -5855.975  0.012329203  0.048558106 -3.2574435e-05      7.77665     27.49085      4.48985 
       3   -5855.9951 0.0002559377 0.00051378002 4.121784e-05      7.77665     27.49085      4.48985 
       4   -5855.9953 0.00013072667 4.4058882e-07 2.2176164e-06      7.77665     27.49085      4.48985 
       5   -5855.9953 0.00013060786 1.6600702e-11 -6.9933521e-13      7.77665     27.49085      4.48985 
Loop time of 0.262958 on 1 procs for 4 steps with 992 atoms

Minimization stats:
  Stopping criterion = force tolerance
  Energy initial, next-to-last, final = 
        -5848.55467994     -5855.99509327     -5855.99526556
  Force two-norm initial, final = 12.3297 5.65672e-09
  Force max component initial, final = 1.54179 4.21944e-10
  Final line search alpha, max atom move = 0 0
  Iterations, force evaluations = 4 323

Pair  time (%) = 0.232873 (88.559)
Neigh time (%) = 0.001319 (0.5016)
Comm  time (%) = 0.0107754 (4.09778)
Outpt time (%) = 0.000293686 (0.111686)
Other time (%) = 0.0176969 (6.72993)

Nlocal:    992 ave 992 max 992 min
Histogram: 1 0 0 0 0 0 0 0 0 0
Nghost:    2429 ave 2429 max 2429 min
Histogram: 1 0 0 0 0 0 0 0 0 0
Neighs:    26048 ave 26048 max 26048 min
Histogram: 1 0 0 0 0 0 0 0 0 0

Total # of neighbors = 26048
Ave neighs/atom = 26.2581
Neighbor list builds = 1
Dangerous builds = 0
        next i
jump SELF loop1
        read_dump orig.dump 0 x y z
  orthogonal box = (0 -13.75 0) to (7.77665 13.75 4.48985)
  992 atoms before read
  992 atoms in snapshot
  0 atoms purged
  992 atoms replaced
  0 atoms trimmed
  0 atoms added
  992 atoms after read
        variable stretch equal 1+$i*${strainstep}
        variable stretch equal 1+22*${strainstep}
        variable stretch equal 1+22*0.0005
        change_box all ${direction} scale ${stretch} remap
        change_box all y scale ${stretch} remap
        change_box all y scale 1.011 remap
  orthogonal box = (0 -13.9041 0) to (7.77665 13.9041 4.48985)
        min_style ${style}
        min_style hftn
        minimize ${etol} ${ftol} ${maxiter} ${maxeval}
        minimize 1e-12 ${ftol} ${maxiter} ${maxeval}
        minimize 1e-12 1e-08 ${maxiter} ${maxeval}
        minimize 1e-12 1e-08 10000 ${maxeval}
        minimize 1e-12 1e-08 10000 20000
WARNING: Resetting reneighboring criteria during minimization (../min.cpp:168)
Memory usage per processor = 4.9874 Mbytes
Step PotEng Pxx Pyy Pxy Lx Ly Lz 
       0   -5847.8668  -0.35994601   -1.4727414 7.787961e-10      7.77665    27.808116      4.48985 
       1   -5852.1584  -0.14952527  -0.61400659 -2.0436658e-07      7.77665    27.808116      4.48985 
       2   -5855.9622  0.016553608  0.065254434 1.7269178e-09      7.77665     27.48765      4.48985 
       3   -5855.9951 0.00026892872 0.00058634918 4.9048992e-09      7.77665     27.48765      4.48985 
       4   -5855.9953 0.00013065272 3.601551e-07 1.7118991e-09      7.77665     27.48765      4.48985 
       5   -5855.9953 0.00013062309 2.7624034e-10 7.7184335e-10      7.77665     27.48765      4.48985 
       6   -5855.9953 0.00013062308 -1.4816446e-14 -2.7808667e-16      7.77665     27.48765      4.48985 
Loop time of 0.378093 on 1 procs for 5 steps with 992 atoms

Minimization stats:
  Stopping criterion = force tolerance
  Energy initial, next-to-last, final = 
         -5847.8668454     -5855.99526544     -5855.99526556
  Force two-norm initial, final = 12.8626 4.96848e-12
  Force max component initial, final = 1.60841 4.1184e-13
  Final line search alpha, max atom move = 0 0
  Iterations, force evaluations = 5 463

Pair  time (%) = 0.339509 (89.7951)
Neigh time (%) = 0.00123502 (0.326645)
Comm  time (%) = 0.0111624 (2.95229)
Outpt time (%) = 0.000358126 (0.094719)
Other time (%) = 0.0258285 (6.83126)

Nlocal:    992 ave 992 max 992 min
Histogram: 1 0 0 0 0 0 0 0 0 0
Nghost:    2429 ave 2429 max 2429 min
Histogram: 1 0 0 0 0 0 0 0 0 0
Neighs:    26048 ave 26048 max 26048 min
Histogram: 1 0 0 0 0 0 0 0 0 0

Total # of neighbors = 26048
Ave neighs/atom = 26.2581
Neighbor list builds = 1
Dangerous builds = 0
        next i
jump SELF loop1
        read_dump orig.dump 0 x y z
  orthogonal box = (0 -13.75 0) to (7.77665 13.75 4.48985)
  992 atoms before read
  992 atoms in snapshot
  0 atoms purged
  992 atoms replaced
  0 atoms trimmed
  0 atoms added
  992 atoms after read
        variable stretch equal 1+$i*${strainstep}
        variable stretch equal 1+23*${strainstep}
        variable stretch equal 1+23*0.0005
        change_box all ${direction} scale ${stretch} remap
        change_box all y scale ${stretch} remap
        change_box all y scale 1.0115 remap
  orthogonal box = (0 -13.9109 0) to (7.77665 13.9109 4.48985)
        min_style ${style}
        min_style hftn
        minimize ${etol} ${ftol} ${maxiter} ${maxeval}
        minimize 1e-12 ${ftol} ${maxiter} ${maxeval}
        minimize 1e-12 1e-08 ${maxiter} ${maxeval}
        minimize 1e-12 1e-08 10000 ${maxeval}
        minimize 1e-12 1e-08 10000 20000
WARNING: Resetting reneighboring criteria during minimization (../min.cpp:168)
Memory usage per processor = 4.9874 Mbytes
Step PotEng Pxx Pyy Pxy Lx Ly Lz 
       0   -5847.1428  -0.37436623   -1.5332367 7.797163e-10      7.77665    27.821869      4.48985 
       1   -5851.8221  -0.15661004  -0.64365087 2.1821514e-08      7.77665    27.821869      4.48985 
       2   -5855.9624  0.016432942  0.065057363 -1.0222354e-05      7.77665    27.487692      4.48985 
       3   -5855.9951 0.00027423721 0.00057118869 -6.4924724e-06      7.77665    27.487692      4.48985 
       4   -5855.9953 0.00013099267 1.7776311e-06 -5.6579234e-06      7.77665    27.487692      4.48985 
       5   -5855.9953 0.00013062287 -1.3297306e-11 -3.820026e-12      7.77665    27.487692      4.48985 
       6   -5855.9953 0.00013062287 4.9389546e-15 -2.5954661e-16      7.77665    27.487692      4.48985 
Loop time of 0.502158 on 1 procs for 5 steps with 992 atoms

Minimization stats:
  Stopping criterion = force tolerance
  Energy initial, next-to-last, final = 
        -5847.14276515     -5855.99526496     -5855.99526556
  Force two-norm initial, final = 13.3908 5.20255e-12
  Force max component initial, final = 1.67443 3.50065e-13
  Final line search alpha, max atom move = 0 0
  Iterations, force evaluations = 5 565

Pair  time (%) = 0.437698 (87.1633)
Neigh time (%) = 0.00099194 (0.197535)
Comm  time (%) = 0.0249306 (4.96468)
Outpt time (%) = 0.00515219 (1.02601)
Other time (%) = 0.0333858 (6.64847)

Nlocal:    992 ave 992 max 992 min
Histogram: 1 0 0 0 0 0 0 0 0 0
Nghost:    2429 ave 2429 max 2429 min
Histogram: 1 0 0 0 0 0 0 0 0 0
Neighs:    26048 ave 26048 max 26048 min
Histogram: 1 0 0 0 0 0 0 0 0 0

Total # of neighbors = 26048
Ave neighs/atom = 26.2581
Neighbor list builds = 1
Dangerous builds = 0
        next i
jump SELF loop1
        read_dump orig.dump 0 x y z
  orthogonal box = (0 -13.75 0) to (7.77665 13.75 4.48985)
  992 atoms before read
  992 atoms in snapshot
  0 atoms purged
  992 atoms replaced
  0 atoms trimmed
  0 atoms added
  992 atoms after read
        variable stretch equal 1+$i*${strainstep}
        variable stretch equal 1+24*${strainstep}
        variable stretch equal 1+24*0.0005
        change_box all ${direction} scale ${stretch} remap
        change_box all y scale ${stretch} remap
        change_box all y scale 1.012 remap
  orthogonal box = (0 -13.9178 0) to (7.77665 13.9178 4.48985)
        min_style ${style}
        min_style hftn
        minimize ${etol} ${ftol} ${maxiter} ${maxeval}
        minimize 1e-12 ${ftol} ${maxiter} ${maxeval}
        minimize 1e-12 1e-08 ${maxiter} ${maxeval}
        minimize 1e-12 1e-08 10000 ${maxeval}
        minimize 1e-12 1e-08 10000 20000
WARNING: Resetting reneighboring criteria during minimization (../min.cpp:168)
Memory usage per processor = 4.9874 Mbytes
Step PotEng Pxx Pyy Pxy Lx Ly Lz 
       0   -5846.3897  -0.38865307    -1.593303 7.7016795e-10      7.77665    27.835621      4.48985 
       1   -5851.4569  -0.16033658  -0.66000856 1.0860885e-09      7.77665    27.835621      4.48985 
       2    -5855.951  0.019035575  0.075451128 1.7991448e-10      7.77665    27.485709      4.48985 
       3   -5855.9951 0.00026146388 0.00052965113 3.3770779e-10      7.77665    27.485709      4.48985 
       4   -5855.9953 0.00013070506 2.389894e-07 3.0398911e-11      7.77665    27.485709      4.48985 
       5   -5855.9953 0.0001306323 1.6547336e-11 7.4193661e-12      7.77665    27.485709      4.48985 
Loop time of 0.20021 on 1 procs for 4 steps with 992 atoms

Minimization stats:
  Stopping criterion = force tolerance
  Energy initial, next-to-last, final = 
          -5846.389746     -5855.99508798     -5855.99526556
  Force two-norm initial, final = 13.9152 6.03525e-09
  Force max component initial, final = 1.73997 4.50262e-10
  Final line search alpha, max atom move = 0 0
  Iterations, force evaluations = 4 237

Pair  time (%) = 0.177039 (88.4268)
Neigh time (%) = 0.00128307 (0.64086)
Comm  time (%) = 0.0092142 (4.60227)
Outpt time (%) = 0.000253051 (0.126393)
Other time (%) = 0.0124205 (6.20373)

Nlocal:    992 ave 992 max 992 min
Histogram: 1 0 0 0 0 0 0 0 0 0
Nghost:    2429 ave 2429 max 2429 min
Histogram: 1 0 0 0 0 0 0 0 0 0
Neighs:    26048 ave 26048 max 26048 min
Histogram: 1 0 0 0 0 0 0 0 0 0

Total # of neighbors = 26048
Ave neighs/atom = 26.2581
Neighbor list builds = 1
Dangerous builds = 0
        next i
jump SELF loop1
        read_dump orig.dump 0 x y z
  orthogonal box = (0 -13.75 0) to (7.77665 13.75 4.48985)
  992 atoms before read
  992 atoms in snapshot
  0 atoms purged
  992 atoms replaced
  0 atoms trimmed
  0 atoms added
  992 atoms after read
        variable stretch equal 1+$i*${strainstep}
        variable stretch equal 1+25*${strainstep}
        variable stretch equal 1+25*0.0005
        change_box all ${direction} scale ${stretch} remap
        change_box all y scale ${stretch} remap
        change_box all y scale 1.0125 remap
  orthogonal box = (0 -13.9247 0) to (7.77665 13.9247 4.48985)
        min_style ${style}
        min_style hftn
        minimize ${etol} ${ftol} ${maxiter} ${maxeval}
        minimize 1e-12 ${ftol} ${maxiter} ${maxeval}
        minimize 1e-12 1e-08 ${maxiter} ${maxeval}
        minimize 1e-12 1e-08 10000 ${maxeval}
        minimize 1e-12 1e-08 10000 20000
WARNING: Resetting reneighboring criteria during minimization (../min.cpp:168)
Memory usage per processor = 4.9874 Mbytes
Step PotEng Pxx Pyy Pxy Lx Ly Lz 
       0   -5845.6171  -0.40284763   -1.6531072 7.6070269e-10      7.77665    27.849374      4.48985 
       1   -5850.3974  -0.19370625  -0.79761767 1.3167544e-07      7.77665    27.849374      4.48985 
       2   -5855.8502  0.010070989  0.039123825 1.894271e-07      7.77665    27.492996      4.48985 
       3   -5855.9945 0.00068752153  0.002257666 8.9617582e-06      7.77665    27.492996      4.48985 
       4   -5855.9952 0.00015597783 0.0001038323 1.1968953e-05      7.77665    27.492996      4.48985 
       5   -5855.9953 0.00013059518 -3.8979364e-09 3.1279278e-09      7.77665    27.492996      4.48985 
       6   -5855.9953 0.00013059767 -1.6585581e-12 5.6716167e-14      7.77665    27.492996      4.48985 
Loop time of 0.37365 on 1 procs for 5 steps with 992 atoms

Minimization stats:
  Stopping criterion = force tolerance
  Energy initial, next-to-last, final = 
        -5845.61705316     -5855.99523074     -5855.99526556
  Force two-norm initial, final = 14.4372 1.87914e-10
  Force max component initial, final = 1.80522 1.484e-11
  Final line search alpha, max atom move = 0 0
  Iterations, force evaluations = 5 457

Pair  time (%) = 0.337538 (90.3355)
Neigh time (%) = 0.00122901 (0.328921)
Comm  time (%) = 0.0111281 (2.97823)
Outpt time (%) = 0.000397926 (0.106497)
Other time (%) = 0.0233565 (6.2509)

Nlocal:    992 ave 992 max 992 min
Histogram: 1 0 0 0 0 0 0 0 0 0
Nghost:    2429 ave 2429 max 2429 min
Histogram: 1 0 0 0 0 0 0 0 0 0
Neighs:    26048 ave 26048 max 26048 min
Histogram: 1 0 0 0 0 0 0 0 0 0

Total # of neighbors = 26048
Ave neighs/atom = 26.2581
Neighbor list builds = 1
Dangerous builds = 0
        next i
jump SELF loop1
        read_dump orig.dump 0 x y z
  orthogonal box = (0 -13.75 0) to (7.77665 13.75 4.48985)
  992 atoms before read
  992 atoms in snapshot
  0 atoms purged
  992 atoms replaced
  0 atoms trimmed
  0 atoms added
  992 atoms after read
        variable stretch equal 1+$i*${strainstep}
        variable stretch equal 1+26*${strainstep}
        variable stretch equal 1+26*0.0005
        change_box all ${direction} scale ${stretch} remap
        change_box all y scale ${stretch} remap
        change_box all y scale 1.013 remap
  orthogonal box = (0 -13.9316 0) to (7.77665 13.9316 4.48985)
        min_style ${style}
        min_style hftn
        minimize ${etol} ${ftol} ${maxiter} ${maxeval}
        minimize 1e-12 ${ftol} ${maxiter} ${maxeval}
        minimize 1e-12 1e-08 ${maxiter} ${maxeval}
        minimize 1e-12 1e-08 10000 ${maxeval}
        minimize 1e-12 1e-08 10000 20000
WARNING: Resetting reneighboring criteria during minimization (../min.cpp:168)
Memory usage per processor = 4.9874 Mbytes
Step PotEng Pxx Pyy Pxy Lx Ly Lz 
       0   -5844.8029  -0.41685327   -1.7122515 7.6159833e-10      7.77665    27.863127      4.48985 
       1   -5849.9654  -0.20153448  -0.83058818 4.0862565e-11      7.77665    27.863127      4.48985 
       2   -5855.2311 -0.030772512  -0.12724129 7.9356318e-08      7.77665    27.526747      4.48985 
       3   -5855.9916 0.0029248655  0.011024542 1.4777599e-08      7.77665    27.526747      4.48985 
       4   -5855.9952 0.00014952731 6.7226188e-05 -2.5395096e-07      7.77665    27.526747      4.48985 
       5   -5855.9953 0.00013051637 9.5824652e-08 3.6221181e-08      7.77665    27.526747      4.48985 
       6   -5855.9953 0.00013043754 -3.0184642e-12 1.7072816e-12      7.77665    27.526747      4.48985 
Loop time of 0.291997 on 1 procs for 5 steps with 992 atoms

Minimization stats:
  Stopping criterion = force tolerance
  Energy initial, next-to-last, final = 
        -5844.80294503     -5855.99524299     -5855.99526556
  Force two-norm initial, final = 14.9536 1.12165e-09
  Force max component initial, final = 1.86977 1.01979e-10
  Final line search alpha, max atom move = 0 0
  Iterations, force evaluations = 5 356

Pair  time (%) = 0.260316 (89.1504)
Neigh time (%) = 0.00126103 (0.431864)
Comm  time (%) = 0.0126788 (4.34211)
Outpt time (%) = 0.000504044 (0.172619)
Other time (%) = 0.0172367 (5.90305)

Nlocal:    992 ave 992 max 992 min
Histogram: 1 0 0 0 0 0 0 0 0 0
Nghost:    2429 ave 2429 max 2429 min
Histogram: 1 0 0 0 0 0 0 0 0 0
Neighs:    26048 ave 26048 max 26048 min
Histogram: 1 0 0 0 0 0 0 0 0 0

Total # of neighbors = 26048
Ave neighs/atom = 26.2581
Neighbor list builds = 1
Dangerous builds = 0
        next i
jump SELF loop1
        read_dump orig.dump 0 x y z
  orthogonal box = (0 -13.75 0) to (7.77665 13.75 4.48985)
  992 atoms before read
  992 atoms in snapshot
  0 atoms purged
  992 atoms replaced
  0 atoms trimmed
  0 atoms added
  992 atoms after read
        variable stretch equal 1+$i*${strainstep}
        variable stretch equal 1+27*${strainstep}
        variable stretch equal 1+27*0.0005
        change_box all ${direction} scale ${stretch} remap
        change_box all y scale ${stretch} remap
        change_box all y scale 1.0135 remap
  orthogonal box = (0 -13.9384 0) to (7.77665 13.9384 4.48985)
        min_style ${style}
        min_style hftn
        minimize ${etol} ${ftol} ${maxiter} ${maxeval}
        minimize 1e-12 ${ftol} ${maxiter} ${maxeval}
        minimize 1e-12 1e-08 ${maxiter} ${maxeval}
        minimize 1e-12 1e-08 10000 ${maxeval}
        minimize 1e-12 1e-08 10000 20000
WARNING: Resetting reneighboring criteria during minimization (../min.cpp:168)
Memory usage per processor = 4.9874 Mbytes
Step PotEng Pxx Pyy Pxy Lx Ly Lz 
       0   -5843.9664  -0.43075465   -1.7710816 7.5224149e-10      7.77665     27.87688      4.48985 
       1   -5849.5054  -0.20599272  -0.85022838 -3.1896751e-09      7.77665     27.87688      4.48985 
       2   -5855.2453 -0.022818209  -0.09543702 -2.0822408e-05      7.77665    27.520587      4.48985 
       3   -5855.9916 0.0028822981  0.010915075 3.7447734e-05      7.77665    27.520587      4.48985 
       4   -5855.9953 0.00013618812 2.1673897e-05 -1.5372828e-05      7.77665    27.520587      4.48985 
       5   -5855.9953 0.00013040293 -2.4850825e-07 1.4727567e-06      7.77665    27.520587      4.48985 
       6   -5855.9953 0.00013046674 1.1850156e-12 -3.5933885e-13      7.77665    27.520587      4.48985 
Loop time of 0.37117 on 1 procs for 5 steps with 992 atoms

Minimization stats:
  Stopping criterion = force tolerance
  Energy initial, next-to-last, final = 
        -5843.96644728     -5855.99525828     -5855.99526556
  Force two-norm initial, final = 15.4672 4.54807e-10
  Force max component initial, final = 1.93396 3.01601e-11
  Final line search alpha, max atom move = 0 0
  Iterations, force evaluations = 5 390

Pair  time (%) = 0.327703 (88.2892)
Neigh time (%) = 0.0012701 (0.342188)
Comm  time (%) = 0.0171759 (4.62751)
Outpt time (%) = 0.00483406 (1.30239)
Other time (%) = 0.0201867 (5.43868)

Nlocal:    992 ave 992 max 992 min
Histogram: 1 0 0 0 0 0 0 0 0 0
Nghost:    2429 ave 2429 max 2429 min
Histogram: 1 0 0 0 0 0 0 0 0 0
Neighs:    26048 ave 26048 max 26048 min
Histogram: 1 0 0 0 0 0 0 0 0 0

Total # of neighbors = 26048
Ave neighs/atom = 26.2581
Neighbor list builds = 1
Dangerous builds = 0
        next i
jump SELF loop1
        read_dump orig.dump 0 x y z
  orthogonal box = (0 -13.75 0) to (7.77665 13.75 4.48985)
  992 atoms before read
  992 atoms in snapshot
  0 atoms purged
  992 atoms replaced
  0 atoms trimmed
  0 atoms added
  992 atoms after read
        variable stretch equal 1+$i*${strainstep}
        variable stretch equal 1+28*${strainstep}
        variable stretch equal 1+28*0.0005
        change_box all ${direction} scale ${stretch} remap
        change_box all y scale ${stretch} remap
        change_box all y scale 1.014 remap
  orthogonal box = (0 -13.9453 0) to (7.77665 13.9453 4.48985)
        min_style ${style}
        min_style hftn
        minimize ${etol} ${ftol} ${maxiter} ${maxeval}
        minimize 1e-12 ${ftol} ${maxiter} ${maxeval}
        minimize 1e-12 1e-08 ${maxiter} ${maxeval}
        minimize 1e-12 1e-08 10000 ${maxeval}
        minimize 1e-12 1e-08 10000 20000
WARNING: Resetting reneighboring criteria during minimization (../min.cpp:168)
Memory usage per processor = 4.9874 Mbytes
Step PotEng Pxx Pyy Pxy Lx Ly Lz 
       0   -5843.1079  -0.44455347   -1.8296033 7.5312681e-10      7.77665    27.890633      4.48985 
       1   -5848.2018  -0.24662939   -1.0178223 1.3931159e-07      7.77665    27.890633      4.48985 
       2   -5854.3642  -0.10348982  -0.42213899 -1.9796261e-06      7.77665    27.586189      4.48985 
       3   -5855.9869  0.006298498  0.024764985 -0.00011949131      7.77665    27.586189      4.48985 
       4   -5855.9953 0.00013497376 2.9103868e-05 3.169648e-05      7.77665    27.586189      4.48985 
       5   -5855.9953 0.00013159277 5.0665826e-06 -3.7549771e-06      7.77665    27.586189      4.48985 
       6   -5855.9953 0.00013015646 -2.7133108e-11 -3.0931666e-12      7.77665    27.586189      4.48985 
Loop time of 0.310979 on 1 procs for 5 steps with 992 atoms

[...]
Outpt time (%) = 0.00341101 (0.569077)
Other time (%) = 0.039063 (6.51708)

Nlocal:    992 ave 992 max 992 min
Histogram: 1 0 0 0 0 0 0 0 0 0
Nghost:    2429 ave 2429 max 2429 min
Histogram: 1 0 0 0 0 0 0 0 0 0
Neighs:    26048 ave 26048 max 26048 min
Histogram: 1 0 0 0 0 0 0 0 0 0

Total # of neighbors = 26048
Ave neighs/atom = 26.2581
Neighbor list builds = 3
Dangerous builds = 0
        next i
jump SELF loop1
        read_dump orig.dump 0 x y z
  orthogonal box = (0 -13.75 0) to (7.77665 13.75 4.48985)
  992 atoms before read
  992 atoms in snapshot
  0 atoms purged
  992 atoms replaced
  0 atoms trimmed
  0 atoms added
  992 atoms after read
        variable stretch equal 1+$i*${strainstep}
        variable stretch equal 1+96*${strainstep}
        variable stretch equal 1+96*0.0005
        change_box all ${direction} scale ${stretch} remap
        change_box all y scale ${stretch} remap
        change_box all y scale 1.048 remap
  orthogonal box = (0 -14.4129 0) to (7.77665 14.4129 4.48985)
        min_style ${style}
        min_style hftn
        minimize ${etol} ${ftol} ${maxiter} ${maxeval}
        minimize 1e-12 ${ftol} ${maxiter} ${maxeval}
        minimize 1e-12 1e-08 ${maxiter} ${maxeval}
        minimize 1e-12 1e-08 10000 ${maxeval}
        minimize 1e-12 1e-08 10000 20000
WARNING: Resetting reneighboring criteria during minimization (../min.cpp:168)
Memory usage per processor = 4.98781 Mbytes
Step PotEng Pxx Pyy Pxy Lx Ly Lz 
       0   -5728.4243   -1.1199371   -4.9226203 4.2758946e-10      7.77665    28.825821      4.48985 
       1   -5733.9624  -0.97942838   -4.3436819 1.5558163e-12      7.77665    28.825821      4.48985 
       2   -5751.7185  -0.88059044   -3.8858529 -2.7052162e-09      7.77665    28.825821      4.48985 
       3   -5765.8445  -0.91637764    -3.981274 -6.9367246e-06      7.77665    28.825821      4.48985 
       4   -5774.3785  -0.80337391   -3.5058788 -2.1301456e-07      7.77665    28.408614      4.48985 
       5   -5790.5213    -0.721262   -3.1212056 -6.3168489e-06      7.77665    28.408614      4.48985 
       6   -5804.5683  -0.56540349   -2.4646866 -0.00057094354      7.77665    28.408614      4.48985 
       7   -5817.1497    -0.604681   -2.5796205 -0.0004380697      7.77665    28.108477      4.48985 
       8   -5829.0981  -0.43444661   -1.8441799 0.00027682204      7.77665    28.108477      4.48985 
       9   -5839.2258   -0.4131097   -1.7271587 -0.00089090088      7.77665    28.108477      4.48985 
      10   -5847.3217  -0.22118603  -0.92196536 0.00070772539      7.77665    27.701868      4.48985 
      11   -5854.0432  -0.11384234  -0.46772199 -0.0017406146      7.77665    27.701868      4.48985 
      12   -5855.9839 0.0075812449  0.029759609 -0.0003829162      7.77665    27.701868      4.48985 
      13   -5855.9952 0.00017766874 0.00019233083 -5.4449706e-05      7.77665    27.701868      4.48985 
      14   -5855.9953 0.00012948778 -5.3244746e-07 -4.069782e-07      7.77665    27.701868      4.48985 
      15   -5855.9953 0.00012961296 -8.5890424e-12 -1.5349721e-11      7.77665    27.701868      4.48985 
Loop time of 0.50968 on 1 procs for 14 steps with 992 atoms

Minimization stats:
  Stopping criterion = force tolerance
  Energy initial, next-to-last, final = 
        -5728.42432556     -5855.99520057     -5855.99526556
  Force two-norm initial, final = 42.9806 8.12206e-09
  Force max component initial, final = 5.37293 5.63274e-10
  Final line search alpha, max atom move = 0 0
  Iterations, force evaluations = 14 545

Pair  time (%) = 0.426258 (83.6324)
Neigh time (%) = 0.00316993 (0.621945)
Comm  time (%) = 0.0518684 (10.1767)
Outpt time (%) = 0.00128929 (0.252961)
Other time (%) = 0.0270945 (5.31599)

Nlocal:    992 ave 992 max 992 min
Histogram: 1 0 0 0 0 0 0 0 0 0
Nghost:    2429 ave 2429 max 2429 min
Histogram: 1 0 0 0 0 0 0 0 0 0
Neighs:    26048 ave 26048 max 26048 min
Histogram: 1 0 0 0 0 0 0 0 0 0

Total # of neighbors = 26048
Ave neighs/atom = 26.2581
Neighbor list builds = 3
Dangerous builds = 0
        next i
jump SELF loop1
        read_dump orig.dump 0 x y z
  orthogonal box = (0 -13.75 0) to (7.77665 13.75 4.48985)
  992 atoms before read
  992 atoms in snapshot
  0 atoms purged
  992 atoms replaced
  0 atoms trimmed
  0 atoms added
  992 atoms after read
        variable stretch equal 1+$i*${strainstep}
        variable stretch equal 1+97*${strainstep}
        variable stretch equal 1+97*0.0005
        change_box all ${direction} scale ${stretch} remap
        change_box all y scale ${stretch} remap
        change_box all y scale 1.0485 remap
  orthogonal box = (0 -14.4198 0) to (7.77665 14.4198 4.48985)
        min_style ${style}
        min_style hftn
        minimize ${etol} ${ftol} ${maxiter} ${maxeval}
        minimize 1e-12 ${ftol} ${maxiter} ${maxeval}
        minimize 1e-12 1e-08 ${maxiter} ${maxeval}
        minimize 1e-12 1e-08 10000 ${maxeval}
        minimize 1e-12 1e-08 10000 20000
WARNING: Resetting reneighboring criteria during minimization (../min.cpp:168)
Memory usage per processor = 4.98781 Mbytes
Step PotEng Pxx Pyy Pxy Lx Ly Lz 
       0   -5726.0517   -1.1266041   -4.9566474 4.2805908e-10      7.77665    28.839574      4.48985 
       1   -5731.7733  -0.98599654   -4.3767077 1.6816919e-12      7.77665    28.839574      4.48985 
       2   -5749.9026  -0.88717146   -3.9177122 -3.6851658e-09      7.77665    28.839574      4.48985 
       3   -5764.1199  -0.92265737   -4.0118199 6.9600341e-06      7.77665    28.839574      4.48985 
       4   -5772.8437  -0.80878682   -3.5326915 -2.9152658e-05      7.77665    28.418575      4.48985 
       5   -5789.5772  -0.72642224    -3.148133 -7.6972642e-05      7.77665    28.418575      4.48985 
       6   -5803.2739  -0.57769175   -2.5115692 -0.00075948936      7.77665    28.418575      4.48985 
       7   -5815.6602  -0.61561964   -2.6226187 -0.00030910536      7.77665    28.121639      4.48985 
       8   -5826.4354   -0.4461172   -1.9045694 2.6513498e-05      7.77665    28.121639      4.48985 
       9   -5837.5687  -0.42660833   -1.7825372 -0.00060846273      7.77665    28.121639      4.48985 
      10   -5843.7241  -0.32704654   -1.3616542 -0.00018803426      7.77665    27.800033      4.48985 
      11   -5850.3546  -0.23358781  -0.95977284 -0.0003434062      7.77665    27.800033      4.48985 
      12    -5855.225 -0.020847755 -0.091772193 -0.00023984414      7.77665    27.525508      4.48985 
      13   -5855.9922 0.0024151341 0.0088704584 -0.000197927      7.77665    27.525508      4.48985 
      14   -5855.9953 0.00013421107 1.3663501e-05 -1.0886234e-05      7.77665    27.525508      4.48985 
      15   -5855.9953 0.00013043494 -2.0990498e-08 -5.2165278e-09      7.77665    27.525508      4.48985 
      16   -5855.9953 0.00013044342 -6.4318035e-13 -1.4256584e-13      7.77665    27.525508      4.48985 
Loop time of 0.539902 on 1 procs for 15 steps with 992 atoms

Minimization stats:
  Stopping criterion = force tolerance
  Energy initial, next-to-last, final = 
        -5726.05167727     -5855.99526097     -5855.99526556
  Force two-norm initial, final = 43.2777 9.19154e-11
  Force max component initial, final = 5.41006 1.036e-11
  Final line search alpha, max atom move = 0 0
  Iterations, force evaluations = 15 651

Pair  time (%) = 0.476066 (88.1765)
Neigh time (%) = 0.00617689 (1.14408)
Comm  time (%) = 0.0210496 (3.89878)
Outpt time (%) = 0.00373416 (0.691636)
Other time (%) = 0.0328748 (6.08904)

Nlocal:    992 ave 992 max 992 min
Histogram: 1 0 0 0 0 0 0 0 0 0
Nghost:    2429 ave 2429 max 2429 min
Histogram: 1 0 0 0 0 0 0 0 0 0
Neighs:    26048 ave 26048 max 26048 min
Histogram: 1 0 0 0 0 0 0 0 0 0

Total # of neighbors = 26048
Ave neighs/atom = 26.2581
Neighbor list builds = 4
Dangerous builds = 0
        next i
jump SELF loop1
        read_dump orig.dump 0 x y z
  orthogonal box = (0 -13.75 0) to (7.77665 13.75 4.48985)
  992 atoms before read
  992 atoms in snapshot
  0 atoms purged
  992 atoms replaced
  0 atoms trimmed
  0 atoms added
  992 atoms after read
        variable stretch equal 1+$i*${strainstep}
        variable stretch equal 1+98*${strainstep}
        variable stretch equal 1+98*0.0005
        change_box all ${direction} scale ${stretch} remap
        change_box all y scale ${stretch} remap
        change_box all y scale 1.049 remap
  orthogonal box = (0 -14.4267 0) to (7.77665 14.4267 4.48985)
        min_style ${style}
        min_style hftn
        minimize ${etol} ${ftol} ${maxiter} ${maxeval}
        minimize 1e-12 ${ftol} ${maxiter} ${maxeval}
        minimize 1e-12 1e-08 ${maxiter} ${maxeval}
        minimize 1e-12 1e-08 10000 ${maxeval}
        minimize 1e-12 1e-08 10000 20000
WARNING: Resetting reneighboring criteria during minimization (../min.cpp:168)
Memory usage per processor = 4.98781 Mbytes
Step PotEng Pxx Pyy Pxy Lx Ly Lz 
       0   -5723.6618   -1.1331867   -4.9903615 4.2204639e-10      7.77665    28.853327      4.48985 
       1   -5729.2762  -0.98889176   -4.3963384 9.2338322e-12      7.77665    28.853327      4.48985 
       2   -5747.8787  -0.88856043   -3.9296662 -4.833245e-10      7.77665    28.853327      4.48985 
       3   -5762.3402  -0.92924335    -4.043751 -9.7333846e-11      7.77665    28.853327      4.48985 
       4   -5771.2784  -0.80867351   -3.5371262 -7.7863068e-10      7.77665    28.423347      4.48985 
       5   -5788.6374   -0.7372772   -3.1891599 1.060143e-06      7.77665    28.423347      4.48985 
       6   -5799.7956  -0.63973754   -2.7636018 -9.9184202e-07      7.77665    28.423347      4.48985 
       7   -5816.4829  -0.56978405   -2.4445226 0.00023444558      7.77665    28.083202      4.48985 
       8   -5826.9336  -0.51764677   -2.1855713 -2.3170446e-06      7.77665    28.083202      4.48985 
       9   -5835.8485  -0.42184177   -1.7891267 0.00021456751      7.77665    28.083202      4.48985 
      10   -5844.7511  -0.23338658  -0.99343581 -0.00072535782      7.77665    27.725398      4.48985 
      11   -5852.1448  -0.15440634  -0.63720161 -0.00045654709      7.77665    27.725398      4.48985 
      12   -5855.9602  0.015645739  0.060480484 0.00040529841      7.77665    27.725398      4.48985 
      13   -5855.9951 0.00021780901 0.00037597582 -5.4767249e-05      7.77665    27.725398      4.48985 
      14   -5855.9953 0.00012941998 -2.6921566e-07 8.3890102e-06      7.77665    27.725398      4.48985 
      15   -5855.9953 0.00012941998 -2.6921566e-07 8.3890102e-06      7.77665    27.725398      4.48985 
      16   -5855.9953 0.00012941998 -2.6921566e-07 8.3890102e-06      7.77665    27.725398      4.48985 
      17   -5855.9953 0.00012944376 -2.7520793e-07 8.2075769e-06      7.77665    27.725398      4.48985 
Loop time of 0.538947 on 1 procs for 16 steps with 992 atoms

Minimization stats:
  Stopping criterion = energy tolerance
  Energy initial, next-to-last, final = 
        -5723.66179007     -5855.99513841     -5855.99526565
  Force two-norm initial, final = 43.572 0.000100996
  Force max component initial, final = 5.44685 7.09672e-06
  Final line search alpha, max atom move = 0 0
  Iterations, force evaluations = 16 551

Pair  time (%) = 0.459612 (85.2796)
Neigh time (%) = 0.00526097 (0.976157)
Comm  time (%) = 0.0379884 (7.04864)
Outpt time (%) = 0.00811857 (1.50638)
Other time (%) = 0.0279673 (5.18925)

Nlocal:    992 ave 992 max 992 min
Histogram: 1 0 0 0 0 0 0 0 0 0
Nghost:    2429 ave 2429 max 2429 min
Histogram: 1 0 0 0 0 0 0 0 0 0
Neighs:    26048 ave 26048 max 26048 min
Histogram: 1 0 0 0 0 0 0 0 0 0

Total # of neighbors = 26048
Ave neighs/atom = 26.2581
Neighbor list builds = 3
Dangerous builds = 0
        next i
jump SELF loop1
        read_dump orig.dump 0 x y z
  orthogonal box = (0 -13.75 0) to (7.77665 13.75 4.48985)
  992 atoms before read
  992 atoms in snapshot
  0 atoms purged
  992 atoms replaced
  0 atoms trimmed
  0 atoms added
  992 atoms after read
        variable stretch equal 1+$i*${strainstep}
        variable stretch equal 1+99*${strainstep}
        variable stretch equal 1+99*0.0005
        change_box all ${direction} scale ${stretch} remap
        change_box all y scale ${stretch} remap
        change_box all y scale 1.0495 remap
  orthogonal box = (0 -14.4335 0) to (7.77665 14.4335 4.48985)
        min_style ${style}
        min_style hftn
        minimize ${etol} ${ftol} ${maxiter} ${maxeval}
        minimize 1e-12 ${ftol} ${maxiter} ${maxeval}
        minimize 1e-12 1e-08 ${maxiter} ${maxeval}
        minimize 1e-12 1e-08 10000 ${maxeval}
        minimize 1e-12 1e-08 10000 20000
WARNING: Resetting reneighboring criteria during minimization (../min.cpp:168)
Memory usage per processor = 4.98781 Mbytes
Step PotEng Pxx Pyy Pxy Lx Ly Lz 
       0   -5721.2597   -1.1397104    -5.023873 4.1607962e-10      7.77665     28.86708      4.48985 
       1   -5726.7467  -0.99158652   -4.4152963 1.6853052e-11      7.77665     28.86708      4.48985 
       2   -5736.1175   -1.0532099   -4.6274317 -7.7693489e-11      7.77665     28.86708      4.48985 
       3   -5742.1708   -1.0361492    -4.539192 2.0713449e-09      7.77665     28.86708      4.48985 
       4   -5750.4262  -0.89050964   -3.9312083 1.3682406e-07      7.77665     28.86708      4.48985 
       5   -5759.4957  -0.93060015   -4.0615969 9.3544235e-06      7.77665    28.564216      4.48985 
       6   -5767.0795  -0.86961506   -3.7927687 -5.0577074e-05      7.77665    28.564216      4.48985 
       7   -5778.6497   -0.7399014   -3.2577608 0.00040307453      7.77665    28.564216      4.48985 
       8   -5793.4361  -0.74502507   -3.2169368 0.0012298213      7.77665    28.564216      4.48985 
       9   -5805.5203  -0.58688677   -2.5513276 -6.5088926e-05      7.77665    28.133811      4.48985 
      10   -5816.0035  -0.63356378   -2.6964956 0.0013752693      7.77665    28.133811      4.48985 
      11    -5826.916  -0.45362387   -1.9304594 -0.00077254612      7.77665    28.133811      4.48985 
      12   -5835.9519  -0.42776324   -1.8033777 0.00071700418      7.77665    28.133811      4.48985 
      13   -5843.4215  -0.30570906   -1.2772102 0.00023061057      7.77665    27.782687      4.48985 
      14   -5851.0541  -0.21554075  -0.88294038 9.3724413e-05      7.77665    27.782687      4.48985 
      15   -5855.5405 0.00059272728 -0.0079525711 0.0062059208      7.77665    27.504583      4.48985 
      16   -5855.9932  0.001892529 0.0061320594 0.00013669639      7.77665    27.504583      4.48985 
      17   -5855.9953 0.00013303942 3.2181584e-06 5.3065965e-05      7.77665    27.504583      4.48985 
      18   -5855.9953 0.00013054157 1.7403827e-10 3.1946186e-10      7.77665    27.504583      4.48985 
      19   -5855.9953 0.00013054266 -2.1603908e-13 -4.4697894e-14      7.77665    27.504583      4.48985 
Loop time of 0.587718 on 1 procs for 18 steps with 992 atoms

Minimization stats:
  Stopping criterion = force tolerance
  Energy initial, next-to-last, final = 
        -5721.25968944     -5855.99526448     -5855.99526556
  Force two-norm initial, final = 43.8646 2.88863e-11
  Force max component initial, final = 5.48341 2.80738e-12
  Final line search alpha, max atom move = 0 0
  Iterations, force evaluations = 18 682

Pair  time (%) = 0.503084 (85.5996)
Neigh time (%) = 0.0078448 (1.33479)
Comm  time (%) = 0.03442 (5.85655)
Outpt time (%) = 0.00135736 (0.230954)
Other time (%) = 0.0410118 (6.97815)

Nlocal:    992 ave 992 max 992 min
Histogram: 1 0 0 0 0 0 0 0 0 0
Nghost:    2429 ave 2429 max 2429 min
Histogram: 1 0 0 0 0 0 0 0 0 0
Neighs:    26048 ave 26048 max 26048 min
Histogram: 1 0 0 0 0 0 0 0 0 0

Total # of neighbors = 26048
Ave neighs/atom = 26.2581
Neighbor list builds = 4
Dangerous builds = 0
        next i
jump SELF loop1
        read_dump orig.dump 0 x y z
  orthogonal box = (0 -13.75 0) to (7.77665 13.75 4.48985)
  992 atoms before read
  992 atoms in snapshot
  0 atoms purged
  992 atoms replaced
  0 atoms trimmed
  0 atoms added
  992 atoms after read
        variable stretch equal 1+$i*${strainstep}
        variable stretch equal 1+100*${strainstep}
        variable stretch equal 1+100*0.0005
        change_box all ${direction} scale ${stretch} remap
        change_box all y scale ${stretch} remap
        change_box all y scale 1.05 remap
  orthogonal box = (0 -14.4404 0) to (7.77665 14.4404 4.48985)
        min_style ${style}
        min_style hftn
        minimize ${etol} ${ftol} ${maxiter} ${maxeval}
        minimize 1e-12 ${ftol} ${maxiter} ${maxeval}
        minimize 1e-12 1e-08 ${maxiter} ${maxeval}
        minimize 1e-12 1e-08 10000 ${maxeval}
        minimize 1e-12 1e-08 10000 20000
WARNING: Resetting reneighboring criteria during minimization (../min.cpp:168)
Memory usage per processor = 4.98781 Mbytes
Step PotEng Pxx Pyy Pxy Lx Ly Lz 
       0   -5718.8383   -1.1461386   -5.0570204 4.1653504e-10      7.77665    28.880833      4.48985 
       1   -5724.5152  -0.99795521   -4.4475776 1.6979934e-11      7.77665    28.880833      4.48985 
       2   -5733.9199   -1.0596151   -4.6598417 -7.6190532e-11      7.77665    28.880833      4.48985 
       3   -5740.0949   -1.0427719   -4.5721264 -3.6892673e-11      7.77665    28.880833      4.48985 
       4   -5749.4192  -0.90233943   -3.9808513 7.7757419e-08      7.77665    28.880833      4.48985 
       5   -5773.0095   -0.8390096   -3.6497532 -6.8632938e-06      7.77665    28.443438      4.48985 
       6   -5780.6858   -0.7679862   -3.3411595 1.1526231e-05      7.77665    28.443438      4.48985 
       7   -5796.5353  -0.73935743   -3.1761492 2.2749751e-05      7.77665    28.443438      4.48985 
       8   -5806.0121  -0.58486372   -2.5369188 -0.00074147151      7.77665    28.131388      4.48985 
       9   -5817.1951  -0.59471517   -2.5499205 -4.4296577e-05      7.77665    28.131388      4.48985 
      10   -5830.7374  -0.41118166    -1.745339 -0.0014832433      7.77665    28.131388      4.48985 
      11   -5841.1268  -0.38606601   -1.6193836 -0.00054954146      7.77665    27.855621      4.48985 
      12   -5846.6528  -0.29601144   -1.2260314 -0.00053968745      7.77665    27.855621      4.48985 
      13   -5852.0261   -0.1902601  -0.77857551 -0.00045593194      7.77665    27.855621      4.48985 
      14   -5855.9541  0.016093982  0.063186323 -0.00042961638      7.77665    27.488582      4.48985 
      15   -5855.9951 0.0002520148 0.00047243899 -0.00011722494      7.77665    27.488582      4.48985 
      16   -5855.9953 0.00013049775 -6.0625546e-07 1.7431824e-06      7.77665    27.488582      4.48985 
      17   -5855.9953 0.00013049775 -6.0625546e-07 1.7431824e-06      7.77665    27.488582      4.48985 
      18   -5855.9953 0.00013033111 -9.7183004e-07 1.2852657e-06      7.77665    27.488582      4.48985 
      19   -5855.9953 0.00013033111 -9.7183004e-07 1.2852657e-06      7.77665    27.488582      4.48985 
      20   -5855.9953 0.00013033111 -9.7183004e-07 1.2852657e-06      7.77665    27.488582      4.48985 
      21   -5855.9953 0.00013033492 -9.7641427e-07 1.2621735e-06      7.77665    27.488582      4.48985 
Loop time of 0.546109 on 1 procs for 20 steps with 992 atoms

Minimization stats:
  Stopping criterion = energy tolerance
  Energy initial, next-to-last, final = 
        -5718.83827499     -5855.99526576     -5855.99526589
  Force two-norm initial, final = 44.154 0.000108568
  Force max component initial, final = 5.51959 6.95592e-06
  Final line search alpha, max atom move = 0 0
  Iterations, force evaluations = 20 559

Pair  time (%) = 0.472474 (86.5164)
Neigh time (%) = 0.00786197 (1.43963)
Comm  time (%) = 0.0243239 (4.45404)
Outpt time (%) = 0.0121117 (2.21782)
Other time (%) = 0.0293374 (5.37207)

Nlocal:    992 ave 992 max 992 min
Histogram: 1 0 0 0 0 0 0 0 0 0
Nghost:    2429 ave 2429 max 2429 min
Histogram: 1 0 0 0 0 0 0 0 0 0
Neighs:    26048 ave 26048 max 26048 min
Histogram: 1 0 0 0 0 0 0 0 0 0

Total # of neighbors = 26048
Ave neighs/atom = 26.2581
Neighbor list builds = 4
Dangerous builds = 0
        next i
jump SELF loop1

