LAMMPS (28 Jun 2014)
# attempt at getting tensile strain-stress curve for infinite slab

#file prefix
variable prefix string tension_V_brittle_twin
variable dumpfile string ${prefix}.*.dump
variable dumpfile string tension_V_brittle_twin.*.dump
variable restartfile string ${prefix}.*.equil
variable restartfile string tension_V_brittle_twin.*.equil

#Mass (g/mol)
variable m equal 1

# lattice constant (in Angstroms) and orientation of axes (given by lattice vectors)
variable rho equal 1.0
variable x1 equal 1
variable x2 equal 1
variable x3 equal -2
variable y1 equal 1
variable y2 equal 1
variable y3 equal 1
variable z1 equal 1
variable z2 equal -1
variable z3 equal 0
# length of lattice in different directions (using orientation of lattice vectors)
variable ax equal sqrt(${x1}*${x1}+${x2}*${x2}+${x3}*${x3})
variable ax equal sqrt(1*${x1}+${x2}*${x2}+${x3}*${x3})
variable ax equal sqrt(1*1+${x2}*${x2}+${x3}*${x3})
variable ax equal sqrt(1*1+1*${x2}+${x3}*${x3})
variable ax equal sqrt(1*1+1*1+${x3}*${x3})
variable ax equal sqrt(1*1+1*1+-2*${x3})
variable ax equal sqrt(1*1+1*1+-2*-2)
variable ay equal sqrt(${y1}*${y1}+${y2}*${y2}+${y3}*${y3})
variable ay equal sqrt(1*${y1}+${y2}*${y2}+${y3}*${y3})
variable ay equal sqrt(1*1+${y2}*${y2}+${y3}*${y3})
variable ay equal sqrt(1*1+1*${y2}+${y3}*${y3})
variable ay equal sqrt(1*1+1*1+${y3}*${y3})
variable ay equal sqrt(1*1+1*1+1*${y3})
variable ay equal sqrt(1*1+1*1+1*1)
variable az equal sqrt(${z1}*${z1}+${z2}*${z2}+${z3}*${z3})
variable az equal sqrt(1*${z1}+${z2}*${z2}+${z3}*${z3})
variable az equal sqrt(1*1+${z2}*${z2}+${z3}*${z3})
variable az equal sqrt(1*1+-1*${z2}+${z3}*${z3})
variable az equal sqrt(1*1+-1*-1+${z3}*${z3})
variable az equal sqrt(1*1+-1*-1+0*${z3})
variable az equal sqrt(1*1+-1*-1+0*0)

# size of box in lattice units
variable lxpos equal 2
variable lxneg equal 0
variable lypos equal 10
variable lyneg equal 0
variable lzpos equal 2
variable lzneg equal 0

# Define minimization parameters and damping
variable etol equal 1.0e-12
variable ftol equal 1.0e-8
variable maxiter equal 10000
variable maxeval equal 20000
variable style string hftn

# boundary conditions
dimension	3
boundary	p s p
atom_style	atomic

# create geometry
units		lj
lattice         fcc ${rho} orient x 1 1 -2 orient y 1 1 1 orient z 1 -1 0 spacing ${ax} ${ay} ${az}
lattice         fcc 1 orient x 1 1 -2 orient y 1 1 1 orient z 1 -1 0 spacing ${ax} ${ay} ${az}
lattice         fcc 1 orient x 1 1 -2 orient y 1 1 1 orient z 1 -1 0 spacing 2.44948974278318 ${ay} ${az}
lattice         fcc 1 orient x 1 1 -2 orient y 1 1 1 orient z 1 -1 0 spacing 2.44948974278318 1.73205080756888 ${az}
lattice         fcc 1 orient x 1 1 -2 orient y 1 1 1 orient z 1 -1 0 spacing 2.44948974278318 1.73205080756888 1.4142135623731
Lattice spacing in x,y,z = 3.88832 2.74946 2.24492
region		myregion block ${lxneg} ${lxpos} ${lyneg} ${lypos} ${lzneg} ${lzpos} units lattice
region		myregion block 0 ${lxpos} ${lyneg} ${lypos} ${lzneg} ${lzpos} units lattice
region		myregion block 0 2 ${lyneg} ${lypos} ${lzneg} ${lzpos} units lattice
region		myregion block 0 2 0 ${lypos} ${lzneg} ${lzpos} units lattice
region		myregion block 0 2 0 10 ${lzneg} ${lzpos} units lattice
region		myregion block 0 2 0 10 0 ${lzpos} units lattice
region		myregion block 0 2 0 10 0 2 units lattice
create_box	1 myregion
Created orthogonal box = (0 0 0) to (7.77665 27.4946 4.48985)
  1 by 1 by 1 MPI processor grid

region		upper block INF INF 0.01 INF INF INF
create_atoms	1 region upper
Created 960 atoms

region		lower block INF INF INF 0.01 INF INF
lattice         fcc ${rho} orient x 1 1 -2 orient y -1 -1 -1 orient z -1 1 0 spacing ${ax} ${ay} ${az}
lattice         fcc 1 orient x 1 1 -2 orient y -1 -1 -1 orient z -1 1 0 spacing ${ax} ${ay} ${az}
lattice         fcc 1 orient x 1 1 -2 orient y -1 -1 -1 orient z -1 1 0 spacing 2.44948974278318 ${ay} ${az}
lattice         fcc 1 orient x 1 1 -2 orient y -1 -1 -1 orient z -1 1 0 spacing 2.44948974278318 1.73205080756888 ${az}
lattice         fcc 1 orient x 1 1 -2 orient y -1 -1 -1 orient z -1 1 0 spacing 2.44948974278318 1.73205080756888 1.4142135623731
Lattice spacing in x,y,z = 3.88832 2.74946 2.24492
create_atoms	1 region lower
Created 32 atoms

# define masses
mass * $m
mass * 1

# my fake/morse potential
pair_style      table linear 3001
pair_coeff      * * vpotential_ductile3d dummy
neighbor	0.3 bin
neigh_modify	delay 5

# Setup output
thermo 1
thermo_style custom step pe pxx pyy pxy lx ly lz
thermo_modify norm no

# Compute initial state by relaxing box
min_style ${style}
min_style hftn
minimize ${etol} ${ftol} ${maxiter} ${maxeval}
minimize 1e-12 ${ftol} ${maxiter} ${maxeval}
minimize 1e-12 1e-08 ${maxiter} ${maxeval}
minimize 1e-12 1e-08 10000 ${maxeval}
minimize 1e-12 1e-08 10000 20000
WARNING: Resetting reneighboring criteria during minimization (../min.cpp:168)
Memory usage per processor = 4.98699 Mbytes
Step PotEng Pxx Pyy Pxy Lx Ly Lz 
       0   -5855.9951 0.00029659795 0.00028936385 3.318139e-14    7.7766452    27.500092    4.4898482 
       1   -5855.9952 0.00022425677 -8.559568e-10 1.3902632e-14    7.7766452    27.500092    4.4898482 
Loop time of 0.027837 on 1 procs for 0 steps with 992 atoms

Minimization stats:
  Stopping criterion = force tolerance
  Energy initial, next-to-last, final = 
         -5855.9951306      -5855.9951306     -5855.99522767
  Force two-norm initial, final = 0.00252636 7.90482e-09
  Force max component initial, final = 0.000315795 1.00409e-09
  Final line search alpha, max atom move = 0 0
  Iterations, force evaluations = 0 33

Pair  time (%) = 0.0257355 (92.4508)
Neigh time (%) = 0 (0)
Comm  time (%) = 0.000467822 (1.68058)
Outpt time (%) = 0 (0)
Other time (%) = 0.00163366 (5.86866)

Nlocal:    992 ave 992 max 992 min
Histogram: 1 0 0 0 0 0 0 0 0 0
Nghost:    2429 ave 2429 max 2429 min
Histogram: 1 0 0 0 0 0 0 0 0 0
Neighs:    26016 ave 26016 max 26016 min
Histogram: 1 0 0 0 0 0 0 0 0 0

Total # of neighbors = 26016
Ave neighs/atom = 26.2258
Neighbor list builds = 0
Dangerous builds = 0
reset_timestep 0
write_dump all atom orig.dump

# Energy curve will have nstep steps
variable strainmax equal 0.05
variable strainstep equal 0.0005
variable nsteps equal round(${strainmax}/${strainstep})
variable nsteps equal round(0.05/${strainstep})
variable nsteps equal round(0.05/0.0005)
variable direction string y

variable i loop ${nsteps}
variable i loop 100
label loop1
        read_dump orig.dump 0 x y z
  orthogonal box = (0 -0.00277788 0) to (7.77665 27.4973 4.48985)
  992 atoms before read
  992 atoms in snapshot
  0 atoms purged
  992 atoms replaced
  0 atoms trimmed
  0 atoms added
  992 atoms after read
        variable stretch equal 1+$i*${strainstep}
        variable stretch equal 1+1*${strainstep}
        variable stretch equal 1+1*0.0005
        change_box all ${direction} scale ${stretch} remap
        change_box all y scale ${stretch} remap
        change_box all y scale 1.0005 remap
  orthogonal box = (0 -0.0124043 0) to (7.77665 27.507 4.48985)
        min_style ${style}
        min_style hftn
        minimize ${etol} ${ftol} ${maxiter} ${maxeval}
        minimize 1e-12 ${ftol} ${maxiter} ${maxeval}
        minimize 1e-12 1e-08 ${maxiter} ${maxeval}
        minimize 1e-12 1e-08 10000 ${maxeval}
        minimize 1e-12 1e-08 10000 20000
WARNING: Resetting reneighboring criteria during minimization (../min.cpp:168)
Memory usage per processor = 4.98699 Mbytes
Step PotEng Pxx Pyy Pxy Lx Ly Lz 
       0    -5855.958 -0.024495134 -0.098636595 -2.6919012e-06      7.77665    27.519357      4.48985 
       1   -5855.9953 0.00012469943 -1.9995302e-05 -2.1901178e-06      7.77665    27.519357      4.48985 
       2   -5855.9953 0.00012469943 -1.9995302e-05 -2.1901178e-06      7.77665    27.519357      4.48985 
       3   -5855.9953 0.00012469943 -1.9995302e-05 -2.1901178e-06      7.77665    27.519357      4.48985 
       4   -5855.9953 0.00012469943 -1.9995302e-05 -2.1901178e-06      7.77665    27.519357      4.48985 
       5   -5855.9953 0.00012470405 -1.9983091e-05 -2.1856684e-06      7.77665    27.519357      4.48985 
Loop time of 0.0854019 on 1 procs for 4 steps with 992 atoms

Minimization stats:
  Stopping criterion = energy tolerance
  Energy initial, next-to-last, final = 
        -5855.95803841     -5855.95803841     -5855.99527227
  Force two-norm initial, final = 0.871734 0.0105023
  Force max component initial, final = 0.108967 0.00102992
  Final line search alpha, max atom move = 0 0
  Iterations, force evaluations = 4 103

Pair  time (%) = 0.0763407 (89.39)
Neigh time (%) = 0 (0)
Comm  time (%) = 0.00405566 (4.74891)
Outpt time (%) = 0.000264936 (0.310222)
Other time (%) = 0.00474058 (5.55091)

Nlocal:    992 ave 992 max 992 min
Histogram: 1 0 0 0 0 0 0 0 0 0
Nghost:    2429 ave 2429 max 2429 min
Histogram: 1 0 0 0 0 0 0 0 0 0
Neighs:    26016 ave 26016 max 26016 min
Histogram: 1 0 0 0 0 0 0 0 0 0

Total # of neighbors = 26016
Ave neighs/atom = 26.2258
Neighbor list builds = 0
Dangerous builds = 0
        next i
jump SELF loop1
        read_dump orig.dump 0 x y z
  orthogonal box = (0 -0.00277788 0) to (7.77665 27.4973 4.48985)
  992 atoms before read
  992 atoms in snapshot
  0 atoms purged
  992 atoms replaced
  0 atoms trimmed
  0 atoms added
  992 atoms after read
        variable stretch equal 1+$i*${strainstep}
        variable stretch equal 1+2*${strainstep}
        variable stretch equal 1+2*0.0005
        change_box all ${direction} scale ${stretch} remap
        change_box all y scale ${stretch} remap
        change_box all y scale 1.001 remap
  orthogonal box = (0 -0.0192807 0) to (7.77665 27.5138 4.48985)
        min_style ${style}
        min_style hftn
        minimize ${etol} ${ftol} ${maxiter} ${maxeval}
        minimize 1e-12 ${ftol} ${maxiter} ${maxeval}
        minimize 1e-12 1e-08 ${maxiter} ${maxeval}
        minimize 1e-12 1e-08 10000 ${maxeval}
        minimize 1e-12 1e-08 10000 20000
WARNING: Resetting reneighboring criteria during minimization (../min.cpp:168)
Memory usage per processor = 4.98699 Mbytes
Step PotEng Pxx Pyy Pxy Lx Ly Lz 
       0   -5855.8894  -0.04192604  -0.16862606 -2.6565638e-06      7.77665     27.53311      4.48985 
       1   -5855.9948 0.00047056002 0.0013637081 -2.2066286e-06      7.77665     27.53311      4.48985 
       2   -5855.9953 0.00012980198 3.0750301e-08 -1.7341275e-06      7.77665     27.53311      4.48985 
       3   -5855.9953 0.00013040739 -3.6739203e-11 3.9542155e-13      7.77665     27.53311      4.48985 
Loop time of 0.179052 on 1 procs for 2 steps with 992 atoms

Minimization stats:
  Stopping criterion = force tolerance
  Energy initial, next-to-last, final = 
         -5855.8893984     -5855.99480756     -5855.99526556
  Force two-norm initial, final = 1.48033 6.13191e-09
  Force max component initial, final = 0.185335 4.44026e-10
  Final line search alpha, max atom move = 0 0
  Iterations, force evaluations = 2 223

Pair  time (%) = 0.163028 (91.0507)
Neigh time (%) = 0 (0)
Comm  time (%) = 0.00464511 (2.59428)
Outpt time (%) = 0.000156834 (0.0875914)
Other time (%) = 0.011222 (6.26747)

Nlocal:    992 ave 992 max 992 min
Histogram: 1 0 0 0 0 0 0 0 0 0
Nghost:    2429 ave 2429 max 2429 min
Histogram: 1 0 0 0 0 0 0 0 0 0
Neighs:    26016 ave 26016 max 26016 min
Histogram: 1 0 0 0 0 0 0 0 0 0

Total # of neighbors = 26016
Ave neighs/atom = 26.2258
Neighbor list builds = 0
Dangerous builds = 0
        next i
jump SELF loop1
        read_dump orig.dump 0 x y z
  orthogonal box = (0 -0.00277788 0) to (7.77665 27.4973 4.48985)
  992 atoms before read
  992 atoms in snapshot
  0 atoms purged
  992 atoms replaced
  0 atoms trimmed
  0 atoms added
  992 atoms after read
        variable stretch equal 1+$i*${strainstep}
        variable stretch equal 1+3*${strainstep}
        variable stretch equal 1+3*0.0005
        change_box all ${direction} scale ${stretch} remap
        change_box all y scale ${stretch} remap
        change_box all y scale 1.0015 remap
  orthogonal box = (0 -0.0261571 0) to (7.77665 27.5207 4.48985)
        min_style ${style}
        min_style hftn
        minimize ${etol} ${ftol} ${maxiter} ${maxeval}
        minimize 1e-12 ${ftol} ${maxiter} ${maxeval}
        minimize 1e-12 1e-08 ${maxiter} ${maxeval}
        minimize 1e-12 1e-08 10000 ${maxeval}
        minimize 1e-12 1e-08 10000 20000
WARNING: Resetting reneighboring criteria during minimization (../min.cpp:168)
Memory usage per processor = 4.98699 Mbytes
Step PotEng Pxx Pyy Pxy Lx Ly Lz 
       0   -5855.7987 -0.059252763  -0.23833711 -2.6216874e-06      7.77665    27.546863      4.48985 
       1   -5855.9939 0.0011678712 0.0041530256 -2.2223006e-06      7.77665    27.546863      4.48985 
       2   -5855.9953 0.00012954543 -1.649321e-07 -2.1372668e-06      7.77665    27.546863      4.48985 
       3   -5855.9953 0.00012954543 -1.649321e-07 -2.1372668e-06      7.77665    27.546863      4.48985 
       4   -5855.9953 0.00012954543 -1.649321e-07 -2.1372668e-06      7.77665    27.546863      4.48985 
       5   -5855.9953 0.00012955619 -1.5623586e-07 -2.1129678e-06      7.77665    27.546863      4.48985 
Loop time of 0.181219 on 1 procs for 4 steps with 992 atoms

Minimization stats:
  Stopping criterion = energy tolerance
  Energy initial, next-to-last, final = 
        -5855.79865829     -5855.99387003     -5855.99526561
  Force two-norm initial, final = 2.0879 0.000427632
  Force max component initial, final = 0.261399 2.4434e-05
  Final line search alpha, max atom move = 0 0
  Iterations, force evaluations = 4 223

Pair  time (%) = 0.165379 (91.2592)
Neigh time (%) = 0 (0)
Comm  time (%) = 0.00392001 (2.16313)
Outpt time (%) = 0.000387044 (0.213578)
Other time (%) = 0.011533 (6.36412)

Nlocal:    992 ave 992 max 992 min
Histogram: 1 0 0 0 0 0 0 0 0 0
Nghost:    2429 ave 2429 max 2429 min
Histogram: 1 0 0 0 0 0 0 0 0 0
Neighs:    26016 ave 26016 max 26016 min
Histogram: 1 0 0 0 0 0 0 0 0 0

Total # of neighbors = 26016
Ave neighs/atom = 26.2258
Neighbor list builds = 0
Dangerous builds = 0
        next i
jump SELF loop1
        read_dump orig.dump 0 x y z
  orthogonal box = (0 -0.00277788 0) to (7.77665 27.4973 4.48985)
  992 atoms before read
  992 atoms in snapshot
  0 atoms purged
  992 atoms replaced
  0 atoms trimmed
  0 atoms added
  992 atoms after read
        variable stretch equal 1+$i*${strainstep}
        variable stretch equal 1+4*${strainstep}
        variable stretch equal 1+4*0.0005
        change_box all ${direction} scale ${stretch} remap
        change_box all y scale ${stretch} remap
        change_box all y scale 1.002 remap
  orthogonal box = (0 -0.0330335 0) to (7.77665 27.5276 4.48985)
        min_style ${style}
        min_style hftn
        minimize ${etol} ${ftol} ${maxiter} ${maxeval}
        minimize 1e-12 ${ftol} ${maxiter} ${maxeval}
        minimize 1e-12 1e-08 ${maxiter} ${maxeval}
        minimize 1e-12 1e-08 10000 ${maxeval}
        minimize 1e-12 1e-08 10000 20000
WARNING: Resetting reneighboring criteria during minimization (../min.cpp:168)
Memory usage per processor = 4.98699 Mbytes
Step PotEng Pxx Pyy Pxy Lx Ly Lz 
       0   -5855.6623 -0.076373724  -0.30736042 -2.6216864e-06      7.77665    27.560616      4.48985 
       1    -5855.994 0.0010621072 0.0037302924 -2.2341386e-06      7.77665    27.560616      4.48985 
       2   -5855.9953 0.00012949249 -1.2851589e-07 -2.1287742e-06      7.77665    27.560616      4.48985 
       3   -5855.9953 0.00012949249 -1.2851589e-07 -2.1287742e-06      7.77665    27.560616      4.48985 
       4   -5855.9953 0.00012949249 -1.2851589e-07 -2.1287742e-06      7.77665    27.560616      4.48985 
       5   -5855.9953 0.00012950336 -1.1921972e-07 -2.1045952e-06      7.77665    27.560616      4.48985 
Loop time of 0.165575 on 1 procs for 4 steps with 992 atoms

Minimization stats:
  Stopping criterion = energy tolerance
  Energy initial, next-to-last, final = 
        -5855.66230356     -5855.99401146      -5855.9952656
  Force two-norm initial, final = 2.69004 0.000419171
  Force max component initial, final = 0.336729 2.30383e-05
  Final line search alpha, max atom move = 0 0
  Iterations, force evaluations = 4 205

Pair  time (%) = 0.151445 (91.4661)
Neigh time (%) = 0 (0)
Comm  time (%) = 0.0038335 (2.31527)
Outpt time (%) = 0.000398842 (0.240883)
Other time (%) = 0.00989769 (5.97776)

Nlocal:    992 ave 992 max 992 min
Histogram: 1 0 0 0 0 0 0 0 0 0
Nghost:    2429 ave 2429 max 2429 min
Histogram: 1 0 0 0 0 0 0 0 0 0
Neighs:    26016 ave 26016 max 26016 min
Histogram: 1 0 0 0 0 0 0 0 0 0

Total # of neighbors = 26016
Ave neighs/atom = 26.2258
Neighbor list builds = 0
Dangerous builds = 0
        next i
jump SELF loop1
        read_dump orig.dump 0 x y z
  orthogonal box = (0 -0.00277788 0) to (7.77665 27.4973 4.48985)
  992 atoms before read
  992 atoms in snapshot
  0 atoms purged
  992 atoms replaced
  0 atoms trimmed
  0 atoms added
  992 atoms after read
        variable stretch equal 1+$i*${strainstep}
        variable stretch equal 1+5*${strainstep}
        variable stretch equal 1+5*0.0005
        change_box all ${direction} scale ${stretch} remap
        change_box all y scale ${stretch} remap
        change_box all y scale 1.0025 remap
  orthogonal box = (0 -0.0399099 0) to (7.77665 27.5345 4.48985)
        min_style ${style}
        min_style hftn
        minimize ${etol} ${ftol} ${maxiter} ${maxeval}
        minimize 1e-12 ${ftol} ${maxiter} ${maxeval}
        minimize 1e-12 1e-08 ${maxiter} ${maxeval}
        minimize 1e-12 1e-08 10000 ${maxeval}
        minimize 1e-12 1e-08 10000 20000
WARNING: Resetting reneighboring criteria during minimization (../min.cpp:168)
Memory usage per processor = 4.98699 Mbytes
Step PotEng Pxx Pyy Pxy Lx Ly Lz 
       0   -5855.4971 -0.093361364  -0.37598507 -2.5871332e-06      7.77665    27.574368      4.48985 
       1   -5855.9926 0.0020897949 0.0078406667 -2.2500514e-06      7.77665    27.574368      4.48985 
       2   -5855.9953 0.00012923158 -5.8445557e-07 -2.3605568e-06      7.77665    27.574368      4.48985 
       3   -5855.9953 0.00012923158 -5.8445557e-07 -2.3605568e-06      7.77665    27.574368      4.48985 
       4   -5855.9953 0.00012923158 -5.8445557e-07 -2.3605568e-06      7.77665    27.574368      4.48985 
       5   -5855.9953 0.00012924121 -5.7867116e-07 -2.3374112e-06      7.77665    27.574368      4.48985 
Loop time of 0.177113 on 1 procs for 4 steps with 992 atoms

Minimization stats:
  Stopping criterion = energy tolerance
  Energy initial, next-to-last, final = 
        -5855.49713151     -5855.99262811     -5855.99526575
  Force two-norm initial, final = 3.28878 0.000906071
  Force max component initial, final = 0.411608 7.16886e-05
  Final line search alpha, max atom move = 0 0
  Iterations, force evaluations = 4 217

Pair  time (%) = 0.161384 (91.1192)
Neigh time (%) = 0 (0)
Comm  time (%) = 0.0039417 (2.22553)
Outpt time (%) = 0.000332302 (0.187622)
Other time (%) = 0.0114551 (6.46767)

Nlocal:    992 ave 992 max 992 min
Histogram: 1 0 0 0 0 0 0 0 0 0
Nghost:    2429 ave 2429 max 2429 min
Histogram: 1 0 0 0 0 0 0 0 0 0
Neighs:    26016 ave 26016 max 26016 min
Histogram: 1 0 0 0 0 0 0 0 0 0

Total # of neighbors = 26016
Ave neighs/atom = 26.2258
Neighbor list builds = 0
Dangerous builds = 0
        next i
jump SELF loop1
        read_dump orig.dump 0 x y z
  orthogonal box = (0 -0.00277788 0) to (7.77665 27.4973 4.48985)
  992 atoms before read
  992 atoms in snapshot
  0 atoms purged
  992 atoms replaced
  0 atoms trimmed
  0 atoms added
  992 atoms after read
        variable stretch equal 1+$i*${strainstep}
        variable stretch equal 1+6*${strainstep}
        variable stretch equal 1+6*0.0005
        change_box all ${direction} scale ${stretch} remap
        change_box all y scale ${stretch} remap
        change_box all y scale 1.003 remap
  orthogonal box = (0 -0.0467863 0) to (7.77665 27.5413 4.48985)
        min_style ${style}
        min_style hftn
        minimize ${etol} ${ftol} ${maxiter} ${maxeval}
        minimize 1e-12 ${ftol} ${maxiter} ${maxeval}
        minimize 1e-12 1e-08 ${maxiter} ${maxeval}
        minimize 1e-12 1e-08 10000 ${maxeval}
        minimize 1e-12 1e-08 10000 20000
WARNING: Resetting reneighboring criteria during minimization (../min.cpp:168)
Memory usage per processor = 4.98699 Mbytes
Step PotEng Pxx Pyy Pxy Lx Ly Lz 
       0   -5855.3085  -0.11023932  -0.44430461 -2.5871322e-06      7.77665    27.588121      4.48985 
       1   -5855.9928 0.0019294861 0.0071998415 -2.2619254e-06      7.77665    27.588121      4.48985 
       2   -5855.9953 0.00012919492 -4.787886e-07 -2.3553797e-06      7.77665    27.588121      4.48985 
       3   -5855.9953 0.00012919492 -4.787886e-07 -2.3553797e-06      7.77665    27.588121      4.48985 
       4   -5855.9953 0.00012919492 -4.787886e-07 -2.3553797e-06      7.77665    27.588121      4.48985 
       5   -5855.9953 0.00012920443 -4.7351434e-07 -2.3321952e-06      7.77665    27.588121      4.48985 
Loop time of 0.172736 on 1 procs for 4 steps with 992 atoms

Minimization stats:
  Stopping criterion = energy tolerance
  Energy initial, next-to-last, final = 
        -5855.30853888     -5855.99284248     -5855.99526572
  Force two-norm initial, final = 3.88506 0.000898126
  Force max component initial, final = 0.48617 7.01374e-05
  Final line search alpha, max atom move = 0 0
  Iterations, force evaluations = 4 217

Pair  time (%) = 0.154636 (89.5218)
Neigh time (%) = 0 (0)
Comm  time (%) = 0.005341 (3.092)
Outpt time (%) = 0.000319337 (0.18487)
Other time (%) = 0.0124393 (7.20134)

Nlocal:    992 ave 992 max 992 min
Histogram: 1 0 0 0 0 0 0 0 0 0
Nghost:    2429 ave 2429 max 2429 min
Histogram: 1 0 0 0 0 0 0 0 0 0
Neighs:    26016 ave 26016 max 26016 min
Histogram: 1 0 0 0 0 0 0 0 0 0

Total # of neighbors = 26016
Ave neighs/atom = 26.2258
Neighbor list builds = 0
Dangerous builds = 0
        next i
jump SELF loop1
        read_dump orig.dump 0 x y z
  orthogonal box = (0 -0.00277788 0) to (7.77665 27.4973 4.48985)
  992 atoms before read
  992 atoms in snapshot
  0 atoms purged
  992 atoms replaced
  0 atoms trimmed
  0 atoms added
  992 atoms after read
        variable stretch equal 1+$i*${strainstep}
        variable stretch equal 1+7*${strainstep}
        variable stretch equal 1+7*0.0005
        change_box all ${direction} scale ${stretch} remap
        change_box all y scale ${stretch} remap
        change_box all y scale 1.0035 remap
  orthogonal box = (0 -0.0536627 0) to (7.77665 27.5482 4.48985)
        min_style ${style}
        min_style hftn
        minimize ${etol} ${ftol} ${maxiter} ${maxeval}
        minimize 1e-12 ${ftol} ${maxiter} ${maxeval}
        minimize 1e-12 1e-08 ${maxiter} ${maxeval}
        minimize 1e-12 1e-08 10000 ${maxeval}
        minimize 1e-12 1e-08 10000 20000
WARNING: Resetting reneighboring criteria during minimization (../min.cpp:168)
Memory usage per processor = 4.9874 Mbytes
Step PotEng Pxx Pyy Pxy Lx Ly Lz 
       0     -5855.07  -0.12689241  -0.51185377 -2.5529961e-06      7.77665    27.601874      4.48985 
       1    -5855.991 0.0032880394  0.012632834 -2.2782999e-06      7.77665    27.601874      4.48985 
       2   -5855.9953 0.00012890759 -5.8426106e-07 -2.9100768e-06      7.77665    27.601874      4.48985 
       3   -5855.9953 0.00012890759 -5.8426106e-07 -2.9100768e-06      7.77665    27.601874      4.48985 
       4   -5855.9953 0.00012890759 -5.8426106e-07 -2.9100768e-06      7.77665    27.601874      4.48985 
       5   -5855.9953 0.00012891845 -5.702687e-07 -2.889247e-06      7.77665    27.601874      4.48985 
Loop time of 0.138244 on 1 procs for 4 steps with 992 atoms

Minimization stats:
  Stopping criterion = energy tolerance
  Energy initial, next-to-last, final = 
        -5855.06998489     -5855.99101159     -5855.99526575
  Force two-norm initial, final = 4.47458 0.00491243
  Force max component initial, final = 0.559875 0.000336079
  Final line search alpha, max atom move = 0 0
  Iterations, force evaluations = 4 167

Pair  time (%) = 0.122395 (88.5354)
Neigh time (%) = 0 (0)
Comm  time (%) = 0.00666479 (4.82104)
Outpt time (%) = 0.000299789 (0.216855)
Other time (%) = 0.00888449 (6.42667)

Nlocal:    992 ave 992 max 992 min
Histogram: 1 0 0 0 0 0 0 0 0 0
Nghost:    2429 ave 2429 max 2429 min
Histogram: 1 0 0 0 0 0 0 0 0 0
Neighs:    26016 ave 26016 max 26016 min
Histogram: 1 0 0 0 0 0 0 0 0 0

Total # of neighbors = 26016
Ave neighs/atom = 26.2258
Neighbor list builds = 0
Dangerous builds = 0
        next i
jump SELF loop1
        read_dump orig.dump 0 x y z
  orthogonal box = (0 -0.00277788 0) to (7.77665 27.4973 4.48985)
  992 atoms before read
  992 atoms in snapshot
  0 atoms purged
  992 atoms replaced
  0 atoms trimmed
  0 atoms added
  992 atoms after read
        variable stretch equal 1+$i*${strainstep}
        variable stretch equal 1+8*${strainstep}
        variable stretch equal 1+8*0.0005
        change_box all ${direction} scale ${stretch} remap
        change_box all y scale ${stretch} remap
        change_box all y scale 1.004 remap
  orthogonal box = (0 -0.0605391 0) to (7.77665 27.5551 4.48985)
        min_style ${style}
        min_style hftn
        minimize ${etol} ${ftol} ${maxiter} ${maxeval}
        minimize 1e-12 ${ftol} ${maxiter} ${maxeval}
        minimize 1e-12 1e-08 ${maxiter} ${maxeval}
        minimize 1e-12 1e-08 10000 ${maxeval}
        minimize 1e-12 1e-08 10000 20000
WARNING: Resetting reneighboring criteria during minimization (../min.cpp:168)
Memory usage per processor = 4.9874 Mbytes
Step PotEng Pxx Pyy Pxy Lx Ly Lz 
       0     -5854.81  -0.14344474  -0.57913049 -2.5192531e-06      7.77665    27.615627      4.48985 
       1   -5855.9887 0.0050107351  0.019520796 -2.2953541e-06      7.77665    27.615627      4.48985 
       2   -5855.9953 0.00012816984 -3.2770654e-06 -2.9094426e-06      7.77665    27.615627      4.48985 
       3   -5855.9953 0.00012816984 -3.2770654e-06 -2.9094426e-06      7.77665    27.615627      4.48985 
       4   -5855.9953 0.00012816984 -3.2770654e-06 -2.9094426e-06      7.77665    27.615627      4.48985 
       5   -5855.9953 0.00012816984 -3.2770654e-06 -2.9094426e-06      7.77665    27.615627      4.48985 
       6   -5855.9953 0.00012817265 -3.2726456e-06 -2.9046211e-06      7.77665    27.615627      4.48985 
Loop time of 0.12495 on 1 procs for 5 steps with 992 atoms

Minimization stats:
  Stopping criterion = energy tolerance
  Energy initial, next-to-last, final = 
        -5854.81002888     -5855.98868822     -5855.99526666
  Force two-norm initial, final = 5.06176 0.00558626
  Force max component initial, final = 0.633283 0.000407147
  Final line search alpha, max atom move = 0 0
  Iterations, force evaluations = 5 150

Pair  time (%) = 0.110031 (88.0601)
Neigh time (%) = 0 (0)
Comm  time (%) = 0.00644986 (5.16196)
Outpt time (%) = 0.000982895 (0.786632)
Other time (%) = 0.00748608 (5.99127)

Nlocal:    992 ave 992 max 992 min
Histogram: 1 0 0 0 0 0 0 0 0 0
Nghost:    2429 ave 2429 max 2429 min
Histogram: 1 0 0 0 0 0 0 0 0 0
Neighs:    26016 ave 26016 max 26016 min
Histogram: 1 0 0 0 0 0 0 0 0 0

Total # of neighbors = 26016
Ave neighs/atom = 26.2258
Neighbor list builds = 0
Dangerous builds = 0
        next i
jump SELF loop1
        read_dump orig.dump 0 x y z
  orthogonal box = (0 -0.00277788 0) to (7.77665 27.4973 4.48985)
  992 atoms before read
  992 atoms in snapshot
  0 atoms purged
  992 atoms replaced
  0 atoms trimmed
  0 atoms added
  992 atoms after read
        variable stretch equal 1+$i*${strainstep}
        variable stretch equal 1+9*${strainstep}
        variable stretch equal 1+9*0.0005
        change_box all ${direction} scale ${stretch} remap
        change_box all y scale ${stretch} remap
        change_box all y scale 1.0045 remap
  orthogonal box = (0 -0.0674155 0) to (7.77665 27.562 4.48985)
        min_style ${style}
        min_style hftn
        minimize ${etol} ${ftol} ${maxiter} ${maxeval}
        minimize 1e-12 ${ftol} ${maxiter} ${maxeval}
        minimize 1e-12 1e-08 ${maxiter} ${maxeval}
        minimize 1e-12 1e-08 10000 ${maxeval}
        minimize 1e-12 1e-08 10000 20000
WARNING: Resetting reneighboring criteria during minimization (../min.cpp:168)
Memory usage per processor = 4.9874 Mbytes
Step PotEng Pxx Pyy Pxy Lx Ly Lz 
       0   -5854.5189  -0.15985381  -0.64596198 -2.5192521e-06      7.77665     27.62938      4.48985 
       1    -5855.989    0.0047662  0.018543451 -2.3072685e-06      7.77665     27.62938      4.48985 
       2   -5855.9953 0.00012821176 -2.8566032e-06 -2.9051331e-06      7.77665     27.62938      4.48985 
       3   -5855.9953 0.00012821176 -2.8566032e-06 -2.9051331e-06      7.77665     27.62938      4.48985 
       4   -5855.9953 0.00012821176 -2.8566032e-06 -2.9051331e-06      7.77665     27.62938      4.48985 
       5   -5855.9953 0.0001282229 -2.8392133e-06 -2.8858994e-06      7.77665     27.62938      4.48985 
Loop time of 0.119186 on 1 procs for 4 steps with 992 atoms

Minimization stats:
  Stopping criterion = energy tolerance
  Energy initial, next-to-last, final = 
        -5854.51885187     -5855.98901451     -5855.99526652
  Force two-norm initial, final = 5.64517 0.00518159
  Force max component initial, final = 0.706221 0.000378653
  Final line search alpha, max atom move = 0 0
  Iterations, force evaluations = 4 143

Pair  time (%) = 0.107575 (90.2581)
Neigh time (%) = 0 (0)
Comm  time (%) = 0.00314527 (2.63895)
Outpt time (%) = 0.000423047 (0.354947)
Other time (%) = 0.00804267 (6.748)

Nlocal:    992 ave 992 max 992 min
Histogram: 1 0 0 0 0 0 0 0 0 0
Nghost:    2429 ave 2429 max 2429 min
Histogram: 1 0 0 0 0 0 0 0 0 0
Neighs:    26016 ave 26016 max 26016 min
Histogram: 1 0 0 0 0 0 0 0 0 0

Total # of neighbors = 26016
Ave neighs/atom = 26.2258
Neighbor list builds = 0
Dangerous builds = 0
        next i
jump SELF loop1
        read_dump orig.dump 0 x y z
  orthogonal box = (0 -0.00277788 0) to (7.77665 27.4973 4.48985)
  992 atoms before read
  992 atoms in snapshot
  0 atoms purged
  992 atoms replaced
  0 atoms trimmed
  0 atoms added
  992 atoms after read
        variable stretch equal 1+$i*${strainstep}
        variable stretch equal 1+10*${strainstep}
        variable stretch equal 1+10*0.0005
        change_box all ${direction} scale ${stretch} remap
        change_box all y scale ${stretch} remap
        change_box all y scale 1.005 remap
  orthogonal box = (0 -0.0742919 0) to (7.77665 27.5688 4.48985)
        min_style ${style}
        min_style hftn
        minimize ${etol} ${ftol} ${maxiter} ${maxeval}
        minimize 1e-12 ${ftol} ${maxiter} ${maxeval}
        minimize 1e-12 1e-08 ${maxiter} ${maxeval}
        minimize 1e-12 1e-08 10000 ${maxeval}
        minimize 1e-12 1e-08 10000 20000
WARNING: Resetting reneighboring criteria during minimization (../min.cpp:168)
Memory usage per processor = 4.9874 Mbytes
Step PotEng Pxx Pyy Pxy Lx Ly Lz 
       0    -5854.187    -0.176078  -0.71217854 -2.4858112e-06      7.77665    27.643132      4.48985 
       1   -5855.9862 0.0068334095  0.026807307 -2.3250473e-06      7.77665    27.643132      4.48985 
       2   -5855.9953 0.00012710118 -7.0426044e-06 -2.9035216e-06      7.77665    27.643132      4.48985 
       3   -5855.9953 0.00012710118 -7.0426044e-06 -2.9035216e-06      7.77665    27.643132      4.48985 
       4   -5855.9953 0.00012710118 -7.0426044e-06 -2.9035216e-06      7.77665    27.643132      4.48985 
       5   -5855.9953 0.00012710118 -7.0426044e-06 -2.9035216e-06      7.77665    27.643132      4.48985 
       6   -5855.9953 0.00012710345 -7.0381412e-06 -2.9002621e-06      7.77665    27.643132      4.48985 
Loop time of 0.124462 on 1 procs for 5 steps with 992 atoms

Minimization stats:
  Stopping criterion = energy tolerance
  Energy initial, next-to-last, final = 
        -5854.18700125     -5855.98622318     -5855.99526793
  Force two-norm initial, final = 6.22315 0.00584708
  Force max component initial, final = 0.778472 0.000452046
  Final line search alpha, max atom move = 0 0
  Iterations, force evaluations = 5 150

Pair  time (%) = 0.113851 (91.4743)
Neigh time (%) = 0 (0)
Comm  time (%) = 0.00236593 (1.90092)
Outpt time (%) = 0.0013628 (1.09495)
Other time (%) = 0.00688254 (5.52983)

Nlocal:    992 ave 992 max 992 min
Histogram: 1 0 0 0 0 0 0 0 0 0
Nghost:    2429 ave 2429 max 2429 min
Histogram: 1 0 0 0 0 0 0 0 0 0
Neighs:    26016 ave 26016 max 26016 min
Histogram: 1 0 0 0 0 0 0 0 0 0

Total # of neighbors = 26016
Ave neighs/atom = 26.2258
Neighbor list builds = 0
Dangerous builds = 0
        next i
jump SELF loop1
        read_dump orig.dump 0 x y z
  orthogonal box = (0 -0.00277788 0) to (7.77665 27.4973 4.48985)
  992 atoms before read
  992 atoms in snapshot
  0 atoms purged
  992 atoms replaced
  0 atoms trimmed
  0 atoms added
  992 atoms after read
        variable stretch equal 1+$i*${strainstep}
        variable stretch equal 1+11*${strainstep}
        variable stretch equal 1+11*0.0005
        change_box all ${direction} scale ${stretch} remap
        change_box all y scale ${stretch} remap
        change_box all y scale 1.0055 remap
  orthogonal box = (0 -0.0811683 0) to (7.77665 27.5757 4.48985)
        min_style ${style}
        min_style hftn
        minimize ${etol} ${ftol} ${maxiter} ${maxeval}
        minimize 1e-12 ${ftol} ${maxiter} ${maxeval}
        minimize 1e-12 1e-08 ${maxiter} ${maxeval}
        minimize 1e-12 1e-08 10000 ${maxeval}
        minimize 1e-12 1e-08 10000 20000
WARNING: Resetting reneighboring criteria during minimization (../min.cpp:168)
Memory usage per processor = 4.9874 Mbytes
Step PotEng Pxx Pyy Pxy Lx Ly Lz 
       0    -5853.834  -0.19220265  -0.77812326 -2.4527823e-06      7.77665    27.656885      4.48985 
       1   -5855.9829 0.0092718333  0.036552593 -2.3436243e-06      7.77665    27.656885      4.48985 
       2   -5855.9953 0.00012536728 -1.3723217e-05 -2.901143e-06      7.77665    27.656885      4.48985 
       3   -5855.9953 0.00012536728 -1.3723217e-05 -2.901143e-06      7.77665    27.656885      4.48985 
       4   -5855.9953 0.00012536728 -1.3723217e-05 -2.901143e-06      7.77665    27.656885      4.48985 
       5   -5855.9953 0.00012536728 -1.3723217e-05 -2.901143e-06      7.77665    27.656885      4.48985 
       6   -5855.9953 0.00012537084 -1.3714562e-05 -2.8972076e-06      7.77665    27.656885      4.48985 
Loop time of 0.124704 on 1 procs for 5 steps with 992 atoms

Minimization stats:
  Stopping criterion = energy tolerance
  Energy initial, next-to-last, final = 
        -5853.83400122     -5855.98292816     -5855.99527019
  Force two-norm initial, final = 6.79877 0.00607241
  Force max component initial, final = 0.850426 0.000497523
  Final line search alpha, max atom move = 0 0
  Iterations, force evaluations = 5 148

Pair  time (%) = 0.110839 (88.8813)
Neigh time (%) = 0 (0)
Comm  time (%) = 0.00482028 (3.86538)
Outpt time (%) = 0.00151994 (1.21884)
Other time (%) = 0.00752525 (6.03449)

Nlocal:    992 ave 992 max 992 min
Histogram: 1 0 0 0 0 0 0 0 0 0
Nghost:    2429 ave 2429 max 2429 min
Histogram: 1 0 0 0 0 0 0 0 0 0
Neighs:    26016 ave 26016 max 26016 min
Histogram: 1 0 0 0 0 0 0 0 0 0

Total # of neighbors = 26016
Ave neighs/atom = 26.2258
Neighbor list builds = 0
Dangerous builds = 0
        next i
jump SELF loop1
        read_dump orig.dump 0 x y z
  orthogonal box = (0 -0.00277788 0) to (7.77665 27.4973 4.48985)
  992 atoms before read
  992 atoms in snapshot
  0 atoms purged
  992 atoms replaced
  0 atoms trimmed
  0 atoms added
  992 atoms after read
        variable stretch equal 1+$i*${strainstep}
        variable stretch equal 1+12*${strainstep}
        variable stretch equal 1+12*0.0005
        change_box all ${direction} scale ${stretch} remap
        change_box all y scale ${stretch} remap
        change_box all y scale 1.006 remap
  orthogonal box = (0 -0.0880447 0) to (7.77665 27.5826 4.48985)
        min_style ${style}
        min_style hftn
        minimize ${etol} ${ftol} ${maxiter} ${maxeval}
        minimize 1e-12 ${ftol} ${maxiter} ${maxeval}
        minimize 1e-12 1e-08 ${maxiter} ${maxeval}
        minimize 1e-12 1e-08 10000 ${maxeval}
        minimize 1e-12 1e-08 10000 20000
WARNING: Resetting reneighboring criteria during minimization (../min.cpp:168)
Memory usage per processor = 4.9874 Mbytes
Step PotEng Pxx Pyy Pxy Lx Ly Lz 
       0   -5853.4426  -0.20815278  -0.84349127 -2.4527813e-06      7.77665    27.670638      4.48985 
       1   -5855.9834 0.0089412094  0.035231698 -2.3553974e-06      7.77665    27.670638      4.48985 
       2   -5855.9953 0.0001255563 -1.2714681e-05 -2.8971601e-06      7.77665    27.670638      4.48985 
       3   -5855.9953 0.0001255563 -1.2714681e-05 -2.8971601e-06      7.77665    27.670638      4.48985 
       4   -5855.9953 0.0001255563 -1.2714681e-05 -2.8971601e-06      7.77665    27.670638      4.48985 
       5   -5855.9953 0.0001255563 -1.2714681e-05 -2.8971601e-06      7.77665    27.670638      4.48985 
       6   -5855.9953 0.00012555964 -1.2706708e-05 -2.8933508e-06      7.77665    27.670638      4.48985 
Loop time of 0.12136 on 1 procs for 5 steps with 992 atoms

Minimization stats:
  Stopping criterion = energy tolerance
  Energy initial, next-to-last, final = 
        -5853.44262248      -5855.9833683     -5855.99526985
  Force two-norm initial, final = 7.36945 0.00604821
  Force max component initial, final = 0.921767 0.000491519
  Final line search alpha, max atom move = 0 0
  Iterations, force evaluations = 5 148

Pair  time (%) = 0.104823 (86.3737)
Neigh time (%) = 0 (0)
Comm  time (%) = 0.00737148 (6.07407)
Outpt time (%) = 0.000349962 (0.288367)
Other time (%) = 0.00881539 (7.26384)

Nlocal:    992 ave 992 max 992 min
Histogram: 1 0 0 0 0 0 0 0 0 0
Nghost:    2429 ave 2429 max 2429 min
Histogram: 1 0 0 0 0 0 0 0 0 0
Neighs:    26016 ave 26016 max 26016 min
Histogram: 1 0 0 0 0 0 0 0 0 0

Total # of neighbors = 26016
Ave neighs/atom = 26.2258
Neighbor list builds = 0
Dangerous builds = 0
        next i
jump SELF loop1
        read_dump orig.dump 0 x y z
  orthogonal box = (0 -0.00277788 0) to (7.77665 27.4973 4.48985)
  992 atoms before read
  992 atoms in snapshot
  0 atoms purged
  992 atoms replaced
  0 atoms trimmed
  0 atoms added
  992 atoms after read
        variable stretch equal 1+$i*${strainstep}
        variable stretch equal 1+13*${strainstep}
        variable stretch equal 1+13*0.0005
        change_box all ${direction} scale ${stretch} remap
        change_box all y scale ${stretch} remap
        change_box all y scale 1.0065 remap
  orthogonal box = (0 -0.0949211 0) to (7.77665 27.5895 4.48985)
        min_style ${style}
        min_style hftn
        minimize ${etol} ${ftol} ${maxiter} ${maxeval}
        minimize 1e-12 ${ftol} ${maxiter} ${maxeval}
        minimize 1e-12 1e-08 ${maxiter} ${maxeval}
        minimize 1e-12 1e-08 10000 ${maxeval}
        minimize 1e-12 1e-08 10000 20000
WARNING: Resetting reneighboring criteria during minimization (../min.cpp:168)
Memory usage per processor = 4.9874 Mbytes
Step PotEng Pxx Pyy Pxy Lx Ly Lz 
       0   -5853.0192  -0.22395583  -0.90839195 -2.420118e-06      7.77665    27.684391      4.48985 
       1   -5855.9796  0.011727448  0.046364124 -2.374561e-06      7.77665    27.684391      4.48985 
       2   -5855.9953 0.00012306044 -2.2444648e-05 -2.8940841e-06      7.77665    27.684391      4.48985 
       3   -5855.9953 0.00012306044 -2.2444648e-05 -2.8940841e-06      7.77665    27.684391      4.48985 
       4   -5855.9953 0.00012306044 -2.2444648e-05 -2.8940841e-06      7.77665    27.684391      4.48985 
       5   -5855.9953 0.00012306044 -2.2444648e-05 -2.8940841e-06      7.77665    27.684391      4.48985 
       6   -5855.9953 0.00012306643 -2.2427896e-05 -2.8889987e-06      7.77665    27.684391      4.48985 
Loop time of 0.122508 on 1 procs for 5 steps with 992 atoms

Minimization stats:
  Stopping criterion = energy tolerance
  Energy initial, next-to-last, final = 
        -5853.01919076     -5855.97959879     -5855.99527313
  Force two-norm initial, final = 7.93597 0.00632274
  Force max component initial, final = 0.992582 0.000534736
  Final line search alpha, max atom move = 0 0
  Iterations, force evaluations = 5 146

Pair  time (%) = 0.108168 (88.2942)
Neigh time (%) = 0 (0)
Comm  time (%) = 0.00691048 (5.64084)
Outpt time (%) = 0.000385797 (0.314916)
Other time (%) = 0.00704422 (5.75)

Nlocal:    992 ave 992 max 992 min
Histogram: 1 0 0 0 0 0 0 0 0 0
Nghost:    2429 ave 2429 max 2429 min
Histogram: 1 0 0 0 0 0 0 0 0 0
Neighs:    26016 ave 26016 max 26016 min
Histogram: 1 0 0 0 0 0 0 0 0 0

Total # of neighbors = 26016
Ave neighs/atom = 26.2258
Neighbor list builds = 0
Dangerous builds = 0
        next i
jump SELF loop1
        read_dump orig.dump 0 x y z
  orthogonal box = (0 -0.00277788 0) to (7.77665 27.4973 4.48985)
  992 atoms before read
  992 atoms in snapshot
  0 atoms purged
  992 atoms replaced
  0 atoms trimmed
  0 atoms added
  992 atoms after read
        variable stretch equal 1+$i*${strainstep}
        variable stretch equal 1+14*${strainstep}
        variable stretch equal 1+14*0.0005
        change_box all ${direction} scale ${stretch} remap
        change_box all y scale ${stretch} remap
        change_box all y scale 1.007 remap
  orthogonal box = (0 -0.101798 0) to (7.77665 27.5963 4.48985)
        min_style ${style}
        min_style hftn
        minimize ${etol} ${ftol} ${maxiter} ${maxeval}
        minimize 1e-12 ${ftol} ${maxiter} ${maxeval}
        minimize 1e-12 1e-08 ${maxiter} ${maxeval}
        minimize 1e-12 1e-08 10000 ${maxeval}
        minimize 1e-12 1e-08 10000 20000
WARNING: Resetting reneighboring criteria during minimization (../min.cpp:168)
Memory usage per processor = 4.9874 Mbytes
Step PotEng Pxx Pyy Pxy Lx Ly Lz 
       0   -5852.5749  -0.23966075  -0.97302218 -2.3877878e-06      7.77665    27.698144      4.48985 
       1   -5855.7237 -0.0036611585 -0.016930227 -1.1438612e-06      7.77665    27.698144      4.48985 
       2   -5855.9817 -0.0099559335 -0.040366824 -3.4378627e-06      7.77665    27.698144      4.48985 
       3   -5855.9952 0.00014163919 5.114517e-05 -2.1906015e-06      7.77665    27.698144      4.48985 
       4   -5855.9953 0.00012949015 1.6683387e-07 -5.146497e-07      7.77665    27.698144      4.48985 
       5   -5855.9953 0.0001296304 2.1228436e-12 4.6078155e-13      7.77665    27.698144      4.48985 
Loop time of 0.267832 on 1 procs for 4 steps with 992 atoms

Minimization stats:
  Stopping criterion = force tolerance
  Energy initial, next-to-last, final = 
        -5852.57487257     -5855.99524828     -5855.99526556
  Force two-norm initial, final = 8.50014 2.11779e-09
  Force max component initial, final = 1.0631 1.45386e-10
  Final line search alpha, max atom move = 0 0
  Iterations, force evaluations = 4 333

Pair  time (%) = 0.242228 (90.4401)
Neigh time (%) = 0 (0)
Comm  time (%) = 0.00869818 (3.24762)
Outpt time (%) = 0.000320023 (0.119486)
Other time (%) = 0.0165863 (6.19279)

Nlocal:    992 ave 992 max 992 min
Histogram: 1 0 0 0 0 0 0 0 0 0
Nghost:    2429 ave 2429 max 2429 min
Histogram: 1 0 0 0 0 0 0 0 0 0
Neighs:    26016 ave 26016 max 26016 min
Histogram: 1 0 0 0 0 0 0 0 0 0

Total # of neighbors = 26016
Ave neighs/atom = 26.2258
Neighbor list builds = 0
Dangerous builds = 0
        next i
jump SELF loop1
        read_dump orig.dump 0 x y z
  orthogonal box = (0 -0.00277788 0) to (7.77665 27.4973 4.48985)
  992 atoms before read
  992 atoms in snapshot
  0 atoms purged
  992 atoms replaced
  0 atoms trimmed
  0 atoms added
  992 atoms after read
        variable stretch equal 1+$i*${strainstep}
        variable stretch equal 1+15*${strainstep}
        variable stretch equal 1+15*0.0005
        change_box all ${direction} scale ${stretch} remap
        change_box all y scale ${stretch} remap
        change_box all y scale 1.0075 remap
  orthogonal box = (0 -0.108674 0) to (7.77665 27.6032 4.48985)
        min_style ${style}
        min_style hftn
        minimize ${etol} ${ftol} ${maxiter} ${maxeval}
        minimize 1e-12 ${ftol} ${maxiter} ${maxeval}
        minimize 1e-12 1e-08 ${maxiter} ${maxeval}
        minimize 1e-12 1e-08 10000 ${maxeval}
        minimize 1e-12 1e-08 10000 20000
WARNING: Resetting reneighboring criteria during minimization (../min.cpp:168)
Memory usage per processor = 4.9874 Mbytes
Step PotEng Pxx Pyy Pxy Lx Ly Lz 
       0   -5852.0856   -0.2551623   -1.0369534 -2.3877869e-06      7.77665    27.711896      4.48985 
       1    -5855.444 -0.022186244 -0.092074195 7.6250015e-06      7.77665    27.711896      4.48985 
       2   -5855.9923 0.0022089119 0.0083199657 -6.6931728e-06      7.77665    27.711896      4.48985 
       3   -5855.9952 0.00013918498 0.00010762625 -4.886199e-05      7.77665    27.711896      4.48985 
       4   -5855.9953 0.00012916251 -1.4022606e-06 -1.4987094e-07      7.77665    27.711896      4.48985 
       5   -5855.9953 0.00012956606 2.2126747e-12 -4.9496305e-12      7.77665    27.711896      4.48985 
Loop time of 0.301952 on 1 procs for 4 steps with 992 atoms

Minimization stats:
  Stopping criterion = force tolerance
  Energy initial, next-to-last, final = 
        -5852.08564912     -5855.99522918     -5855.99526556
  Force two-norm initial, final = 9.05829 3.57692e-09
  Force max component initial, final = 1.13288 2.56461e-10
  Final line search alpha, max atom move = 0 0
  Iterations, force evaluations = 4 373

Pair  time (%) = 0.274541 (90.922)
Neigh time (%) = 0 (0)
Comm  time (%) = 0.00706247 (2.33894)
Outpt time (%) = 0.000294998 (0.0976969)
Other time (%) = 0.0200538 (6.64138)

Nlocal:    992 ave 992 max 992 min
Histogram: 1 0 0 0 0 0 0 0 0 0
Nghost:    2429 ave 2429 max 2429 min
Histogram: 1 0 0 0 0 0 0 0 0 0
Neighs:    26016 ave 26016 max 26016 min
Histogram: 1 0 0 0 0 0 0 0 0 0

Total # of neighbors = 26016
Ave neighs/atom = 26.2258
Neighbor list builds = 0
Dangerous builds = 0
        next i
jump SELF loop1
        read_dump orig.dump 0 x y z
  orthogonal box = (0 -0.00277788 0) to (7.77665 27.4973 4.48985)
  992 atoms before read
  992 atoms in snapshot
  0 atoms purged
  992 atoms replaced
  0 atoms trimmed
  0 atoms added
  992 atoms after read
        variable stretch equal 1+$i*${strainstep}
        variable stretch equal 1+16*${strainstep}
        variable stretch equal 1+16*0.0005
        change_box all ${direction} scale ${stretch} remap
        change_box all y scale ${stretch} remap
        change_box all y scale 1.008 remap
  orthogonal box = (0 -0.11555 0) to (7.77665 27.6101 4.48985)
        min_style ${style}
        min_style hftn
        minimize ${etol} ${ftol} ${maxiter} ${maxeval}
        minimize 1e-12 ${ftol} ${maxiter} ${maxeval}
        minimize 1e-12 1e-08 ${maxiter} ${maxeval}
        minimize 1e-12 1e-08 10000 ${maxeval}
        minimize 1e-12 1e-08 10000 20000
WARNING: Resetting reneighboring criteria during minimization (../min.cpp:168)
Memory usage per processor = 4.9874 Mbytes
Step PotEng Pxx Pyy Pxy Lx Ly Lz 
       0   -5851.5723  -0.27055181   -1.1005545 -2.3558537e-06      7.77665    27.725649      4.48985 
       1   -5855.0797 -0.040199028   -0.1655348 2.5037842e-06      7.77665    27.725649      4.48985 
       2   -5855.9905 0.0033787792  0.013060047 -6.0506956e-05      7.77665    27.725649      4.48985 
       3   -5855.9952 0.00026120856  0.000276764 0.00017692715      7.77665    27.725649      4.48985 
       4   -5855.9953 0.0001295696 -5.4615825e-07 5.7797612e-07      7.77665    27.725649      4.48985 
       5   -5855.9953 0.0001295696 -5.4615825e-07 5.7797612e-07      7.77665    27.725649      4.48985 
       6   -5855.9953 0.0001295708 -5.6443663e-07 5.9429711e-07      7.77665    27.725649      4.48985 
       7   -5855.9953 0.0001295708 -5.6443663e-07 5.9429711e-07      7.77665    27.725649      4.48985 
       8   -5855.9953 0.00012956521 -5.7752982e-07 5.8774504e-07      7.77665    27.725649      4.48985 
Loop time of 0.319088 on 1 procs for 7 steps with 992 atoms

Minimization stats:
  Stopping criterion = energy tolerance
  Energy initial, next-to-last, final = 
        -5851.57234452     -5855.99526574     -5855.99526575
  Force two-norm initial, final = 9.61349 5.86863e-05
  Force max component initial, final = 1.20227 3.64403e-06
  Final line search alpha, max atom move = 0 0
  Iterations, force evaluations = 7 398

Pair  time (%) = 0.284619 (89.1976)
Neigh time (%) = 0 (0)
Comm  time (%) = 0.0114754 (3.59631)
Outpt time (%) = 0.000462929 (0.145079)
Other time (%) = 0.0225307 (7.06097)

Nlocal:    992 ave 992 max 992 min
Histogram: 1 0 0 0 0 0 0 0 0 0
Nghost:    2429 ave 2429 max 2429 min
Histogram: 1 0 0 0 0 0 0 0 0 0
Neighs:    26016 ave 26016 max 26016 min
Histogram: 1 0 0 0 0 0 0 0 0 0

Total # of neighbors = 26016
Ave neighs/atom = 26.2258
Neighbor list builds = 0
Dangerous builds = 0
        next i
jump SELF loop1
        read_dump orig.dump 0 x y z
  orthogonal box = (0 -0.00277788 0) to (7.77665 27.4973 4.48985)
  992 atoms before read
  992 atoms in snapshot
  0 atoms purged
  992 atoms replaced
  0 atoms trimmed
  0 atoms added
  992 atoms after read
        variable stretch equal 1+$i*${strainstep}
        variable stretch equal 1+17*${strainstep}
        variable stretch equal 1+17*0.0005
        change_box all ${direction} scale ${stretch} remap
        change_box all y scale ${stretch} remap
        change_box all y scale 1.0085 remap
  orthogonal box = (0 -0.122427 0) to (7.77665 27.617 4.48985)
        min_style ${style}
        min_style hftn
        minimize ${etol} ${ftol} ${maxiter} ${maxeval}
        minimize 1e-12 ${ftol} ${maxiter} ${maxeval}
        minimize 1e-12 1e-08 ${maxiter} ${maxeval}
        minimize 1e-12 1e-08 10000 ${maxeval}
        minimize 1e-12 1e-08 10000 20000
WARNING: Resetting reneighboring criteria during minimization (../min.cpp:168)
Memory usage per processor = 4.9874 Mbytes
Step PotEng Pxx Pyy Pxy Lx Ly Lz 
       0   -5851.0349  -0.28582927   -1.1638244 -2.3558528e-06      7.77665    27.739402      4.48985 
       1   -5854.6477  -0.06354871  -0.26044625 -4.5082281e-06      7.77665    27.739402      4.48985 
       2   -5855.9878 0.0051367883  0.019976713 -1.1526592e-06      7.77665    27.739402      4.48985 
       3   -5855.9952 0.00012253934 9.1043701e-05 -8.3821774e-05      7.77665    27.739402      4.48985 
       4   -5855.9953 0.00012906659 -1.3228529e-06 -1.1395662e-07      7.77665    27.739402      4.48985 
       5   -5855.9953 0.00012943759 1.3316822e-11 -6.9856444e-12      7.77665    27.739402      4.48985 
Loop time of 0.304708 on 1 procs for 4 steps with 992 atoms

Minimization stats:
  Stopping criterion = force tolerance
  Energy initial, next-to-last, final = 
        -5851.03491893     -5855.99523475     -5855.99526556
  Force two-norm initial, final = 10.1659 7.91935e-09
  Force max component initial, final = 1.27132 5.29853e-10
  Final line search alpha, max atom move = 0 0
  Iterations, force evaluations = 4 385

Pair  time (%) = 0.275259 (90.3354)
Neigh time (%) = 0 (0)
Comm  time (%) = 0.00872758 (2.86424)
Outpt time (%) = 0.00035593 (0.11681)
Other time (%) = 0.0203651 (6.6835)

Nlocal:    992 ave 992 max 992 min
Histogram: 1 0 0 0 0 0 0 0 0 0
Nghost:    2429 ave 2429 max 2429 min
Histogram: 1 0 0 0 0 0 0 0 0 0
Neighs:    26016 ave 26016 max 26016 min
Histogram: 1 0 0 0 0 0 0 0 0 0

Total # of neighbors = 26016
Ave neighs/atom = 26.2258
Neighbor list builds = 0
Dangerous builds = 0
        next i
jump SELF loop1
        read_dump orig.dump 0 x y z
  orthogonal box = (0 -0.00277788 0) to (7.77665 27.4973 4.48985)
  992 atoms before read
  992 atoms in snapshot
  0 atoms purged
  992 atoms replaced
  0 atoms trimmed
  0 atoms added
  992 atoms after read
        variable stretch equal 1+$i*${strainstep}
        variable stretch equal 1+18*${strainstep}
        variable stretch equal 1+18*0.0005
        change_box all ${direction} scale ${stretch} remap
        change_box all y scale ${stretch} remap
        change_box all y scale 1.009 remap
  orthogonal box = (0 -0.129303 0) to (7.77665 27.6239 4.48985)
        min_style ${style}
        min_style hftn
        minimize ${etol} ${ftol} ${maxiter} ${maxeval}
        minimize 1e-12 ${ftol} ${maxiter} ${maxeval}
        minimize 1e-12 1e-08 ${maxiter} ${maxeval}
        minimize 1e-12 1e-08 10000 ${maxeval}
        minimize 1e-12 1e-08 10000 20000
WARNING: Resetting reneighboring criteria during minimization (../min.cpp:168)
Memory usage per processor = 4.9874 Mbytes
Step PotEng Pxx Pyy Pxy Lx Ly Lz 
       0   -5850.4536  -0.30090762   -1.2264069 -2.3242165e-06      7.77665    27.753155      4.48985 
       1   -5854.4863 -0.064807879  -0.26624228 -2.2021252e-06      7.77665    27.753155      4.48985 
       2   -5855.9875 0.0057895115  0.022850064 -0.00016762457      7.77665    27.753155      4.48985 
       3   -5855.9953 0.00018382776 2.9282093e-05 0.00013334566      7.77665    27.753155      4.48985 
       4   -5855.9953 0.00012928156 -3.2973199e-07 -2.6758037e-08      7.77665    27.753155      4.48985 
       5   -5855.9953 0.00012937345 4.786794e-13 -4.9943817e-14      7.77665    27.753155      4.48985 
Loop time of 0.321639 on 1 procs for 4 steps with 992 atoms

Minimization stats:
  Stopping criterion = force tolerance
  Energy initial, next-to-last, final = 
        -5850.45363972     -5855.99525565     -5855.99526556
  Force two-norm initial, final = 10.7122 6.99451e-10
  Force max component initial, final = 1.33961 5.59828e-11
  Final line search alpha, max atom move = 0 0
  Iterations, force evaluations = 4 387

Pair  time (%) = 0.281141 (87.4089)
Neigh time (%) = 0 (0)
Comm  time (%) = 0.0156621 (4.86946)
Outpt time (%) = 0.000198742 (0.0617904)
Other time (%) = 0.0246369 (7.65981)

Nlocal:    992 ave 992 max 992 min
Histogram: 1 0 0 0 0 0 0 0 0 0
Nghost:    2429 ave 2429 max 2429 min
Histogram: 1 0 0 0 0 0 0 0 0 0
Neighs:    26016 ave 26016 max 26016 min
Histogram: 1 0 0 0 0 0 0 0 0 0

Total # of neighbors = 26016
Ave neighs/atom = 26.2258
Neighbor list builds = 0
Dangerous builds = 0
        next i
jump SELF loop1
        read_dump orig.dump 0 x y z
  orthogonal box = (0 -0.00277788 0) to (7.77665 27.4973 4.48985)
  992 atoms before read
  992 atoms in snapshot
  0 atoms purged
  992 atoms replaced
  0 atoms trimmed
  0 atoms added
  992 atoms after read
        variable stretch equal 1+$i*${strainstep}
        variable stretch equal 1+19*${strainstep}
        variable stretch equal 1+19*0.0005
        change_box all ${direction} scale ${stretch} remap
        change_box all y scale ${stretch} remap
        change_box all y scale 1.0095 remap
  orthogonal box = (0 -0.13618 0) to (7.77665 27.6307 4.48985)
        min_style ${style}
        min_style hftn
        minimize ${etol} ${ftol} ${maxiter} ${maxeval}
        minimize 1e-12 ${ftol} ${maxiter} ${maxeval}
        minimize 1e-12 1e-08 ${maxiter} ${maxeval}
        minimize 1e-12 1e-08 10000 ${maxeval}
        minimize 1e-12 1e-08 10000 20000
WARNING: Resetting reneighboring criteria during minimization (../min.cpp:168)
Memory usage per processor = 4.9874 Mbytes
Step PotEng Pxx Pyy Pxy Lx Ly Lz 
       0   -5849.8522   -0.3158911   -1.2887249 -2.2929934e-06      7.77665    27.766908      4.48985 
       1   -5853.9139 -0.088324786  -0.36247523 -1.1225537e-05      7.77665    27.766908      4.48985 
       2   -5855.9839 0.0084226447  0.033290444 -0.00011589721      7.77665    27.766908      4.48985 
       3   -5855.9953 0.00017271987 3.9581821e-05 9.4832953e-05      7.77665    27.766908      4.48985 
       4   -5855.9953 0.00012581835 -2.5082346e-05 7.8617857e-06      7.77665    27.766908      4.48985 
       5   -5855.9953 0.00012581835 -2.5082346e-05 7.8617857e-06      7.77665    27.766908      4.48985 
       6   -5855.9953 0.00012581835 -2.5082346e-05 7.8617857e-06      7.77665    27.766908      4.48985 
       7   -5855.9953 0.00012581835 -2.5082346e-05 7.8617857e-06      7.77665    27.766908      4.48985 
       8   -5855.9953 0.00012581835 -2.5082346e-05 7.8617857e-06      7.77665    27.766908      4.48985 
       9   -5855.9953 0.00012581835 -2.5082346e-05 7.8617857e-06      7.77665    27.766908      4.48985 
      10   -5855.9953 0.00012582063 -2.507258e-05 7.8613355e-06      7.77665    27.766908      4.48985 
Loop time of 0.315294 on 1 procs for 9 steps with 992 atoms

Minimization stats:
  Stopping criterion = energy tolerance
  Energy initial, next-to-last, final = 
        -5849.85215705     -5855.99525215     -5855.99527405
  Force two-norm initial, final = 11.2562 0.00026236
  Force max component initial, final = 1.40761 1.85583e-05
  Final line search alpha, max atom move = 0 0
  Iterations, force evaluations = 9 378

Pair  time (%) = 0.276367 (87.6536)
Neigh time (%) = 0 (0)
Comm  time (%) = 0.0138596 (4.39576)
Outpt time (%) = 0.00568604 (1.80341)
Other time (%) = 0.0193818 (6.14722)

Nlocal:    992 ave 992 max 992 min
Histogram: 1 0 0 0 0 0 0 0 0 0
Nghost:    2429 ave 2429 max 2429 min
Histogram: 1 0 0 0 0 0 0 0 0 0
Neighs:    26016 ave 26016 max 26016 min
Histogram: 1 0 0 0 0 0 0 0 0 0

Total # of neighbors = 26016
Ave neighs/atom = 26.2258
Neighbor list builds = 0
Dangerous builds = 0
        next i
jump SELF loop1
        read_dump orig.dump 0 x y z
  orthogonal box = (0 -0.00277788 0) to (7.77665 27.4973 4.48985)
  992 atoms before read
  992 atoms in snapshot
  0 atoms purged
  992 atoms replaced
  0 atoms trimmed
  0 atoms added
  992 atoms after read
        variable stretch equal 1+$i*${strainstep}
        variable stretch equal 1+20*${strainstep}
        variable stretch equal 1+20*0.0005
        change_box all ${direction} scale ${stretch} remap
        change_box all y scale ${stretch} remap
        change_box all y scale 1.01 remap
  orthogonal box = (0 -0.143056 0) to (7.77665 27.6376 4.48985)
        min_style ${style}
        min_style hftn
        minimize ${etol} ${ftol} ${maxiter} ${maxeval}
        minimize 1e-12 ${ftol} ${maxiter} ${maxeval}
        minimize 1e-12 1e-08 ${maxiter} ${maxeval}
        minimize 1e-12 1e-08 10000 ${maxeval}
        minimize 1e-12 1e-08 10000 20000
WARNING: Resetting reneighboring criteria during minimization (../min.cpp:168)
Memory usage per processor = 4.9874 Mbytes
Step PotEng Pxx Pyy Pxy Lx Ly Lz 
       0   -5849.2203  -0.33073512   -1.3505954 -2.2929925e-06      7.77665     27.78066      4.48985 
       1   -5853.7038 -0.093637539  -0.38453748 -1.4867187e-05      7.77665     27.78066      4.48985 
       2   -5855.9819 0.0090773286   0.03593893 -0.00013996963      7.77665     27.78066      4.48985 
       3   -5855.9952 0.0001443278 0.00021652356 -0.00011036527      7.77665     27.78066      4.48985 
       4   -5855.9953 0.00012910127 -1.8276519e-07 -2.7829413e-07      7.77665     27.78066      4.48985 
       5   -5855.9953 0.00012910127 -1.8276519e-07 -2.7829413e-07      7.77665     27.78066      4.48985 
       6   -5855.9953 0.00012903871 -4.0057908e-07 -3.0124209e-07      7.77665     27.78066      4.48985 
       7   -5855.9953 0.00012884681 -8.8342598e-07 -5.0257974e-07      7.77665     27.78066      4.48985 
       8   -5855.9953 0.00012924535 -5.6047965e-12 -1.5573592e-13      7.77665     27.78066      4.48985 
Loop time of 0.450611 on 1 procs for 7 steps with 992 atoms

Minimization stats:
  Stopping criterion = force tolerance
  Energy initial, next-to-last, final = 
        -5849.22028271      -5855.9952657     -5855.99526556
  Force two-norm initial, final = 11.7964 1.43542e-09
  Force max component initial, final = 1.47513 1.0587e-10
  Final line search alpha, max atom move = 0 0
  Iterations, force evaluations = 7 550

Pair  time (%) = 0.403793 (89.6102)
Neigh time (%) = 0 (0)
Comm  time (%) = 0.0185307 (4.11235)
Outpt time (%) = 0.000520013 (0.115402)
Other time (%) = 0.0277669 (6.16205)

Nlocal:    992 ave 992 max 992 min
Histogram: 1 0 0 0 0 0 0 0 0 0
Nghost:    2429 ave 2429 max 2429 min
Histogram: 1 0 0 0 0 0 0 0 0 0
Neighs:    26016 ave 26016 max 26016 min
Histogram: 1 0 0 0 0 0 0 0 0 0

Total # of neighbors = 26016
Ave neighs/atom = 26.2258
Neighbor list builds = 0
Dangerous builds = 0
        next i
jump SELF loop1
        read_dump orig.dump 0 x y z
  orthogonal box = (0 -0.00277788 0) to (7.77665 27.4973 4.48985)
  992 atoms before read
  992 atoms in snapshot
  0 atoms purged
  992 atoms replaced
  0 atoms trimmed
  0 atoms added
  992 atoms after read
        variable stretch equal 1+$i*${strainstep}
        variable stretch equal 1+21*${strainstep}
        variable stretch equal 1+21*0.0005
        change_box all ${direction} scale ${stretch} remap
        change_box all y scale ${stretch} remap
        change_box all y scale 1.0105 remap
  orthogonal box = (0 -0.149932 0) to (7.77665 27.6445 4.48985)
        min_style ${style}
        min_style hftn
        minimize ${etol} ${ftol} ${maxiter} ${maxeval}
        minimize 1e-12 ${ftol} ${maxiter} ${maxeval}
        minimize 1e-12 1e-08 ${maxiter} ${maxeval}
        minimize 1e-12 1e-08 10000 ${maxeval}
        minimize 1e-12 1e-08 10000 20000
WARNING: Resetting reneighboring criteria during minimization (../min.cpp:168)
Memory usage per processor = 4.9874 Mbytes
Step PotEng Pxx Pyy Pxy Lx Ly Lz 
       0   -5848.5522   -0.3454136     -1.41191 -2.2620402e-06      7.77665    27.794413      4.48985 
       1   -5852.9815  -0.12045898  -0.49459284 -7.6098653e-06      7.77665    27.794413      4.48985 
       2    -5855.975  0.012337731  0.048553812 0.00013739054      7.77665    27.490852      4.48985 
       3   -5855.9951 0.00023313793 0.00051206836 -7.2073364e-05      7.77665    27.490852      4.48985 
       4   -5855.9953 0.00013019573 -3.4838771e-07 -9.1933736e-07      7.77665    27.490852      4.48985 
       5   -5855.9953 0.00013060786 5.3029525e-12 2.0816914e-12      7.77665    27.490852      4.48985 
Loop time of 0.279605 on 1 procs for 4 steps with 992 atoms

Minimization stats:
  Stopping criterion = force tolerance
  Energy initial, next-to-last, final = 
        -5848.55221457     -5855.99509385     -5855.99526556
  Force two-norm initial, final = 12.3316 7.18009e-09
  Force max component initial, final = 1.54203 5.32166e-10
  Final line search alpha, max atom move = 0 0
  Iterations, force evaluations = 4 339

Pair  time (%) = 0.246168 (88.0415)
Neigh time (%) = 0.00107704 (0.385199)
Comm  time (%) = 0.0114339 (4.08932)
Outpt time (%) = 0.000351145 (0.125586)
Other time (%) = 0.0205745 (7.35842)

Nlocal:    992 ave 992 max 992 min
Histogram: 1 0 0 0 0 0 0 0 0 0
Nghost:    2429 ave 2429 max 2429 min
Histogram: 1 0 0 0 0 0 0 0 0 0
Neighs:    26016 ave 26016 max 26016 min
Histogram: 1 0 0 0 0 0 0 0 0 0

Total # of neighbors = 26016
Ave neighs/atom = 26.2258
Neighbor list builds = 1
Dangerous builds = 0
        next i
jump SELF loop1
        read_dump orig.dump 0 x y z
  orthogonal box = (0 -0.00277788 0) to (7.77665 27.4973 4.48985)
  992 atoms before read
  992 atoms in snapshot
  0 atoms purged
  992 atoms replaced
  0 atoms trimmed
  0 atoms added
  992 atoms after read
        variable stretch equal 1+$i*${strainstep}
        variable stretch equal 1+22*${strainstep}
        variable stretch equal 1+22*0.0005
        change_box all ${direction} scale ${stretch} remap
        change_box all y scale ${stretch} remap
        change_box all y scale 1.011 remap
  orthogonal box = (0 -0.156809 0) to (7.77665 27.6514 4.48985)
        min_style ${style}
        min_style hftn
        minimize ${etol} ${ftol} ${maxiter} ${maxeval}
        minimize 1e-12 ${ftol} ${maxiter} ${maxeval}
        minimize 1e-12 1e-08 ${maxiter} ${maxeval}
        minimize 1e-12 1e-08 10000 ${maxeval}
        minimize 1e-12 1e-08 10000 20000
WARNING: Resetting reneighboring criteria during minimization (../min.cpp:168)
Memory usage per processor = 4.9874 Mbytes
Step PotEng Pxx Pyy Pxy Lx Ly Lz 
       0   -5847.8642  -0.35999847   -1.4729612 -2.2315026e-06      7.77665    27.808166      4.48985 
       1   -5852.1569  -0.14954941  -0.61413189 -2.7450035e-06      7.77665    27.808166      4.48985 
       2   -5855.9625  0.016409079  0.064989318 -9.231573e-08      7.77665      27.4877      4.48985 
       3   -5855.9951 0.00030791415  0.000588547 8.5313507e-05      7.77665      27.4877      4.48985 
       4   -5855.9953 0.00013854354 9.8555734e-07 2.1706384e-05      7.77665      27.4877      4.48985 
       5   -5855.9953 0.00013062279 -4.374735e-11 -9.2268237e-11      7.77665      27.4877      4.48985 
       6   -5855.9953 0.00013062283 -1.6907316e-14 -8.6206243e-16      7.77665      27.4877      4.48985 
Loop time of 0.439932 on 1 procs for 5 steps with 992 atoms

Minimization stats:
  Stopping criterion = force tolerance
  Energy initial, next-to-last, final = 
        -5847.86421282     -5855.99526523     -5855.99526556
  Force two-norm initial, final = 12.8646 5.24161e-12
  Force max component initial, final = 1.60865 5.62315e-13
  Final line search alpha, max atom move = 0 0
  Iterations, force evaluations = 5 541

Pair  time (%) = 0.394272 (89.6211)
Neigh time (%) = 0.00125788 (0.285927)
Comm  time (%) = 0.0156855 (3.56545)
Outpt time (%) = 0.000418929 (0.095226)
Other time (%) = 0.0282978 (6.4323)

Nlocal:    992 ave 992 max 992 min
Histogram: 1 0 0 0 0 0 0 0 0 0
Nghost:    2429 ave 2429 max 2429 min
Histogram: 1 0 0 0 0 0 0 0 0 0
Neighs:    26016 ave 26016 max 26016 min
Histogram: 1 0 0 0 0 0 0 0 0 0

Total # of neighbors = 26016
Ave neighs/atom = 26.2258
Neighbor list builds = 1
Dangerous builds = 0
        next i
jump SELF loop1
        read_dump orig.dump 0 x y z
  orthogonal box = (0 -0.00277788 0) to (7.77665 27.4973 4.48985)
  992 atoms before read
  992 atoms in snapshot
  0 atoms purged
  992 atoms replaced
  0 atoms trimmed
  0 atoms added
  992 atoms after read
        variable stretch equal 1+$i*${strainstep}
        variable stretch equal 1+23*${strainstep}
        variable stretch equal 1+23*0.0005
        change_box all ${direction} scale ${stretch} remap
        change_box all y scale ${stretch} remap
        change_box all y scale 1.0115 remap
  orthogonal box = (0 -0.163685 0) to (7.77665 27.6582 4.48985)
        min_style ${style}
        min_style hftn
        minimize ${etol} ${ftol} ${maxiter} ${maxeval}
        minimize 1e-12 ${ftol} ${maxiter} ${maxeval}
        minimize 1e-12 1e-08 ${maxiter} ${maxeval}
        minimize 1e-12 1e-08 10000 ${maxeval}
        minimize 1e-12 1e-08 10000 20000
WARNING: Resetting reneighboring criteria during minimization (../min.cpp:168)
Memory usage per processor = 4.9874 Mbytes
Step PotEng Pxx Pyy Pxy Lx Ly Lz 
       0   -5847.1401  -0.37441868    -1.533457 -2.2315018e-06      7.77665    27.821919      4.48985 
       1   -5851.8207  -0.15663404  -0.64377534 -2.1975242e-06      7.77665    27.821919      4.48985 
       2   -5855.9624  0.016427826  0.065052022  8.83527e-06      7.77665    27.487693      4.48985 
       3   -5855.9951 0.00027516489 0.00057151832 4.7000905e-06      7.77665    27.487693      4.48985 
       4   -5855.9953 0.00013290846 1.8931869e-06 5.1259546e-06      7.77665    27.487693      4.48985 
       5   -5855.9953 0.00013062287 -1.2052238e-11 2.5760012e-12      7.77665    27.487693      4.48985 
       6   -5855.9953 0.00013062287 -4.1456349e-15 -2.0161145e-16      7.77665    27.487693      4.48985 
Loop time of 0.521564 on 1 procs for 5 steps with 992 atoms

Minimization stats:
  Stopping criterion = force tolerance
  Energy initial, next-to-last, final = 
        -5847.14012996     -5855.99526492     -5855.99526556
  Force two-norm initial, final = 13.3927 6.48243e-12
  Force max component initial, final = 1.67467 6.45216e-13
  Final line search alpha, max atom move = 0 0
  Iterations, force evaluations = 5 567

Pair  time (%) = 0.465839 (89.3158)
Neigh time (%) = 0.00118906 (0.22798)
Comm  time (%) = 0.0253499 (4.86036)
Outpt time (%) = 0.00027696 (0.0531018)
Other time (%) = 0.028909 (5.54275)

Nlocal:    992 ave 992 max 992 min
Histogram: 1 0 0 0 0 0 0 0 0 0
Nghost:    2429 ave 2429 max 2429 min
Histogram: 1 0 0 0 0 0 0 0 0 0
Neighs:    26016 ave 26016 max 26016 min
Histogram: 1 0 0 0 0 0 0 0 0 0

Total # of neighbors = 26016
Ave neighs/atom = 26.2258
Neighbor list builds = 1
Dangerous builds = 0
        next i
jump SELF loop1
        read_dump orig.dump 0 x y z
  orthogonal box = (0 -0.00277788 0) to (7.77665 27.4973 4.48985)
  992 atoms before read
  992 atoms in snapshot
  0 atoms purged
  992 atoms replaced
  0 atoms trimmed
  0 atoms added
  992 atoms after read
        variable stretch equal 1+$i*${strainstep}
        variable stretch equal 1+24*${strainstep}
        variable stretch equal 1+24*0.0005
        change_box all ${direction} scale ${stretch} remap
        change_box all y scale ${stretch} remap
        change_box all y scale 1.012 remap
  orthogonal box = (0 -0.170562 0) to (7.77665 27.6651 4.48985)
        min_style ${style}
        min_style hftn
        minimize ${etol} ${ftol} ${maxiter} ${maxeval}
        minimize 1e-12 ${ftol} ${maxiter} ${maxeval}
        minimize 1e-12 1e-08 ${maxiter} ${maxeval}
        minimize 1e-12 1e-08 10000 ${maxeval}
        minimize 1e-12 1e-08 10000 20000
WARNING: Resetting reneighboring criteria during minimization (../min.cpp:168)
Memory usage per processor = 4.9874 Mbytes
Step PotEng Pxx Pyy Pxy Lx Ly Lz 
       0   -5846.3869  -0.38870481   -1.5935208 -2.2012677e-06      7.77665    27.835672      4.48985 
       1   -5851.4553  -0.16036043  -0.66013803 -1.6919614e-06      7.77665    27.835672      4.48985 
       2    -5855.951  0.019033404   0.07544507 -1.233127e-06      7.77665     27.48571      4.48985 
       3   -5855.9951 0.00026255788 0.00053020844 -1.7748384e-06      7.77665     27.48571      4.48985 
       4   -5855.9953 0.0001305353 1.2531004e-07 -3.6295531e-07      7.77665     27.48571      4.48985 
       5   -5855.9953 0.0001306323 2.6539302e-11 -3.7984328e-12      7.77665     27.48571      4.48985 
       6   -5855.9953 0.00013063229 -6.2763124e-15 2.3175851e-17      7.77665     27.48571      4.48985 
Loop time of 0.422026 on 1 procs for 5 steps with 992 atoms

Minimization stats:
  Stopping criterion = force tolerance
  Energy initial, next-to-last, final = 
        -5846.38694527     -5855.99526552     -5855.99526556
  Force two-norm initial, final = 13.9171 8.22224e-12
  Force max component initial, final = 1.74021 9.26641e-13
  Final line search alpha, max atom move = 0 0
  Iterations, force evaluations = 5 509

Pair  time (%) = 0.374545 (88.7493)
Neigh time (%) = 0.00146006 (0.345964)
Comm  time (%) = 0.0149207 (3.5355)
Outpt time (%) = 0.0049087 (1.16313)
Other time (%) = 0.0261914 (6.2061)

Nlocal:    992 ave 992 max 992 min
Histogram: 1 0 0 0 0 0 0 0 0 0
Nghost:    2429 ave 2429 max 2429 min
Histogram: 1 0 0 0 0 0 0 0 0 0
Neighs:    26016 ave 26016 max 26016 min
Histogram: 1 0 0 0 0 0 0 0 0 0

Total # of neighbors = 26016
Ave neighs/atom = 26.2258
Neighbor list builds = 1
Dangerous builds = 0
        next i
jump SELF loop1
        read_dump orig.dump 0 x y z
  orthogonal box = (0 -0.00277788 0) to (7.77665 27.4973 4.48985)
  992 atoms before read
  992 atoms in snapshot
  0 atoms purged
  992 atoms replaced
  0 atoms trimmed
  0 atoms added
  992 atoms after read
        variable stretch equal 1+$i*${strainstep}
        variable stretch equal 1+25*${strainstep}
        variable stretch equal 1+25*0.0005
        change_box all ${direction} scale ${stretch} remap
        change_box all y scale ${stretch} remap
        change_box all y scale 1.0125 remap
  orthogonal box = (0 -0.177438 0) to (7.77665 27.672 4.48985)
        min_style ${style}
        min_style hftn
        minimize ${etol} ${ftol} ${maxiter} ${maxeval}
        minimize 1e-12 ${ftol} ${maxiter} ${maxeval}
        minimize 1e-12 1e-08 ${maxiter} ${maxeval}
        minimize 1e-12 1e-08 10000 ${maxeval}
        minimize 1e-12 1e-08 10000 20000
WARNING: Resetting reneighboring criteria during minimization (../min.cpp:168)
Memory usage per processor = 4.9874 Mbytes
Step PotEng Pxx Pyy Pxy Lx Ly Lz 
       0   -5845.6141  -0.40289865   -1.6533225 -2.1713243e-06      7.77665    27.849424      4.48985 
       1   -5850.3957  -0.19373446  -0.79774469 -1.1397066e-07      7.77665    27.849424      4.48985 
       2   -5855.8533  0.010078557  0.039210366 -4.3412012e-06      7.77665    27.492972      4.48985 
       3   -5855.9945 0.00065131093  0.002204459 -8.5608791e-05      7.77665    27.492972      4.48985 
       4   -5855.9953 0.00013536217 4.5376031e-05 -1.8608898e-05      7.77665    27.492972      4.48985 
       5   -5855.9953 0.00013082659 -8.6440292e-08 7.0827417e-07      7.77665    27.492972      4.48985 
       6   -5855.9953 0.00013059779 -4.2953435e-12 5.1495919e-13      7.77665    27.492972      4.48985 
Loop time of 0.414314 on 1 procs for 5 steps with 992 atoms

Minimization stats:
  Stopping criterion = force tolerance
  Energy initial, next-to-last, final = 
        -5845.61408886     -5855.99525034     -5855.99526556
  Force two-norm initial, final = 14.4391 8.70043e-10
  Force max component initial, final = 1.80546 6.92533e-11
  Final line search alpha, max atom move = 0 0
  Iterations, force evaluations = 5 421

Pair  time (%) = 0.327083 (78.9456)
Neigh time (%) = 0.00119905 (0.289407)
Comm  time (%) = 0.0640564 (15.4608)
Outpt time (%) = 0.00081687 (0.197162)
Other time (%) = 0.0211588 (5.10695)

Nlocal:    992 ave 992 max 992 min
Histogram: 1 0 0 0 0 0 0 0 0 0
Nghost:    2429 ave 2429 max 2429 min
Histogram: 1 0 0 0 0 0 0 0 0 0
Neighs:    26016 ave 26016 max 26016 min
Histogram: 1 0 0 0 0 0 0 0 0 0

Total # of neighbors = 26016
Ave neighs/atom = 26.2258
Neighbor list builds = 1
Dangerous builds = 0
        next i
jump SELF loop1
        read_dump orig.dump 0 x y z
  orthogonal box = (0 -0.00277788 0) to (7.77665 27.4973 4.48985)
  992 atoms before read
  992 atoms in snapshot
  0 atoms purged
  992 atoms replaced
  0 atoms trimmed
  0 atoms added
  992 atoms after read
        variable stretch equal 1+$i*${strainstep}
        variable stretch equal 1+26*${strainstep}
        variable stretch equal 1+26*0.0005
        change_box all ${direction} scale ${stretch} remap
        change_box all y scale ${stretch} remap
        change_box all y scale 1.013 remap
  orthogonal box = (0 -0.184314 0) to (7.77665 27.6789 4.48985)
        min_style ${style}
        min_style hftn
        minimize ${etol} ${ftol} ${maxiter} ${maxeval}
        minimize 1e-12 ${ftol} ${maxiter} ${maxeval}
        minimize 1e-12 1e-08 ${maxiter} ${maxeval}
        minimize 1e-12 1e-08 10000 ${maxeval}
        minimize 1e-12 1e-08 10000 20000
WARNING: Resetting reneighboring criteria during minimization (../min.cpp:168)
Memory usage per processor = 4.9874 Mbytes
Step PotEng Pxx Pyy Pxy Lx Ly Lz 
       0      -5844.8  -0.41690429   -1.7124672 -2.1713235e-06      7.77665    27.863177      4.48985 
       1   -5849.9638  -0.20156268  -0.83071598 1.463829e-06      7.77665    27.863177      4.48985 
       2   -5855.2304 -0.030818552  -0.12744683 8.0061648e-06      7.77665     27.52679      4.48985 
       3   -5855.9915 0.0028197149  0.010696123 3.3411326e-05      7.77665     27.52679      4.48985 
       4   -5855.9952 0.00017816099 5.4938461e-05 9.6150594e-05      7.77665     27.52679      4.48985 
       5   -5855.9953 0.00013041622 2.2188526e-07 -2.1665231e-07      7.77665     27.52679      4.48985 
       6   -5855.9953 0.00013043734 2.5961551e-12 -2.3043846e-12      7.77665     27.52679      4.48985 
Loop time of 0.323318 on 1 procs for 5 steps with 992 atoms

Minimization stats:
  Stopping criterion = force tolerance
  Energy initial, next-to-last, final = 
         -5844.7999778     -5855.99524711     -5855.99526556
  Force two-norm initial, final = 14.9555 1.28593e-09
  Force max component initial, final = 1.87001 1.08208e-10
  Final line search alpha, max atom move = 0 0
  Iterations, force evaluations = 5 396

Pair  time (%) = 0.284241 (87.9136)
Neigh time (%) = 0.00119108 (0.368393)
Comm  time (%) = 0.0177302 (5.48382)
Outpt time (%) = 0.00056101 (0.173516)
Other time (%) = 0.0195951 (6.06064)

Nlocal:    992 ave 992 max 992 min
Histogram: 1 0 0 0 0 0 0 0 0 0
Nghost:    2429 ave 2429 max 2429 min
Histogram: 1 0 0 0 0 0 0 0 0 0
Neighs:    26016 ave 26016 max 26016 min
Histogram: 1 0 0 0 0 0 0 0 0 0

Total # of neighbors = 26016
Ave neighs/atom = 26.2258
Neighbor list builds = 1
Dangerous builds = 0
        next i
jump SELF loop1
        read_dump orig.dump 0 x y z
  orthogonal box = (0 -0.00277788 0) to (7.77665 27.4973 4.48985)
  992 atoms before read
  992 atoms in snapshot
  0 atoms purged
  992 atoms replaced
  0 atoms trimmed
  0 atoms added
  992 atoms after read
        variable stretch equal 1+$i*${strainstep}
        variable stretch equal 1+27*${strainstep}
        variable stretch equal 1+27*0.0005
        change_box all ${direction} scale ${stretch} remap
        change_box all y scale ${stretch} remap
        change_box all y scale 1.0135 remap
  orthogonal box = (0 -0.191191 0) to (7.77665 27.6857 4.48985)
        min_style ${style}
        min_style hftn
        minimize ${etol} ${ftol} ${maxiter} ${maxeval}
        minimize 1e-12 ${ftol} ${maxiter} ${maxeval}
        minimize 1e-12 1e-08 ${maxiter} ${maxeval}
        minimize 1e-12 1e-08 10000 ${maxeval}
        minimize 1e-12 1e-08 10000 20000
WARNING: Resetting reneighboring criteria during minimization (../min.cpp:168)
Memory usage per processor = 4.9874 Mbytes
Step PotEng Pxx Pyy Pxy Lx Ly Lz 
       0   -5843.9633  -0.43080497   -1.7712948 -2.1417797e-06      7.77665     27.87693      4.48985 
       1   -5849.5036  -0.20602041   -0.8503572 8.7065996e-07      7.77665     27.87693      4.48985 
       2   -5855.2449  -0.02281737 -0.095389318 -8.156125e-05      7.77665    27.520578      4.48985 
       3   -5855.9916 0.0028784159  0.010868388 8.4281142e-05      7.77665    27.520578      4.48985 
       4   -5855.9953 0.00011783527 3.215741e-06 -3.7998548e-05      7.77665    27.520578      4.48985 
       5   -5855.9953 0.00013069051  9.01828e-08 5.6902925e-07      7.77665    27.520578      4.48985 
       6   -5855.9953 0.00013046679 1.6289197e-13 6.2038408e-14      7.77665    27.520578      4.48985 
Loop time of 0.334951 on 1 procs for 5 steps with 992 atoms

Minimization stats:
  Stopping criterion = force tolerance
  Energy initial, next-to-last, final = 
        -5843.96331811     -5855.99526448     -5855.99526556
  Force two-norm initial, final = 15.4691 3.04305e-10
  Force max component initial, final = 1.9342 2.18654e-11
  Final line search alpha, max atom move = 0 0
  Iterations, force evaluations = 5 394

Pair  time (%) = 0.301252 (89.9391)
Neigh time (%) = 0.00119408 (0.356495)
Comm  time (%) = 0.0121561 (3.62922)
Outpt time (%) = 0.000435136 (0.12991)
Other time (%) = 0.0199139 (5.94531)

Nlocal:    992 ave 992 max 992 min
Histogram: 1 0 0 0 0 0 0 0 0 0
Nghost:    2429 ave 2429 max 2429 min
Histogram: 1 0 0 0 0 0 0 0 0 0
Neighs:    26016 ave 26016 max 26016 min
Histogram: 1 0 0 0 0 0 0 0 0 0

Total # of neighbors = 26016
Ave neighs/atom = 26.2258
Neighbor list builds = 1
Dangerous builds = 0
        next i
jump SELF loop1
        read_dump orig.dump 0 x y z
  orthogonal box = (0 -0.00277788 0) to (7.77665 27.4973 4.48985)
  992 atoms before read
  992 atoms in snapshot
  0 atoms purged
  992 atoms replaced
  0 atoms trimmed
  0 atoms added
  992 atoms after read
        variable stretch equal 1+$i*${strainstep}
        variable stretch equal 1+28*${strainstep}
        variable stretch equal 1+28*0.0005
        change_box all ${direction} scale ${stretch} remap
        change_box all y scale ${stretch} remap
        change_box all y scale 1.014 remap
  orthogonal box = (0 -0.198067 0) to (7.77665 27.6926 4.48985)
        min_style ${style}
        min_style hftn
        minimize ${etol} ${ftol} ${maxiter} ${maxeval}
[...]
  Iterations, force evaluations = 20 577

Pair  time (%) = 0.460323 (85.195)
Neigh time (%) = 0.00343702 (0.636111)
Comm  time (%) = 0.0289811 (5.36373)
Outpt time (%) = 0.0175102 (3.24073)
Other time (%) = 0.0300656 (5.56444)

Nlocal:    992 ave 992 max 992 min
Histogram: 1 0 0 0 0 0 0 0 0 0
Nghost:    2429 ave 2429 max 2429 min
Histogram: 1 0 0 0 0 0 0 0 0 0
Neighs:    26016 ave 26016 max 26016 min
Histogram: 1 0 0 0 0 0 0 0 0 0

Total # of neighbors = 26016
Ave neighs/atom = 26.2258
Neighbor list builds = 3
Dangerous builds = 0
        next i
jump SELF loop1
        read_dump orig.dump 0 x y z
  orthogonal box = (0 -0.00277788 0) to (7.77665 27.4973 4.48985)
  992 atoms before read
  992 atoms in snapshot
  0 atoms purged
  992 atoms replaced
  0 atoms trimmed
  0 atoms added
  992 atoms after read
        variable stretch equal 1+$i*${strainstep}
        variable stretch equal 1+96*${strainstep}
        variable stretch equal 1+96*0.0005
        change_box all ${direction} scale ${stretch} remap
        change_box all y scale ${stretch} remap
        change_box all y scale 1.048 remap
  orthogonal box = (0 -0.665662 0) to (7.77665 28.1602 4.48985)
        min_style ${style}
        min_style hftn
        minimize ${etol} ${ftol} ${maxiter} ${maxeval}
        minimize 1e-12 ${ftol} ${maxiter} ${maxeval}
        minimize 1e-12 1e-08 ${maxiter} ${maxeval}
        minimize 1e-12 1e-08 10000 ${maxeval}
        minimize 1e-12 1e-08 10000 20000
WARNING: Resetting reneighboring criteria during minimization (../min.cpp:168)
Memory usage per processor = 4.98781 Mbytes
Step PotEng Pxx Pyy Pxy Lx Ly Lz 
       0   -5728.4154   -1.1199622   -4.9227485 -1.1007161e-06      7.77665    28.825873      4.48985 
       1   -5733.9541  -0.97945269   -4.3438063 -2.6560744e-06      7.77665    28.825873      4.48985 
       2   -5751.7117  -0.88061546   -3.8859733 -1.3901876e-06      7.77665    28.825873      4.48985 
       3    -5765.838  -0.91640115   -3.9813894 4.4500559e-06      7.77665    28.825873      4.48985 
       4   -5774.3729  -0.80339243   -3.5059713 -1.1597102e-07      7.77665    28.408648      4.48985 
       5   -5790.5176  -0.72128112   -3.1212971 2.402258e-07      7.77665    28.408648      4.48985 
       6   -5804.5603  -0.56556272   -2.4651819 0.00054204426      7.77665    28.408648      4.48985 
       7   -5817.1294  -0.60494984   -2.5808769 0.00045673855      7.77665    28.108729      4.48985 
       8   -5829.0035  -0.43483128   -1.8462901 -0.00020072789      7.77665    28.108729      4.48985 
       9   -5839.1722  -0.41364586   -1.7293611 0.00081480232      7.77665    28.108729      4.48985 
      10   -5847.3096  -0.21996713  -0.91727227 -0.00061678577      7.77665    27.701327      4.48985 
      11   -5854.0787  -0.11317599  -0.46567018 0.0018632571      7.77665    27.701327      4.48985 
      12   -5855.9843 0.0075143169  0.029049494 0.00032523815      7.77665    27.701327      4.48985 
      13   -5855.9952 0.00019147595 0.00013929342 7.6474953e-05      7.77665    27.701327      4.48985 
      14   -5855.9953 0.00012943861 -6.626033e-07 -3.1785499e-08      7.77665    27.701327      4.48985 
      15   -5855.9953 0.0001296155 1.0757178e-11 -5.8320919e-12      7.77665    27.701327      4.48985 
Loop time of 0.461349 on 1 procs for 14 steps with 992 atoms

Minimization stats:
  Stopping criterion = force tolerance
  Energy initial, next-to-last, final = 
        -5728.41538339     -5855.99521849     -5855.99526556
  Force two-norm initial, final = 42.9818 7.71929e-09
  Force max component initial, final = 5.37307 5.77428e-10
  Final line search alpha, max atom move = 0 0
  Iterations, force evaluations = 14 555

Pair  time (%) = 0.406921 (88.2024)
Neigh time (%) = 0.00408306 (0.885027)
Comm  time (%) = 0.0167231 (3.62482)
Outpt time (%) = 0.00145613 (0.315625)
Other time (%) = 0.0321659 (6.97215)

Nlocal:    992 ave 992 max 992 min
Histogram: 1 0 0 0 0 0 0 0 0 0
Nghost:    2429 ave 2429 max 2429 min
Histogram: 1 0 0 0 0 0 0 0 0 0
Neighs:    26016 ave 26016 max 26016 min
Histogram: 1 0 0 0 0 0 0 0 0 0

Total # of neighbors = 26016
Ave neighs/atom = 26.2258
Neighbor list builds = 3
Dangerous builds = 0
        next i
jump SELF loop1
        read_dump orig.dump 0 x y z
  orthogonal box = (0 -0.00277788 0) to (7.77665 27.4973 4.48985)
  992 atoms before read
  992 atoms in snapshot
  0 atoms purged
  992 atoms replaced
  0 atoms trimmed
  0 atoms added
  992 atoms after read
        variable stretch equal 1+$i*${strainstep}
        variable stretch equal 1+97*${strainstep}
        variable stretch equal 1+97*0.0005
        change_box all ${direction} scale ${stretch} remap
        change_box all y scale ${stretch} remap
        change_box all y scale 1.0485 remap
  orthogonal box = (0 -0.672539 0) to (7.77665 28.1671 4.48985)
        min_style ${style}
        min_style hftn
        minimize ${etol} ${ftol} ${maxiter} ${maxeval}
        minimize 1e-12 ${ftol} ${maxiter} ${maxeval}
        minimize 1e-12 1e-08 ${maxiter} ${maxeval}
        minimize 1e-12 1e-08 10000 ${maxeval}
        minimize 1e-12 1e-08 10000 20000
WARNING: Resetting reneighboring criteria during minimization (../min.cpp:168)
Memory usage per processor = 4.98781 Mbytes
Step PotEng Pxx Pyy Pxy Lx Ly Lz 
       0   -5726.0427   -1.1266292   -4.9567758 -1.1007157e-06      7.77665    28.839626      4.48985 
       1    -5731.765  -0.98602086   -4.3768323 -2.6583123e-06      7.77665    28.839626      4.48985 
       2   -5749.8958  -0.88719641   -3.9178324 -1.3880612e-06      7.77665    28.839626      4.48985 
       3   -5764.1134   -0.9226807   -4.0119348 -9.4289614e-06      7.77665    28.839626      4.48985 
       4    -5772.838  -0.80880524   -3.5327837 2.8485231e-05      7.77665    28.418609      4.48985 
       5   -5789.5734  -0.72644002   -3.1482132 -4.8452324e-05      7.77665    28.418609      4.48985 
       6   -5803.2709  -0.57770412   -2.5116324 0.00096153056      7.77665    28.418609      4.48985 
       7   -5815.6568  -0.61563336   -2.6226997 2.4784133e-05      7.77665    28.121664      4.48985 
       8   -5826.4331  -0.44611138   -1.9045013 0.00022934076      7.77665    28.121664      4.48985 
       9   -5837.5842  -0.42628084   -1.7811471 0.00048170616      7.77665    28.121664      4.48985 
      10   -5843.7378  -0.32716151   -1.3618525 0.0001997726      7.77665    27.799812      4.48985 
      11   -5850.3497  -0.23441323  -0.96270769 0.00068976632      7.77665    27.799812      4.48985 
      12   -5855.2097 -0.021980184 -0.095207112 3.0361538e-05      7.77665    27.526394      4.48985 
      13   -5855.9921 0.0025455519 0.0092775719 0.00026772645      7.77665    27.526394      4.48985 
      14   -5855.9953 0.00014395168 2.6458939e-05 1.9512084e-05      7.77665    27.526394      4.48985 
      15   -5855.9953 0.00013043363 -2.165643e-08 -4.9909332e-10      7.77665    27.526394      4.48985 
      16   -5855.9953 0.00013043922 -1.0040949e-12 -2.3563965e-13      7.77665    27.526394      4.48985 
Loop time of 0.515386 on 1 procs for 15 steps with 992 atoms

Minimization stats:
  Stopping criterion = force tolerance
  Energy initial, next-to-last, final = 
        -5726.04272657     -5855.99525668     -5855.99526556
  Force two-norm initial, final = 43.2788 1.26009e-10
  Force max component initial, final = 5.4102 1.80019e-11
  Final line search alpha, max atom move = 0 0
  Iterations, force evaluations = 15 621

Pair  time (%) = 0.448974 (87.1142)
Neigh time (%) = 0.00610891 (1.18531)
Comm  time (%) = 0.0271543 (5.26874)
Outpt time (%) = 0.00222607 (0.431923)
Other time (%) = 0.0309223 (5.99983)

Nlocal:    992 ave 992 max 992 min
Histogram: 1 0 0 0 0 0 0 0 0 0
Nghost:    2429 ave 2429 max 2429 min
Histogram: 1 0 0 0 0 0 0 0 0 0
Neighs:    26016 ave 26016 max 26016 min
Histogram: 1 0 0 0 0 0 0 0 0 0

Total # of neighbors = 26016
Ave neighs/atom = 26.2258
Neighbor list builds = 4
Dangerous builds = 0
        next i
jump SELF loop1
        read_dump orig.dump 0 x y z
  orthogonal box = (0 -0.00277788 0) to (7.77665 27.4973 4.48985)
  992 atoms before read
  992 atoms in snapshot
  0 atoms purged
  992 atoms replaced
  0 atoms trimmed
  0 atoms added
  992 atoms after read
        variable stretch equal 1+$i*${strainstep}
        variable stretch equal 1+98*${strainstep}
        variable stretch equal 1+98*0.0005
        change_box all ${direction} scale ${stretch} remap
        change_box all y scale ${stretch} remap
        change_box all y scale 1.049 remap
  orthogonal box = (0 -0.679415 0) to (7.77665 28.174 4.48985)
        min_style ${style}
        min_style hftn
        minimize ${etol} ${ftol} ${maxiter} ${maxeval}
        minimize 1e-12 ${ftol} ${maxiter} ${maxeval}
        minimize 1e-12 1e-08 ${maxiter} ${maxeval}
        minimize 1e-12 1e-08 10000 ${maxeval}
        minimize 1e-12 1e-08 10000 20000
WARNING: Resetting reneighboring criteria during minimization (../min.cpp:168)
Memory usage per processor = 4.98781 Mbytes
Step PotEng Pxx Pyy Pxy Lx Ly Lz 
       0   -5723.6527   -1.1332115   -4.9904882 -1.083046e-06      7.77665    28.853379      4.48985 
       1   -5729.2679  -0.98891572   -4.3964616 -2.6646226e-06      7.77665    28.853379      4.48985 
       2   -5747.8718  -0.88858512   -3.9297853 -1.2892206e-06      7.77665    28.853379      4.48985 
       3   -5762.3337  -0.92926662   -4.0438655 -2.4158669e-06      7.77665    28.853379      4.48985 
       4   -5771.2726   -0.8086913   -3.5372161 -3.4262028e-07      7.77665    28.423381      4.48985 
       5   -5788.6269  -0.73728881   -3.1892555 -9.9191869e-07      7.77665    28.423381      4.48985 
       6   -5799.7792  -0.63980142   -2.7637415 4.3032604e-05      7.77665    28.423381      4.48985 
       7   -5816.2179  -0.56947548    -2.443895 -0.00032768008      7.77665     28.08393      4.48985 
       8   -5826.8238  -0.51950039   -2.1931217 -0.00012643301      7.77665     28.08393      4.48985 
       9   -5835.4178  -0.42337917   -1.7988535 0.0011681681      7.77665     28.08393      4.48985 
      10   -5841.2367  -0.38331946   -1.5951705 0.00023859704      7.77665     28.08393      4.48985 
      11   -5846.2382  -0.32404089   -1.3464599 0.0012745953      7.77665    27.788733      4.48985 
      12   -5851.9756  -0.12412568  -0.51696532 -0.00036230324      7.77665    27.788733      4.48985 
      13   -5855.9642  0.015931609  0.062127692 0.0006813523      7.77665    27.488711      4.48985 
      14   -5855.9952 0.00022918003 0.00030872407 6.0482926e-05      7.77665    27.488711      4.48985 
      15   -5855.9953 0.00013058793 -1.8901378e-07 4.8521934e-08      7.77665    27.488711      4.48985 
      16   -5855.9953 0.00013061803 -9.1370469e-13 -2.7611815e-12      7.77665    27.488711      4.48985 
Loop time of 0.511031 on 1 procs for 15 steps with 992 atoms

Minimization stats:
  Stopping criterion = force tolerance
  Energy initial, next-to-last, final = 
        -5723.65274447     -5855.99516204     -5855.99526556
  Force two-norm initial, final = 43.5731 2.9159e-09
  Force max component initial, final = 5.44699 1.95329e-10
  Final line search alpha, max atom move = 0 0
  Iterations, force evaluations = 15 560

Pair  time (%) = 0.442153 (86.5218)
Neigh time (%) = 0.00523276 (1.02396)
Comm  time (%) = 0.0325735 (6.37408)
Outpt time (%) = 0.00229499 (0.44909)
Other time (%) = 0.0287764 (5.63105)

Nlocal:    992 ave 992 max 992 min
Histogram: 1 0 0 0 0 0 0 0 0 0
Nghost:    2429 ave 2429 max 2429 min
Histogram: 1 0 0 0 0 0 0 0 0 0
Neighs:    26016 ave 26016 max 26016 min
Histogram: 1 0 0 0 0 0 0 0 0 0

Total # of neighbors = 26016
Ave neighs/atom = 26.2258
Neighbor list builds = 4
Dangerous builds = 0
        next i
jump SELF loop1
        read_dump orig.dump 0 x y z
  orthogonal box = (0 -0.00277788 0) to (7.77665 27.4973 4.48985)
  992 atoms before read
  992 atoms in snapshot
  0 atoms purged
  992 atoms replaced
  0 atoms trimmed
  0 atoms added
  992 atoms after read
        variable stretch equal 1+$i*${strainstep}
        variable stretch equal 1+99*${strainstep}
        variable stretch equal 1+99*0.0005
        change_box all ${direction} scale ${stretch} remap
        change_box all y scale ${stretch} remap
        change_box all y scale 1.0495 remap
  orthogonal box = (0 -0.686292 0) to (7.77665 28.1808 4.48985)
        min_style ${style}
        min_style hftn
        minimize ${etol} ${ftol} ${maxiter} ${maxeval}
        minimize 1e-12 ${ftol} ${maxiter} ${maxeval}
        minimize 1e-12 1e-08 ${maxiter} ${maxeval}
        minimize 1e-12 1e-08 10000 ${maxeval}
        minimize 1e-12 1e-08 10000 20000
WARNING: Resetting reneighboring criteria during minimization (../min.cpp:168)
Memory usage per processor = 4.98781 Mbytes
Step PotEng Pxx Pyy Pxy Lx Ly Lz 
       0   -5721.2506   -1.1397347   -5.0239981 -1.0655376e-06      7.77665    28.867132      4.48985 
       1   -5726.7383  -0.99161013   -4.4154181 -2.6721466e-06      7.77665    28.867132      4.48985 
       2   -5736.1092   -1.0532337   -4.6275541 -2.4890357e-06      7.77665    28.867132      4.48985 
       3   -5742.1629    -1.036174   -4.5393164 -2.0218721e-06      7.77665    28.867132      4.48985 
       4   -5750.4229  -0.89055661   -3.9314042 -1.4085452e-06      7.77665    28.867132      4.48985 
       5   -5759.4904  -0.93068741   -4.0619741 5.6286686e-07      7.77665    28.564199      4.48985 
       6   -5767.0661  -0.86951265   -3.7923204 1.6076784e-05      7.77665    28.564199      4.48985 
       7   -5778.9543  -0.74289792   -3.2594793 0.00037539561      7.77665    28.564199      4.48985 
       8   -5793.5472  -0.74429241   -3.2120846 0.00077935318      7.77665    28.564199      4.48985 
       9    -5805.647   -0.5867504   -2.5489716 0.00046411235      7.77665    28.133857      4.48985 
      10   -5816.0971  -0.63229498   -2.6917184 0.0010418878      7.77665    28.133857      4.48985 
      11   -5827.1734  -0.45272057   -1.9255021 -0.00016233274      7.77665    28.133857      4.48985 
      12   -5836.0577  -0.42769961   -1.8065799 0.00082825928      7.77665    28.133857      4.48985 
      13   -5843.4783  -0.30406938   -1.2704874 0.00042564405      7.77665    27.781357      4.48985 
      14   -5851.5021  -0.20096615  -0.82281243 -0.00055095459      7.77665    27.781357      4.48985 
      15   -5855.9341  0.018896085  0.074247308 0.00040565436      7.77665    27.486372      4.48985 
      16    -5855.995 0.00033610471 0.00076307067 4.1546897e-05      7.77665    27.486372      4.48985 
      17   -5855.9953 0.00013560917 3.2780316e-06 1.1767797e-05      7.77665    27.486372      4.48985 
      18   -5855.9953 0.00013062908 -1.6043423e-10 -6.8380686e-11      7.77665    27.486372      4.48985 
      19   -5855.9953 0.00013062915 -1.9418641e-14 -1.6291924e-15      7.77665    27.486372      4.48985 
Loop time of 0.612993 on 1 procs for 18 steps with 992 atoms

Minimization stats:
  Stopping criterion = force tolerance
  Energy initial, next-to-last, final = 
        -5721.25055042     -5855.99526446     -5855.99526556
  Force two-norm initial, final = 43.8657 4.88566e-12
  Force max component initial, final = 5.48355 9.19776e-13
  Final line search alpha, max atom move = 0 0
  Iterations, force evaluations = 18 744

Pair  time (%) = 0.536567 (87.5323)
Neigh time (%) = 0.00666613 (1.08747)
Comm  time (%) = 0.0234507 (3.82561)
Outpt time (%) = 0.00273179 (0.445647)
Other time (%) = 0.0435774 (7.10896)

Nlocal:    992 ave 992 max 992 min
Histogram: 1 0 0 0 0 0 0 0 0 0
Nghost:    2429 ave 2429 max 2429 min
Histogram: 1 0 0 0 0 0 0 0 0 0
Neighs:    26016 ave 26016 max 26016 min
Histogram: 1 0 0 0 0 0 0 0 0 0

Total # of neighbors = 26016
Ave neighs/atom = 26.2258
Neighbor list builds = 4
Dangerous builds = 0
        next i
jump SELF loop1
        read_dump orig.dump 0 x y z
  orthogonal box = (0 -0.00277788 0) to (7.77665 27.4973 4.48985)
  992 atoms before read
  992 atoms in snapshot
  0 atoms purged
  992 atoms replaced
  0 atoms trimmed
  0 atoms added
  992 atoms after read
        variable stretch equal 1+$i*${strainstep}
        variable stretch equal 1+100*${strainstep}
        variable stretch equal 1+100*0.0005
        change_box all ${direction} scale ${stretch} remap
        change_box all y scale ${stretch} remap
        change_box all y scale 1.05 remap
  orthogonal box = (0 -0.693168 0) to (7.77665 28.1877 4.48985)
        min_style ${style}
        min_style hftn
        minimize ${etol} ${ftol} ${maxiter} ${maxeval}
        minimize 1e-12 ${ftol} ${maxiter} ${maxeval}
        minimize 1e-12 1e-08 ${maxiter} ${maxeval}
        minimize 1e-12 1e-08 10000 ${maxeval}
        minimize 1e-12 1e-08 10000 20000
WARNING: Resetting reneighboring criteria during minimization (../min.cpp:168)
Memory usage per processor = 4.98781 Mbytes
Step PotEng Pxx Pyy Pxy Lx Ly Lz 
       0   -5718.8291   -1.1461629   -5.0571456 -1.0655371e-06      7.77665    28.880885      4.48985 
       1   -5724.5068  -0.99797883   -4.4476996 -2.6743432e-06      7.77665    28.880885      4.48985 
       2   -5733.9116   -1.0596389   -4.6599641 -2.4736576e-06      7.77665    28.880885      4.48985 
       3   -5740.0871   -1.0427966   -4.5722506 -2.0103547e-06      7.77665    28.880885      4.48985 
       4   -5749.4155  -0.90238452   -3.9810419 -1.5399584e-06      7.77665    28.880885      4.48985 
       5    -5773.001  -0.83907521   -3.6500388 2.1175176e-06      7.77665    28.443406      4.48985 
       6   -5780.6703  -0.76809781   -3.3420146 -1.2249468e-05      7.77665    28.443406      4.48985 
       7   -5796.5339  -0.74015674   -3.1791928 0.00049497718      7.77665    28.443406      4.48985 
       8   -5806.1257   -0.5826601   -2.5268903 -0.00099434838      7.77665    28.128579      4.48985 
       9   -5817.3803  -0.59319577    -2.543373 0.00026311418      7.77665    28.128579      4.48985 
      10   -5830.7809  -0.40935021   -1.7377929 0.00097290053      7.77665    28.128579      4.48985 
      11    -5841.177  -0.38700691   -1.6220982 0.00066514922      7.77665    27.856231      4.48985 
      12   -5849.4091  -0.17594418  -0.74845969 0.0015289973      7.77665    27.856231      4.48985 
      13   -5855.0384 -0.041151325  -0.16753652 -0.0017904834      7.77665    27.540154      4.48985 
      14   -5855.9906 0.0036797443  0.013926734 0.00018319263      7.77665    27.540154      4.48985 
      15   -5855.9953 0.00013913672 -7.4896016e-06 3.0081099e-05      7.77665    27.540154      4.48985 
      16   -5855.9953 0.00013913672 -7.4896016e-06 3.0081099e-05      7.77665    27.540154      4.48985 
      17   -5855.9953 0.00013913672 -7.4896016e-06 3.0081099e-05      7.77665    27.540154      4.48985 
      18   -5855.9953 0.00013876795 -7.954616e-06 2.936671e-05      7.77665    27.540154      4.48985 
      19   -5855.9953 0.00013876795 -7.954616e-06 2.936671e-05      7.77665    27.540154      4.48985 
      20   -5855.9953 0.00013861018 -7.9542991e-06 2.8920216e-05      7.77665    27.540154      4.48985 
Loop time of 0.448355 on 1 procs for 19 steps with 992 atoms

Minimization stats:
  Stopping criterion = energy tolerance
  Energy initial, next-to-last, final = 
        -5718.82912726     -5855.99526808     -5855.99526823
  Force two-norm initial, final = 44.1551 0.00113519
  Force max component initial, final = 5.51972 7.4186e-05
  Final line search alpha, max atom move = 0 0
  Iterations, force evaluations = 19 462

Pair  time (%) = 0.36362 (81.1009)
Neigh time (%) = 0.00435192 (0.970641)
Comm  time (%) = 0.0450575 (10.0495)
Outpt time (%) = 0.00151168 (0.337161)
Other time (%) = 0.0338139 (7.54176)

Nlocal:    992 ave 992 max 992 min
Histogram: 1 0 0 0 0 0 0 0 0 0
Nghost:    2429 ave 2429 max 2429 min
Histogram: 1 0 0 0 0 0 0 0 0 0
Neighs:    26016 ave 26016 max 26016 min
Histogram: 1 0 0 0 0 0 0 0 0 0

Total # of neighbors = 26016
Ave neighs/atom = 26.2258
Neighbor list builds = 4
Dangerous builds = 0
        next i
jump SELF loop1

