LAMMPS (28 Jun 2014)
# attempt at getting tensile strain-stress curve for infinite slab

#file prefix
variable prefix string tension_V_brittle_twin
variable dumpfile string ${prefix}.*.dump
variable dumpfile string tension_V_brittle_twin.*.dump
variable restartfile string ${prefix}.*.equil
variable restartfile string tension_V_brittle_twin.*.equil

#Mass (g/mol)
variable m equal 1

# lattice constant (in Angstroms) and orientation of axes (given by lattice vectors)
variable rho equal 1.0
variable x1 equal 1
variable x2 equal 0
variable x3 equal 1
variable y1 equal 0
variable y2 equal 1
variable y3 equal 0
variable z1 equal -1
variable z2 equal 0
variable z3 equal 1
# length of lattice in different directions (using orientation of lattice vectors)
variable ax equal sqrt(${x1}*${x1}+${x2}*${x2}+${x3}*${x3})
variable ax equal sqrt(1*${x1}+${x2}*${x2}+${x3}*${x3})
variable ax equal sqrt(1*1+${x2}*${x2}+${x3}*${x3})
variable ax equal sqrt(1*1+0*${x2}+${x3}*${x3})
variable ax equal sqrt(1*1+0*0+${x3}*${x3})
variable ax equal sqrt(1*1+0*0+1*${x3})
variable ax equal sqrt(1*1+0*0+1*1)
variable ay equal sqrt(${y1}*${y1}+${y2}*${y2}+${y3}*${y3})
variable ay equal sqrt(0*${y1}+${y2}*${y2}+${y3}*${y3})
variable ay equal sqrt(0*0+${y2}*${y2}+${y3}*${y3})
variable ay equal sqrt(0*0+1*${y2}+${y3}*${y3})
variable ay equal sqrt(0*0+1*1+${y3}*${y3})
variable ay equal sqrt(0*0+1*1+0*${y3})
variable ay equal sqrt(0*0+1*1+0*0)
variable az equal sqrt(${z1}*${z1}+${z2}*${z2}+${z3}*${z3})
variable az equal sqrt(-1*${z1}+${z2}*${z2}+${z3}*${z3})
variable az equal sqrt(-1*-1+${z2}*${z2}+${z3}*${z3})
variable az equal sqrt(-1*-1+0*${z2}+${z3}*${z3})
variable az equal sqrt(-1*-1+0*0+${z3}*${z3})
variable az equal sqrt(-1*-1+0*0+1*${z3})
variable az equal sqrt(-1*-1+0*0+1*1)

# size of box in lattice units
variable lxpos equal 2
variable lxneg equal 0
variable lypos equal 10
variable lyneg equal 0
variable lzpos equal 2
variable lzneg equal 0

# Define minimization parameters and damping
variable etol equal 1.0e-12
variable ftol equal 1.0e-8
variable maxiter equal 10000
variable maxeval equal 20000
variable style string hftn

# boundary conditions
dimension	3
boundary	p s p
atom_style	atomic

# create geometry
units		lj
lattice         fcc ${rho} orient x 1 1 -2 orient y 1 1 1 orient z 1 -1 0 spacing ${ax} ${ay} ${az}
lattice         fcc 1 orient x 1 1 -2 orient y 1 1 1 orient z 1 -1 0 spacing ${ax} ${ay} ${az}
lattice         fcc 1 orient x 1 1 -2 orient y 1 1 1 orient z 1 -1 0 spacing 1.4142135623731 ${ay} ${az}
lattice         fcc 1 orient x 1 1 -2 orient y 1 1 1 orient z 1 -1 0 spacing 1.4142135623731 1 ${az}
lattice         fcc 1 orient x 1 1 -2 orient y 1 1 1 orient z 1 -1 0 spacing 1.4142135623731 1 1.4142135623731
Lattice spacing in x,y,z = 2.24492 1.5874 2.24492
region		myregion block ${lxneg} ${lxpos} ${lyneg} ${lypos} ${lzneg} ${lzpos} units lattice
region		myregion block 0 ${lxpos} ${lyneg} ${lypos} ${lzneg} ${lzpos} units lattice
region		myregion block 0 2 ${lyneg} ${lypos} ${lzneg} ${lzpos} units lattice
region		myregion block 0 2 0 ${lypos} ${lzneg} ${lzpos} units lattice
region		myregion block 0 2 0 10 ${lzneg} ${lzpos} units lattice
region		myregion block 0 2 0 10 0 ${lzpos} units lattice
region		myregion block 0 2 0 10 0 2 units lattice
create_box	1 myregion
Created orthogonal box = (0 0 0) to (4.48985 15.874 4.48985)
  1 by 1 by 1 MPI processor grid

region		upper block INF INF 0.01 INF INF INF
create_atoms	1 region upper
Created 316 atoms

region		lower block INF INF INF 0.01 INF INF
lattice         fcc ${rho} orient x 1 1 -2 orient y -1 -1 -1 orient z -1 1 0 spacing ${ax} ${ay} ${az}
lattice         fcc 1 orient x 1 1 -2 orient y -1 -1 -1 orient z -1 1 0 spacing ${ax} ${ay} ${az}
lattice         fcc 1 orient x 1 1 -2 orient y -1 -1 -1 orient z -1 1 0 spacing 1.4142135623731 ${ay} ${az}
lattice         fcc 1 orient x 1 1 -2 orient y -1 -1 -1 orient z -1 1 0 spacing 1.4142135623731 1 ${az}
lattice         fcc 1 orient x 1 1 -2 orient y -1 -1 -1 orient z -1 1 0 spacing 1.4142135623731 1 1.4142135623731
Lattice spacing in x,y,z = 2.24492 1.5874 2.24492
create_atoms	1 region lower
Created 20 atoms

# define masses
mass * $m
mass * 1

# my fake/morse potential
pair_style      table linear 3001
pair_coeff      * * vpotential_inter33d dummy
neighbor	0.3 bin
neigh_modify	delay 5

# Setup output
thermo 1
thermo_style custom step pe pxx pyy pxy lx ly lz
thermo_modify norm no

# Compute initial state by relaxing box
min_style ${style}
min_style hftn
minimize ${etol} ${ftol} ${maxiter} ${maxeval}
minimize 1e-12 ${ftol} ${maxiter} ${maxeval}
minimize 1e-12 1e-08 ${maxiter} ${maxeval}
minimize 1e-12 1e-08 10000 ${maxeval}
minimize 1e-12 1e-08 10000 20000
WARNING: Resetting reneighboring criteria during minimization (../min.cpp:168)
Memory usage per processor = 4.90059 Mbytes
Step PotEng Pxx Pyy Pxy Lx Ly Lz 
       0    37272.081    1007.4655  -0.04493237    0.1971231    4.4898482    15.583444    4.4898482 
       1    12155.171    416.20681   0.59850933   0.26941712    4.4898482    15.583444    4.4898482 
       2    3227.5863    174.89273    1.4068521   0.50219078    4.4898482    15.583444    4.4898482 
       3    107.93212    78.966561    2.4166985   0.84959823    4.4898482    15.583444    4.4898482 
       4    107.93212    78.965349    2.4166614   0.84958518    4.4898482    15.583683    4.4898482 
       5   -878.35331    44.054413    3.4051392    1.1256027    4.4898482    15.583683    4.4898482 
       6   -1367.0371    26.207401     3.879418   0.83183926    4.4898482    15.583683    4.4898482 
       7   -1489.8013    20.320945     5.233765  -0.53132673    4.4898482    15.858642    4.4898482 
       8    -1534.899    18.103118    4.0327914  -0.38685746    4.4898482    15.858642    4.4898482 
       9   -1545.4839    17.608951    4.0250903  -0.35154641    4.4898482    15.858642    4.4898482 
      10   -1558.5448    15.970817     3.893654  -0.58091362    4.4898482    16.190062    4.4898482 
      11   -1568.9408    15.515354    3.8437898  -0.47148552    4.4898482    16.190062    4.4898482 
      12   -1580.8462    14.168425    3.8158241  -0.68165841    4.4898482    16.190062    4.4898482 
      13   -1589.2094    13.778133    3.6797684  -0.55341455    4.4898482    16.190062    4.4898482 
      14    -1597.907    12.300586    3.5919596   -0.6242627    4.4898482    16.571217    4.4898482 
      15   -1624.3107    10.063374    3.2731929  -0.21745874    4.4898482    16.571217    4.4898482 
      16   -1635.0441    9.0853039    3.2529887  -0.37519492    4.4898482    16.571217    4.4898482 
      17    -1655.807    7.6575421    3.4854237   0.31395232    4.4898482    16.780835    4.4898482 
      18   -1670.4246    6.5947078    3.4035972   0.20612835    4.4898482    16.780835    4.4898482 
      19   -1694.1724    5.5309472    3.6068765   0.90677476    4.4898482    16.780835    4.4898482 
      20   -1731.1704    3.8715121      3.28788   0.46127098    4.4898482    16.879538    4.4898482 
      21   -1769.1619     3.200785    2.8929432   0.80585789    4.4898482    16.879538    4.4898482 
      22   -1795.9522    2.4740686    2.2344981    0.4034008    4.4898482    16.879538    4.4898482 
      23   -1822.4022    2.0677354    1.4286671   0.19769614    4.4898482    16.879538    4.4898482 
      24   -1845.4729    2.0257347   0.62047265  -0.25746162    4.4898482    16.876114    4.4898482 
      25   -1861.7558     1.599735   0.32701275  -0.32525499    4.4898482    16.876114    4.4898482 
      26   -1864.3073     1.519233   0.29285818  -0.38925907    4.4898482    16.876114    4.4898482 
      27   -1869.6431    1.5282228   0.20019004  -0.43788383    4.4898482    16.876114    4.4898482 
      28   -1873.6943     1.572344   0.39991904   -0.3546435    4.4898482    16.718506    4.4898482 
      29   -1875.6653    1.4743009  0.097400306  -0.18593302    4.4898482    16.718506    4.4898482 
      30   -1875.9904    1.4762839 0.0031350936 0.00021252385    4.4898482    16.718506    4.4898482 
      31   -1875.9921    1.4761381 -9.9935392e-05 8.7550992e-05    4.4898482    16.718506    4.4898482 
      32   -1875.9921    1.4761381 -9.9935392e-05 8.7550992e-05    4.4898482    16.718506    4.4898482 
      33   -1875.9921    1.4761381 -9.9935392e-05 8.7550992e-05    4.4898482    16.718506    4.4898482 
      34   -1875.9921    1.4761427 -0.00010542013 9.7074454e-05    4.4898482    16.718506    4.4898482 
      35   -1875.9921    1.4761427 -0.00010542013 9.7074454e-05    4.4898482    16.718506    4.4898482 
      36   -1875.9921    1.4761427 -0.00010542013 9.7074454e-05    4.4898482    16.718506    4.4898482 
      37   -1875.9921    1.4761427 -0.00010542013 9.7074454e-05    4.4898482    16.718506    4.4898482 
      38   -1875.9921    1.4761427 -0.00010542013 9.7074454e-05    4.4898482    16.718506    4.4898482 
      39   -1875.9921    1.4761427 -0.00010542013 9.7074454e-05    4.4898482    16.718506    4.4898482 
      40   -1875.9921    1.4761427 -0.00010542125 9.7080348e-05    4.4898482    16.718506    4.4898482 
Loop time of 0.243978 on 1 procs for 39 steps with 336 atoms

Minimization stats:
  Stopping criterion = energy tolerance
  Energy initial, next-to-last, final = 
           37272.08101     -1875.99207158     -1875.99207219
  Force two-norm initial, final = 107410 0.0223608
  Force max component initial, final = 10963 0.00482612
  Final line search alpha, max atom move = 0 0
  Iterations, force evaluations = 39 600

Pair  time (%) = 0.207431 (85.0204)
Neigh time (%) = 0.00527114 (2.1605)
Comm  time (%) = 0.0198265 (8.12635)
Outpt time (%) = 0.00197124 (0.807959)
Other time (%) = 0.0094781 (3.88482)

Nlocal:    336 ave 336 max 336 min
Histogram: 1 0 0 0 0 0 0 0 0 0
Nghost:    1101 ave 1101 max 1101 min
Histogram: 1 0 0 0 0 0 0 0 0 0
Neighs:    8504 ave 8504 max 8504 min
Histogram: 1 0 0 0 0 0 0 0 0 0

Total # of neighbors = 8504
Ave neighs/atom = 25.3095
Neighbor list builds = 9
Dangerous builds = 1
reset_timestep 0
write_dump all atom orig.dump

# Energy curve will have nstep steps
variable strainmax equal 0.05
variable strainstep equal 0.0005
variable nsteps equal round(${strainmax}/${strainstep})
variable nsteps equal round(0.05/${strainstep})
variable nsteps equal round(0.05/0.0005)
variable direction string y

variable i loop ${nsteps}
variable i loop 100
label loop1
        read_dump orig.dump 0 x y z
  orthogonal box = (0 -0.600957 0) to (4.48985 16.1812 4.48985)
  336 atoms before read
  336 atoms in snapshot
  0 atoms purged
  336 atoms replaced
  0 atoms trimmed
  0 atoms added
  336 atoms after read
        variable stretch equal 1+$i*${strainstep}
        variable stretch equal 1+1*${strainstep}
        variable stretch equal 1+1*0.0005
        change_box all ${direction} scale ${stretch} remap
        change_box all y scale ${stretch} remap
        change_box all y scale 1.0005 remap
  orthogonal box = (0 -0.606831 0) to (4.48985 16.187 4.48985)
        min_style ${style}
        min_style hftn
        minimize ${etol} ${ftol} ${maxiter} ${maxeval}
        minimize 1e-12 ${ftol} ${maxiter} ${maxeval}
        minimize 1e-12 1e-08 ${maxiter} ${maxeval}
        minimize 1e-12 1e-08 10000 ${maxeval}
        minimize 1e-12 1e-08 10000 20000
WARNING: Resetting reneighboring criteria during minimization (../min.cpp:168)
Memory usage per processor = 4.9009 Mbytes
Step PotEng Pxx Pyy Pxy Lx Ly Lz 
       0   -1875.9812    1.4396799  -0.09196983 0.0036195576      4.48985    16.793883      4.48985 
       1   -1875.9923    1.4695779 0.00036233535 -0.00040388765      4.48985    16.793883      4.48985 
       2   -1875.9923    1.4694903 -9.1834223e-06 -3.7405271e-07      4.48985    16.793883      4.48985 
       3   -1875.9923    1.4694929 1.0054507e-09 1.0498685e-10      4.48985    16.793883      4.48985 
       4   -1875.9923    1.4694929 -6.1321771e-12 1.6981497e-12      4.48985    16.793883      4.48985 
Loop time of 0.176206 on 1 procs for 3 steps with 336 atoms

Minimization stats:
  Stopping criterion = force tolerance
  Energy initial, next-to-last, final = 
        -1875.98120169     -1875.99228974     -1875.99228991
  Force two-norm initial, final = 0.747095 7.71131e-10
  Force max component initial, final = 0.109754 1.97319e-10
  Final line search alpha, max atom move = 0 0
  Iterations, force evaluations = 3 323

Pair  time (%) = 0.150984 (85.6864)
Neigh time (%) = 0 (0)
Comm  time (%) = 0.018561 (10.5337)
Outpt time (%) = 0.000195038 (0.110688)
Other time (%) = 0.00646539 (3.66922)

Nlocal:    336 ave 336 max 336 min
Histogram: 1 0 0 0 0 0 0 0 0 0
Nghost:    1110 ave 1110 max 1110 min
Histogram: 1 0 0 0 0 0 0 0 0 0
Neighs:    8504 ave 8504 max 8504 min
Histogram: 1 0 0 0 0 0 0 0 0 0

Total # of neighbors = 8504
Ave neighs/atom = 25.3095
Neighbor list builds = 0
Dangerous builds = 0
        next i
jump SELF loop1
        read_dump orig.dump 0 x y z
  orthogonal box = (0 -0.600957 0) to (4.48985 16.1812 4.48985)
  336 atoms before read
  336 atoms in snapshot
  0 atoms purged
  336 atoms replaced
  0 atoms trimmed
  0 atoms added
  336 atoms after read
        variable stretch equal 1+$i*${strainstep}
        variable stretch equal 1+2*${strainstep}
        variable stretch equal 1+2*0.0005
        change_box all ${direction} scale ${stretch} remap
        change_box all y scale ${stretch} remap
        change_box all y scale 1.001 remap
  orthogonal box = (0 -0.611028 0) to (4.48985 16.1912 4.48985)
        min_style ${style}
        min_style hftn
        minimize ${etol} ${ftol} ${maxiter} ${maxeval}
        minimize 1e-12 ${ftol} ${maxiter} ${maxeval}
        minimize 1e-12 1e-08 ${maxiter} ${maxeval}
        minimize 1e-12 1e-08 10000 ${maxeval}
        minimize 1e-12 1e-08 10000 20000
WARNING: Resetting reneighboring criteria during minimization (../min.cpp:168)
Memory usage per processor = 4.9009 Mbytes
Step PotEng Pxx Pyy Pxy Lx Ly Lz 
       0   -1875.9601    1.4178395  -0.15702589 0.0061764927      4.48985    16.802276      4.48985 
       1   -1875.9923    1.4690714 0.0011134329 -0.00078531662      4.48985    16.802276      4.48985 
       2   -1875.9923    1.4687301 -7.2506417e-05 -4.0858948e-06      4.48985    16.802276      4.48985 
       3   -1875.9923    1.4687588 -1.1913874e-09 6.8260242e-09      4.48985    16.802276      4.48985 
       4   -1875.9923    1.4687588 -1.1913874e-09 6.8260242e-09      4.48985    16.802276      4.48985 
       5   -1875.9923    1.4687588 -1.3517945e-09 2.3484219e-09      4.48985    16.802276      4.48985 
       6   -1875.9923    1.4687589 -3.9051098e-09 -2.4221861e-09      4.48985    16.802276      4.48985 
       7   -1875.9923    1.4687589 6.7806817e-11 8.1017199e-12      4.48985    16.802276      4.48985 
Loop time of 0.167331 on 1 procs for 6 steps with 336 atoms

Minimization stats:
  Stopping criterion = force tolerance
  Energy initial, next-to-last, final = 
        -1875.96005374     -1875.99226295     -1875.99228991
  Force two-norm initial, final = 1.27731 7.09617e-09
  Force max component initial, final = 0.186773 1.17714e-09
  Final line search alpha, max atom move = 0 0
  Iterations, force evaluations = 6 423

Pair  time (%) = 0.148523 (88.7603)
Neigh time (%) = 0 (0)
Comm  time (%) = 0.0109584 (6.54893)
Outpt time (%) = 0.000369066 (0.22056)
Other time (%) = 0.00748009 (4.47024)

Nlocal:    336 ave 336 max 336 min
Histogram: 1 0 0 0 0 0 0 0 0 0
Nghost:    1110 ave 1110 max 1110 min
Histogram: 1 0 0 0 0 0 0 0 0 0
Neighs:    8504 ave 8504 max 8504 min
Histogram: 1 0 0 0 0 0 0 0 0 0

Total # of neighbors = 8504
Ave neighs/atom = 25.3095
Neighbor list builds = 0
Dangerous builds = 0
        next i
jump SELF loop1
        read_dump orig.dump 0 x y z
  orthogonal box = (0 -0.600957 0) to (4.48985 16.1812 4.48985)
  336 atoms before read
  336 atoms in snapshot
  0 atoms purged
  336 atoms replaced
  0 atoms trimmed
  0 atoms added
  336 atoms after read
        variable stretch equal 1+$i*${strainstep}
        variable stretch equal 1+3*${strainstep}
        variable stretch equal 1+3*0.0005
        change_box all ${direction} scale ${stretch} remap
        change_box all y scale ${stretch} remap
        change_box all y scale 1.0015 remap
  orthogonal box = (0 -0.615224 0) to (4.48985 16.1954 4.48985)
        min_style ${style}
        min_style hftn
        minimize ${etol} ${ftol} ${maxiter} ${maxeval}
        minimize 1e-12 ${ftol} ${maxiter} ${maxeval}
        minimize 1e-12 1e-08 ${maxiter} ${maxeval}
        minimize 1e-12 1e-08 10000 ${maxeval}
        minimize 1e-12 1e-08 10000 20000
WARNING: Resetting reneighboring criteria during minimization (../min.cpp:168)
Memory usage per processor = 4.9009 Mbytes
Step PotEng Pxx Pyy Pxy Lx Ly Lz 
       0   -1875.9279    1.3961388  -0.22160336 0.0087761652      4.48985    16.810668      4.48985 
       1   -1875.9922    1.4686494 0.0022050441 -0.0012089862      4.48985    16.810668      4.48985 
       2   -1875.9923    1.4679884 -8.1568277e-05 -1.0567308e-05      4.48985    16.810668      4.48985 
       3   -1875.9923    1.4680256 1.5918379e-09 8.7582463e-09      4.48985    16.810668      4.48985 
       4   -1875.9923    1.4680256 -3.4931125e-10 -8.6512835e-11      4.48985    16.810668      4.48985 
Loop time of 0.138673 on 1 procs for 3 steps with 336 atoms

Minimization stats:
  Stopping criterion = force tolerance
  Energy initial, next-to-last, final = 
         -1875.9278617     -1875.99228825     -1875.99228991
  Force two-norm initial, final = 1.80403 4.27933e-09
  Force max component initial, final = 0.263535 5.56882e-10
  Final line search alpha, max atom move = 0 0
  Iterations, force evaluations = 3 302

Pair  time (%) = 0.111036 (80.0706)
Neigh time (%) = 0 (0)
Comm  time (%) = 0.0192456 (13.8784)
Outpt time (%) = 0.00302092 (2.17845)
Other time (%) = 0.00537015 (3.87253)

Nlocal:    336 ave 336 max 336 min
Histogram: 1 0 0 0 0 0 0 0 0 0
Nghost:    1110 ave 1110 max 1110 min
Histogram: 1 0 0 0 0 0 0 0 0 0
Neighs:    8504 ave 8504 max 8504 min
Histogram: 1 0 0 0 0 0 0 0 0 0

Total # of neighbors = 8504
Ave neighs/atom = 25.3095
Neighbor list builds = 0
Dangerous builds = 0
        next i
jump SELF loop1
        read_dump orig.dump 0 x y z
  orthogonal box = (0 -0.600957 0) to (4.48985 16.1812 4.48985)
  336 atoms before read
  336 atoms in snapshot
  0 atoms purged
  336 atoms replaced
  0 atoms trimmed
  0 atoms added
  336 atoms after read
        variable stretch equal 1+$i*${strainstep}
        variable stretch equal 1+4*${strainstep}
        variable stretch equal 1+4*0.0005
        change_box all ${direction} scale ${stretch} remap
        change_box all y scale ${stretch} remap
        change_box all y scale 1.002 remap
  orthogonal box = (0 -0.61942 0) to (4.48985 16.1996 4.48985)
        min_style ${style}
        min_style hftn
        minimize ${etol} ${ftol} ${maxiter} ${maxeval}
        minimize 1e-12 ${ftol} ${maxiter} ${maxeval}
        minimize 1e-12 1e-08 ${maxiter} ${maxeval}
        minimize 1e-12 1e-08 10000 ${maxeval}
        minimize 1e-12 1e-08 10000 20000
WARNING: Resetting reneighboring criteria during minimization (../min.cpp:168)
Memory usage per processor = 4.9009 Mbytes
Step PotEng Pxx Pyy Pxy Lx Ly Lz 
       0   -1875.8846    1.3745755  -0.28570856  0.011409353      4.48985    16.819061      4.48985 
       1   -1875.9922    1.4685274 0.0041276743 -0.0016035044      4.48985    16.819061      4.48985 
       2   -1875.9923    1.4672827 -2.0023945e-05 -7.7154696e-06      4.48985    16.819061      4.48985 
       3   -1875.9923    1.4672827 -2.0023945e-05 -7.7154696e-06      4.48985    16.819061      4.48985 
       4   -1875.9923    1.4672827 -2.0023945e-05 -7.7154696e-06      4.48985    16.819061      4.48985 
       5   -1875.9923    1.4672827 -2.0023945e-05 -7.7154696e-06      4.48985    16.819061      4.48985 
       6   -1875.9923    1.4672827 -2.0023945e-05 -7.7154696e-06      4.48985    16.819061      4.48985 
       7   -1875.9923    1.4672827 -2.0023945e-05 -7.7154696e-06      4.48985    16.819061      4.48985 
       8   -1875.9923    1.4672827 -2.0023945e-05 -7.7154696e-06      4.48985    16.819061      4.48985 
       9   -1875.9923    1.4672826 -2.002368e-05 -7.716296e-06      4.48985    16.819061      4.48985 
Loop time of 0.129465 on 1 procs for 8 steps with 336 atoms

Minimization stats:
  Stopping criterion = energy tolerance
  Energy initial, next-to-last, final = 
        -1875.88463805     -1875.99215676     -1875.99229122
  Force two-norm initial, final = 2.32754 0.00807614
  Force max component initial, final = 0.33985 0.000905444
  Final line search alpha, max atom move = 0 0
  Iterations, force evaluations = 8 243

Pair  time (%) = 0.110031 (84.9892)
Neigh time (%) = 0 (0)
Comm  time (%) = 0.00722818 (5.58312)
Outpt time (%) = 0.00585112 (4.51946)
Other time (%) = 0.00635442 (4.90822)

Nlocal:    336 ave 336 max 336 min
Histogram: 1 0 0 0 0 0 0 0 0 0
Nghost:    1110 ave 1110 max 1110 min
Histogram: 1 0 0 0 0 0 0 0 0 0
Neighs:    8504 ave 8504 max 8504 min
Histogram: 1 0 0 0 0 0 0 0 0 0

Total # of neighbors = 8504
Ave neighs/atom = 25.3095
Neighbor list builds = 0
Dangerous builds = 0
        next i
jump SELF loop1
        read_dump orig.dump 0 x y z
  orthogonal box = (0 -0.600957 0) to (4.48985 16.1812 4.48985)
  336 atoms before read
  336 atoms in snapshot
  0 atoms purged
  336 atoms replaced
  0 atoms trimmed
  0 atoms added
  336 atoms after read
        variable stretch equal 1+$i*${strainstep}
        variable stretch equal 1+5*${strainstep}
        variable stretch equal 1+5*0.0005
        change_box all ${direction} scale ${stretch} remap
        change_box all y scale ${stretch} remap
        change_box all y scale 1.0025 remap
  orthogonal box = (0 -0.623617 0) to (4.48985 16.2038 4.48985)
        min_style ${style}
        min_style hftn
        minimize ${etol} ${ftol} ${maxiter} ${maxeval}
        minimize 1e-12 ${ftol} ${maxiter} ${maxeval}
        minimize 1e-12 1e-08 ${maxiter} ${maxeval}
        minimize 1e-12 1e-08 10000 ${maxeval}
        minimize 1e-12 1e-08 10000 20000
WARNING: Resetting reneighboring criteria during minimization (../min.cpp:168)
Memory usage per processor = 4.9009 Mbytes
Step PotEng Pxx Pyy Pxy Lx Ly Lz 
       0   -1875.8312    1.3531472  -0.34938343  0.014071746      4.48985    16.827454      4.48985 
       1    -1875.992    1.4685947 0.0066429408 -0.0020271094      4.48985    16.827454      4.48985 
       2   -1875.9923    1.4665503 -7.1989766e-06 -1.1019652e-05      4.48985    16.827454      4.48985 
       3   -1875.9923    1.4665503 -7.1989766e-06 -1.1019652e-05      4.48985    16.827454      4.48985 
       4   -1875.9923    1.4665537 -7.2793876e-06 -1.3707645e-05      4.48985    16.827454      4.48985 
       5   -1875.9923    1.4665537 -7.2793876e-06 -1.3707645e-05      4.48985    16.827454      4.48985 
       6   -1875.9923    1.4665544 -1.0602582e-05 -1.3597381e-05      4.48985    16.827454      4.48985 
       7   -1875.9923    1.4665544 -1.0602582e-05 -1.3597381e-05      4.48985    16.827454      4.48985 
       8   -1875.9923    1.4665544 -1.0602582e-05 -1.3597381e-05      4.48985    16.827454      4.48985 
       9   -1875.9923    1.4665544 -1.0602582e-05 -1.3597381e-05      4.48985    16.827454      4.48985 
      10   -1875.9923    1.4665544 -1.0643154e-05 -1.3624406e-05      4.48985    16.827454      4.48985 
Loop time of 0.101406 on 1 procs for 9 steps with 336 atoms

Minimization stats:
  Stopping criterion = energy tolerance
  Energy initial, next-to-last, final = 
         -1875.8312215     -1875.99229187     -1875.99229278
  Force two-norm initial, final = 2.84722 0.00396734
  Force max component initial, final = 0.415507 0.000627977
  Final line search alpha, max atom move = 0 0
  Iterations, force evaluations = 9 254

Pair  time (%) = 0.0920075 (90.7319)
Neigh time (%) = 0 (0)
Comm  time (%) = 0.00471732 (4.65191)
Outpt time (%) = 0.00047503 (0.468444)
Other time (%) = 0.00420608 (4.14777)

Nlocal:    336 ave 336 max 336 min
Histogram: 1 0 0 0 0 0 0 0 0 0
Nghost:    1110 ave 1110 max 1110 min
Histogram: 1 0 0 0 0 0 0 0 0 0
Neighs:    8504 ave 8504 max 8504 min
Histogram: 1 0 0 0 0 0 0 0 0 0

Total # of neighbors = 8504
Ave neighs/atom = 25.3095
Neighbor list builds = 0
Dangerous builds = 0
        next i
jump SELF loop1
        read_dump orig.dump 0 x y z
  orthogonal box = (0 -0.600957 0) to (4.48985 16.1812 4.48985)
  336 atoms before read
  336 atoms in snapshot
  0 atoms purged
  336 atoms replaced
  0 atoms trimmed
  0 atoms added
  336 atoms after read
        variable stretch equal 1+$i*${strainstep}
        variable stretch equal 1+6*${strainstep}
        variable stretch equal 1+6*0.0005
        change_box all ${direction} scale ${stretch} remap
        change_box all y scale ${stretch} remap
        change_box all y scale 1.003 remap
  orthogonal box = (0 -0.627813 0) to (4.48985 16.208 4.48985)
        min_style ${style}
        min_style hftn
        minimize ${etol} ${ftol} ${maxiter} ${maxeval}
        minimize 1e-12 ${ftol} ${maxiter} ${maxeval}
        minimize 1e-12 1e-08 ${maxiter} ${maxeval}
        minimize 1e-12 1e-08 10000 ${maxeval}
        minimize 1e-12 1e-08 10000 20000
WARNING: Resetting reneighboring criteria during minimization (../min.cpp:168)
Memory usage per processor = 4.9009 Mbytes
Step PotEng Pxx Pyy Pxy Lx Ly Lz 
       0   -1875.7668    1.3318549  -0.41258861  0.016768975      4.48985    16.835847      4.48985 
       1   -1875.9919    1.4686638 0.0092317338 -0.0024564619      4.48985    16.835847      4.48985 
       2   -1875.9923    1.4658122 -8.4933858e-06 -1.3197067e-05      4.48985    16.835847      4.48985 
       3   -1875.9923    1.4658122 -8.4933858e-06 -1.3197067e-05      4.48985    16.835847      4.48985 
       4   -1875.9923    1.4658122 -8.4933858e-06 -1.3197067e-05      4.48985    16.835847      4.48985 
       5   -1875.9923    1.4658122 -8.4933858e-06 -1.3197067e-05      4.48985    16.835847      4.48985 
       6   -1875.9923    1.4658122 -8.4933858e-06 -1.3197067e-05      4.48985    16.835847      4.48985 
       7   -1875.9923    1.4658122 -8.4933858e-06 -1.3197067e-05      4.48985    16.835847      4.48985 
       8   -1875.9923    1.4658122 -8.4933858e-06 -1.3197067e-05      4.48985    16.835847      4.48985 
       9   -1875.9923    1.4658122 -8.4936183e-06 -1.3197882e-05      4.48985    16.835847      4.48985 
Loop time of 0.092999 on 1 procs for 8 steps with 336 atoms

Minimization stats:
  Stopping criterion = energy tolerance
  Energy initial, next-to-last, final = 
        -1875.76680902      -1875.9919012     -1875.99229139
  Force two-norm initial, final = 3.36345 0.0131311
  Force max component initial, final = 0.490719 0.00152548
  Final line search alpha, max atom move = 0 0
  Iterations, force evaluations = 8 235

Pair  time (%) = 0.0831364 (89.3949)
Neigh time (%) = 0 (0)
Comm  time (%) = 0.00254862 (2.74049)
Outpt time (%) = 0.00297687 (3.20097)
Other time (%) = 0.00433713 (4.66363)

Nlocal:    336 ave 336 max 336 min
Histogram: 1 0 0 0 0 0 0 0 0 0
Nghost:    1110 ave 1110 max 1110 min
Histogram: 1 0 0 0 0 0 0 0 0 0
Neighs:    8504 ave 8504 max 8504 min
Histogram: 1 0 0 0 0 0 0 0 0 0

Total # of neighbors = 8504
Ave neighs/atom = 25.3095
Neighbor list builds = 0
Dangerous builds = 0
        next i
jump SELF loop1
        read_dump orig.dump 0 x y z
  orthogonal box = (0 -0.600957 0) to (4.48985 16.1812 4.48985)
  336 atoms before read
  336 atoms in snapshot
  0 atoms purged
  336 atoms replaced
  0 atoms trimmed
  0 atoms added
  336 atoms after read
        variable stretch equal 1+$i*${strainstep}
        variable stretch equal 1+7*${strainstep}
        variable stretch equal 1+7*0.0005
        change_box all ${direction} scale ${stretch} remap
        change_box all y scale ${stretch} remap
        change_box all y scale 1.0035 remap
  orthogonal box = (0 -0.632009 0) to (4.48985 16.2122 4.48985)
        min_style ${style}
        min_style hftn
        minimize ${etol} ${ftol} ${maxiter} ${maxeval}
        minimize 1e-12 ${ftol} ${maxiter} ${maxeval}
        minimize 1e-12 1e-08 ${maxiter} ${maxeval}
        minimize 1e-12 1e-08 10000 ${maxeval}
        minimize 1e-12 1e-08 10000 20000
WARNING: Resetting reneighboring criteria during minimization (../min.cpp:168)
Memory usage per processor = 4.9009 Mbytes
Step PotEng Pxx Pyy Pxy Lx Ly Lz 
       0   -1875.6917    1.3106885  -0.47534333  0.019517331      4.48985    16.844239      4.48985 
       1   -1875.9917    1.4686116  0.012012484 -0.0032468924      4.48985    16.844239      4.48985 
       2   -1875.9923     1.465069 -5.5410483e-06 -7.0004496e-05      4.48985    16.844239      4.48985 
       3   -1875.9923     1.465069 -5.5410483e-06 -7.0004496e-05      4.48985    16.844239      4.48985 
       4   -1875.9923     1.465069 -5.5410483e-06 -7.0004496e-05      4.48985    16.844239      4.48985 
       5   -1875.9923     1.465069 -5.5410483e-06 -7.0004496e-05      4.48985    16.844239      4.48985 
       6   -1875.9923     1.465069 -5.5410483e-06 -7.0004496e-05      4.48985    16.844239      4.48985 
       7   -1875.9923     1.465069 -5.5410483e-06 -7.0004496e-05      4.48985    16.844239      4.48985 
       8   -1875.9923     1.465069 -5.5410483e-06 -7.0004496e-05      4.48985    16.844239      4.48985 
       9   -1875.9923     1.465069 -5.5410483e-06 -7.0004496e-05      4.48985    16.844239      4.48985 
      10   -1875.9923     1.465069 -5.5410742e-06 -7.0004427e-05      4.48985    16.844239      4.48985 
Loop time of 0.0906 on 1 procs for 9 steps with 336 atoms

Minimization stats:
  Stopping criterion = energy tolerance
  Energy initial, next-to-last, final = 
        -1875.69166704     -1875.99171549     -1875.99229793
  Force two-norm initial, final = 3.87555 0.01432
  Force max component initial, final = 0.565167 0.00263172
  Final line search alpha, max atom move = 0 0
  Iterations, force evaluations = 9 228

Pair  time (%) = 0.0804031 (88.7451)
Neigh time (%) = 0 (0)
Comm  time (%) = 0.0033818 (3.73267)
Outpt time (%) = 0.000604023 (0.666692)
Other time (%) = 0.00621109 (6.85551)

Nlocal:    336 ave 336 max 336 min
Histogram: 1 0 0 0 0 0 0 0 0 0
Nghost:    1110 ave 1110 max 1110 min
Histogram: 1 0 0 0 0 0 0 0 0 0
Neighs:    8504 ave 8504 max 8504 min
Histogram: 1 0 0 0 0 0 0 0 0 0

Total # of neighbors = 8504
Ave neighs/atom = 25.3095
Neighbor list builds = 0
Dangerous builds = 0
        next i
jump SELF loop1
        read_dump orig.dump 0 x y z
  orthogonal box = (0 -0.600957 0) to (4.48985 16.1812 4.48985)
  336 atoms before read
  336 atoms in snapshot
  0 atoms purged
  336 atoms replaced
  0 atoms trimmed
  0 atoms added
  336 atoms after read
        variable stretch equal 1+$i*${strainstep}
        variable stretch equal 1+8*${strainstep}
        variable stretch equal 1+8*0.0005
        change_box all ${direction} scale ${stretch} remap
        change_box all y scale ${stretch} remap
        change_box all y scale 1.004 remap
  orthogonal box = (0 -0.636206 0) to (4.48985 16.2164 4.48985)
        min_style ${style}
        min_style hftn
        minimize ${etol} ${ftol} ${maxiter} ${maxeval}
        minimize 1e-12 ${ftol} ${maxiter} ${maxeval}
        minimize 1e-12 1e-08 ${maxiter} ${maxeval}
        minimize 1e-12 1e-08 10000 ${maxeval}
        minimize 1e-12 1e-08 10000 20000
WARNING: Resetting reneighboring criteria during minimization (../min.cpp:168)
Memory usage per processor = 4.9009 Mbytes
Step PotEng Pxx Pyy Pxy Lx Ly Lz 
       0   -1875.6059    1.2896215  -0.53771348  0.022342846      4.48985    16.852632      4.48985 
       1   -1875.9913    1.4691812  0.015815945 -0.0038077478      4.48985    16.852632      4.48985 
       2   -1875.9923     1.464347 -6.1049523e-07 -7.3860645e-05      4.48985    16.852632      4.48985 
       3   -1875.9923     1.464347 -6.1049523e-07 -7.3860645e-05      4.48985    16.852632      4.48985 
       4   -1875.9923     1.464347 -6.1049523e-07 -7.3860645e-05      4.48985    16.852632      4.48985 
       5   -1875.9923     1.464347 -6.1049523e-07 -7.3860645e-05      4.48985    16.852632      4.48985 
       6   -1875.9923     1.464347 -6.1049523e-07 -7.3860645e-05      4.48985    16.852632      4.48985 
       7   -1875.9923     1.464347 -6.1049523e-07 -7.3860645e-05      4.48985    16.852632      4.48985 
       8   -1875.9923     1.464347 -6.1049523e-07 -7.3860645e-05      4.48985    16.852632      4.48985 
       9   -1875.9923     1.464347 -6.1049523e-07 -7.3860645e-05      4.48985    16.852632      4.48985 
      10   -1875.9923     1.464347 -6.1101077e-07 -7.3859906e-05      4.48985    16.852632      4.48985 
Loop time of 0.089392 on 1 procs for 9 steps with 336 atoms

Minimization stats:
  Stopping criterion = energy tolerance
  Energy initial, next-to-last, final = 
        -1875.60594679     -1875.99125275     -1875.99230225
  Force two-norm initial, final = 4.38219 0.0170613
  Force max component initial, final = 0.63924 0.00329301
  Final line search alpha, max atom move = 0 0
  Iterations, force evaluations = 9 226

Pair  time (%) = 0.0794654 (88.8954)
Neigh time (%) = 0 (0)
Comm  time (%) = 0.00327615 (3.66492)
Outpt time (%) = 0.00292297 (3.26983)
Other time (%) = 0.00372748 (4.16982)

Nlocal:    336 ave 336 max 336 min
Histogram: 1 0 0 0 0 0 0 0 0 0
Nghost:    1110 ave 1110 max 1110 min
Histogram: 1 0 0 0 0 0 0 0 0 0
Neighs:    8504 ave 8504 max 8504 min
Histogram: 1 0 0 0 0 0 0 0 0 0

Total # of neighbors = 8504
Ave neighs/atom = 25.3095
Neighbor list builds = 0
Dangerous builds = 0
        next i
jump SELF loop1
        read_dump orig.dump 0 x y z
  orthogonal box = (0 -0.600957 0) to (4.48985 16.1812 4.48985)
  336 atoms before read
  336 atoms in snapshot
  0 atoms purged
  336 atoms replaced
  0 atoms trimmed
  0 atoms added
  336 atoms after read
        variable stretch equal 1+$i*${strainstep}
        variable stretch equal 1+9*${strainstep}
        variable stretch equal 1+9*0.0005
        change_box all ${direction} scale ${stretch} remap
        change_box all y scale ${stretch} remap
        change_box all y scale 1.0045 remap
  orthogonal box = (0 -0.640402 0) to (4.48985 16.2206 4.48985)
        min_style ${style}
        min_style hftn
        minimize ${etol} ${ftol} ${maxiter} ${maxeval}
        minimize 1e-12 ${ftol} ${maxiter} ${maxeval}
        minimize 1e-12 1e-08 ${maxiter} ${maxeval}
        minimize 1e-12 1e-08 10000 ${maxeval}
        minimize 1e-12 1e-08 10000 20000
WARNING: Resetting reneighboring criteria during minimization (../min.cpp:168)
Memory usage per processor = 4.9009 Mbytes
Step PotEng Pxx Pyy Pxy Lx Ly Lz 
       0   -1875.5098    1.2686432  -0.59969861  0.025257651      4.48985    16.861025      4.48985 
       1   -1875.9907    1.4691821  0.018959542 -0.0045410789      4.48985    16.861025      4.48985 
       2   -1875.9923    1.4636448 9.5724497e-05 -0.00012490454      4.48985    16.861025      4.48985 
       3   -1875.9923    1.4636425 3.4541394e-06 -8.8475557e-07      4.48985    16.861025      4.48985 
       4   -1875.9923    1.4636425 3.4541394e-06 -8.8475557e-07      4.48985    16.861025      4.48985 
       5   -1875.9923    1.4636425 3.4541394e-06 -8.8475557e-07      4.48985    16.861025      4.48985 
       6   -1875.9923    1.4636425 3.4541394e-06 -8.8475557e-07      4.48985    16.861025      4.48985 
       7   -1875.9923    1.4636425 3.4515529e-06 -8.7232381e-07      4.48985    16.861025      4.48985 
Loop time of 0.134296 on 1 procs for 6 steps with 336 atoms

Minimization stats:
  Stopping criterion = energy tolerance
  Energy initial, next-to-last, final = 
        -1875.50983644     -1875.99227171     -1875.99228998
  Force two-norm initial, final = 4.88351 0.000179158
  Force max component initial, final = 0.712611 2.6262e-05
  Final line search alpha, max atom move = 0 0
  Iterations, force evaluations = 6 335

Pair  time (%) = 0.119351 (88.8715)
Neigh time (%) = 0 (0)
Comm  time (%) = 0.0086729 (6.45805)
Outpt time (%) = 0.000435291 (0.324128)
Other time (%) = 0.00583691 (4.34631)

Nlocal:    336 ave 336 max 336 min
Histogram: 1 0 0 0 0 0 0 0 0 0
Nghost:    1110 ave 1110 max 1110 min
Histogram: 1 0 0 0 0 0 0 0 0 0
Neighs:    8504 ave 8504 max 8504 min
Histogram: 1 0 0 0 0 0 0 0 0 0

Total # of neighbors = 8504
Ave neighs/atom = 25.3095
Neighbor list builds = 0
Dangerous builds = 0
        next i
jump SELF loop1
        read_dump orig.dump 0 x y z
  orthogonal box = (0 -0.600957 0) to (4.48985 16.1812 4.48985)
  336 atoms before read
  336 atoms in snapshot
  0 atoms purged
  336 atoms replaced
  0 atoms trimmed
  0 atoms added
  336 atoms after read
        variable stretch equal 1+$i*${strainstep}
        variable stretch equal 1+10*${strainstep}
        variable stretch equal 1+10*0.0005
        change_box all ${direction} scale ${stretch} remap
        change_box all y scale ${stretch} remap
        change_box all y scale 1.005 remap
  orthogonal box = (0 -0.644598 0) to (4.48985 16.2248 4.48985)
        min_style ${style}
        min_style hftn
        minimize ${etol} ${ftol} ${maxiter} ${maxeval}
        minimize 1e-12 ${ftol} ${maxiter} ${maxeval}
        minimize 1e-12 1e-08 ${maxiter} ${maxeval}
        minimize 1e-12 1e-08 10000 ${maxeval}
        minimize 1e-12 1e-08 10000 20000
WARNING: Resetting reneighboring criteria during minimization (../min.cpp:168)
Memory usage per processor = 4.9009 Mbytes
Step PotEng Pxx Pyy Pxy Lx Ly Lz 
       0   -1875.4032    1.2477762  -0.66127569  0.028238366      4.48985    16.869418      4.48985 
       1   -1875.9901    1.4697577  0.023742265 -0.0053070246      4.48985    16.869418      4.48985 
       2   -1875.9923    1.4629301 0.00013727703 -0.0001459807      4.48985    16.869418      4.48985 
       3   -1875.9923    1.4629156 8.2113687e-06 -5.5931422e-08      4.48985    16.869418      4.48985 
       4   -1875.9923    1.4629156 8.2113687e-06 -5.5931422e-08      4.48985    16.869418      4.48985 
       5   -1875.9923    1.4629156 8.2113687e-06 -5.5931422e-08      4.48985    16.869418      4.48985 
       6   -1875.9923    1.4629156 8.2113687e-06 -5.5931422e-08      4.48985    16.869418      4.48985 
       7   -1875.9923    1.4629156 8.2113687e-06 -5.5931422e-08      4.48985    16.869418      4.48985 
       8   -1875.9923    1.4629156 8.2076436e-06 -5.8395467e-08      4.48985    16.869418      4.48985 
Loop time of 0.162944 on 1 procs for 7 steps with 336 atoms

Minimization stats:
  Stopping criterion = energy tolerance
  Energy initial, next-to-last, final = 
        -1875.40316858     -1875.99227074     -1875.99229015
  Force two-norm initial, final = 5.38055 0.000193848
  Force max component initial, final = 0.785638 2.01224e-05
  Final line search alpha, max atom move = 0 0
  Iterations, force evaluations = 7 336

Pair  time (%) = 0.122057 (74.9071)
Neigh time (%) = 0 (0)
Comm  time (%) = 0.0163991 (10.0642)
Outpt time (%) = 0.0078182 (4.79809)
Other time (%) = 0.0166701 (10.2305)

Nlocal:    336 ave 336 max 336 min
Histogram: 1 0 0 0 0 0 0 0 0 0
Nghost:    1110 ave 1110 max 1110 min
Histogram: 1 0 0 0 0 0 0 0 0 0
Neighs:    8504 ave 8504 max 8504 min
Histogram: 1 0 0 0 0 0 0 0 0 0

Total # of neighbors = 8504
Ave neighs/atom = 25.3095
Neighbor list builds = 0
Dangerous builds = 0
        next i
jump SELF loop1
        read_dump orig.dump 0 x y z
  orthogonal box = (0 -0.600957 0) to (4.48985 16.1812 4.48985)
  336 atoms before read
  336 atoms in snapshot
  0 atoms purged
  336 atoms replaced
  0 atoms trimmed
  0 atoms added
  336 atoms after read
        variable stretch equal 1+$i*${strainstep}
        variable stretch equal 1+11*${strainstep}
        variable stretch equal 1+11*0.0005
        change_box all ${direction} scale ${stretch} remap
        change_box all y scale ${stretch} remap
        change_box all y scale 1.0055 remap
  orthogonal box = (0 -0.648795 0) to (4.48985 16.229 4.48985)
        min_style ${style}
        min_style hftn
        minimize ${etol} ${ftol} ${maxiter} ${maxeval}
        minimize 1e-12 ${ftol} ${maxiter} ${maxeval}
        minimize 1e-12 1e-08 ${maxiter} ${maxeval}
        minimize 1e-12 1e-08 10000 ${maxeval}
        minimize 1e-12 1e-08 10000 20000
WARNING: Resetting reneighboring criteria during minimization (../min.cpp:168)
Memory usage per processor = 4.9009 Mbytes
Step PotEng Pxx Pyy Pxy Lx Ly Lz 
       0    -1875.286    1.2270142  -0.72244908  0.031279437      4.48985     16.87781      4.48985 
       1   -1875.9896    1.4706645  0.029024779  -0.00597591      4.48985     16.87781      4.48985 
       2   -1875.9923    1.4622361 0.00016433008 -0.00010088063      4.48985     16.87781      4.48985 
       3   -1875.9923    1.4621856 1.0674701e-06 -1.6244568e-06      4.48985     16.87781      4.48985 
       4   -1875.9923    1.4621856 -2.1243238e-11 -4.2284032e-12      4.48985     16.87781      4.48985 
       5   -1875.9923    1.4621856 2.7253148e-13 -2.7105146e-13      4.48985     16.87781      4.48985 
Loop time of 0.180117 on 1 procs for 4 steps with 336 atoms

Minimization stats:
  Stopping criterion = force tolerance
  Energy initial, next-to-last, final = 
        -1875.28596688     -1875.99228983     -1875.99228991
  Force two-norm initial, final = 5.87309 2.08333e-11
  Force max component initial, final = 0.857942 4.95904e-12
  Final line search alpha, max atom move = 0 0
  Iterations, force evaluations = 4 412

Pair  time (%) = 0.146133 (81.132)
Neigh time (%) = 0 (0)
Comm  time (%) = 0.0261284 (14.5064)
Outpt time (%) = 0.000429955 (0.238709)
Other time (%) = 0.00742603 (4.12289)

Nlocal:    336 ave 336 max 336 min
Histogram: 1 0 0 0 0 0 0 0 0 0
Nghost:    1110 ave 1110 max 1110 min
Histogram: 1 0 0 0 0 0 0 0 0 0
Neighs:    8504 ave 8504 max 8504 min
Histogram: 1 0 0 0 0 0 0 0 0 0

Total # of neighbors = 8504
Ave neighs/atom = 25.3095
Neighbor list builds = 0
Dangerous builds = 0
        next i
jump SELF loop1
        read_dump orig.dump 0 x y z
  orthogonal box = (0 -0.600957 0) to (4.48985 16.1812 4.48985)
  336 atoms before read
  336 atoms in snapshot
  0 atoms purged
  336 atoms replaced
  0 atoms trimmed
  0 atoms added
  336 atoms after read
        variable stretch equal 1+$i*${strainstep}
        variable stretch equal 1+12*${strainstep}
        variable stretch equal 1+12*0.0005
        change_box all ${direction} scale ${stretch} remap
        change_box all y scale ${stretch} remap
        change_box all y scale 1.006 remap
  orthogonal box = (0 -0.652991 0) to (4.48985 16.2332 4.48985)
        min_style ${style}
        min_style hftn
        minimize ${etol} ${ftol} ${maxiter} ${maxeval}
        minimize 1e-12 ${ftol} ${maxiter} ${maxeval}
        minimize 1e-12 1e-08 ${maxiter} ${maxeval}
        minimize 1e-12 1e-08 10000 ${maxeval}
        minimize 1e-12 1e-08 10000 20000
WARNING: Resetting reneighboring criteria during minimization (../min.cpp:168)
Memory usage per processor = 4.9009 Mbytes
Step PotEng Pxx Pyy Pxy Lx Ly Lz 
       0    -1875.159    1.2063804  -0.78320227  0.034361792      4.48985    16.886203      4.48985 
       1   -1875.9888    1.4721809  0.035492987 -0.0065972725      4.48985    16.886203      4.48985 
       2   -1875.9923    1.4614864 0.00019415573 -0.00018721007      4.48985    16.886203      4.48985 
       3   -1875.9923    1.4614634 1.7078373e-05 -5.2286188e-06      4.48985    16.886203      4.48985 
       4   -1875.9923    1.4614589 -1.4938846e-10 -4.0723687e-11      4.48985    16.886203      4.48985 
       5   -1875.9923    1.4614589 -4.7894897e-14 -6.6677099e-13      4.48985    16.886203      4.48985 
Loop time of 0.1497 on 1 procs for 4 steps with 336 atoms

Minimization stats:
  Stopping criterion = force tolerance
  Energy initial, next-to-last, final = 
        -1875.15903309     -1875.99228986     -1875.99228991
  Force two-norm initial, final = 6.36256 5.72938e-11
  Force max component initial, final = 0.929888 1.03546e-11
  Final line search alpha, max atom move = 0 0
  Iterations, force evaluations = 4 388

Pair  time (%) = 0.134563 (89.8885)
Neigh time (%) = 0 (0)
Comm  time (%) = 0.00736921 (4.92265)
Outpt time (%) = 0.00033791 (0.225725)
Other time (%) = 0.00742982 (4.96314)

Nlocal:    336 ave 336 max 336 min
Histogram: 1 0 0 0 0 0 0 0 0 0
Nghost:    1110 ave 1110 max 1110 min
Histogram: 1 0 0 0 0 0 0 0 0 0
Neighs:    8504 ave 8504 max 8504 min
Histogram: 1 0 0 0 0 0 0 0 0 0

Total # of neighbors = 8504
Ave neighs/atom = 25.3095
Neighbor list builds = 0
Dangerous builds = 0
        next i
jump SELF loop1
        read_dump orig.dump 0 x y z
  orthogonal box = (0 -0.600957 0) to (4.48985 16.1812 4.48985)
  336 atoms before read
  336 atoms in snapshot
  0 atoms purged
  336 atoms replaced
  0 atoms trimmed
  0 atoms added
  336 atoms after read
        variable stretch equal 1+$i*${strainstep}
        variable stretch equal 1+13*${strainstep}
        variable stretch equal 1+13*0.0005
        change_box all ${direction} scale ${stretch} remap
        change_box all y scale ${stretch} remap
        change_box all y scale 1.0065 remap
  orthogonal box = (0 -0.657188 0) to (4.48985 16.2374 4.48985)
        min_style ${style}
        min_style hftn
        minimize ${etol} ${ftol} ${maxiter} ${maxeval}
        minimize 1e-12 ${ftol} ${maxiter} ${maxeval}
        minimize 1e-12 1e-08 ${maxiter} ${maxeval}
        minimize 1e-12 1e-08 10000 ${maxeval}
        minimize 1e-12 1e-08 10000 20000
WARNING: Resetting reneighboring criteria during minimization (../min.cpp:168)
Memory usage per processor = 4.9009 Mbytes
Step PotEng Pxx Pyy Pxy Lx Ly Lz 
       0   -1875.0211    1.1858946  -0.84348289  0.037455722      4.48985    16.894596      4.48985 
       1   -1875.9881    1.4730758  0.040785666 -0.0073008072      4.48985    16.894596      4.48985 
       2   -1875.9923     1.460771 0.00019362885 -0.00019132146      4.48985    16.894596      4.48985 
       3   -1875.9923    1.4607298 -5.6082431e-06 -2.8890079e-06      4.48985    16.894596      4.48985 
       4   -1875.9923    1.4607329 -7.9390366e-11 -2.2666804e-11      4.48985    16.894596      4.48985 
       5   -1875.9923    1.4607329 -8.4829426e-13 -1.1681948e-13      4.48985    16.894596      4.48985 
Loop time of 0.149857 on 1 procs for 4 steps with 336 atoms

Minimization stats:
  Stopping criterion = force tolerance
  Energy initial, next-to-last, final = 
        -1875.02109182     -1875.99228947     -1875.99228991
  Force two-norm initial, final = 6.84845 4.53524e-11
  Force max component initial, final = 1.00104 1.19176e-11
  Final line search alpha, max atom move = 0 0
  Iterations, force evaluations = 4 388

Pair  time (%) = 0.135585 (90.4764)
Neigh time (%) = 0 (0)
Comm  time (%) = 0.00652379 (4.35334)
Outpt time (%) = 0.000180983 (0.12077)
Other time (%) = 0.00756704 (5.04951)

Nlocal:    336 ave 336 max 336 min
Histogram: 1 0 0 0 0 0 0 0 0 0
Nghost:    1110 ave 1110 max 1110 min
Histogram: 1 0 0 0 0 0 0 0 0 0
Neighs:    8504 ave 8504 max 8504 min
Histogram: 1 0 0 0 0 0 0 0 0 0

Total # of neighbors = 8504
Ave neighs/atom = 25.3095
Neighbor list builds = 0
Dangerous builds = 0
        next i
jump SELF loop1
        read_dump orig.dump 0 x y z
  orthogonal box = (0 -0.600957 0) to (4.48985 16.1812 4.48985)
  336 atoms before read
  336 atoms in snapshot
  0 atoms purged
  336 atoms replaced
  0 atoms trimmed
  0 atoms added
  336 atoms after read
        variable stretch equal 1+$i*${strainstep}
        variable stretch equal 1+14*${strainstep}
        variable stretch equal 1+14*0.0005
        change_box all ${direction} scale ${stretch} remap
        change_box all y scale ${stretch} remap
        change_box all y scale 1.007 remap
  orthogonal box = (0 -0.661384 0) to (4.48985 16.2416 4.48985)
        min_style ${style}
        min_style hftn
        minimize ${etol} ${ftol} ${maxiter} ${maxeval}
        minimize 1e-12 ${ftol} ${maxiter} ${maxeval}
        minimize 1e-12 1e-08 ${maxiter} ${maxeval}
        minimize 1e-12 1e-08 10000 ${maxeval}
        minimize 1e-12 1e-08 10000 20000
WARNING: Resetting reneighboring criteria during minimization (../min.cpp:168)
Memory usage per processor = 4.9009 Mbytes
Step PotEng Pxx Pyy Pxy Lx Ly Lz 
       0   -1874.8734    1.1655267  -0.90333425  0.040600629      4.48985    16.902989      4.48985 
       1    -1875.987    1.4743431  0.047323832 -0.007840196      4.48985    16.902989      4.48985 
       2   -1875.9923    1.4599692 8.1108702e-05 -0.00011495206      4.48985    16.902989      4.48985 
       3   -1875.9923    1.4599932 -4.8144379e-05 9.7714845e-06      4.48985    16.902989      4.48985 
       4   -1875.9923    1.4600076 3.0323165e-10 -7.9398404e-10      4.48985    16.902989      4.48985 
       5   -1875.9923    1.4600076 1.4617088e-12 1.0957144e-12      4.48985    16.902989      4.48985 
Loop time of 0.140095 on 1 procs for 4 steps with 336 atoms

Minimization stats:
  Stopping criterion = force tolerance
  Energy initial, next-to-last, final = 
        -1874.87340955     -1875.99228954     -1875.99228991
  Force two-norm initial, final = 7.33172 2.15525e-10
  Force max component initial, final = 1.07187 7.08429e-11
  Final line search alpha, max atom move = 0 0
  Iterations, force evaluations = 4 358

Pair  time (%) = 0.12277 (87.6334)
Neigh time (%) = 0 (0)
Comm  time (%) = 0.0104623 (7.46802)
Outpt time (%) = 0.000236099 (0.168527)
Other time (%) = 0.00662656 (4.73004)

Nlocal:    336 ave 336 max 336 min
Histogram: 1 0 0 0 0 0 0 0 0 0
Nghost:    1110 ave 1110 max 1110 min
Histogram: 1 0 0 0 0 0 0 0 0 0
Neighs:    8504 ave 8504 max 8504 min
Histogram: 1 0 0 0 0 0 0 0 0 0

Total # of neighbors = 8504
Ave neighs/atom = 25.3095
Neighbor list builds = 0
Dangerous builds = 0
        next i
jump SELF loop1
        read_dump orig.dump 0 x y z
  orthogonal box = (0 -0.600957 0) to (4.48985 16.1812 4.48985)
  336 atoms before read
  336 atoms in snapshot
  0 atoms purged
  336 atoms replaced
  0 atoms trimmed
  0 atoms added
  336 atoms after read
        variable stretch equal 1+$i*${strainstep}
        variable stretch equal 1+15*${strainstep}
        variable stretch equal 1+15*0.0005
        change_box all ${direction} scale ${stretch} remap
        change_box all y scale ${stretch} remap
        change_box all y scale 1.0075 remap
  orthogonal box = (0 -0.66558 0) to (4.48985 16.2458 4.48985)
        min_style ${style}
        min_style hftn
        minimize ${etol} ${ftol} ${maxiter} ${maxeval}
        minimize 1e-12 ${ftol} ${maxiter} ${maxeval}
        minimize 1e-12 1e-08 ${maxiter} ${maxeval}
        minimize 1e-12 1e-08 10000 ${maxeval}
        minimize 1e-12 1e-08 10000 20000
WARNING: Resetting reneighboring criteria during minimization (../min.cpp:168)
Memory usage per processor = 4.9009 Mbytes
Step PotEng Pxx Pyy Pxy Lx Ly Lz 
       0   -1874.7151     1.145307  -0.96273556  0.043752267      4.48985    16.911381      4.48985 
       1   -1875.9856    1.4761947  0.055601344 -0.0087933911      4.48985    16.911381      4.48985 
       2   -1875.9923    1.4592569 0.0001397119 -0.00010904322      4.48985    16.911381      4.48985 
       3   -1875.9923    1.4592794 -2.8997109e-05 4.0964721e-05      4.48985    16.911381      4.48985 
       4   -1875.9923    1.4592794 -2.8997109e-05 4.0964721e-05      4.48985    16.911381      4.48985 
       5   -1875.9923    1.4592794 -2.8997109e-05 4.0964721e-05      4.48985    16.911381      4.48985 
       6   -1875.9923    1.4592794 -2.8997109e-05 4.0964721e-05      4.48985    16.911381      4.48985 
       7   -1875.9923    1.4592794 -2.8997109e-05 4.0964721e-05      4.48985    16.911381      4.48985 
       8   -1875.9923    1.4592794 -2.8997109e-05 4.0964721e-05      4.48985    16.911381      4.48985 
       9   -1875.9923    1.4592794 -2.8997109e-05 4.0964721e-05      4.48985    16.911381      4.48985 
      10   -1875.9923    1.4592794 -2.899619e-05 4.0963372e-05      4.48985    16.911381      4.48985 
Loop time of 0.131446 on 1 procs for 9 steps with 336 atoms

Minimization stats:
  Stopping criterion = energy tolerance
  Energy initial, next-to-last, final = 
        -1874.71510482     -1875.99226212     -1875.99229016
  Force two-norm initial, final = 7.81099 0.000628268
  Force max component initial, final = 1.14201 0.000153102
  Final line search alpha, max atom move = 0 0
  Iterations, force evaluations = 9 314

Pair  time (%) = 0.115815 (88.1081)
Neigh time (%) = 0 (0)
Comm  time (%) = 0.00902707 (6.86751)
Outpt time (%) = 0.000697058 (0.530299)
Other time (%) = 0.0059073 (4.49409)

Nlocal:    336 ave 336 max 336 min
Histogram: 1 0 0 0 0 0 0 0 0 0
Nghost:    1110 ave 1110 max 1110 min
Histogram: 1 0 0 0 0 0 0 0 0 0
Neighs:    8504 ave 8504 max 8504 min
Histogram: 1 0 0 0 0 0 0 0 0 0

Total # of neighbors = 8504
Ave neighs/atom = 25.3095
Neighbor list builds = 0
Dangerous builds = 0
        next i
jump SELF loop1
        read_dump orig.dump 0 x y z
  orthogonal box = (0 -0.600957 0) to (4.48985 16.1812 4.48985)
  336 atoms before read
  336 atoms in snapshot
  0 atoms purged
  336 atoms replaced
  0 atoms trimmed
  0 atoms added
  336 atoms after read
        variable stretch equal 1+$i*${strainstep}
        variable stretch equal 1+16*${strainstep}
        variable stretch equal 1+16*0.0005
        change_box all ${direction} scale ${stretch} remap
        change_box all y scale ${stretch} remap
        change_box all y scale 1.008 remap
  orthogonal box = (0 -0.669777 0) to (4.48985 16.25 4.48985)
        min_style ${style}
        min_style hftn
        minimize ${etol} ${ftol} ${maxiter} ${maxeval}
        minimize 1e-12 ${ftol} ${maxiter} ${maxeval}
        minimize 1e-12 1e-08 ${maxiter} ${maxeval}
        minimize 1e-12 1e-08 10000 ${maxeval}
        minimize 1e-12 1e-08 10000 20000
WARNING: Resetting reneighboring criteria during minimization (../min.cpp:168)
Memory usage per processor = 4.9009 Mbytes
Step PotEng Pxx Pyy Pxy Lx Ly Lz 
       0   -1874.5477    1.1252012   -1.0217382  0.046948947      4.48985    16.919774      4.48985 
       1   -1875.9842    1.4777718  0.062941424 -0.0093131129      4.48985    16.919774      4.48985 
       2   -1875.9923     1.458538 0.00015370117 -0.00010663013      4.48985    16.919774      4.48985 
       3   -1875.9923    1.4585564 -2.7080959e-05 4.6218742e-05      4.48985    16.919774      4.48985 
       4   -1875.9923    1.4585591 -4.8442182e-10 4.4314847e-10      4.48985    16.919774      4.48985 
       5   -1875.9923    1.4585591 -1.0509623e-11 -6.3490203e-12      4.48985    16.919774      4.48985 
Loop time of 0.143304 on 1 procs for 4 steps with 336 atoms

Minimization stats:
  Stopping criterion = force tolerance
  Energy initial, next-to-last, final = 
        -1874.54767475      -1875.9922899     -1875.99228991
  Force two-norm initial, final = 8.28755 7.34511e-10
  Force max component initial, final = 1.21178 1.43569e-10
  Final line search alpha, max atom move = 0 0
  Iterations, force evaluations = 4 356

Pair  time (%) = 0.127306 (88.8367)
Neigh time (%) = 0 (0)
Comm  time (%) = 0.0083207 (5.80633)
Outpt time (%) = 0.000525013 (0.366363)
Other time (%) = 0.00715179 (4.99064)

Nlocal:    336 ave 336 max 336 min
Histogram: 1 0 0 0 0 0 0 0 0 0
Nghost:    1110 ave 1110 max 1110 min
Histogram: 1 0 0 0 0 0 0 0 0 0
Neighs:    8504 ave 8504 max 8504 min
Histogram: 1 0 0 0 0 0 0 0 0 0

Total # of neighbors = 8504
Ave neighs/atom = 25.3095
Neighbor list builds = 0
Dangerous builds = 0
        next i
jump SELF loop1
        read_dump orig.dump 0 x y z
  orthogonal box = (0 -0.600957 0) to (4.48985 16.1812 4.48985)
  336 atoms before read
  336 atoms in snapshot
  0 atoms purged
  336 atoms replaced
  0 atoms trimmed
  0 atoms added
  336 atoms after read
        variable stretch equal 1+$i*${strainstep}
        variable stretch equal 1+17*${strainstep}
        variable stretch equal 1+17*0.0005
        change_box all ${direction} scale ${stretch} remap
        change_box all y scale ${stretch} remap
        change_box all y scale 1.0085 remap
  orthogonal box = (0 -0.673973 0) to (4.48985 16.2542 4.48985)
        min_style ${style}
        min_style hftn
        minimize ${etol} ${ftol} ${maxiter} ${maxeval}
        minimize 1e-12 ${ftol} ${maxiter} ${maxeval}
        minimize 1e-12 1e-08 ${maxiter} ${maxeval}
        minimize 1e-12 1e-08 10000 ${maxeval}
        minimize 1e-12 1e-08 10000 20000
WARNING: Resetting reneighboring criteria during minimization (../min.cpp:168)
Memory usage per processor = 4.9009 Mbytes
Step PotEng Pxx Pyy Pxy Lx Ly Lz 
       0   -1874.3694    1.1052424   -1.0802726  0.050156743      4.48985    16.928167      4.48985 
       1   -1875.9822    1.4799102  0.072129177 -0.010228676      4.48985    16.928167      4.48985 
       2   -1875.9921    1.4562268 -0.0025871426  -0.00550529      4.48985    16.928167      4.48985 
       3   -1875.9923    1.4578442 1.6726075e-05 3.838251e-06      4.48985    16.928167      4.48985 
       4   -1875.9923    1.4578442 1.6726075e-05 3.838251e-06      4.48985    16.928167      4.48985 
       5   -1875.9923    1.4578432 1.5563018e-05 3.0540644e-06      4.48985    16.928167      4.48985 
       6   -1875.9923    1.4578432 1.5563018e-05 3.0540644e-06      4.48985    16.928167      4.48985 
       7   -1875.9923    1.4578432 1.5563018e-05 3.0540644e-06      4.48985    16.928167      4.48985 
       8   -1875.9923    1.4578432 1.5563018e-05 3.0540644e-06      4.48985    16.928167      4.48985 
       9   -1875.9923    1.4578432 1.555839e-05 3.0492961e-06      4.48985    16.928167      4.48985 
Loop time of 0.112768 on 1 procs for 8 steps with 336 atoms

Minimization stats:
  Stopping criterion = energy tolerance
  Energy initial, next-to-last, final = 
        -1874.36938224     -1875.99229023      -1875.9922906
  Force two-norm initial, final = 8.76049 0.000954688
  Force max component initial, final = 1.28091 0.000115549
  Final line search alpha, max atom move = 0 0
  Iterations, force evaluations = 8 293

Pair  time (%) = 0.103942 (92.1734)
Neigh time (%) = 0 (0)
Comm  time (%) = 0.00341301 (3.02658)
Outpt time (%) = 0.000444827 (0.394462)
Other time (%) = 0.0049681 (4.4056)

Nlocal:    336 ave 336 max 336 min
Histogram: 1 0 0 0 0 0 0 0 0 0
Nghost:    1110 ave 1110 max 1110 min
Histogram: 1 0 0 0 0 0 0 0 0 0
Neighs:    8504 ave 8504 max 8504 min
Histogram: 1 0 0 0 0 0 0 0 0 0

Total # of neighbors = 8504
Ave neighs/atom = 25.3095
Neighbor list builds = 0
Dangerous builds = 0
        next i
jump SELF loop1
        read_dump orig.dump 0 x y z
  orthogonal box = (0 -0.600957 0) to (4.48985 16.1812 4.48985)
  336 atoms before read
  336 atoms in snapshot
  0 atoms purged
  336 atoms replaced
  0 atoms trimmed
  0 atoms added
  336 atoms after read
        variable stretch equal 1+$i*${strainstep}
        variable stretch equal 1+18*${strainstep}
        variable stretch equal 1+18*0.0005
        change_box all ${direction} scale ${stretch} remap
        change_box all y scale ${stretch} remap
        change_box all y scale 1.009 remap
  orthogonal box = (0 -0.678169 0) to (4.48985 16.2584 4.48985)
        min_style ${style}
        min_style hftn
        minimize ${etol} ${ftol} ${maxiter} ${maxeval}
        minimize 1e-12 ${ftol} ${maxiter} ${maxeval}
        minimize 1e-12 1e-08 ${maxiter} ${maxeval}
        minimize 1e-12 1e-08 10000 ${maxeval}
        minimize 1e-12 1e-08 10000 20000
WARNING: Resetting reneighboring criteria during minimization (../min.cpp:168)
Memory usage per processor = 4.9009 Mbytes
Step PotEng Pxx Pyy Pxy Lx Ly Lz 
       0   -1874.1819    1.0853968   -1.1384019  0.053406813      4.48985     16.93656      4.48985 
       1   -1875.9799    1.4818372  0.080209865 -0.010903848      4.48985     16.93656      4.48985 
       2   -1875.9921    1.4568511 -0.00031479559 0.00037430454      4.48985     16.93656      4.48985 
       3   -1875.9923    1.4573069 0.00047798771 0.00015485124      4.48985     16.93656      4.48985 
       4   -1875.9923    1.4573069 0.00047798771 0.00015485124      4.48985     16.93656      4.48985 
       5   -1875.9923    1.4573069 0.00047798771 0.00015485124      4.48985     16.93656      4.48985 
       6   -1875.9923    1.4573069 0.00047798771 0.00015485124      4.48985     16.93656      4.48985 
       7   -1875.9923    1.4573069 0.00047798771 0.00015485124      4.48985     16.93656      4.48985 
       8   -1875.9923    1.4573069 0.00047798771 0.00015485124      4.48985     16.93656      4.48985 
       9   -1875.9923    1.4573069 0.00047798771 0.00015485124      4.48985     16.93656      4.48985 
      10   -1875.9923    1.4573069 0.00047798771 0.00015485124      4.48985     16.93656      4.48985 
      11   -1875.9923    1.4573069 0.00047798427 0.00015485079      4.48985     16.93656      4.48985 
Loop time of 0.171573 on 1 procs for 10 steps with 336 atoms

Minimization stats:
  Stopping criterion = energy tolerance
  Energy initial, next-to-last, final = 
         -1874.1819096     -1875.99214747     -1875.99230517
  Force two-norm initial, final = 9.23062 0.00631068
  Force max component initial, final = 1.34964 0.00104736
  Final line search alpha, max atom move = 0 0
  Iterations, force evaluations = 10 315

Pair  time (%) = 0.149813 (87.3173)
Neigh time (%) = 0 (0)
Comm  time (%) = 0.0141691 (8.25835)
Outpt time (%) = 0.00237088 (1.38185)
Other time (%) = 0.00522003 (3.04246)

Nlocal:    336 ave 336 max 336 min
Histogram: 1 0 0 0 0 0 0 0 0 0
Nghost:    1110 ave 1110 max 1110 min
Histogram: 1 0 0 0 0 0 0 0 0 0
Neighs:    8504 ave 8504 max 8504 min
Histogram: 1 0 0 0 0 0 0 0 0 0

Total # of neighbors = 8504
Ave neighs/atom = 25.3095
Neighbor list builds = 0
Dangerous builds = 0
        next i
jump SELF loop1
        read_dump orig.dump 0 x y z
  orthogonal box = (0 -0.600957 0) to (4.48985 16.1812 4.48985)
  336 atoms before read
  336 atoms in snapshot
  0 atoms purged
  336 atoms replaced
  0 atoms trimmed
  0 atoms added
  336 atoms after read
        variable stretch equal 1+$i*${strainstep}
        variable stretch equal 1+19*${strainstep}
        variable stretch equal 1+19*0.0005
        change_box all ${direction} scale ${stretch} remap
        change_box all y scale ${stretch} remap
        change_box all y scale 1.0095 remap
  orthogonal box = (0 -0.682366 0) to (4.48985 16.2626 4.48985)
        min_style ${style}
        min_style hftn
        minimize ${etol} ${ftol} ${maxiter} ${maxeval}
        minimize 1e-12 ${ftol} ${maxiter} ${maxeval}
        minimize 1e-12 1e-08 ${maxiter} ${maxeval}
        minimize 1e-12 1e-08 10000 ${maxeval}
        minimize 1e-12 1e-08 10000 20000
WARNING: Resetting reneighboring criteria during minimization (../min.cpp:168)
Memory usage per processor = 4.9009 Mbytes
Step PotEng Pxx Pyy Pxy Lx Ly Lz 
       0   -1873.9842    1.0656908   -1.1960883  0.056669698      4.48985    16.944952      4.48985 
       1   -1875.9768    1.4845012  0.090406062 -0.011890894      4.48985    16.944952      4.48985 
       2   -1875.9921    1.4561031 -0.0003247191 0.00041727039      4.48985    16.944952      4.48985 
       3   -1875.9923    1.4566248 0.00057837381 0.00017389074      4.48985    16.944952      4.48985 
       4   -1875.9923    1.4566248 0.00057837381 0.00017389074      4.48985    16.944952      4.48985 
       5   -1875.9923    1.4566248 0.00057837381 0.00017389074      4.48985    16.944952      4.48985 
       6   -1875.9923    1.4566248 0.00057837381 0.00017389074      4.48985    16.944952      4.48985 
       7   -1875.9923    1.4566248 0.00057837381 0.00017389074      4.48985    16.944952      4.48985 
       8   -1875.9923    1.4566248 0.00057837381 0.00017389074      4.48985    16.944952      4.48985 
       9   -1875.9923    1.4566248 0.00057837381 0.00017389074      4.48985    16.944952      4.48985 
      10   -1875.9923    1.4566248 0.00057833627 0.00017388529      4.48985    16.944952      4.48985 
Loop time of 0.11698 on 1 procs for 9 steps with 336 atoms

Minimization stats:
  Stopping criterion = energy tolerance
  Energy initial, next-to-last, final = 
        -1873.98420331     -1875.99213284      -1875.9923054
  Force two-norm initial, final = 9.69704 0.00625794
  Force max component initial, final = 1.41768 0.000831793
  Final line search alpha, max atom move = 0 0
  Iterations, force evaluations = 9 304

Pair  time (%) = 0.103925 (88.84)
Neigh time (%) = 0 (0)
Comm  time (%) = 0.00774785 (6.62323)
Outpt time (%) = 0.000468965 (0.400894)
Other time (%) = 0.00483812 (4.13585)

Nlocal:    336 ave 336 max 336 min
Histogram: 1 0 0 0 0 0 0 0 0 0
Nghost:    1110 ave 1110 max 1110 min
Histogram: 1 0 0 0 0 0 0 0 0 0
Neighs:    8504 ave 8504 max 8504 min
Histogram: 1 0 0 0 0 0 0 0 0 0

Total # of neighbors = 8504
Ave neighs/atom = 25.3095
Neighbor list builds = 0
Dangerous builds = 0
        next i
jump SELF loop1
        read_dump orig.dump 0 x y z
  orthogonal box = (0 -0.600957 0) to (4.48985 16.1812 4.48985)
  336 atoms before read
  336 atoms in snapshot
  0 atoms purged
  336 atoms replaced
  0 atoms trimmed
  0 atoms added
  336 atoms after read
        variable stretch equal 1+$i*${strainstep}
        variable stretch equal 1+20*${strainstep}
        variable stretch equal 1+20*0.0005
        change_box all ${direction} scale ${stretch} remap
        change_box all y scale ${stretch} remap
        change_box all y scale 1.01 remap
  orthogonal box = (0 -0.686562 0) to (4.48985 16.2668 4.48985)
        min_style ${style}
        min_style hftn
        minimize ${etol} ${ftol} ${maxiter} ${maxeval}
        minimize 1e-12 ${ftol} ${maxiter} ${maxeval}
        minimize 1e-12 1e-08 ${maxiter} ${maxeval}
        minimize 1e-12 1e-08 10000 ${maxeval}
        minimize 1e-12 1e-08 10000 20000
WARNING: Resetting reneighboring criteria during minimization (../min.cpp:168)
Memory usage per processor = 4.9009 Mbytes
Step PotEng Pxx Pyy Pxy Lx Ly Lz 
       0    -1873.777     1.046107   -1.2533616  0.059965494      4.48985    16.953345      4.48985 
       1   -1875.9737    1.4867368  0.099780433   -0.0120556      4.48985    16.953345      4.48985 
       2   -1875.9921    1.4553193 -0.00044216991 0.00047348168      4.48985    16.953345      4.48985 
       3   -1875.9923    1.4558704 0.00055734921 0.00012044414      4.48985    16.953345      4.48985 
       4   -1875.9923    1.4558704 0.00055734921 0.00012044414      4.48985    16.953345      4.48985 
       5   -1875.9923    1.4558573 0.00045696647 0.00015286493      4.48985    16.953345      4.48985 
       6   -1875.9923    1.4558573 0.00045696647 0.00015286493      4.48985    16.953345      4.48985 
       7   -1875.9923    1.4558573 0.00045696647 0.00015286493      4.48985    16.953345      4.48985 
       8   -1875.9923    1.4558543 0.00044922212 0.0001499128      4.48985    16.953345      4.48985 
       9   -1875.9923    1.4558543 0.00044922212 0.0001499128      4.48985    16.953345      4.48985 
      10   -1875.9923    1.4558519 0.00044575377 0.00014996389      4.48985    16.953345      4.48985 
      11   -1875.9923    1.4558519 0.00044575377 0.00014996389      4.48985    16.953345      4.48985 
      12   -1875.9923    1.4558519 0.00044575377 0.00014996389      4.48985    16.953345      4.48985 
      13   -1875.9923    1.4558519 0.00044575377 0.00014996389      4.48985    16.953345      4.48985 
      14   -1875.9923    1.4558519 0.00044575377 0.00014996389      4.48985    16.953345      4.48985 
      15   -1875.9923    1.4558519 0.00044573953 0.00014996187      4.48985    16.953345      4.48985 
Loop time of 0.140202 on 1 procs for 14 steps with 336 atoms

Minimization stats:
  Stopping criterion = energy tolerance
  Energy initial, next-to-last, final = 
         -1873.7770456     -1875.99230076     -1875.99230078
  Force two-norm initial, final = 10.1604 0.00247472
  Force max component initial, final = 1.48533 0.000385249
  Final line search alpha, max atom move = 0 0
  Iterations, force evaluations = 14 359

Pair  time (%) = 0.125412 (89.4512)
Neigh time (%) = 0 (0)
Comm  time (%) = 0.0072678 (5.1838)
Outpt time (%) = 0.000928361 (0.662159)
Other time (%) = 0.00659344 (4.70282)

Nlocal:    336 ave 336 max 336 min
Histogram: 1 0 0 0 0 0 0 0 0 0
Nghost:    1110 ave 1110 max 1110 min
Histogram: 1 0 0 0 0 0 0 0 0 0
Neighs:    8504 ave 8504 max 8504 min
Histogram: 1 0 0 0 0 0 0 0 0 0

Total # of neighbors = 8504
Ave neighs/atom = 25.3095
Neighbor list builds = 0
Dangerous builds = 0
        next i
jump SELF loop1
        read_dump orig.dump 0 x y z
  orthogonal box = (0 -0.600957 0) to (4.48985 16.1812 4.48985)
  336 atoms before read
  336 atoms in snapshot
  0 atoms purged
  336 atoms replaced
  0 atoms trimmed
  0 atoms added
  336 atoms after read
        variable stretch equal 1+$i*${strainstep}
        variable stretch equal 1+21*${strainstep}
        variable stretch equal 1+21*0.0005
        change_box all ${direction} scale ${stretch} remap
        change_box all y scale ${stretch} remap
        change_box all y scale 1.0105 remap
  orthogonal box = (0 -0.690759 0) to (4.48985 16.271 4.48985)
        min_style ${style}
        min_style hftn
        minimize ${etol} ${ftol} ${maxiter} ${maxeval}
        minimize 1e-12 ${ftol} ${maxiter} ${maxeval}
        minimize 1e-12 1e-08 ${maxiter} ${maxeval}
        minimize 1e-12 1e-08 10000 ${maxeval}
        minimize 1e-12 1e-08 10000 20000
WARNING: Resetting reneighboring criteria during minimization (../min.cpp:168)
Memory usage per processor = 4.9009 Mbytes
Step PotEng Pxx Pyy Pxy Lx Ly Lz 
       0     -1873.56    1.0266484   -1.3101982  0.063284584      4.48985    16.961738      4.48985 
       1   -1875.9703    1.4890578   0.11010461 -0.013240351      4.48985    16.961738      4.48985 
       2   -1875.9921    1.4545821 -0.00042461854 0.00048971437      4.48985    16.961738      4.48985 
       3   -1875.9923    1.4551723 0.00059938907 0.0001260638      4.48985    16.961738      4.48985 
       4   -1875.9923    1.4551723 0.00059938907 0.0001260638      4.48985    16.961738      4.48985 
       5   -1875.9923     1.455139 0.0004627192 0.00015747154      4.48985    16.961738      4.48985 
       6   -1875.9923     1.455139 0.0004627192 0.00015747154      4.48985    16.961738      4.48985 
       7   -1875.9923     1.455139 0.0004627192 0.00015747154      4.48985    16.961738      4.48985 
       8   -1875.9923     1.455139 0.0004627192 0.00015747154      4.48985    16.961738      4.48985 
       9   -1875.9923     1.455139 0.0004627192 0.00015747154      4.48985    16.961738      4.48985 
      10   -1875.9923     1.455139 0.0004627192 0.00015747154      4.48985    16.961738      4.48985 
      11   -1875.9923     1.455139 0.0004627192 0.00015747154      4.48985    16.961738      4.48985 
      12   -1875.9923     1.455139 0.00046271786 0.00015747267      4.48985    16.961738      4.48985 
Loop time of 0.1324 on 1 procs for 11 steps with 336 atoms

Minimization stats:
  Stopping criterion = energy tolerance
  Energy initial, next-to-last, final = 
        -1873.56002187     -1875.99230006     -1875.99230201
  Force two-norm initial, final = 10.6207 0.00652658
  Force max component initial, final = 1.55239 0.000974695
  Final line search alpha, max atom move = 0 0
  Iterations, force evaluations = 11 338

Pair  time (%) = 0.113305 (85.578)
Neigh time (%) = 0 (0)
Comm  time (%) = 0.0121876 (9.20516)
Outpt time (%) = 0.000662946 (0.500714)
Other time (%) = 0.00624411 (4.7161)

Nlocal:    336 ave 336 max 336 min
Histogram: 1 0 0 0 0 0 0 0 0 0
Nghost:    1110 ave 1110 max 1110 min
Histogram: 1 0 0 0 0 0 0 0 0 0
Neighs:    8504 ave 8504 max 8504 min
Histogram: 1 0 0 0 0 0 0 0 0 0

Total # of neighbors = 8504
Ave neighs/atom = 25.3095
Neighbor list builds = 0
Dangerous builds = 0
        next i
jump SELF loop1
        read_dump orig.dump 0 x y z
  orthogonal box = (0 -0.600957 0) to (4.48985 16.1812 4.48985)
  336 atoms before read
  336 atoms in snapshot
  0 atoms purged
  336 atoms replaced
  0 atoms trimmed
  0 atoms added
  336 atoms after read
        variable stretch equal 1+$i*${strainstep}
        variable stretch equal 1+22*${strainstep}
        variable stretch equal 1+22*0.0005
        change_box all ${direction} scale ${stretch} remap
        change_box all y scale ${stretch} remap
        change_box all y scale 1.011 remap
  orthogonal box = (0 -0.694955 0) to (4.48985 16.2752 4.48985)
        min_style ${style}
        min_style hftn
        minimize ${etol} ${ftol} ${maxiter} ${maxeval}
        minimize 1e-12 ${ftol} ${maxiter} ${maxeval}
        minimize 1e-12 1e-08 ${maxiter} ${maxeval}
        minimize 1e-12 1e-08 10000 ${maxeval}
        minimize 1e-12 1e-08 10000 20000
WARNING: Resetting reneighboring criteria during minimization (../min.cpp:168)
Memory usage per processor = 4.9009 Mbytes
Step PotEng Pxx Pyy Pxy Lx Ly Lz 
       0   -1873.3335    1.0073202   -1.3666261  0.066624849      4.48985    16.970131      4.48985 
       1   -1875.8861    1.4794344  0.071812991 -0.0051137106      4.48985    16.970131      4.48985 
       2   -1875.9905    1.4520821 0.0044002779 -0.014993363      4.48985    16.970131      4.48985 
       3   -1875.9923    1.4540906 -0.00042363726 -7.0389791e-05      4.48985    16.970131      4.48985 
       4   -1875.9923    1.4540906 -0.00042363726 -7.0389791e-05      4.48985    16.970131      4.48985 
       5   -1875.9923    1.4540906 -0.00042363726 -7.0389791e-05      4.48985    16.970131      4.48985 
       6   -1875.9923    1.4540906 -0.00042363726 -7.0389791e-05      4.48985    16.970131      4.48985 
       7   -1875.9923    1.4540906 -0.00042363726 -7.0389791e-05      4.48985    16.970131      4.48985 
       8   -1875.9923    1.4540906 -0.00042363726 -7.0389791e-05      4.48985    16.970131      4.48985 
       9   -1875.9923    1.4540907 -0.0004235301 -7.0412246e-05      4.48985    16.970131      4.48985 
Loop time of 0.0991601 on 1 procs for 8 steps with 336 atoms

Minimization stats:
  Stopping criterion = energy tolerance
  Energy initial, next-to-last, final = 
        -1873.33353253     -1875.99050308     -1875.99229319
  Force two-norm initial, final = 11.0777 0.0219245
  Force max component initial, final = 1.61904 0.00294785
  Final line search alpha, max atom move = 0 0
  Iterations, force evaluations = 8 251

Pair  time (%) = 0.0880878 (88.8339)
Neigh time (%) = 0 (0)
Comm  time (%) = 0.00648834 (6.5433)
Outpt time (%) = 0.000500058 (0.504293)
Other time (%) = 0.00408392 (4.11851)

Nlocal:    336 ave 336 max 336 min
Histogram: 1 0 0 0 0 0 0 0 0 0
Nghost:    1110 ave 1110 max 1110 min
Histogram: 1 0 0 0 0 0 0 0 0 0
Neighs:    8504 ave 8504 max 8504 min
Histogram: 1 0 0 0 0 0 0 0 0 0

Total # of neighbors = 8504
Ave neighs/atom = 25.3095
Neighbor list builds = 0
Dangerous builds = 0
        next i
jump SELF loop1
        read_dump orig.dump 0 x y z
  orthogonal box = (0 -0.600957 0) to (4.48985 16.1812 4.48985)
  336 atoms before read
  336 atoms in snapshot
  0 atoms purged
  336 atoms replaced
  0 atoms trimmed
  0 atoms added
  336 atoms after read
        variable stretch equal 1+$i*${strainstep}
        variable stretch equal 1+23*${strainstep}
        variable stretch equal 1+23*0.0005
        change_box all ${direction} scale ${stretch} remap
        change_box all y scale ${stretch} remap
        change_box all y scale 1.0115 remap
  orthogonal box = (0 -0.699151 0) to (4.48985 16.2794 4.48985)
        min_style ${style}
        min_style hftn
        minimize ${etol} ${ftol} ${maxiter} ${maxeval}
        minimize 1e-12 ${ftol} ${maxiter} ${maxeval}
        minimize 1e-12 1e-08 ${maxiter} ${maxeval}
        minimize 1e-12 1e-08 10000 ${maxeval}
        minimize 1e-12 1e-08 10000 20000
WARNING: Resetting reneighboring criteria during minimization (../min.cpp:168)
Memory usage per processor = 4.9009 Mbytes
Step PotEng Pxx Pyy Pxy Lx Ly Lz 
       0   -1873.0976   0.98811533   -1.4226403   0.06998978      4.48985    16.978523      4.48985 
       1   -1875.6676    1.4401925 -0.032402562 0.0044567639      4.48985    16.978523      4.48985 
       2   -1875.9894    1.4508443 0.0054711167 -0.014714947      4.48985    16.978523      4.48985 
       3   -1875.9923    1.4533643 -0.00041269121 -7.9125425e-05      4.48985    16.978523      4.48985 
       4   -1875.9923    1.4533643 -0.00041269121 -7.9125425e-05      4.48985    16.978523      4.48985 
       5   -1875.9923    1.4533643 -0.00041269121 -7.9125425e-05      4.48985    16.978523      4.48985 
       6   -1875.9923    1.4533687 -0.00040170068 -8.0472057e-05      4.48985    16.978523      4.48985 
       7   -1875.9923    1.4533687 -0.00040170068 -8.0472057e-05      4.48985    16.978523      4.48985 
       8   -1875.9923    1.4533714 -0.00039510701 -8.1457851e-05      4.48985    16.978523      4.48985 
       9   -1875.9923    1.4533714 -0.00039510701 -8.1457851e-05      4.48985    16.978523      4.48985 
      10   -1875.9923    1.4533714 -0.00039510701 -8.1457851e-05      4.48985    16.978523      4.48985 
      11   -1875.9923    1.4533714 -0.00039510701 -8.1457851e-05      4.48985    16.978523      4.48985 
      12   -1875.9923    1.4533714 -0.00039510701 -8.1457851e-05      4.48985    16.978523      4.48985 
      13   -1875.9923    1.4533715 -0.00039509621 -8.145975e-05      4.48985    16.978523      4.48985 
Loop time of 0.10962 on 1 procs for 12 steps with 336 atoms

Minimization stats:
  Stopping criterion = energy tolerance
  Energy initial, next-to-last, final = 
        -1873.09757939     -1875.99230676     -1875.99230678
  Force two-norm initial, final = 11.5315 0.0133552
  Force max component initial, final = 1.68513 0.00124071
  Final line search alpha, max atom move = 0 0
  Iterations, force evaluations = 12 283

Pair  time (%) = 0.0976679 (89.0967)
Neigh time (%) = 0 (0)
Comm  time (%) = 0.00654163 (5.96755)
Outpt time (%) = 0.000648526 (0.591612)
Other time (%) = 0.00476204 (4.34413)

Nlocal:    336 ave 336 max 336 min
Histogram: 1 0 0 0 0 0 0 0 0 0
Nghost:    1110 ave 1110 max 1110 min
Histogram: 1 0 0 0 0 0 0 0 0 0
Neighs:    8504 ave 8504 max 8504 min
Histogram: 1 0 0 0 0 0 0 0 0 0

Total # of neighbors = 8504
Ave neighs/atom = 25.3095
Neighbor list builds = 0
Dangerous builds = 0
        next i
jump SELF loop1
        read_dump orig.dump 0 x y z
  orthogonal box = (0 -0.600957 0) to (4.48985 16.1812 4.48985)
  336 atoms before read
  336 atoms in snapshot
  0 atoms purged
  336 atoms replaced
  0 atoms trimmed
  0 atoms added
  336 atoms after read
        variable stretch equal 1+$i*${strainstep}
        variable stretch equal 1+24*${strainstep}
        variable stretch equal 1+24*0.0005
        change_box all ${direction} scale ${stretch} remap
        change_box all y scale ${stretch} remap
        change_box all y scale 1.012 remap
  orthogonal box = (0 -0.703348 0) to (4.48985 16.2836 4.48985)
        min_style ${style}
        min_style hftn
        minimize ${etol} ${ftol} ${maxiter} ${maxeval}
        minimize 1e-12 ${ftol} ${maxiter} ${maxeval}
        minimize 1e-12 1e-08 ${maxiter} ${maxeval}
        minimize 1e-12 1e-08 10000 ${maxeval}
        minimize 1e-12 1e-08 10000 20000
WARNING: Resetting reneighboring criteria during minimization (../min.cpp:168)
Memory usage per processor = 4.9009 Mbytes
Step PotEng Pxx Pyy Pxy Lx Ly Lz 
       0   -1872.8523   0.96903413   -1.4782413  0.073382105      4.48985    16.986916      4.48985 
       1   -1875.3853    1.3934394   -0.1570563 0.0021303383      4.48985    16.986916      4.48985 
       2   -1875.9868    1.4572605  0.023346491 -0.016030166      4.48985    16.986916      4.48985 
       3   -1875.9923    1.4527842 -0.00014953822 -0.0002399427      4.48985    16.986916      4.48985 
       4   -1875.9923    1.4527842 -0.00014953822 -0.0002399427      4.48985    16.986916      4.48985 
       5   -1875.9923    1.4527842 -0.00014953822 -0.0002399427      4.48985    16.986916      4.48985 
       6   -1875.9923    1.4527842 -0.00014953822 -0.0002399427      4.48985    16.986916      4.48985 
[...]
Neighs:    8504 ave 8504 max 8504 min
Histogram: 1 0 0 0 0 0 0 0 0 0

Total # of neighbors = 8504
Ave neighs/atom = 25.3095
Neighbor list builds = 2
Dangerous builds = 0
        next i
jump SELF loop1
        read_dump orig.dump 0 x y z
  orthogonal box = (0 -0.600957 0) to (4.48985 16.1812 4.48985)
  336 atoms before read
  336 atoms in snapshot
  0 atoms purged
  336 atoms replaced
  0 atoms trimmed
  0 atoms added
  336 atoms after read
        variable stretch equal 1+$i*${strainstep}
        variable stretch equal 1+95*${strainstep}
        variable stretch equal 1+95*0.0005
        change_box all ${direction} scale ${stretch} remap
        change_box all y scale ${stretch} remap
        change_box all y scale 1.0475 remap
  orthogonal box = (0 -1.00129 0) to (4.48985 16.5815 4.48985)
        min_style ${style}
        min_style hftn
        minimize ${etol} ${ftol} ${maxiter} ${maxeval}
        minimize 1e-12 ${ftol} ${maxiter} ${maxeval}
        minimize 1e-12 1e-08 ${maxiter} ${maxeval}
        minimize 1e-12 1e-08 10000 ${maxeval}
        minimize 1e-12 1e-08 10000 20000
WARNING: Resetting reneighboring criteria during minimization (../min.cpp:168)
Memory usage per processor = 4.90121 Mbytes
Step PotEng Pxx Pyy Pxy Lx Ly Lz 
       0   -1835.0007  -0.11782158   -4.5830494   0.32301251      4.48985    17.582801      4.48985 
       1   -1840.2013  0.043053974   -3.7562429   0.19880974      4.48985    17.582801      4.48985 
       2   -1852.5416   0.36449724    -3.100421   0.21041925      4.48985     17.27985      4.48985 
       3   -1858.2923    0.4853484   -2.5479642   0.13566626      4.48985     17.27985      4.48985 
       4   -1865.4515   0.75241184   -1.8183367  0.063112061      4.48985     17.27985      4.48985 
       5   -1871.7898    1.0722767   -1.0292121 -0.0020467411      4.48985    16.917412      4.48985 
       6   -1875.8691    1.4961011   0.12748383 -0.040503058      4.48985    16.917412      4.48985 
       7   -1875.9892    1.4572027 -0.0012059786 0.0053616515      4.48985    16.917412      4.48985 
       8   -1875.9923    1.4588581 0.00030655471 -2.076032e-05      4.48985    16.917412      4.48985 
       9   -1875.9923    1.4588581 0.00030655471 -2.076032e-05      4.48985    16.917412      4.48985 
      10   -1875.9923    1.4588581 0.00030655471 -2.076032e-05      4.48985    16.917412      4.48985 
      11   -1875.9923    1.4588581 0.00030655471 -2.076032e-05      4.48985    16.917412      4.48985 
      12   -1875.9923    1.4588581 0.00030655471 -2.076032e-05      4.48985    16.917412      4.48985 
      13   -1875.9923    1.4588581 0.00030655471 -2.076032e-05      4.48985    16.917412      4.48985 
      14   -1875.9923    1.4588581 0.00030655471 -2.076032e-05      4.48985    16.917412      4.48985 
      15   -1875.9923    1.4588581 0.00030656231 -2.0761483e-05      4.48985    16.917412      4.48985 
Loop time of 0.157216 on 1 procs for 14 steps with 336 atoms

Minimization stats:
  Stopping criterion = energy tolerance
  Energy initial, next-to-last, final = 
        -1835.00074972     -1875.98917243     -1875.99231211
  Force two-norm initial, final = 37.0717 0.0170969
  Force max component initial, final = 5.29786 0.00307857
  Final line search alpha, max atom move = 0 0
  Iterations, force evaluations = 14 395

Pair  time (%) = 0.134647 (85.6447)
Neigh time (%) = 0.000878042 (0.558494)
Comm  time (%) = 0.013807 (8.78218)
Outpt time (%) = 0.000858014 (0.545755)
Other time (%) = 0.00702578 (4.46887)

Nlocal:    336 ave 336 max 336 min
Histogram: 1 0 0 0 0 0 0 0 0 0
Nghost:    1101 ave 1101 max 1101 min
Histogram: 1 0 0 0 0 0 0 0 0 0
Neighs:    8504 ave 8504 max 8504 min
Histogram: 1 0 0 0 0 0 0 0 0 0

Total # of neighbors = 8504
Ave neighs/atom = 25.3095
Neighbor list builds = 2
Dangerous builds = 0
        next i
jump SELF loop1
        read_dump orig.dump 0 x y z
  orthogonal box = (0 -0.600957 0) to (4.48985 16.1812 4.48985)
  336 atoms before read
  336 atoms in snapshot
  0 atoms purged
  336 atoms replaced
  0 atoms trimmed
  0 atoms added
  336 atoms after read
        variable stretch equal 1+$i*${strainstep}
        variable stretch equal 1+96*${strainstep}
        variable stretch equal 1+96*0.0005
        change_box all ${direction} scale ${stretch} remap
        change_box all y scale ${stretch} remap
        change_box all y scale 1.048 remap
  orthogonal box = (0 -1.00549 0) to (4.48985 16.5857 4.48985)
        min_style ${style}
        min_style hftn
        minimize ${etol} ${ftol} ${maxiter} ${maxeval}
        minimize 1e-12 ${ftol} ${maxiter} ${maxeval}
        minimize 1e-12 1e-08 ${maxiter} ${maxeval}
        minimize 1e-12 1e-08 10000 ${maxeval}
        minimize 1e-12 1e-08 10000 20000
WARNING: Resetting reneighboring criteria during minimization (../min.cpp:168)
Memory usage per processor = 4.90121 Mbytes
Step PotEng Pxx Pyy Pxy Lx Ly Lz 
       0   -1834.2224   -0.1298436    -4.618021   0.32633012      4.48985    17.591194      4.48985 
       1   -1839.4674  0.032689074   -3.7847287   0.19779599      4.48985    17.591194      4.48985 
       2   -1847.2917   0.18844887   -3.5736604   0.20460029      4.48985    17.591194      4.48985 
       3   -1855.8787   0.45983747   -2.6403864   0.10438567      4.48985    17.219249      4.48985 
       4   -1865.3982   0.77260025   -1.9162071  0.094443083      4.48985    17.219249      4.48985 
       5   -1871.7337    1.0766132   -1.0954508 -0.016345778      4.48985     16.93811      4.48985 
       6   -1875.8044    1.5012568   0.15764077  -0.02396959      4.48985     16.93811      4.48985 
       7   -1875.9901    1.4570644 0.0031384705 0.0036128482      4.48985     16.93811      4.48985 
       8   -1875.9923     1.456978 -3.7419578e-05 -6.6912577e-06      4.48985     16.93811      4.48985 
       9   -1875.9923    1.4569801 1.8301827e-06 -5.6939855e-06      4.48985     16.93811      4.48985 
      10   -1875.9923    1.4569803 -1.207047e-12 -1.7158548e-13      4.48985     16.93811      4.48985 
Loop time of 0.263657 on 1 procs for 9 steps with 336 atoms

Minimization stats:
  Stopping criterion = force tolerance
  Energy initial, next-to-last, final = 
        -1834.22237137     -1875.99228959     -1875.99228991
  Force two-norm initial, final = 37.3344 1.33118e-09
  Force max component initial, final = 5.33431 1.46709e-10
  Final line search alpha, max atom move = 0 0
  Iterations, force evaluations = 9 518

Pair  time (%) = 0.224159 (85.0191)
Neigh time (%) = 0.000526045 (0.199519)
Comm  time (%) = 0.0127073 (4.81965)
Outpt time (%) = 0.0168082 (6.37501)
Other time (%) = 0.00945666 (3.58673)

Nlocal:    336 ave 336 max 336 min
Histogram: 1 0 0 0 0 0 0 0 0 0
Nghost:    1101 ave 1101 max 1101 min
Histogram: 1 0 0 0 0 0 0 0 0 0
Neighs:    8480 ave 8480 max 8480 min
Histogram: 1 0 0 0 0 0 0 0 0 0

Total # of neighbors = 8480
Ave neighs/atom = 25.2381
Neighbor list builds = 2
Dangerous builds = 0
        next i
jump SELF loop1
        read_dump orig.dump 0 x y z
  orthogonal box = (0 -0.600957 0) to (4.48985 16.1812 4.48985)
  336 atoms before read
  336 atoms in snapshot
  0 atoms purged
  336 atoms replaced
  0 atoms trimmed
  0 atoms added
  336 atoms after read
        variable stretch equal 1+$i*${strainstep}
        variable stretch equal 1+97*${strainstep}
        variable stretch equal 1+97*0.0005
        change_box all ${direction} scale ${stretch} remap
        change_box all y scale ${stretch} remap
        change_box all y scale 1.0485 remap
  orthogonal box = (0 -1.00968 0) to (4.48985 16.5899 4.48985)
        min_style ${style}
        min_style hftn
        minimize ${etol} ${ftol} ${maxiter} ${maxeval}
        minimize 1e-12 ${ftol} ${maxiter} ${maxeval}
        minimize 1e-12 1e-08 ${maxiter} ${maxeval}
        minimize 1e-12 1e-08 10000 ${maxeval}
        minimize 1e-12 1e-08 10000 20000
WARNING: Resetting reneighboring criteria during minimization (../min.cpp:168)
Memory usage per processor = 4.90121 Mbytes
Step PotEng Pxx Pyy Pxy Lx Ly Lz 
       0   -1833.4381  -0.14182866   -4.6528861   0.32970395      4.48985    17.599587      4.48985 
       1   -1838.7347  0.022033745   -3.8144005   0.19737203      4.48985    17.599587      4.48985 
       2    -1846.682   0.17873438   -3.6043833   0.20719176      4.48985    17.599587      4.48985 
       3   -1855.5506   0.44679784    -2.669355   0.10712067      4.48985      17.2238      4.48985 
       4    -1865.192   0.76730361   -1.9284641  0.089852325      4.48985      17.2238      4.48985 
       5   -1871.6543    1.0746545   -1.1061702  -0.01459502      4.48985    16.939769      4.48985 
       6   -1875.7977    1.5026569   0.16232445 -0.024329721      4.48985    16.939769      4.48985 
       7   -1875.9902    1.4568723 0.0030108038  0.003552029      4.48985    16.939769      4.48985 
       8   -1875.9923    1.4568411 -1.7189155e-05 2.0573625e-06      4.48985    16.939769      4.48985 
       9   -1875.9923    1.4568411 -1.7189155e-05 2.0573625e-06      4.48985    16.939769      4.48985 
      10   -1875.9923    1.4568397 -1.1553174e-05 2.2498703e-06      4.48985    16.939769      4.48985 
      11   -1875.9923    1.4568397 -1.1553174e-05 2.2498703e-06      4.48985    16.939769      4.48985 
      12   -1875.9923    1.4568397 -1.1553174e-05 2.2498703e-06      4.48985    16.939769      4.48985 
      13   -1875.9923    1.4568397 -1.1553174e-05 2.2498703e-06      4.48985    16.939769      4.48985 
      14   -1875.9923    1.4568397 -1.1553174e-05 2.2498703e-06      4.48985    16.939769      4.48985 
      15   -1875.9923    1.4568397 -1.154771e-05 2.2426509e-06      4.48985    16.939769      4.48985 
Loop time of 0.163651 on 1 procs for 14 steps with 336 atoms

Minimization stats:
  Stopping criterion = energy tolerance
  Energy initial, next-to-last, final = 
        -1833.43807895     -1875.99229218      -1875.9922937
  Force two-norm initial, final = 37.5954 0.00681913
  Force max component initial, final = 5.37057 0.00118177
  Final line search alpha, max atom move = 0 0
  Iterations, force evaluations = 14 391

Pair  time (%) = 0.141335 (86.3637)
Neigh time (%) = 0.000768876 (0.469826)
Comm  time (%) = 0.0133729 (8.17158)
Outpt time (%) = 0.00114493 (0.699616)
Other time (%) = 0.00702926 (4.29527)

Nlocal:    336 ave 336 max 336 min
Histogram: 1 0 0 0 0 0 0 0 0 0
Nghost:    1101 ave 1101 max 1101 min
Histogram: 1 0 0 0 0 0 0 0 0 0
Neighs:    8480 ave 8480 max 8480 min
Histogram: 1 0 0 0 0 0 0 0 0 0

Total # of neighbors = 8480
Ave neighs/atom = 25.2381
Neighbor list builds = 2
Dangerous builds = 0
        next i
jump SELF loop1
        read_dump orig.dump 0 x y z
  orthogonal box = (0 -0.600957 0) to (4.48985 16.1812 4.48985)
  336 atoms before read
  336 atoms in snapshot
  0 atoms purged
  336 atoms replaced
  0 atoms trimmed
  0 atoms added
  336 atoms after read
        variable stretch equal 1+$i*${strainstep}
        variable stretch equal 1+98*${strainstep}
        variable stretch equal 1+98*0.0005
        change_box all ${direction} scale ${stretch} remap
        change_box all y scale ${stretch} remap
        change_box all y scale 1.049 remap
  orthogonal box = (0 -1.01388 0) to (4.48985 16.5941 4.48985)
        min_style ${style}
        min_style hftn
        minimize ${etol} ${ftol} ${maxiter} ${maxeval}
        minimize 1e-12 ${ftol} ${maxiter} ${maxeval}
        minimize 1e-12 1e-08 ${maxiter} ${maxeval}
        minimize 1e-12 1e-08 10000 ${maxeval}
        minimize 1e-12 1e-08 10000 20000
WARNING: Resetting reneighboring criteria during minimization (../min.cpp:168)
Memory usage per processor = 4.90121 Mbytes
Step PotEng Pxx Pyy Pxy Lx Ly Lz 
       0    -1832.648  -0.15375666   -4.6875184   0.33311275      4.48985    17.607979      4.48985 
       1   -1837.9736  0.012127301   -3.8415101     0.196439      4.48985    17.607979      4.48985 
       2   -1846.0475   0.16820336   -3.6356643   0.21063014      4.48985    17.607979      4.48985 
       3   -1855.0691   0.43806007    -2.695128   0.10736926      4.48985    17.228097      4.48985 
       4   -1864.9749   0.76620281   -1.9374877  0.091019885      4.48985    17.228097      4.48985 
       5   -1871.6925    1.0822406    -1.092476 -0.0079990979      4.48985    16.937304      4.48985 
       6   -1875.8327    1.5031762    0.1528242 -0.021340774      4.48985    16.937304      4.48985 
       7   -1875.9899    1.4558477 -5.4934954e-05 0.0050778784      4.48985    16.937304      4.48985 
       8   -1875.9923    1.4570174 -8.922395e-05 -3.7412816e-05      4.48985    16.937304      4.48985 
       9   -1875.9923    1.4570507 3.2509779e-06 -4.4739313e-07      4.48985    16.937304      4.48985 
      10   -1875.9923    1.4570496 -1.5736084e-12 1.5488451e-12      4.48985    16.937304      4.48985 
Loop time of 0.209999 on 1 procs for 9 steps with 336 atoms

Minimization stats:
  Stopping criterion = force tolerance
  Energy initial, next-to-last, final = 
        -1832.64800584     -1875.99228684     -1875.99228991
  Force two-norm initial, final = 37.8554 2.21808e-09
  Force max component initial, final = 5.40639 2.54518e-10
  Final line search alpha, max atom move = 0 0
  Iterations, force evaluations = 9 520

Pair  time (%) = 0.185064 (88.1261)
Neigh time (%) = 0.000812057 (0.386696)
Comm  time (%) = 0.0132432 (6.30634)
Outpt time (%) = 0.000672995 (0.320475)
Other time (%) = 0.0102067 (4.86038)

Nlocal:    336 ave 336 max 336 min
Histogram: 1 0 0 0 0 0 0 0 0 0
Nghost:    1101 ave 1101 max 1101 min
Histogram: 1 0 0 0 0 0 0 0 0 0
Neighs:    8480 ave 8480 max 8480 min
Histogram: 1 0 0 0 0 0 0 0 0 0

Total # of neighbors = 8480
Ave neighs/atom = 25.2381
Neighbor list builds = 2
Dangerous builds = 0
        next i
jump SELF loop1
        read_dump orig.dump 0 x y z
  orthogonal box = (0 -0.600957 0) to (4.48985 16.1812 4.48985)
  336 atoms before read
  336 atoms in snapshot
  0 atoms purged
  336 atoms replaced
  0 atoms trimmed
  0 atoms added
  336 atoms after read
        variable stretch equal 1+$i*${strainstep}
        variable stretch equal 1+99*${strainstep}
        variable stretch equal 1+99*0.0005
        change_box all ${direction} scale ${stretch} remap
        change_box all y scale ${stretch} remap
        change_box all y scale 1.0495 remap
  orthogonal box = (0 -1.01808 0) to (4.48985 16.5983 4.48985)
        min_style ${style}
        min_style hftn
        minimize ${etol} ${ftol} ${maxiter} ${maxeval}
        minimize 1e-12 ${ftol} ${maxiter} ${maxeval}
        minimize 1e-12 1e-08 ${maxiter} ${maxeval}
        minimize 1e-12 1e-08 10000 ${maxeval}
        minimize 1e-12 1e-08 10000 20000
WARNING: Resetting reneighboring criteria during minimization (../min.cpp:168)
Memory usage per processor = 4.90121 Mbytes
Step PotEng Pxx Pyy Pxy Lx Ly Lz 
       0   -1831.8519  -0.16561105   -4.7219136   0.33653891      4.48985    17.616372      4.48985 
       1   -1837.2188 0.0018228303   -3.8700534   0.19576406      4.48985    17.616372      4.48985 
       2   -1845.4278   0.15797672   -3.6669557   0.21261409      4.48985    17.616372      4.48985 
       3   -1854.5815   0.42845886   -2.7200513   0.10987181      4.48985     17.23232      4.48985 
       4    -1864.619   0.75307647   -1.9758777   0.09394167      4.48985     17.23232      4.48985 
       5   -1871.6186    1.0769411   -1.1169666 0.00098654554      4.48985    16.942145      4.48985 
       6   -1875.8267    1.5003725   0.15001331 -0.034735464      4.48985    16.942145      4.48985 
       7     -1875.99    1.4555178 0.00011613062 0.0041318678      4.48985    16.942145      4.48985 
       8   -1875.9923    1.4565663 -0.00015914005 -4.8213665e-06      4.48985    16.942145      4.48985 
       9   -1875.9923    1.4566338 1.8749604e-06 -1.1192098e-06      4.48985    16.942145      4.48985 
      10   -1875.9923    1.4566333 2.2177527e-12 4.9157635e-12      4.48985    16.942145      4.48985 
Loop time of 0.19005 on 1 procs for 9 steps with 336 atoms

Minimization stats:
  Stopping criterion = force tolerance
  Energy initial, next-to-last, final = 
        -1831.85192229     -1875.99228524     -1875.99228991
  Force two-norm initial, final = 38.1146 1.2831e-09
  Force max component initial, final = 5.44203 2.0201e-10
  Final line search alpha, max atom move = 0 0
  Iterations, force evaluations = 9 480

Pair  time (%) = 0.163537 (86.0496)
Neigh time (%) = 0.000880026 (0.463049)
Comm  time (%) = 0.0156569 (8.2383)
Outpt time (%) = 0.00151409 (0.796681)
Other time (%) = 0.00846176 (4.45239)

Nlocal:    336 ave 336 max 336 min
Histogram: 1 0 0 0 0 0 0 0 0 0
Nghost:    1101 ave 1101 max 1101 min
Histogram: 1 0 0 0 0 0 0 0 0 0
Neighs:    8480 ave 8480 max 8480 min
Histogram: 1 0 0 0 0 0 0 0 0 0

Total # of neighbors = 8480
Ave neighs/atom = 25.2381
Neighbor list builds = 2
Dangerous builds = 0
        next i
jump SELF loop1
        read_dump orig.dump 0 x y z
  orthogonal box = (0 -0.600957 0) to (4.48985 16.1812 4.48985)
  336 atoms before read
  336 atoms in snapshot
  0 atoms purged
  336 atoms replaced
  0 atoms trimmed
  0 atoms added
  336 atoms after read
        variable stretch equal 1+$i*${strainstep}
        variable stretch equal 1+100*${strainstep}
        variable stretch equal 1+100*0.0005
        change_box all ${direction} scale ${stretch} remap
        change_box all y scale ${stretch} remap
        change_box all y scale 1.05 remap
  orthogonal box = (0 -1.02227 0) to (4.48985 16.6025 4.48985)
        min_style ${style}
        min_style hftn
        minimize ${etol} ${ftol} ${maxiter} ${maxeval}
        minimize 1e-12 ${ftol} ${maxiter} ${maxeval}
        minimize 1e-12 1e-08 ${maxiter} ${maxeval}
        minimize 1e-12 1e-08 10000 ${maxeval}
        minimize 1e-12 1e-08 10000 20000
WARNING: Resetting reneighboring criteria during minimization (../min.cpp:168)
Memory usage per processor = 4.90121 Mbytes
Step PotEng Pxx Pyy Pxy Lx Ly Lz 
       0   -1831.0502  -0.17738917   -4.7560373   0.33996746      4.48985    17.624765      4.48985 
       1   -1836.4583 -0.0085514733   -3.8986719   0.19508803      4.48985    17.624765      4.48985 
       2   -1844.7847   0.14767526   -3.6992249   0.21561203      4.48985    17.624765      4.48985 
       3   -1854.0144   0.42062785   -2.7424319   0.11247709      4.48985    17.237288      4.48985 
       4   -1864.2089   0.74072412   -2.0170362   0.09661429      4.48985    17.237288      4.48985 
       5   -1871.4366    1.0768169   -1.1243905 0.00090431245      4.48985    16.942752      4.48985 
       6   -1875.8186    1.4987161   0.14580552 -0.034601354      4.48985    16.942752      4.48985 
       7   -1875.9909    1.4561293 0.0017899285 0.0028834353      4.48985    16.942752      4.48985 
       8   -1875.9923    1.4564645 -0.00030949453 1.5439365e-05      4.48985    16.942752      4.48985 
       9   -1875.9923    1.4565811 -1.2763005e-07 6.5142801e-08      4.48985    16.942752      4.48985 
      10   -1875.9923     1.456581 -8.4996429e-13 4.4868016e-13      4.48985    16.942752      4.48985 
Loop time of 0.197268 on 1 procs for 9 steps with 336 atoms

Minimization stats:
  Stopping criterion = force tolerance
  Energy initial, next-to-last, final = 
        -1831.05017102      -1875.9922829     -1875.99228991
  Force two-norm initial, final = 38.3729 9.16141e-10
  Force max component initial, final = 5.47722 1.96364e-10
  Final line search alpha, max atom move = 0 0
  Iterations, force evaluations = 9 496

Pair  time (%) = 0.167698 (85.0104)
Neigh time (%) = 0.00334397 (1.69514)
Comm  time (%) = 0.0166529 (8.44177)
Outpt time (%) = 0.000800966 (0.406029)
Other time (%) = 0.00877183 (4.44666)

Nlocal:    336 ave 336 max 336 min
Histogram: 1 0 0 0 0 0 0 0 0 0
Nghost:    1101 ave 1101 max 1101 min
Histogram: 1 0 0 0 0 0 0 0 0 0
Neighs:    8480 ave 8480 max 8480 min
Histogram: 1 0 0 0 0 0 0 0 0 0

Total # of neighbors = 8480
Ave neighs/atom = 25.2381
Neighbor list builds = 2
Dangerous builds = 0
        next i
jump SELF loop1

