LAMMPS (28 Jun 2014)
# attempt at getting tensile strain-stress curve for infinite slab

#file prefix
variable prefix string tension_V_brittle
variable dumpfile string ${prefix}.*.dump
variable dumpfile string tension_V_brittle.*.dump
variable restartfile string ${prefix}.*.equil
variable restartfile string tension_V_brittle.*.equil

#Mass (g/mol)
variable m equal 1

# lattice constant (in Angstroms) and orientation of axes (given by lattice vectors)
variable rho equal 1.0
variable r0 equal 1.12246

# size of box in lattice units
variable lxpos equal 1
variable lxneg equal -1
variable lypos equal 10
variable bdthickness equal 3
variable lyposless equal ${lypos}-${bdthickness}
variable lyposless equal 10-${bdthickness}
variable lyposless equal 10-3
variable lyneg equal -1*${lypos}
variable lyneg equal -1*10
variable lynegless equal -1*${lyposless}
variable lynegless equal -1*7
variable lzpos equal 1
variable lzneg equal -1

# Define minimization parameters and damping
variable etol equal 1.0e-12
variable ftol equal 1.0e-8
variable maxiter equal 10000
variable maxeval equal 20000
variable style string hftn

# boundary conditions
dimension	3
boundary	p p p
atom_style	atomic

# create geometry
units		lj
lattice         hcp ${rho} orient x 0 0 1 orient y 0 1 0 orient z -1 0 0
lattice         hcp 1 orient x 0 0 1 orient y 0 1 0 orient z -1 0 0
Lattice spacing in x,y,z = 1.83297 1.94416 1.12246
region		myregion block ${lxneg} ${lxpos} ${lyneg} ${lypos} ${lzneg} ${lzpos} units lattice
region		myregion block -1 ${lxpos} ${lyneg} ${lypos} ${lzneg} ${lzpos} units lattice
region		myregion block -1 1 ${lyneg} ${lypos} ${lzneg} ${lzpos} units lattice
region		myregion block -1 1 -10 ${lypos} ${lzneg} ${lzpos} units lattice
region		myregion block -1 1 -10 10 ${lzneg} ${lzpos} units lattice
region		myregion block -1 1 -10 10 -1 ${lzpos} units lattice
region		myregion block -1 1 -10 10 -1 1 units lattice
create_box	2 myregion
Created orthogonal box = (-1.83297 -19.4416 -1.12246) to (1.83297 19.4416 1.12246)
  1 by 1 by 1 MPI processor grid

region		upper block INF INF 0.01 INF INF INF
create_atoms	1 region upper
Created 156 atoms

region		lower block INF INF INF 0.01 INF INF
create_atoms	1 region lower
Created 164 atoms

region uppermost block INF INF ${lyposless} INF INF INF units lattice
region uppermost block INF INF 7 INF INF INF units lattice
group uppermost region uppermost
48 atoms in group uppermost
region lowermost block INF INF INF ${lynegless} INF INF units lattice
region lowermost block INF INF INF -7 INF INF units lattice
group lowermost region lowermost
52 atoms in group lowermost
group boundary union uppermost lowermost
100 atoms in group boundary
set group boundary type 2
  100 settings made for type
fix 2 boundary setforce NULL 0.0 NULL

# define masses
mass * $m
mass * 1

# my fake/morse potential
pair_style      table linear 3001
pair_coeff      * * vpotential_brittle3d dummy
neighbor	0.3 bin
neigh_modify	delay 5

# Setup output
thermo 1
thermo_style custom step pe pxx pyy pxy lx ly lz
thermo_modify norm no

# Compute initial state by relaxing box
min_style ${style}
min_style hftn
min_style hftn
minimize ${etol} ${ftol} ${maxiter} ${maxeval}
minimize 1e-12 ${ftol} ${maxiter} ${maxeval}
minimize 1e-12 1e-08 ${maxiter} ${maxeval}
minimize 1e-12 1e-08 10000 ${maxeval}
minimize 1e-12 1e-08 10000 20000
WARNING: Resetting reneighboring criteria during minimization (../min.cpp:168)
Memory usage per processor = 4.97126 Mbytes
Step PotEng Pxx Pyy Pxy Lx Ly Lz 
       0   -1919.9984 0.00028942173 0.00028942173 -8.9660176e-16    3.6659457    38.883226    2.2449241 
Loop time of 0.000292099 on 1 procs for 0 steps with 320 atoms

Minimization stats:
  Stopping criterion = force tolerance
  Energy initial, next-to-last, final = 
        -1919.99840348     -1919.99840348     -1919.99840348
  Force two-norm initial, final = 2.49724e-12 2.49724e-12
  Force max component initial, final = 3.78578e-13 3.78578e-13
  Final line search alpha, max atom move = 0 0
  Iterations, force evaluations = 0 0

Pair  time (%) = 0.000268033 (91.7608)
Neigh time (%) = 0 (0)
Comm  time (%) = 1.21428e-05 (4.15708)
Outpt time (%) = 0 (0)
Other time (%) = 1.19238e-05 (4.08212)

Nlocal:    320 ave 320 max 320 min
Histogram: 1 0 0 0 0 0 0 0 0 0
Nghost:    2313 ave 2313 max 2313 min
Histogram: 1 0 0 0 0 0 0 0 0 0
Neighs:    8960 ave 8960 max 8960 min
Histogram: 1 0 0 0 0 0 0 0 0 0

Total # of neighbors = 8960
Ave neighs/atom = 28
Neighbor list builds = 0
Dangerous builds = 0

reset_timestep 0
write_dump all atom orig.dump

# Energy curve will have nstep steps
variable strainmax equal 0.05
variable strainstep equal 0.0005
variable nsteps equal round(${strainmax}/${strainstep})
variable nsteps equal round(0.05/${strainstep})
variable nsteps equal round(0.05/0.0005)
variable direction string y

variable i loop ${nsteps}
variable i loop 100
variable i loop 100
label loop1
	read_dump orig.dump 0 x y z
  orthogonal box = (-1.83297 -19.4416 -1.12246) to (1.83297 19.4416 1.12246)
  320 atoms before read
  320 atoms in snapshot
  0 atoms purged
  320 atoms replaced
  0 atoms trimmed
  0 atoms added
  320 atoms after read
        variable stretch equal 1+$i*${strainstep}
        variable stretch equal 1+1*${strainstep}
        variable stretch equal 1+1*0.0005
        change_box all ${direction} scale ${stretch} remap
        change_box all y scale ${stretch} remap
        change_box all y scale 1.0005 remap
  orthogonal box = (-1.83297 -19.4513 -1.12246) to (1.83297 19.4513 1.12246)
        min_style ${style}
        min_style hftn
        minimize ${etol} ${ftol} ${maxiter} ${maxeval}
        minimize 1e-12 ${ftol} ${maxiter} ${maxeval}
        minimize 1e-12 1e-08 ${maxiter} ${maxeval}
        minimize 1e-12 1e-08 10000 ${maxeval}
        minimize 1e-12 1e-08 10000 20000
WARNING: Resetting reneighboring criteria during minimization (../min.cpp:168)
Memory usage per processor = 4.97126 Mbytes
Step PotEng Pxx Pyy Pxy Lx Ly Lz 
       0   -1919.9912 -0.017101507 -0.065838462 -7.7858857e-16      3.66594    38.902642      2.24492 
       1   -1919.9912 -0.017101507 -0.065838462 -7.7858857e-16      3.66594    38.902642      2.24492 
       2   -1919.9912 -0.017101507 -0.065838462 -7.7858857e-16      3.66594    38.902642      2.24492 
       3   -1919.9912 -0.017101498 -0.065738925 2.6975953e-16      3.66594    38.902642      2.24492 
Loop time of 0.00683296 on 1 procs for 2 steps with 320 atoms

Minimization stats:
  Stopping criterion = energy tolerance
  Energy initial, next-to-last, final = 
        -1919.99123674     -1919.99123674     -1919.99123674
  Force two-norm initial, final = 0.218349 0.204513
  Force max component initial, final = 0.0147211 0.013828
  Final line search alpha, max atom move = 0 0
  Iterations, force evaluations = 2 21

Pair  time (%) = 0.00590476 (86.4158)
Neigh time (%) = 0 (0)
Comm  time (%) = 0.000468074 (6.85024)
Outpt time (%) = 0.000103851 (1.51986)
Other time (%) = 0.00035628 (5.21413)

Nlocal:    320 ave 320 max 320 min
Histogram: 1 0 0 0 0 0 0 0 0 0
Nghost:    2313 ave 2313 max 2313 min
Histogram: 1 0 0 0 0 0 0 0 0 0
Neighs:    8960 ave 8960 max 8960 min
Histogram: 1 0 0 0 0 0 0 0 0 0

Total # of neighbors = 8960
Ave neighs/atom = 28
Neighbor list builds = 0
Dangerous builds = 0
        next i
jump SELF loop1
	read_dump orig.dump 0 x y z
  orthogonal box = (-1.83297 -19.4416 -1.12246) to (1.83297 19.4416 1.12246)
  320 atoms before read
  320 atoms in snapshot
  0 atoms purged
  320 atoms replaced
  0 atoms trimmed
  0 atoms added
  320 atoms after read
        variable stretch equal 1+$i*${strainstep}
        variable stretch equal 1+2*${strainstep}
        variable stretch equal 1+2*0.0005
        change_box all ${direction} scale ${stretch} remap
        change_box all y scale ${stretch} remap
        change_box all y scale 1.001 remap
  orthogonal box = (-1.83297 -19.461 -1.12246) to (1.83297 19.461 1.12246)
        min_style ${style}
        min_style hftn
        minimize ${etol} ${ftol} ${maxiter} ${maxeval}
        minimize 1e-12 ${ftol} ${maxiter} ${maxeval}
        minimize 1e-12 1e-08 ${maxiter} ${maxeval}
        minimize 1e-12 1e-08 10000 ${maxeval}
        minimize 1e-12 1e-08 10000 20000
WARNING: Resetting reneighboring criteria during minimization (../min.cpp:168)
Memory usage per processor = 4.97126 Mbytes
Step PotEng Pxx Pyy Pxy Lx Ly Lz 
       0   -1919.9745  -0.03470278  -0.13164715 -1.0585984e-15      3.66594    38.922083      2.24492 
       1   -1919.9745  -0.03470278  -0.13164715 -1.0585984e-15      3.66594    38.922083      2.24492 
       2   -1919.9745  -0.03470278  -0.13164715 -1.0585984e-15      3.66594    38.922083      2.24492 
       3   -1919.9745 -0.034702773  -0.13145534 7.5205768e-16      3.66594    38.922083      2.24492 
Loop time of 0.00654001 on 1 procs for 2 steps with 320 atoms

Minimization stats:
  Stopping criterion = energy tolerance
  Energy initial, next-to-last, final = 
        -1919.97447596     -1919.97447596     -1919.97447596
  Force two-norm initial, final = 0.420409 0.393774
  Force max component initial, final = 0.028344 0.0266237
  Final line search alpha, max atom move = 0 0
  Iterations, force evaluations = 2 21

Pair  time (%) = 0.00557497 (85.244)
Neigh time (%) = 0 (0)
Comm  time (%) = 0.000286781 (4.38503)
Outpt time (%) = 0.000313018 (4.7862)
Other time (%) = 0.000365243 (5.58475)

Nlocal:    320 ave 320 max 320 min
Histogram: 1 0 0 0 0 0 0 0 0 0
Nghost:    2313 ave 2313 max 2313 min
Histogram: 1 0 0 0 0 0 0 0 0 0
Neighs:    8960 ave 8960 max 8960 min
Histogram: 1 0 0 0 0 0 0 0 0 0

Total # of neighbors = 8960
Ave neighs/atom = 28
Neighbor list builds = 0
Dangerous builds = 0
        next i
jump SELF loop1
	read_dump orig.dump 0 x y z
  orthogonal box = (-1.83297 -19.4416 -1.12246) to (1.83297 19.4416 1.12246)
  320 atoms before read
  320 atoms in snapshot
  0 atoms purged
  320 atoms replaced
  0 atoms trimmed
  0 atoms added
  320 atoms after read
        variable stretch equal 1+$i*${strainstep}
        variable stretch equal 1+3*${strainstep}
        variable stretch equal 1+3*0.0005
        change_box all ${direction} scale ${stretch} remap
        change_box all y scale ${stretch} remap
        change_box all y scale 1.0015 remap
  orthogonal box = (-1.83297 -19.4708 -1.12246) to (1.83297 19.4708 1.12246)
        min_style ${style}
        min_style hftn
        minimize ${etol} ${ftol} ${maxiter} ${maxeval}
        minimize 1e-12 ${ftol} ${maxiter} ${maxeval}
        minimize 1e-12 1e-08 ${maxiter} ${maxeval}
        minimize 1e-12 1e-08 10000 ${maxeval}
        minimize 1e-12 1e-08 10000 20000
WARNING: Resetting reneighboring criteria during minimization (../min.cpp:168)
Memory usage per processor = 4.97126 Mbytes
Step PotEng Pxx Pyy Pxy Lx Ly Lz 
       0   -1919.9498 -0.052295271  -0.19709331 -7.7894519e-16      3.66594    38.941525      2.24492 
       1   -1919.9498 -0.052295271  -0.19709331 -7.7894519e-16      3.66594    38.941525      2.24492 
       2   -1919.9498 -0.052295271  -0.19709331 -7.7894519e-16      3.66594    38.941525      2.24492 
       3   -1919.9498 -0.052295278  -0.19680895 7.3155515e-16      3.66594    38.941525      2.24492 
Loop time of 0.00525308 on 1 procs for 2 steps with 320 atoms

Minimization stats:
  Stopping criterion = energy tolerance
  Energy initial, next-to-last, final = 
        -1919.94984041     -1919.94984041     -1919.94984041
  Force two-norm initial, final = 0.622771 0.583326
  Force max component initial, final = 0.0419872 0.0394379
  Final line search alpha, max atom move = 0 0
  Iterations, force evaluations = 2 21

Pair  time (%) = 0.00464398 (88.405)
Neigh time (%) = 0 (0)
Comm  time (%) = 0.0002158 (4.10808)
Outpt time (%) = 9.09047e-05 (1.7305)
Other time (%) = 0.00030239 (5.75644)

Nlocal:    320 ave 320 max 320 min
Histogram: 1 0 0 0 0 0 0 0 0 0
Nghost:    2313 ave 2313 max 2313 min
Histogram: 1 0 0 0 0 0 0 0 0 0
Neighs:    8960 ave 8960 max 8960 min
Histogram: 1 0 0 0 0 0 0 0 0 0

Total # of neighbors = 8960
Ave neighs/atom = 28
Neighbor list builds = 0
Dangerous builds = 0
        next i
jump SELF loop1
	read_dump orig.dump 0 x y z
  orthogonal box = (-1.83297 -19.4416 -1.12246) to (1.83297 19.4416 1.12246)
  320 atoms before read
  320 atoms in snapshot
  0 atoms purged
  320 atoms replaced
  0 atoms trimmed
  0 atoms added
  320 atoms after read
        variable stretch equal 1+$i*${strainstep}
        variable stretch equal 1+4*${strainstep}
        variable stretch equal 1+4*0.0005
        change_box all ${direction} scale ${stretch} remap
        change_box all y scale ${stretch} remap
        change_box all y scale 1.002 remap
  orthogonal box = (-1.83297 -19.4805 -1.12246) to (1.83297 19.4805 1.12246)
        min_style ${style}
        min_style hftn
        minimize ${etol} ${ftol} ${maxiter} ${maxeval}
        minimize 1e-12 ${ftol} ${maxiter} ${maxeval}
        minimize 1e-12 1e-08 ${maxiter} ${maxeval}
        minimize 1e-12 1e-08 10000 ${maxeval}
        minimize 1e-12 1e-08 10000 20000
WARNING: Resetting reneighboring criteria during minimization (../min.cpp:168)
Memory usage per processor = 4.97126 Mbytes
Step PotEng Pxx Pyy Pxy Lx Ly Lz 
       0   -1919.9113 -0.069775891  -0.26188525 -4.168166e-16      3.66594    38.960966      2.24492 
       1   -1919.9126  -0.06987122  -0.25589681 -1.9355257e-15      3.66594    38.960966      2.24492 
       2   -1919.9126 -0.069871092  -0.25591252 5.054521e-09      3.66594    38.960966      2.24492 
       3   -1919.9126 -0.069871092  -0.25591252 5.054521e-09      3.66594    38.960966      2.24492 
       4   -1919.9126 -0.069871092  -0.25591252 5.054521e-09      3.66594    38.960966      2.24492 
       5   -1919.9126 -0.069871092  -0.25591252 4.2396015e-09      3.66594    38.960966      2.24492 
Loop time of 0.0475541 on 1 procs for 4 steps with 320 atoms

Minimization stats:
  Stopping criterion = energy tolerance
  Energy initial, next-to-last, final = 
        -1919.91126653     -1919.91260714     -1919.91262085
  Force two-norm initial, final = 0.823054 0.000473829
  Force max component initial, final = 0.0554903 6.33412e-05
  Final line search alpha, max atom move = 0 0
  Iterations, force evaluations = 4 155

Pair  time (%) = 0.0401535 (84.4374)
Neigh time (%) = 0 (0)
Comm  time (%) = 0.00169608 (3.56664)
Outpt time (%) = 0.00310477 (6.52891)
Other time (%) = 0.00259981 (5.46705)

Nlocal:    320 ave 320 max 320 min
Histogram: 1 0 0 0 0 0 0 0 0 0
Nghost:    2313 ave 2313 max 2313 min
Histogram: 1 0 0 0 0 0 0 0 0 0
Neighs:    8960 ave 8960 max 8960 min
Histogram: 1 0 0 0 0 0 0 0 0 0

Total # of neighbors = 8960
Ave neighs/atom = 28
Neighbor list builds = 0
Dangerous builds = 0
        next i
jump SELF loop1
	read_dump orig.dump 0 x y z
  orthogonal box = (-1.83297 -19.4416 -1.12246) to (1.83297 19.4416 1.12246)
  320 atoms before read
  320 atoms in snapshot
  0 atoms purged
  320 atoms replaced
  0 atoms trimmed
  0 atoms added
  320 atoms after read
        variable stretch equal 1+$i*${strainstep}
        variable stretch equal 1+5*${strainstep}
        variable stretch equal 1+5*0.0005
        change_box all ${direction} scale ${stretch} remap
        change_box all y scale ${stretch} remap
        change_box all y scale 1.0025 remap
  orthogonal box = (-1.83297 -19.4902 -1.12246) to (1.83297 19.4902 1.12246)
        min_style ${style}
        min_style hftn
        minimize ${etol} ${ftol} ${maxiter} ${maxeval}
        minimize 1e-12 ${ftol} ${maxiter} ${maxeval}
        minimize 1e-12 1e-08 ${maxiter} ${maxeval}
        minimize 1e-12 1e-08 10000 ${maxeval}
        minimize 1e-12 1e-08 10000 20000
WARNING: Resetting reneighboring criteria during minimization (../min.cpp:168)
Memory usage per processor = 4.97126 Mbytes
Step PotEng Pxx Pyy Pxy Lx Ly Lz 
       0   -1919.8628 -0.087196797  -0.32622283 -1.3586321e-15      3.66594    38.980408      2.24492 
       1   -1919.8662 -0.087410068  -0.31883366  9.16154e-15      3.66594    38.980408      2.24492 
       2   -1919.8662 -0.087410068  -0.31883366  9.16154e-15      3.66594    38.980408      2.24492 
       3   -1919.8662 -0.087410068  -0.31883366  9.16154e-15      3.66594    38.980408      2.24492 
       4   -1919.8662 -0.087410068  -0.31883366  9.16154e-15      3.66594    38.980408      2.24492 
       5   -1919.8662 -0.087410068  -0.31883366  9.16154e-15      3.66594    38.980408      2.24492 
       6   -1919.8662 -0.087410068  -0.31883366  9.16154e-15      3.66594    38.980408      2.24492 
       7   -1919.8662 -0.087410068  -0.31883366  9.16154e-15      3.66594    38.980408      2.24492 
       8   -1919.8662 -0.087410068  -0.31883369 8.772372e-15      3.66594    38.980408      2.24492 
Loop time of 0.0356431 on 1 procs for 7 steps with 320 atoms

Minimization stats:
  Stopping criterion = energy tolerance
  Energy initial, next-to-last, final = 
         -1919.8627691      -1919.8627691     -1919.86619224
  Force two-norm initial, final = 1.02248 0.0483633
  Force max component initial, final = 0.0689353 0.0154735
  Final line search alpha, max atom move = 0 0
  Iterations, force evaluations = 7 116

Pair  time (%) = 0.0312714 (87.7348)
Neigh time (%) = 0 (0)
Comm  time (%) = 0.00207059 (5.80923)
Outpt time (%) = 0.000344275 (0.965895)
Other time (%) = 0.00195685 (5.49012)

Nlocal:    320 ave 320 max 320 min
Histogram: 1 0 0 0 0 0 0 0 0 0
Nghost:    2313 ave 2313 max 2313 min
Histogram: 1 0 0 0 0 0 0 0 0 0
Neighs:    8960 ave 8960 max 8960 min
Histogram: 1 0 0 0 0 0 0 0 0 0

Total # of neighbors = 8960
Ave neighs/atom = 28
Neighbor list builds = 0
Dangerous builds = 0
        next i
jump SELF loop1
	read_dump orig.dump 0 x y z
  orthogonal box = (-1.83297 -19.4416 -1.12246) to (1.83297 19.4416 1.12246)
  320 atoms before read
  320 atoms in snapshot
  0 atoms purged
  320 atoms replaced
  0 atoms trimmed
  0 atoms added
  320 atoms after read
        variable stretch equal 1+$i*${strainstep}
        variable stretch equal 1+6*${strainstep}
        variable stretch equal 1+6*0.0005
        change_box all ${direction} scale ${stretch} remap
        change_box all y scale ${stretch} remap
        change_box all y scale 1.003 remap
  orthogonal box = (-1.83297 -19.4999 -1.12246) to (1.83297 19.4999 1.12246)
        min_style ${style}
        min_style hftn
        minimize ${etol} ${ftol} ${maxiter} ${maxeval}
        minimize 1e-12 ${ftol} ${maxiter} ${maxeval}
        minimize 1e-12 1e-08 ${maxiter} ${maxeval}
        minimize 1e-12 1e-08 10000 ${maxeval}
        minimize 1e-12 1e-08 10000 20000
WARNING: Resetting reneighboring criteria during minimization (../min.cpp:168)
Memory usage per processor = 4.97126 Mbytes
Step PotEng Pxx Pyy Pxy Lx Ly Lz 
       0   -1919.8066  -0.10460904  -0.39020437 -7.0344812e-16      3.66594     38.99985      2.24492 
       1   -1919.8118  -0.10493965  -0.38139912 -4.5488097e-15      3.66594     38.99985      2.24492 
       2   -1919.8118   -0.1049403  -0.38137958 1.2331219e-08      3.66594     38.99985      2.24492 
       3   -1919.8118  -0.10494024  -0.38138232 -2.0401779e-12      3.66594     38.99985      2.24492 
       4   -1919.8118  -0.10494024  -0.38138232 -4.8169245e-16      3.66594     38.99985      2.24492 
Loop time of 0.0686809 on 1 procs for 3 steps with 320 atoms

Minimization stats:
  Stopping criterion = force tolerance
  Energy initial, next-to-last, final = 
         -1919.8065806     -1919.81182721     -1919.81182853
  Force two-norm initial, final = 1.2222 1.72331e-10
  Force max component initial, final = 0.0824004 5.40269e-11
  Final line search alpha, max atom move = 0 0
  Iterations, force evaluations = 3 235

Pair  time (%) = 0.0583359 (84.9375)
Neigh time (%) = 0 (0)
Comm  time (%) = 0.00516786 (7.52445)
Outpt time (%) = 0.000176061 (0.256346)
Other time (%) = 0.00500112 (7.28167)

Nlocal:    320 ave 320 max 320 min
Histogram: 1 0 0 0 0 0 0 0 0 0
Nghost:    2313 ave 2313 max 2313 min
Histogram: 1 0 0 0 0 0 0 0 0 0
Neighs:    8960 ave 8960 max 8960 min
Histogram: 1 0 0 0 0 0 0 0 0 0

Total # of neighbors = 8960
Ave neighs/atom = 28
Neighbor list builds = 0
Dangerous builds = 0
        next i
jump SELF loop1
	read_dump orig.dump 0 x y z
  orthogonal box = (-1.83297 -19.4416 -1.12246) to (1.83297 19.4416 1.12246)
  320 atoms before read
  320 atoms in snapshot
  0 atoms purged
  320 atoms replaced
  0 atoms trimmed
  0 atoms added
  320 atoms after read
        variable stretch equal 1+$i*${strainstep}
        variable stretch equal 1+7*${strainstep}
        variable stretch equal 1+7*0.0005
        change_box all ${direction} scale ${stretch} remap
        change_box all y scale ${stretch} remap
        change_box all y scale 1.0035 remap
  orthogonal box = (-1.83297 -19.5096 -1.12246) to (1.83297 19.5096 1.12246)
        min_style ${style}
        min_style hftn
        minimize ${etol} ${ftol} ${maxiter} ${maxeval}
        minimize 1e-12 ${ftol} ${maxiter} ${maxeval}
        minimize 1e-12 1e-08 ${maxiter} ${maxeval}
        minimize 1e-12 1e-08 10000 ${maxeval}
        minimize 1e-12 1e-08 10000 20000
WARNING: Resetting reneighboring criteria during minimization (../min.cpp:168)
Memory usage per processor = 4.97126 Mbytes
Step PotEng Pxx Pyy Pxy Lx Ly Lz 
       0   -1919.7396  -0.12193626  -0.45369499 -2.8577685e-16      3.66594    39.019291      2.24492 
       1   -1919.7469  -0.12240006  -0.44341933 -1.2187002e-15      3.66594    39.019291      2.24492 
       2    -1919.747  -0.12239869    -0.443461 1.8011292e-10      3.66594    39.019291      2.24492 
       3    -1919.747  -0.12239869    -0.443461 1.8011292e-10      3.66594    39.019291      2.24492 
       4    -1919.747  -0.12239868  -0.44346209 -2.1988705e-10      3.66594    39.019291      2.24492 
       5    -1919.747  -0.12239868  -0.44346209 -2.1988705e-10      3.66594    39.019291      2.24492 
       6    -1919.747  -0.12239868  -0.44346209 -2.1988705e-10      3.66594    39.019291      2.24492 
       7    -1919.747  -0.12239868  -0.44346209 -2.1988705e-10      3.66594    39.019291      2.24492 
       8    -1919.747  -0.12239868  -0.44346209 -2.1988705e-10      3.66594    39.019291      2.24492 
       9    -1919.747  -0.12239868  -0.44346208 -2.0825446e-10      3.66594    39.019291      2.24492 
Loop time of 0.0537401 on 1 procs for 8 steps with 320 atoms

Minimization stats:
  Stopping criterion = energy tolerance
  Energy initial, next-to-last, final = 
        -1919.73961028     -1919.74695848     -1919.74695861
  Force two-norm initial, final = 1.42044 0.00119488
  Force max component initial, final = 0.0957661 0.000157698
  Final line search alpha, max atom move = 0 0
  Iterations, force evaluations = 8 177

Pair  time (%) = 0.0438721 (81.6376)
Neigh time (%) = 0 (0)
Comm  time (%) = 0.00309015 (5.75017)
Outpt time (%) = 0.00399414 (7.43232)
Other time (%) = 0.00278369 (5.17992)

Nlocal:    320 ave 320 max 320 min
Histogram: 1 0 0 0 0 0 0 0 0 0
Nghost:    2313 ave 2313 max 2313 min
Histogram: 1 0 0 0 0 0 0 0 0 0
Neighs:    8960 ave 8960 max 8960 min
Histogram: 1 0 0 0 0 0 0 0 0 0

Total # of neighbors = 8960
Ave neighs/atom = 28
Neighbor list builds = 0
Dangerous builds = 0
        next i
jump SELF loop1
	read_dump orig.dump 0 x y z
  orthogonal box = (-1.83297 -19.4416 -1.12246) to (1.83297 19.4416 1.12246)
  320 atoms before read
  320 atoms in snapshot
  0 atoms purged
  320 atoms replaced
  0 atoms trimmed
  0 atoms added
  320 atoms after read
        variable stretch equal 1+$i*${strainstep}
        variable stretch equal 1+8*${strainstep}
        variable stretch equal 1+8*0.0005
        change_box all ${direction} scale ${stretch} remap
        change_box all y scale ${stretch} remap
        change_box all y scale 1.004 remap
  orthogonal box = (-1.83297 -19.5194 -1.12246) to (1.83297 19.5194 1.12246)
        min_style ${style}
        min_style hftn
        minimize ${etol} ${ftol} ${maxiter} ${maxeval}
        minimize 1e-12 ${ftol} ${maxiter} ${maxeval}
        minimize 1e-12 1e-08 ${maxiter} ${maxeval}
        minimize 1e-12 1e-08 10000 ${maxeval}
        minimize 1e-12 1e-08 10000 20000
WARNING: Resetting reneighboring criteria during minimization (../min.cpp:168)
Memory usage per processor = 4.97126 Mbytes
Step PotEng Pxx Pyy Pxy Lx Ly Lz 
       0   -1919.6601  -0.13917914  -0.51658762 -5.4902021e-16      3.66594    39.038733      2.24492 
       1   -1919.6686  -0.13972199  -0.50493888 -1.0435667e-14      3.66594    39.038733      2.24492 
       2   -1919.6687  -0.13972239  -0.50495053 4.7703351e-09      3.66594    39.038733      2.24492 
       3   -1919.6687  -0.13972239  -0.50495053 4.7703351e-09      3.66594    39.038733      2.24492 
       4   -1919.6687  -0.13972239  -0.50495053 4.7703351e-09      3.66594    39.038733      2.24492 
       5   -1919.6687  -0.13972239  -0.50495053 4.7703351e-09      3.66594    39.038733      2.24492 
       6   -1919.6687  -0.13972239  -0.50495053 4.7703351e-09      3.66594    39.038733      2.24492 
       7   -1919.6687  -0.13972239  -0.50495053 4.7703351e-09      3.66594    39.038733      2.24492 
       8   -1919.6687  -0.13972239  -0.50495053 4.701929e-09      3.66594    39.038733      2.24492 
Loop time of 0.0504059 on 1 procs for 7 steps with 320 atoms

Minimization stats:
  Stopping criterion = energy tolerance
  Energy initial, next-to-last, final = 
        -1919.66008532     -1919.66863513     -1919.66865893
  Force two-norm initial, final = 1.61725 0.00273308
  Force max component initial, final = 0.109035 0.000381972
  Final line search alpha, max atom move = 0 0
  Iterations, force evaluations = 7 164

Pair  time (%) = 0.0417492 (82.826)
Neigh time (%) = 0 (0)
Comm  time (%) = 0.00557703 (11.0642)
Outpt time (%) = 0.000358044 (0.710322)
Other time (%) = 0.00272164 (5.39945)

Nlocal:    320 ave 320 max 320 min
Histogram: 1 0 0 0 0 0 0 0 0 0
Nghost:    2313 ave 2313 max 2313 min
Histogram: 1 0 0 0 0 0 0 0 0 0
Neighs:    8960 ave 8960 max 8960 min
Histogram: 1 0 0 0 0 0 0 0 0 0

Total # of neighbors = 8960
Ave neighs/atom = 28
Neighbor list builds = 0
Dangerous builds = 0
        next i
jump SELF loop1
	read_dump orig.dump 0 x y z
  orthogonal box = (-1.83297 -19.4416 -1.12246) to (1.83297 19.4416 1.12246)
  320 atoms before read
  320 atoms in snapshot
  0 atoms purged
  320 atoms replaced
  0 atoms trimmed
  0 atoms added
  320 atoms after read
        variable stretch equal 1+$i*${strainstep}
        variable stretch equal 1+9*${strainstep}
        variable stretch equal 1+9*0.0005
        change_box all ${direction} scale ${stretch} remap
        change_box all y scale ${stretch} remap
        change_box all y scale 1.0045 remap
  orthogonal box = (-1.83297 -19.5291 -1.12246) to (1.83297 19.5291 1.12246)
        min_style ${style}
        min_style hftn
        minimize ${etol} ${ftol} ${maxiter} ${maxeval}
        minimize 1e-12 ${ftol} ${maxiter} ${maxeval}
        minimize 1e-12 1e-08 ${maxiter} ${maxeval}
        minimize 1e-12 1e-08 10000 ${maxeval}
        minimize 1e-12 1e-08 10000 20000
WARNING: Resetting reneighboring criteria during minimization (../min.cpp:168)
Memory usage per processor = 4.97126 Mbytes
Step PotEng Pxx Pyy Pxy Lx Ly Lz 
       0   -1919.5731  -0.15641348  -0.57913014 -4.5801927e-16      3.66594    39.058174      2.24492 
       1   -1919.5825  -0.15703177   -0.5660938 1.5229397e-14      3.66594    39.058174      2.24492 
       2   -1919.5826  -0.15703374  -0.56607505 1.3382791e-08      3.66594    39.058174      2.24492 
       3   -1919.5826  -0.15703371  -0.56607717 -3.1782697e-12      3.66594    39.058174      2.24492 
       4   -1919.5826  -0.15703371  -0.56607717 -3.2471955e-17      3.66594    39.058174      2.24492 
Loop time of 0.066876 on 1 procs for 3 steps with 320 atoms

Minimization stats:
  Stopping criterion = force tolerance
  Energy initial, next-to-last, final = 
        -1919.57305017     -1919.58255913     -1919.58256078
  Force two-norm initial, final = 1.81434 1.13824e-11
  Force max component initial, final = 0.122323 2.70625e-12
  Final line search alpha, max atom move = 0 0
  Iterations, force evaluations = 3 223

Pair  time (%) = 0.0566487 (84.707)
Neigh time (%) = 0 (0)
Comm  time (%) = 0.00619633 (9.2654)
Outpt time (%) = 0.000122047 (0.182497)
Other time (%) = 0.00390895 (5.84508)

Nlocal:    320 ave 320 max 320 min
Histogram: 1 0 0 0 0 0 0 0 0 0
Nghost:    2313 ave 2313 max 2313 min
Histogram: 1 0 0 0 0 0 0 0 0 0
Neighs:    8960 ave 8960 max 8960 min
Histogram: 1 0 0 0 0 0 0 0 0 0

Total # of neighbors = 8960
Ave neighs/atom = 28
Neighbor list builds = 0
Dangerous builds = 0
        next i
jump SELF loop1
	read_dump orig.dump 0 x y z
  orthogonal box = (-1.83297 -19.4416 -1.12246) to (1.83297 19.4416 1.12246)
  320 atoms before read
  320 atoms in snapshot
  0 atoms purged
  320 atoms replaced
  0 atoms trimmed
  0 atoms added
  320 atoms after read
        variable stretch equal 1+$i*${strainstep}
        variable stretch equal 1+10*${strainstep}
        variable stretch equal 1+10*0.0005
        change_box all ${direction} scale ${stretch} remap
        change_box all y scale ${stretch} remap
        change_box all y scale 1.005 remap
  orthogonal box = (-1.83297 -19.5388 -1.12246) to (1.83297 19.5388 1.12246)
        min_style ${style}
        min_style hftn
        minimize ${etol} ${ftol} ${maxiter} ${maxeval}
        minimize 1e-12 ${ftol} ${maxiter} ${maxeval}
        minimize 1e-12 1e-08 ${maxiter} ${maxeval}
        minimize 1e-12 1e-08 10000 ${maxeval}
        minimize 1e-12 1e-08 10000 20000
WARNING: Resetting reneighboring criteria during minimization (../min.cpp:168)
Memory usage per processor = 4.97126 Mbytes
Step PotEng Pxx Pyy Pxy Lx Ly Lz 
       0   -1919.4775  -0.17358801  -0.64129636 -4.177406e-16      3.66594    39.077616      2.24492 
       1   -1919.4885  -0.17432186  -0.62676673 -1.1869757e-14      3.66594    39.077616      2.24492 
       2   -1919.4885  -0.17432186  -0.62676673 -1.1869757e-14      3.66594    39.077616      2.24492 
       3   -1919.4885  -0.17432068  -0.62685918 -2.9387719e-14      3.66594    39.077616      2.24492 
       4   -1919.4885  -0.17432068  -0.62685918 -2.9387719e-14      3.66594    39.077616      2.24492 
       5   -1919.4885  -0.17432085  -0.62684312 -1.0044929e-13      3.66594    39.077616      2.24492 
       6   -1919.4885  -0.17432085  -0.62684312 -1.0044929e-13      3.66594    39.077616      2.24492 
       7   -1919.4885   -0.1743208  -0.62684952 1.6983487e-13      3.66594    39.077616      2.24492 
       8   -1919.4885   -0.1743208  -0.62684952 1.6983487e-13      3.66594    39.077616      2.24492 
       9   -1919.4885   -0.1743208  -0.62684952 1.6983487e-13      3.66594    39.077616      2.24492 
      10   -1919.4885   -0.1743208  -0.62684952 1.6983487e-13      3.66594    39.077616      2.24492 
      11   -1919.4885   -0.1743208  -0.62684952 1.6983487e-13      3.66594    39.077616      2.24492 
      12   -1919.4885   -0.1743208  -0.62684952 1.6983487e-13      3.66594    39.077616      2.24492 
      13   -1919.4885   -0.1743208  -0.62684953 1.6903875e-13      3.66594    39.077616      2.24492 
Loop time of 0.0450801 on 1 procs for 12 steps with 320 atoms

Minimization stats:
  Stopping criterion = energy tolerance
  Energy initial, next-to-last, final = 
        -1919.47753151     -1919.48848024     -1919.48848231
  Force two-norm initial, final = 2.01054 0.0113666
  Force max component initial, final = 0.13555 0.00193374
  Final line search alpha, max atom move = 0 0
  Iterations, force evaluations = 12 145

Pair  time (%) = 0.0374218 (83.0119)
Neigh time (%) = 0 (0)
Comm  time (%) = 0.00163349 (3.62354)
Outpt time (%) = 0.00328114 (7.27848)
Other time (%) = 0.00274363 (6.08612)

Nlocal:    320 ave 320 max 320 min
Histogram: 1 0 0 0 0 0 0 0 0 0
Nghost:    2313 ave 2313 max 2313 min
Histogram: 1 0 0 0 0 0 0 0 0 0
Neighs:    8960 ave 8960 max 8960 min
Histogram: 1 0 0 0 0 0 0 0 0 0

Total # of neighbors = 8960
Ave neighs/atom = 28
Neighbor list builds = 0
Dangerous builds = 0
        next i
jump SELF loop1
	read_dump orig.dump 0 x y z
  orthogonal box = (-1.83297 -19.4416 -1.12246) to (1.83297 19.4416 1.12246)
  320 atoms before read
  320 atoms in snapshot
  0 atoms purged
  320 atoms replaced
  0 atoms trimmed
  0 atoms added
  320 atoms after read
        variable stretch equal 1+$i*${strainstep}
        variable stretch equal 1+11*${strainstep}
        variable stretch equal 1+11*0.0005
        change_box all ${direction} scale ${stretch} remap
        change_box all y scale ${stretch} remap
        change_box all y scale 1.0055 remap
  orthogonal box = (-1.83297 -19.5485 -1.12246) to (1.83297 19.5485 1.12246)
        min_style ${style}
        min_style hftn
        minimize ${etol} ${ftol} ${maxiter} ${maxeval}
        minimize 1e-12 ${ftol} ${maxiter} ${maxeval}
        minimize 1e-12 1e-08 ${maxiter} ${maxeval}
        minimize 1e-12 1e-08 10000 ${maxeval}
        minimize 1e-12 1e-08 10000 20000
WARNING: Resetting reneighboring criteria during minimization (../min.cpp:168)
Memory usage per processor = 4.97126 Mbytes
Step PotEng Pxx Pyy Pxy Lx Ly Lz 
       0   -1919.3684  -0.19065461  -0.70281274 -6.3228451e-16      3.66594    39.097058      2.24492 
       1   -1919.3823  -0.19156888  -0.68697126 -2.9132291e-14      3.66594    39.097058      2.24492 
       2   -1919.3824  -0.19156904  -0.68699832 -6.4579026e-09      3.66594    39.097058      2.24492 
       3   -1919.3824  -0.19156904  -0.68699832 -6.4579026e-09      3.66594    39.097058      2.24492 
       4   -1919.3824  -0.19156904  -0.68699832 -6.4579026e-09      3.66594    39.097058      2.24492 
       5   -1919.3824  -0.19156904  -0.68699832 -6.4579026e-09      3.66594    39.097058      2.24492 
       6   -1919.3824  -0.19156904  -0.68699832 -6.4579026e-09      3.66594    39.097058      2.24492 
       7   -1919.3824  -0.19156904  -0.68699834 -5.3362208e-09      3.66594    39.097058      2.24492 
Loop time of 0.0434089 on 1 procs for 6 steps with 320 atoms

Minimization stats:
  Stopping criterion = energy tolerance
  Energy initial, next-to-last, final = 
        -1919.36843458     -1919.38233641     -1919.38241971
  Force two-norm initial, final = 2.20474 0.00434932
  Force max component initial, final = 0.148643 0.000756427
  Final line search alpha, max atom move = 0 0
  Iterations, force evaluations = 6 151

Pair  time (%) = 0.0348792 (80.3503)
Neigh time (%) = 0 (0)
Comm  time (%) = 0.00294704 (6.78901)
Outpt time (%) = 0.000310992 (0.716424)
Other time (%) = 0.0052717 (12.1443)

Nlocal:    320 ave 320 max 320 min
Histogram: 1 0 0 0 0 0 0 0 0 0
Nghost:    2313 ave 2313 max 2313 min
Histogram: 1 0 0 0 0 0 0 0 0 0
Neighs:    8960 ave 8960 max 8960 min
Histogram: 1 0 0 0 0 0 0 0 0 0

Total # of neighbors = 8960
Ave neighs/atom = 28
Neighbor list builds = 0
Dangerous builds = 0
        next i
jump SELF loop1
	read_dump orig.dump 0 x y z
  orthogonal box = (-1.83297 -19.4416 -1.12246) to (1.83297 19.4416 1.12246)
  320 atoms before read
  320 atoms in snapshot
  0 atoms purged
  320 atoms replaced
  0 atoms trimmed
  0 atoms added
  320 atoms after read
        variable stretch equal 1+$i*${strainstep}
        variable stretch equal 1+12*${strainstep}
        variable stretch equal 1+12*0.0005
        change_box all ${direction} scale ${stretch} remap
        change_box all y scale ${stretch} remap
        change_box all y scale 1.006 remap
  orthogonal box = (-1.83297 -19.5582 -1.12246) to (1.83297 19.5582 1.12246)
        min_style ${style}
        min_style hftn
        minimize ${etol} ${ftol} ${maxiter} ${maxeval}
        minimize 1e-12 ${ftol} ${maxiter} ${maxeval}
        minimize 1e-12 1e-08 ${maxiter} ${maxeval}
        minimize 1e-12 1e-08 10000 ${maxeval}
        minimize 1e-12 1e-08 10000 20000
WARNING: Resetting reneighboring criteria during minimization (../min.cpp:168)
Memory usage per processor = 4.9715 Mbytes
Step PotEng Pxx Pyy Pxy Lx Ly Lz 
       0   -1919.2512  -0.20771278  -0.76394027 -2.6603681e-16      3.66594    39.116499      2.24492 
       1    -1919.268  -0.20880784  -0.74677544 -1.171796e-14      3.66594    39.116499      2.24492 
       2   -1919.2681  -0.20880886  -0.74675882 -4.0141766e-09      3.66594    39.116499      2.24492 
       3   -1919.2681  -0.20880886  -0.74675882 -4.0141766e-09      3.66594    39.116499      2.24492 
       4   -1919.2681  -0.20880886  -0.74675882 -4.0141766e-09      3.66594    39.116499      2.24492 
       5   -1919.2681  -0.20880886  -0.74675882 -4.0141766e-09      3.66594    39.116499      2.24492 
       6   -1919.2681  -0.20880886  -0.74675882 -4.0141766e-09      3.66594    39.116499      2.24492 
       7   -1919.2681  -0.20880886  -0.74675882 -4.0141766e-09      3.66594    39.116499      2.24492 
       8   -1919.2681  -0.20880886  -0.74675884 -3.924046e-09      3.66594    39.116499      2.24492 
Loop time of 0.0500411 on 1 procs for 7 steps with 320 atoms

Minimization stats:
  Stopping criterion = energy tolerance
  Energy initial, next-to-last, final = 
         -1919.2512465     -1919.26802083     -1919.26807946
  Force two-norm initial, final = 2.39922 0.00496088
  Force max component initial, final = 0.161756 0.00081544
  Final line search alpha, max atom move = 0 0
  Iterations, force evaluations = 7 160

Pair  time (%) = 0.0448263 (89.579)
Neigh time (%) = 0 (0)
Comm  time (%) = 0.00178838 (3.57382)
Outpt time (%) = 0.000376072 (0.751526)
Other time (%) = 0.00305033 (6.09565)

Nlocal:    320 ave 320 max 320 min
Histogram: 1 0 0 0 0 0 0 0 0 0
Nghost:    2313 ave 2313 max 2313 min
Histogram: 1 0 0 0 0 0 0 0 0 0
Neighs:    8960 ave 8960 max 8960 min
Histogram: 1 0 0 0 0 0 0 0 0 0

Total # of neighbors = 8960
Ave neighs/atom = 28
Neighbor list builds = 0
Dangerous builds = 0
        next i
jump SELF loop1
	read_dump orig.dump 0 x y z
  orthogonal box = (-1.83297 -19.4416 -1.12246) to (1.83297 19.4416 1.12246)
  320 atoms before read
  320 atoms in snapshot
  0 atoms purged
  320 atoms replaced
  0 atoms trimmed
  0 atoms added
  320 atoms after read
        variable stretch equal 1+$i*${strainstep}
        variable stretch equal 1+13*${strainstep}
        variable stretch equal 1+13*0.0005
        change_box all ${direction} scale ${stretch} remap
        change_box all y scale ${stretch} remap
        change_box all y scale 1.0065 remap
  orthogonal box = (-1.83297 -19.568 -1.12246) to (1.83297 19.568 1.12246)
        min_style ${style}
        min_style hftn
        minimize ${etol} ${ftol} ${maxiter} ${maxeval}
        minimize 1e-12 ${ftol} ${maxiter} ${maxeval}
        minimize 1e-12 1e-08 ${maxiter} ${maxeval}
        minimize 1e-12 1e-08 10000 ${maxeval}
        minimize 1e-12 1e-08 10000 20000
WARNING: Resetting reneighboring criteria during minimization (../min.cpp:168)
Memory usage per processor = 4.9715 Mbytes
Step PotEng Pxx Pyy Pxy Lx Ly Lz 
       0   -1919.1262  -0.22473524  -0.82471009 -4.0989342e-16      3.66594    39.135941      2.24492 
       1    -1919.146  -0.22603056  -0.80606532 8.2375801e-14      3.66594    39.135941      2.24492 
       2    -1919.146  -0.22603056  -0.80606532 8.2375801e-14      3.66594    39.135941      2.24492 
       3    -1919.146  -0.22603056  -0.80606532 8.2375801e-14      3.66594    39.135941      2.24492 
       4    -1919.146  -0.22603056  -0.80606532 8.2375801e-14      3.66594    39.135941      2.24492 
       5    -1919.146  -0.22603056  -0.80606532 8.2375801e-14      3.66594    39.135941      2.24492 
       6    -1919.146  -0.22603056  -0.80606532 8.2375801e-14      3.66594    39.135941      2.24492 
       7    -1919.146  -0.22603056  -0.80606532 8.2375801e-14      3.66594    39.135941      2.24492 
       8    -1919.146  -0.22603056  -0.80606532 8.2375801e-14      3.66594    39.135941      2.24492 
       9    -1919.146  -0.22603056  -0.80606532 8.2375801e-14      3.66594    39.135941      2.24492 
      10    -1919.146  -0.22603056  -0.80606532 8.2375801e-14      3.66594    39.135941      2.24492 
      11    -1919.146  -0.22603056  -0.80606532 8.2422681e-14      3.66594    39.135941      2.24492 
Loop time of 0.033966 on 1 procs for 10 steps with 320 atoms

Minimization stats:
  Stopping criterion = energy tolerance
  Energy initial, next-to-last, final = 
         -1919.1262152      -1919.1262152     -1919.14595429
  Force two-norm initial, final = 2.59335 0.116471
  Force max component initial, final = 0.174844 0.038091
  Final line search alpha, max atom move = 0 0
  Iterations, force evaluations = 10 119

Pair  time (%) = 0.0302138 (88.9529)
Neigh time (%) = 0 (0)
Comm  time (%) = 0.00134434 (3.95789)
Outpt time (%) = 0.000645221 (1.89961)
Other time (%) = 0.0017627 (5.18959)

Nlocal:    320 ave 320 max 320 min
Histogram: 1 0 0 0 0 0 0 0 0 0
Nghost:    2313 ave 2313 max 2313 min
Histogram: 1 0 0 0 0 0 0 0 0 0
Neighs:    8960 ave 8960 max 8960 min
Histogram: 1 0 0 0 0 0 0 0 0 0

Total # of neighbors = 8960
Ave neighs/atom = 28
Neighbor list builds = 0
Dangerous builds = 0
        next i
jump SELF loop1
	read_dump orig.dump 0 x y z
  orthogonal box = (-1.83297 -19.4416 -1.12246) to (1.83297 19.4416 1.12246)
  320 atoms before read
  320 atoms in snapshot
  0 atoms purged
  320 atoms replaced
  0 atoms trimmed
  0 atoms added
  320 atoms after read
        variable stretch equal 1+$i*${strainstep}
        variable stretch equal 1+14*${strainstep}
        variable stretch equal 1+14*0.0005
        change_box all ${direction} scale ${stretch} remap
        change_box all y scale ${stretch} remap
        change_box all y scale 1.007 remap
  orthogonal box = (-1.83297 -19.5777 -1.12246) to (1.83297 19.5777 1.12246)
        min_style ${style}
        min_style hftn
        minimize ${etol} ${ftol} ${maxiter} ${maxeval}
        minimize 1e-12 ${ftol} ${maxiter} ${maxeval}
        minimize 1e-12 1e-08 ${maxiter} ${maxeval}
        minimize 1e-12 1e-08 10000 ${maxeval}
        minimize 1e-12 1e-08 10000 20000
WARNING: Resetting reneighboring criteria during minimization (../min.cpp:168)
Memory usage per processor = 4.9715 Mbytes
Step PotEng Pxx Pyy Pxy Lx Ly Lz 
       0   -1918.9891  -0.24159045  -0.88496455 -2.8509617e-16      3.66594    39.155382      2.24492 
       1   -1919.0114  -0.24306538  -0.86493577 -6.7454024e-14      3.66594    39.155382      2.24492 
       2   -1919.0115  -0.24306209  -0.86507671 -2.9828381e-08      3.66594    39.155382      2.24492 
       3   -1919.0115  -0.24306209  -0.86507671 -2.9828381e-08      3.66594    39.155382      2.24492 
       4   -1919.0115  -0.24306209  -0.86507671 -2.9828381e-08      3.66594    39.155382      2.24492 
       5   -1919.0115  -0.24306219  -0.86507379 3.4738374e-08      3.66594    39.155382      2.24492 
       6   -1919.0115  -0.24306219  -0.86507379 3.4738374e-08      3.66594    39.155382      2.24492 
       7   -1919.0115  -0.24306219  -0.86507379 3.4738374e-08      3.66594    39.155382      2.24492 
       8   -1919.0115  -0.24306219  -0.86507379 3.4738374e-08      3.66594    39.155382      2.24492 
       9   -1919.0115  -0.24306219  -0.86507379 3.4738374e-08      3.66594    39.155382      2.24492 
      10   -1919.0115  -0.24306219  -0.86507378 3.4395135e-08      3.66594    39.155382      2.24492 
Loop time of 0.05417 on 1 procs for 9 steps with 320 atoms

Minimization stats:
  Stopping criterion = energy tolerance
  Energy initial, next-to-last, final = 
        -1918.98907401     -1919.01147986     -1919.01148024
  Force two-norm initial, final = 2.78538 0.00403242
  Force max component initial, final = 0.187791 0.000815329
  Final line search alpha, max atom move = 0 0
  Iterations, force evaluations = 9 172

Pair  time (%) = 0.0455018 (83.9982)
Neigh time (%) = 0 (0)
Comm  time (%) = 0.00467443 (8.62919)
Outpt time (%) = 0.000415167 (0.766415)
Other time (%) = 0.00357859 (6.60622)

Nlocal:    320 ave 320 max 320 min
Histogram: 1 0 0 0 0 0 0 0 0 0
Nghost:    2313 ave 2313 max 2313 min
Histogram: 1 0 0 0 0 0 0 0 0 0
Neighs:    8960 ave 8960 max 8960 min
Histogram: 1 0 0 0 0 0 0 0 0 0

Total # of neighbors = 8960
Ave neighs/atom = 28
Neighbor list builds = 0
Dangerous builds = 0
        next i
jump SELF loop1
	read_dump orig.dump 0 x y z
  orthogonal box = (-1.83297 -19.4416 -1.12246) to (1.83297 19.4416 1.12246)
  320 atoms before read
  320 atoms in snapshot
  0 atoms purged
  320 atoms replaced
  0 atoms trimmed
  0 atoms added
  320 atoms after read
        variable stretch equal 1+$i*${strainstep}
        variable stretch equal 1+15*${strainstep}
        variable stretch equal 1+15*0.0005
        change_box all ${direction} scale ${stretch} remap
        change_box all y scale ${stretch} remap
        change_box all y scale 1.0075 remap
  orthogonal box = (-1.83297 -19.5874 -1.12246) to (1.83297 19.5874 1.12246)
        min_style ${style}
        min_style hftn
        minimize ${etol} ${ftol} ${maxiter} ${maxeval}
        minimize 1e-12 ${ftol} ${maxiter} ${maxeval}
        minimize 1e-12 1e-08 ${maxiter} ${maxeval}
        minimize 1e-12 1e-08 10000 ${maxeval}
        minimize 1e-12 1e-08 10000 20000
WARNING: Resetting reneighboring criteria during minimization (../min.cpp:168)
Memory usage per processor = 4.9715 Mbytes
Step PotEng Pxx Pyy Pxy Lx Ly Lz 
       0   -1918.8409  -0.25839756  -0.94469219 -4.3779025e-16      3.66594    39.174824      2.24492 
       1   -1918.8664  -0.26006978  -0.92336423 -4.3181126e-14      3.66594    39.174824      2.24492 
       2   -1918.8664  -0.26006773  -0.92346288 -2.8362494e-08      3.66594    39.174824      2.24492 
       3   -1918.8664  -0.26006773  -0.92346288 -2.8362494e-08      3.66594    39.174824      2.24492 
       4   -1918.8664  -0.26006773  -0.92346288 -2.8362494e-08      3.66594    39.174824      2.24492 
       5   -1918.8664  -0.26006773  -0.92346288 -2.8362494e-08      3.66594    39.174824      2.24492 
       6   -1918.8664  -0.26006773  -0.92346288 -2.8362494e-08      3.66594    39.174824      2.24492 
       7   -1918.8664  -0.26006773  -0.92346273 -2.3494919e-08      3.66594    39.174824      2.24492 
Loop time of 0.0473999 on 1 procs for 6 steps with 320 atoms

Minimization stats:
  Stopping criterion = energy tolerance
  Energy initial, next-to-last, final = 
        -1918.84092439     -1918.86635995     -1918.86643259
  Force two-norm initial, final = 2.97817 0.00582108
  Force max component initial, final = 0.200788 0.000998765
  Final line search alpha, max atom move = 0 0
  Iterations, force evaluations = 6 153

Pair  time (%) = 0.0426042 (89.8824)
Neigh time (%) = 0 (0)
Comm  time (%) = 0.00178044 (3.75621)
Outpt time (%) = 0.000386858 (0.816157)
Other time (%) = 0.00262842 (5.5452)

Nlocal:    320 ave 320 max 320 min
Histogram: 1 0 0 0 0 0 0 0 0 0
Nghost:    2313 ave 2313 max 2313 min
Histogram: 1 0 0 0 0 0 0 0 0 0
Neighs:    8960 ave 8960 max 8960 min
Histogram: 1 0 0 0 0 0 0 0 0 0

Total # of neighbors = 8960
Ave neighs/atom = 28
Neighbor list builds = 0
Dangerous builds = 0
        next i
jump SELF loop1
	read_dump orig.dump 0 x y z
  orthogonal box = (-1.83297 -19.4416 -1.12246) to (1.83297 19.4416 1.12246)
  320 atoms before read
  320 atoms in snapshot
  0 atoms purged
  320 atoms replaced
  0 atoms trimmed
  0 atoms added
  320 atoms after read
        variable stretch equal 1+$i*${strainstep}
        variable stretch equal 1+16*${strainstep}
        variable stretch equal 1+16*0.0005
        change_box all ${direction} scale ${stretch} remap
        change_box all y scale ${stretch} remap
        change_box all y scale 1.008 remap
  orthogonal box = (-1.83297 -19.5971 -1.12246) to (1.83297 19.5971 1.12246)
        min_style ${style}
        min_style hftn
        minimize ${etol} ${ftol} ${maxiter} ${maxeval}
        minimize 1e-12 ${ftol} ${maxiter} ${maxeval}
        minimize 1e-12 1e-08 ${maxiter} ${maxeval}
        minimize 1e-12 1e-08 10000 ${maxeval}
        minimize 1e-12 1e-08 10000 20000
WARNING: Resetting reneighboring criteria during minimization (../min.cpp:168)
Memory usage per processor = 4.9715 Mbytes
Step PotEng Pxx Pyy Pxy Lx Ly Lz 
       0   -1918.6855  -0.27519178   -1.0040794 -4.3473652e-16      3.66594    39.194266      2.24492 
       1   -1918.7138  -0.27706735  -0.98124785 1.1972528e-14      3.66594    39.194266      2.24492 
       2   -1918.7139  -0.27706141  -0.98150091 1.9831597e-09      3.66594    39.194266      2.24492 
       3   -1918.7139  -0.27706164   -0.9814944 1.2688696e-10      3.66594    39.194266      2.24492 
       4   -1918.7139  -0.27706164   -0.9814944 -4.4588181e-15      3.66594    39.194266      2.24492 
Loop time of 0.058202 on 1 procs for 3 steps with 320 atoms

Minimization stats:
  Stopping criterion = force tolerance
  Energy initial, next-to-last, final = 
        -1918.68554347     -1918.71392605     -1918.71392856
  Force two-norm initial, final = 3.17112 1.12976e-10
  Force max component initial, final = 0.213797 1.80172e-11
  Final line search alpha, max atom move = 0 0
  Iterations, force evaluations = 3 198

Pair  time (%) = 0.0487222 (83.7122)
Neigh time (%) = 0 (0)
Comm  time (%) = 0.00539909 (9.27646)
Outpt time (%) = 0.000175073 (0.300802)
Other time (%) = 0.00390568 (6.71056)

Nlocal:    320 ave 320 max 320 min
Histogram: 1 0 0 0 0 0 0 0 0 0
Nghost:    2313 ave 2313 max 2313 min
Histogram: 1 0 0 0 0 0 0 0 0 0
Neighs:    8960 ave 8960 max 8960 min
Histogram: 1 0 0 0 0 0 0 0 0 0

Total # of neighbors = 8960
Ave neighs/atom = 28
Neighbor list builds = 0
Dangerous builds = 0
        next i
jump SELF loop1
	read_dump orig.dump 0 x y z
  orthogonal box = (-1.83297 -19.4416 -1.12246) to (1.83297 19.4416 1.12246)
  320 atoms before read
  320 atoms in snapshot
  0 atoms purged
  320 atoms replaced
  0 atoms trimmed
  0 atoms added
  320 atoms after read
        variable stretch equal 1+$i*${strainstep}
        variable stretch equal 1+17*${strainstep}
        variable stretch equal 1+17*0.0005
        change_box all ${direction} scale ${stretch} remap
        change_box all y scale ${stretch} remap
        change_box all y scale 1.0085 remap
  orthogonal box = (-1.83297 -19.6069 -1.12246) to (1.83297 19.6069 1.12246)
        min_style ${style}
        min_style hftn
        minimize ${etol} ${ftol} ${maxiter} ${maxeval}
        minimize 1e-12 ${ftol} ${maxiter} ${maxeval}
        minimize 1e-12 1e-08 ${maxiter} ${maxeval}
        minimize 1e-12 1e-08 10000 ${maxeval}
        minimize 1e-12 1e-08 10000 20000
WARNING: Resetting reneighboring criteria during minimization (../min.cpp:168)
Memory usage per processor = 4.9715 Mbytes
Step PotEng Pxx Pyy Pxy Lx Ly Lz 
       0   -1918.5203  -0.29183522   -1.0630559 -5.0561394e-16      3.66594    39.213707      2.24492 
       1   -1918.5531  -0.29400622   -1.0389604 -3.4416835e-14      3.66594    39.213707      2.24492 
       2   -1918.5532  -0.29400342   -1.0391639 -6.6765068e-08      3.66594    39.213707      2.24492 
       3   -1918.5532  -0.29400364   -1.0391575 -1.0653813e-10      3.66594    39.213707      2.24492 
       4   -1918.5532  -0.29400364   -1.0391575 6.8037648e-15      3.66594    39.213707      2.24492 
Loop time of 0.058671 on 1 procs for 3 steps with 320 atoms

Minimization stats:
  Stopping criterion = force tolerance
  Energy initial, next-to-last, final = 
        -1918.52029076      -1918.5532291     -1918.55324257
  Force two-norm initial, final = 3.36105 2.44802e-10
  Force max component initial, final = 0.226602 4.12296e-11
  Final line search alpha, max atom move = 0 0
  Iterations, force evaluations = 3 200

Pair  time (%) = 0.0500252 (85.264)
Neigh time (%) = 0 (0)
Comm  time (%) = 0.00501084 (8.54057)
Outpt time (%) = 0.000179895 (0.306617)
Other time (%) = 0.00345504 (5.88884)

Nlocal:    320 ave 320 max 320 min
Histogram: 1 0 0 0 0 0 0 0 0 0
Nghost:    2313 ave 2313 max 2313 min
Histogram: 1 0 0 0 0 0 0 0 0 0
Neighs:    8960 ave 8960 max 8960 min
Histogram: 1 0 0 0 0 0 0 0 0 0

Total # of neighbors = 8960
Ave neighs/atom = 28
Neighbor list builds = 0
Dangerous builds = 0
        next i
jump SELF loop1
	read_dump orig.dump 0 x y z
  orthogonal box = (-1.83297 -19.4416 -1.12246) to (1.83297 19.4416 1.12246)
  320 atoms before read
  320 atoms in snapshot
  0 atoms purged
  320 atoms replaced
  0 atoms trimmed
  0 atoms added
  320 atoms after read
        variable stretch equal 1+$i*${strainstep}
        variable stretch equal 1+18*${strainstep}
        variable stretch equal 1+18*0.0005
        change_box all ${direction} scale ${stretch} remap
        change_box all y scale ${stretch} remap
        change_box all y scale 1.009 remap
  orthogonal box = (-1.83297 -19.6166 -1.12246) to (1.83297 19.6166 1.12246)
        min_style ${style}
        min_style hftn
        minimize ${etol} ${ftol} ${maxiter} ${maxeval}
        minimize 1e-12 ${ftol} ${maxiter} ${maxeval}
        minimize 1e-12 1e-08 ${maxiter} ${maxeval}
        minimize 1e-12 1e-08 10000 ${maxeval}
        minimize 1e-12 1e-08 10000 20000
WARNING: Resetting reneighboring criteria during minimization (../min.cpp:168)
Memory usage per processor = 4.9715 Mbytes
Step PotEng Pxx Pyy Pxy Lx Ly Lz 
       0    -1918.344  -0.30847045    -1.121455 -1.7762009e-16      3.66594    39.233149      2.24492 
       1   -1918.3817  -0.31093672   -1.0961279 1.9928588e-13      3.66594    39.233149      2.24492 
       2   -1918.3818  -0.31093548   -1.0962727 2.9675556e-07      3.66594    39.233149      2.24492 
       3   -1918.3818  -0.31093548   -1.0962727 2.9675556e-07      3.66594    39.233149      2.24492 
       4   -1918.3818  -0.31093548   -1.0962727 2.9675556e-07      3.66594    39.233149      2.24492 
       5   -1918.3818  -0.31093563   -1.0962688 -3.0418514e-07      3.66594    39.233149      2.24492 
       6   -1918.3818  -0.31093563   -1.0962688 -3.0418514e-07      3.66594    39.233149      2.24492 
       7   -1918.3818  -0.31093563   -1.0962688 -3.0418514e-07      3.66594    39.233149      2.24492 
       8   -1918.3818  -0.31093563   -1.0962688 -3.0418514e-07      3.66594    39.233149      2.24492 
       9   -1918.3818  -0.31093563   -1.0962688 -3.0418514e-07      3.66594    39.233149      2.24492 
      10   -1918.3818  -0.31093563   -1.0962688 -3.0077308e-07      3.66594    39.233149      2.24492 
Loop time of 0.0532591 on 1 procs for 9 steps with 320 atoms

Minimization stats:
  Stopping criterion = energy tolerance
  Energy initial, next-to-last, final = 
        -1918.34396118     -1918.38182043     -1918.38182067
  Force two-norm initial, final = 3.55126 0.00560327
  Force max component initial, final = 0.239426 0.000931784
  Final line search alpha, max atom move = 0 0
  Iterations, force evaluations = 9 178

Pair  time (%) = 0.0428919 (80.5344)
Neigh time (%) = 0 (0)
Comm  time (%) = 0.00288991 (5.42613)
Outpt time (%) = 0.00449616 (8.44205)
Other time (%) = 0.00298113 (5.59741)

Nlocal:    320 ave 320 max 320 min
Histogram: 1 0 0 0 0 0 0 0 0 0
Nghost:    2313 ave 2313 max 2313 min
Histogram: 1 0 0 0 0 0 0 0 0 0
Neighs:    8960 ave 8960 max 8960 min
Histogram: 1 0 0 0 0 0 0 0 0 0

Total # of neighbors = 8960
Ave neighs/atom = 28
Neighbor list builds = 0
Dangerous builds = 0
        next i
jump SELF loop1
	read_dump orig.dump 0 x y z
  orthogonal box = (-1.83297 -19.4416 -1.12246) to (1.83297 19.4416 1.12246)
  320 atoms before read
  320 atoms in snapshot
  0 atoms purged
  320 atoms replaced
  0 atoms trimmed
  0 atoms added
  320 atoms after read
        variable stretch equal 1+$i*${strainstep}
        variable stretch equal 1+19*${strainstep}
        variable stretch equal 1+19*0.0005
        change_box all ${direction} scale ${stretch} remap
        change_box all y scale ${stretch} remap
        change_box all y scale 1.0095 remap
  orthogonal box = (-1.83297 -19.6263 -1.12246) to (1.83297 19.6263 1.12246)
        min_style ${style}
        min_style hftn
        minimize ${etol} ${ftol} ${maxiter} ${maxeval}
        minimize 1e-12 ${ftol} ${maxiter} ${maxeval}
        minimize 1e-12 1e-08 ${maxiter} ${maxeval}
        minimize 1e-12 1e-08 10000 ${maxeval}
        minimize 1e-12 1e-08 10000 20000
WARNING: Resetting reneighboring criteria during minimization (../min.cpp:168)
Memory usage per processor = 4.9715 Mbytes
Step PotEng Pxx Pyy Pxy Lx Ly Lz 
       0     -1918.16  -0.32509752   -1.1794843 -3.3061538e-16      3.66594     39.25259      2.24492 
       1   -1918.2025  -0.32786168   -1.1529095 2.8031409e-14      3.66594     39.25259      2.24492 
       2   -1918.2025   -0.3278568   -1.1529881 5.4844897e-08      3.66594     39.25259      2.24492 
       3   -1918.2025   -0.3278568   -1.1529881 5.4844897e-08      3.66594     39.25259      2.24492 
       4   -1918.2025   -0.3278568   -1.1529881 5.4844897e-08      3.66594     39.25259      2.24492 
       5   -1918.2025  -0.32785664   -1.1529912 -4.9544556e-08      3.66594     39.25259      2.24492 
       6   -1918.2025  -0.32785664   -1.1529912 -4.9544556e-08      3.66594     39.25259      2.24492 
       7   -1918.2025  -0.32785664   -1.1529912 -4.9544556e-08      3.66594     39.25259      2.24492 
       8   -1918.2025  -0.32785664   -1.1529912 -4.9544556e-08      3.66594     39.25259      2.24492 
       9   -1918.2025  -0.32785664   -1.1529912 -4.9544556e-08      3.66594     39.25259      2.24492 
      10   -1918.2025  -0.32785664   -1.1529912 -4.9094252e-08      3.66594     39.25259      2.24492 
Loop time of 0.053075 on 1 procs for 9 steps with 320 atoms

Minimization stats:
  Stopping criterion = energy tolerance
  Energy initial, next-to-last, final = 
        -1918.16004052     -1918.20252545     -1918.20252553
  Force two-norm initial, final = 3.74175 0.00466312
  Force max component initial, final = 0.252269 0.000663666
  Final line search alpha, max atom move = 0 0
  Iterations, force evaluations = 9 180

Pair  time (%) = 0.0433323 (81.6436)
Neigh time (%) = 0 (0)
Comm  time (%) = 0.00576513 (10.8622)
Outpt time (%) = 0.000390285 (0.735347)
Other time (%) = 0.00358726 (6.75885)

Nlocal:    320 ave 320 max 320 min
Histogram: 1 0 0 0 0 0 0 0 0 0
Nghost:    2313 ave 2313 max 2313 min
Histogram: 1 0 0 0 0 0 0 0 0 0
Neighs:    8960 ave 8960 max 8960 min
Histogram: 1 0 0 0 0 0 0 0 0 0

Total # of neighbors = 8960
Ave neighs/atom = 28
Neighbor list builds = 0
Dangerous builds = 0
        next i
jump SELF loop1
	read_dump orig.dump 0 x y z
  orthogonal box = (-1.83297 -19.4416 -1.12246) to (1.83297 19.4416 1.12246)
  320 atoms before read
  320 atoms in snapshot
  0 atoms purged
  320 atoms replaced
  0 atoms trimmed
  0 atoms added
  320 atoms after read
        variable stretch equal 1+$i*${strainstep}
        variable stretch equal 1+20*${strainstep}
        variable stretch equal 1+20*0.0005
        change_box all ${direction} scale ${stretch} remap
        change_box all y scale ${stretch} remap
        change_box all y scale 1.01 remap
  orthogonal box = (-1.83297 -19.636 -1.12246) to (1.83297 19.636 1.12246)
        min_style ${style}
        min_style hftn
        minimize ${etol} ${ftol} ${maxiter} ${maxeval}
        minimize 1e-12 ${ftol} ${maxiter} ${maxeval}
        minimize 1e-12 1e-08 ${maxiter} ${maxeval}
        minimize 1e-12 1e-08 10000 ${maxeval}
        minimize 1e-12 1e-08 10000 20000
WARNING: Resetting reneighboring criteria during minimization (../min.cpp:168)
Memory usage per processor = 4.9715 Mbytes
Step PotEng Pxx Pyy Pxy Lx Ly Lz 
       0   -1917.9667   -0.3415875   -1.2371157 -1.6569894e-16      3.66594    39.272032      2.24492 
       1   -1918.0135     -0.34465    -1.209081 -4.857944e-14      3.66594    39.272032      2.24492 
       2   -1918.0136  -0.34463859   -1.2093423 -8.7404031e-08      3.66594    39.272032      2.24492 
       3   -1918.0136  -0.34463903   -1.2093343 -4.0656721e-10      3.66594    39.272032      2.24492 
       4   -1918.0136  -0.34463903   -1.2093343 3.0738098e-14      3.66594    39.272032      2.24492 
       5   -1918.0136  -0.34463903   -1.2093343 1.9364875e-15      3.66594    39.272032      2.24492 
Loop time of 0.1088 on 1 procs for 4 steps with 320 atoms

Minimization stats:
  Stopping criterion = force tolerance
  Energy initial, next-to-last, final = 
        -1917.96668834     -1918.01355942     -1918.01357021
  Force two-norm initial, final = 3.9295 5.16796e-11
  Force max component initial, final = 0.264927 1.94044e-11
  Final line search alpha, max atom move = 0 0
  Iterations, force evaluations = 4 305

Pair  time (%) = 0.0816284 (75.026)
Neigh time (%) = 0 (0)
Comm  time (%) = 0.0115722 (10.6362)
Outpt time (%) = 0.000354873 (0.32617)
Other time (%) = 0.0152446 (14.0115)

Nlocal:    320 ave 320 max 320 min
Histogram: 1 0 0 0 0 0 0 0 0 0
Nghost:    2313 ave 2313 max 2313 min
Histogram: 1 0 0 0 0 0 0 0 0 0
Neighs:    8960 ave 8960 max 8960 min
Histogram: 1 0 0 0 0 0 0 0 0 0

Total # of neighbors = 8960
Ave neighs/atom = 28
Neighbor list builds = 0
Dangerous builds = 0
        next i
jump SELF loop1
	read_dump orig.dump 0 x y z
  orthogonal box = (-1.83297 -19.4416 -1.12246) to (1.83297 19.4416 1.12246)
  320 atoms before read
  320 atoms in snapshot
  0 atoms purged
  320 atoms replaced
  0 atoms trimmed
  0 atoms added
  320 atoms after read
        variable stretch equal 1+$i*${strainstep}
        variable stretch equal 1+21*${strainstep}
        variable stretch equal 1+21*0.0005
        change_box all ${direction} scale ${stretch} remap
        change_box all y scale ${stretch} remap
        change_box all y scale 1.0105 remap
  orthogonal box = (-1.83297 -19.6457 -1.12246) to (1.83297 19.6457 1.12246)
        min_style ${style}
        min_style hftn
        minimize ${etol} ${ftol} ${maxiter} ${maxeval}
        minimize 1e-12 ${ftol} ${maxiter} ${maxeval}
        minimize 1e-12 1e-08 ${maxiter} ${maxeval}
        minimize 1e-12 1e-08 10000 ${maxeval}
        minimize 1e-12 1e-08 10000 20000
WARNING: Resetting reneighboring criteria during minimization (../min.cpp:168)
Memory usage per processor = 4.9715 Mbytes
Step PotEng Pxx Pyy Pxy Lx Ly Lz 
       0   -1917.7645  -0.35805249   -1.2943117 -2.1856901e-16      3.66594    39.291474      2.24492 
       1    -1917.815  -0.36136935   -1.2650537 -1.6752577e-15      3.66594    39.291474      2.24492 
       2   -1917.8152  -0.36136405   -1.2652484 1.2912303e-08      3.66594    39.291474      2.24492 
       3   -1917.8152  -0.36136405   -1.2652484 1.2912303e-08      3.66594    39.291474      2.24492 
       4   -1917.8152  -0.36136405   -1.2652484 1.2912303e-08      3.66594    39.291474      2.24492 
       5   -1917.8152  -0.36136405   -1.2652484 1.2912303e-08      3.66594    39.291474      2.24492 
       6   -1917.8152  -0.36136405   -1.2652484 1.2912303e-08      3.66594    39.291474      2.24492 
       7   -1917.8152  -0.36136405   -1.2652484 1.2912303e-08      3.66594    39.291474      2.24492 
       8   -1917.8152  -0.36136405   -1.2652484 1.2912303e-08      3.66594    39.291474      2.24492 
       9   -1917.8152  -0.36136405   -1.2652484 1.2868495e-08      3.66594    39.291474      2.24492 
Loop time of 0.071499 on 1 procs for 8 steps with 320 atoms

Minimization stats:
  Stopping criterion = energy tolerance
  Energy initial, next-to-last, final = 
        -1917.76450971     -1917.81503047     -1917.81523205
  Force two-norm initial, final = 4.11714 0.00836944
  Force max component initial, final = 0.277578 0.00151729
  Final line search alpha, max atom move = 0 0
  Iterations, force evaluations = 8 169

Pair  time (%) = 0.0486136 (67.992)
Neigh time (%) = 0 (0)
Comm  time (%) = 0.0120159 (16.8057)
Outpt time (%) = 0.00474089 (6.63071)
Other time (%) = 0.00612858 (8.57156)

Nlocal:    320 ave 320 max 320 min
Histogram: 1 0 0 0 0 0 0 0 0 0
Nghost:    2313 ave 2313 max 2313 min
Histogram: 1 0 0 0 0 0 0 0 0 0
Neighs:    8960 ave 8960 max 8960 min
Histogram: 1 0 0 0 0 0 0 0 0 0

Total # of neighbors = 8960
Ave neighs/atom = 28
Neighbor list builds = 0
Dangerous builds = 0
        next i
jump SELF loop1
	read_dump orig.dump 0 x y z
  orthogonal box = (-1.83297 -19.4416 -1.12246) to (1.83297 19.4416 1.12246)
  320 atoms before read
  320 atoms in snapshot
  0 atoms purged
  320 atoms replaced
  0 atoms trimmed
  0 atoms added
  320 atoms after read
        variable stretch equal 1+$i*${strainstep}
        variable stretch equal 1+22*${strainstep}
        variable stretch equal 1+22*0.0005
        change_box all ${direction} scale ${stretch} remap
        change_box all y scale ${stretch} remap
        change_box all y scale 1.011 remap
  orthogonal box = (-1.83297 -19.6555 -1.12246) to (1.83297 19.6555 1.12246)
        min_style ${style}
        min_style hftn
        minimize ${etol} ${ftol} ${maxiter} ${maxeval}
        minimize 1e-12 ${ftol} ${maxiter} ${maxeval}
        minimize 1e-12 1e-08 ${maxiter} ${maxeval}
        minimize 1e-12 1e-08 10000 ${maxeval}
        minimize 1e-12 1e-08 10000 20000
WARNING: Resetting reneighboring criteria during minimization (../min.cpp:168)
Memory usage per processor = 4.9715 Mbytes
Step PotEng Pxx Pyy Pxy Lx Ly Lz 
       0   -1917.5526  -0.37450943   -1.3510048 -1.7047681e-16      3.66594    39.310915      2.24492 
       1   -1917.6069  -0.37807968   -1.3205207 -1.2439864e-13      3.66594    39.310915      2.24492 
       2   -1917.6072  -0.37807814   -1.3206419 -5.4971583e-07      3.66594    39.310915      2.24492 
       3   -1917.6072  -0.37807814   -1.3206419 -5.4971583e-07      3.66594    39.310915      2.24492 
       4   -1917.6072  -0.37807755   -1.3206536 1.6322965e-07      3.66594    39.310915      2.24492 
       5   -1917.6072  -0.37807755   -1.3206536 1.6322965e-07      3.66594    39.310915      2.24492 
       6   -1917.6072  -0.37807777   -1.3206494 -1.5279363e-07      3.66594    39.310915      2.24492 
       7   -1917.6072  -0.37807777   -1.3206494 -1.5279363e-07      3.66594    39.310915      2.24492 
       8   -1917.6072  -0.37807777   -1.3206494 -1.5279363e-07      3.66594    39.310915      2.24492 
       9   -1917.6072  -0.37807777   -1.3206494 -1.5279363e-07      3.66594    39.310915      2.24492 
      10   -1917.6072  -0.37807777   -1.3206494 -1.5279363e-07      3.66594    39.310915      2.24492 
      11   -1917.6072  -0.37807777   -1.3206494 -1.5054946e-07      3.66594    39.310915      2.24492 
Loop time of 0.0579281 on 1 procs for 10 steps with 320 atoms

Minimization stats:
  Stopping criterion = energy tolerance
  Energy initial, next-to-last, final = 
        -1917.55262027     -1917.60717483     -1917.60717488
  Force two-norm initial, final = 4.30506 0.00322795
  Force max component initial, final = 0.290247 0.000516553
  Final line search alpha, max atom move = 0 0
  Iterations, force evaluations = 10 191

Pair  time (%) = 0.0485765 (83.8566)
Neigh time (%) = 0 (0)
Comm  time (%) = 0.00279177 (4.81938)
Outpt time (%) = 0.00290098 (5.0079)
Other time (%) = 0.00365882 (6.31613)

Nlocal:    320 ave 320 max 320 min
Histogram: 1 0 0 0 0 0 0 0 0 0
Nghost:    2313 ave 2313 max 2313 min
Histogram: 1 0 0 0 0 0 0 0 0 0
Neighs:    8960 ave 8960 max 8960 min
Histogram: 1 0 0 0 0 0 0 0 0 0

Total # of neighbors = 8960
Ave neighs/atom = 28
Neighbor list builds = 0
Dangerous builds = 0
        next i
jump SELF loop1
	read_dump orig.dump 0 x y z
  orthogonal box = (-1.83297 -19.4416 -1.12246) to (1.83297 19.4416 1.12246)
  320 atoms before read
  320 atoms in snapshot
  0 atoms purged
  320 atoms replaced
  0 atoms trimmed
  0 atoms added
  320 atoms after read
        variable stretch equal 1+$i*${strainstep}
        variable stretch equal 1+23*${strainstep}
        variable stretch equal 1+23*0.0005
        change_box all ${direction} scale ${stretch} remap
        change_box all y scale ${stretch} remap
        change_box all y scale 1.0115 remap
  orthogonal box = (-1.83297 -19.6652 -1.12246) to (1.83297 19.6652 1.12246)
        min_style ${style}
        min_style hftn
        minimize ${etol} ${ftol} ${maxiter} ${maxeval}
        minimize 1e-12 ${ftol} ${maxiter} ${maxeval}
        minimize 1e-12 1e-08 ${maxiter} ${maxeval}
        minimize 1e-12 1e-08 10000 ${maxeval}
        minimize 1e-12 1e-08 10000 20000
WARNING: Resetting reneighboring criteria during minimization (../min.cpp:168)
Memory usage per processor = 4.9715 Mbytes
Step PotEng Pxx Pyy Pxy Lx Ly Lz 
       0   -1917.3319  -0.39085145   -1.4073169 -4.3136789e-16      3.66594    39.330357      2.24492 
       1   -1917.3912  -0.39475872   -1.3753868 5.9467724e-14      3.66594    39.330357      2.24492 
       2   -1917.3914  -0.39475085   -1.3756888 7.5048594e-08      3.66594    39.330357      2.24492 
       3   -1917.3914  -0.39475025   -1.3756984 7.3005995e-10      3.66594    39.330357      2.24492 
       4   -1917.3914  -0.39475025   -1.3756984 8.3127416e-15      3.66594    39.330357      2.24492 
Loop time of 0.0614631 on 1 procs for 3 steps with 320 atoms

Minimization stats:
  Stopping criterion = force tolerance
  Energy initial, next-to-last, final = 
        -1917.33189258     -1917.39143949     -1917.39144485
  Force two-norm initial, final = 4.49074 1.25337e-10
  Force max component initial, final = 0.302766 1.97382e-11
  Final line search alpha, max atom move = 0 0
  Iterations, force evaluations = 3 208

Pair  time (%) = 0.0517346 (84.1717)
Neigh time (%) = 0 (0)
Comm  time (%) = 0.00593492 (9.65607)
Outpt time (%) = 0.00019005 (0.30921)
Other time (%) = 0.00360357 (5.86298)

Nlocal:    320 ave 320 max 320 min
Histogram: 1 0 0 0 0 0 0 0 0 0
Nghost:    2313 ave 2313 max 2313 min
Histogram: 1 0 0 0 0 0 0 0 0 0
Neighs:    8960 ave 8960 max 8960 min
Histogram: 1 0 0 0 0 0 0 0 0 0

Total # of neighbors = 8960
Ave neighs/atom = 28
Neighbor list builds = 0
Dangerous builds = 0
        next i
jump SELF loop1
	read_dump orig.dump 0 x y z
  orthogonal box = (-1.83297 -19.4416 -1.12246) to (1.83297 19.4416 1.12246)
  320 atoms before read
  320 atoms in snapshot
  0 atoms purged
  320 atoms replaced
  0 atoms trimmed
  0 atoms added
  320 atoms after read
        variable stretch equal 1+$i*${strainstep}
        variable stretch equal 1+24*${strainstep}
        variable stretch equal 1+24*0.0005
        change_box all ${direction} scale ${stretch} remap
        change_box all y scale ${stretch} remap
        change_box all y scale 1.012 remap
  orthogonal box = (-1.83297 -19.6749 -1.12246) to (1.83297 19.6749 1.12246)
        min_style ${style}
        min_style hftn
        minimize ${etol} ${ftol} ${maxiter} ${maxeval}
        minimize 1e-12 ${ftol} ${maxiter} ${maxeval}
        minimize 1e-12 1e-08 ${maxiter} ${maxeval}
        minimize 1e-12 1e-08 10000 ${maxeval}
        minimize 1e-12 1e-08 10000 20000
WARNING: Resetting reneighboring criteria during minimization (../min.cpp:168)
Memory usage per processor = 4.9715 Mbytes
Step PotEng Pxx Pyy Pxy Lx Ly Lz 
       0   -1917.1037  -0.40714831   -1.4632833 -1.8194308e-16      3.66594    39.349798      2.24492 
       1   -1917.1684  -0.41140832   -1.4301734 -1.973854e-13      3.66594    39.349798      2.24492 
       2   -1917.1685    -0.411402   -1.4304016 2.9143041e-07      3.66594    39.349798      2.24492 
       3   -1917.1685  -0.41140175   -1.4304035 8.2128127e-10      3.66594    39.349798      2.24492 
       4   -1917.1685  -0.41140175   -1.4304035 -2.3417759e-14      3.66594    39.349798      2.24492 
Loop time of 0.060061 on 1 procs for 3 steps with 320 atoms

Minimization stats:
  Stopping criterion = force tolerance
  Energy initial, next-to-last, final = 
        -1917.10367983     -1917.16845198     -1917.16846459
  Force two-norm initial, final = 4.67583 1.51845e-10
  Force max component initial, final = 0.315244 2.0863e-11
  Final line search alpha, max atom move = 0 0
  Iterations, force evaluations = 3 202

Pair  time (%) = 0.0487609 (81.1857)
Neigh time (%) = 0 (0)
Comm  time (%) = 0.00505933 (8.42366)
Outpt time (%) = 0.00265009 (4.41233)
Other time (%) = 0.00359064 (5.97833)

Nlocal:    320 ave 320 max 320 min
Histogram: 1 0 0 0 0 0 0 0 0 0
Nghost:    2313 ave 2313 max 2313 min
Histogram: 1 0 0 0 0 0 0 0 0 0
Neighs:    8960 ave 8960 max 8960 min
Histogram: 1 0 0 0 0 0 0 0 0 0

Total # of neighbors = 8960
Ave neighs/atom = 28
Neighbor list builds = 0
Dangerous builds = 0
        next i
jump SELF loop1
	read_dump orig.dump 0 x y z
  orthogonal box = (-1.83297 -19.4416 -1.12246) to (1.83297 19.4416 1.12246)
  320 atoms before read
  320 atoms in snapshot
  0 atoms purged
  320 atoms replaced
  0 atoms trimmed
  0 atoms added
  320 atoms after read
        variable stretch equal 1+$i*${strainstep}
        variable stretch equal 1+25*${strainstep}
        variable stretch equal 1+25*0.0005
        change_box all ${direction} scale ${stretch} remap
        change_box all y scale ${stretch} remap
        change_box all y scale 1.0125 remap
  orthogonal box = (-1.83297 -19.6846 -1.12246) to (1.83297 19.6846 1.12246)
        min_style ${style}
        min_style hftn
        minimize ${etol} ${ftol} ${maxiter} ${maxeval}
        minimize 1e-12 ${ftol} ${maxiter} ${maxeval}
        minimize 1e-12 1e-08 ${maxiter} ${maxeval}
        minimize 1e-12 1e-08 10000 ${maxeval}
        minimize 1e-12 1e-08 10000 20000
WARNING: Resetting reneighboring criteria during minimization (../min.cpp:168)
Memory usage per processor = 4.9715 Mbytes
Step PotEng Pxx Pyy Pxy Lx Ly Lz 
       0   -1916.8652  -0.42343723   -1.5187096 -1.6192773e-16      3.66594     39.36924      2.24492 
       1   -1916.9355  -0.42804843   -1.4844439 -1.4153519e-13      3.66594     39.36924      2.24492 
       2   -1916.9357  -0.42804411    -1.484596 3.4525373e-07      3.66594     39.36924      2.24492 
       3   -1916.9357  -0.42804411    -1.484596 3.4525373e-07      3.66594     39.36924      2.24492 
       4   -1916.9357  -0.42804411    -1.484596 3.4525373e-07      3.66594     39.36924      2.24492 
       5   -1916.9357  -0.42804411    -1.484596 3.4525373e-07      3.66594     39.36924      2.24492 
       6   -1916.9357  -0.42804411    -1.484596 3.4525373e-07      3.66594     39.36924      2.24492 
       7   -1916.9357  -0.42804411    -1.484596 3.4525373e-07      3.66594     39.36924      2.24492 
       8   -1916.9357  -0.42804411    -1.484596 3.4525373e-07      3.66594     39.36924      2.24492 
       9   -1916.9357  -0.42804411    -1.484596 3.4306767e-07      3.66594     39.36924      2.24492 
Loop time of 0.050333 on 1 procs for 8 steps with 320 atoms

Minimization stats:
  Stopping criterion = energy tolerance
  Energy initial, next-to-last, final = 
        -1916.86522601     -1916.93547037      -1916.9357147
  Force two-norm initial, final = 4.86119 0.00953864
  Force max component initial, final = 0.327742 0.00186047
  Final line search alpha, max atom move = 0 0
  Iterations, force evaluations = 8 167

Pair  time (%) = 0.0418626 (83.1712)
Neigh time (%) = 0 (0)
Comm  time (%) = 0.00478632 (9.50929)
Outpt time (%) = 0.000398148 (0.791027)
Other time (%) = 0.00328599 (6.5285)

Nlocal:    320 ave 320 max 320 min
Histogram: 1 0 0 0 0 0 0 0 0 0
Nghost:    2313 ave 2313 max 2313 min
Histogram: 1 0 0 0 0 0 0 0 0 0
Neighs:    8960 ave 8960 max 8960 min
Histogram: 1 0 0 0 0 0 0 0 0 0

Total # of neighbors = 8960
Ave neighs/atom = 28
Neighbor list builds = 0
Dangerous builds = 0
        next i
jump SELF loop1
	read_dump orig.dump 0 x y z
  orthogonal box = (-1.83297 -19.4416 -1.12246) to (1.83297 19.4416 1.12246)
  320 atoms before read
  320 atoms in snapshot
  0 atoms purged
  320 atoms replaced
  0 atoms trimmed
  0 atoms added
  320 atoms after read
        variable stretch equal 1+$i*${strainstep}
        variable stretch equal 1+26*${strainstep}
        variable stretch equal 1+26*0.0005
        change_box all ${direction} scale ${stretch} remap
        change_box all y scale ${stretch} remap
        change_box all y scale 1.013 remap
  orthogonal box = (-1.83297 -19.6943 -1.12246) to (1.83297 19.6943 1.12246)
        min_style ${style}
        min_style hftn
        minimize ${etol} ${ftol} ${maxiter} ${maxeval}
        minimize 1e-12 ${ftol} ${maxiter} ${maxeval}
        minimize 1e-12 1e-08 ${maxiter} ${maxeval}
        minimize 1e-12 1e-08 10000 ${maxeval}
        minimize 1e-12 1e-08 10000 20000
WARNING: Resetting reneighboring criteria during minimization (../min.cpp:168)
Memory usage per processor = 4.9715 Mbytes
Step PotEng Pxx Pyy Pxy Lx Ly Lz 
       0   -1916.6177  -0.43963207   -1.5737245 -2.2434799e-17      3.66594    39.388682      2.24492 
       1   -1916.6934  -0.44460774   -1.5380101 -8.0825702e-14      3.66594    39.388682      2.24492 
       2   -1916.6936  -0.44459012   -1.5383804 6.3677979e-07      3.66594    39.388682      2.24492 
       3   -1916.6936   -0.4445904    -1.538381 2.9677717e-10      3.66594    39.388682      2.24492 
       4   -1916.6936  -0.44459041    -1.538381 -3.9527479e-14      3.66594    39.388682      2.24492 
Loop time of 0.0614321 on 1 procs for 3 steps with 320 atoms

Minimization stats:
  Stopping criterion = force tolerance
  Energy initial, next-to-last, final = 
        -1916.61774535     -1916.69356911      -1916.6935775
  Force two-norm initial, final = 5.04479 2.87008e-10
  Force max component initial, final = 0.34012 3.81489e-11
  Final line search alpha, max atom move = 0 0
  Iterations, force evaluations = 3 204

Pair  time (%) = 0.0554082 (90.1942)
Neigh time (%) = 0 (0)
Comm  time (%) = 0.00229681 (3.73877)
Outpt time (%) = 0.000185149 (0.301388)
Other time (%) = 0.00354194 (5.76562)

Nlocal:    320 ave 320 max 320 min
Histogram: 1 0 0 0 0 0 0 0 0 0
Nghost:    2313 ave 2313 max 2313 min
Histogram: 1 0 0 0 0 0 0 0 0 0
Neighs:    8960 ave 8960 max 8960 min
Histogram: 1 0 0 0 0 0 0 0 0 0

Total # of neighbors = 8960
Ave neighs/atom = 28
Neighbor list builds = 0
Dangerous builds = 0
        next i
jump SELF loop1
	read_dump orig.dump 0 x y z
  orthogonal box = (-1.83297 -19.4416 -1.12246) to (1.83297 19.4416 1.12246)
  320 atoms before read
  320 atoms in snapshot
  0 atoms purged
  320 atoms replaced
  0 atoms trimmed
  0 atoms added
  320 atoms after read
        variable stretch equal 1+$i*${strainstep}
        variable stretch equal 1+27*${strainstep}
        variable stretch equal 1+27*0.0005
        change_box all ${direction} scale ${stretch} remap
        change_box all y scale ${stretch} remap
        change_box all y scale 1.0135 remap
  orthogonal box = (-1.83297 -19.7041 -1.12246) to (1.83297 19.7041 1.12246)
        min_style ${style}
        min_style hftn
        minimize ${etol} ${ftol} ${maxiter} ${maxeval}
        minimize 1e-12 ${ftol} ${maxiter} ${maxeval}
        minimize 1e-12 1e-08 ${maxiter} ${maxeval}
        minimize 1e-12 1e-08 10000 ${maxeval}
        minimize 1e-12 1e-08 10000 20000
WARNING: Resetting reneighboring criteria during minimization (../min.cpp:168)
Memory usage per processor = 4.9715 Mbytes
Step PotEng Pxx Pyy Pxy Lx Ly Lz 
       0   -1916.3612  -0.45569367   -1.6283813 -4.4430872e-16      3.66594    39.408123      2.24492 
       1   -1916.4423  -0.46103973   -1.5913458 -6.5059677e-14      3.66594    39.408123      2.24492 
       2   -1916.4425  -0.46102068   -1.5918022 4.3767809e-08      3.66594    39.408123      2.24492 
       3   -1916.4426  -0.46102064   -1.5918026 2.5079615e-09      3.66594    39.408123      2.24492 
       4   -1916.4426  -0.46102064   -1.5918027 -1.1869445e-14      3.66594    39.408123      2.24492 
Loop time of 0.0593421 on 1 procs for 3 steps with 320 atoms

Minimization stats:
  Stopping criterion = force tolerance
  Energy initial, next-to-last, final = 
        -1916.36123524     -1916.44254666     -1916.44255384
  Force two-norm initial, final = 5.22815 3.68336e-10
  Force max component initial, final = 0.352482 5.54621e-11
  Final line search alpha, max atom move = 0 0
  Iterations, force evaluations = 3 204

Pair  time (%) = 0.0466861 (78.6728)
Neigh time (%) = 0 (0)
Comm  time (%) = 0.00881255 (14.8504)
Outpt time (%) = 0.00020697 (0.348774)
Other time (%) = 0.00363647 (6.12798)

Nlocal:    320 ave 320 max 320 min
[...]
        change_box all ${direction} scale ${stretch} remap
        change_box all y scale ${stretch} remap
        change_box all y scale 1.047 remap
  orthogonal box = (-1.83297 -20.3554 -1.12246) to (1.83297 20.3554 1.12246)
        min_style ${style}
        min_style hftn
        minimize ${etol} ${ftol} ${maxiter} ${maxeval}
        minimize 1e-12 ${ftol} ${maxiter} ${maxeval}
        minimize 1e-12 1e-08 ${maxiter} ${maxeval}
        minimize 1e-12 1e-08 10000 ${maxeval}
        minimize 1e-12 1e-08 10000 20000
WARNING: Resetting reneighboring criteria during minimization (../min.cpp:168)
Memory usage per processor = 4.97174 Mbytes
Step PotEng Pxx Pyy Pxy Lx Ly Lz 
       0   -1882.3835   -1.4088316   -4.4542221 1.9915227e-15      3.66594     40.71071      2.24492 
       1   -1883.2185   -1.4649453   -4.3511191 -3.0576283e-15      3.66594     40.71071      2.24492 
       2   -1883.2252   -1.4640712   -4.3555927 1.9102464e-07      3.66594     40.71071      2.24492 
       3   -1883.2256   -1.4640935   -4.3555596 -7.491665e-08      3.66594     40.71071      2.24492 
       4   -1883.2256   -1.4640933   -4.3555608 9.9959991e-12      3.66594     40.71071      2.24492 
       5   -1883.2256   -1.4640933   -4.3555608 1.7440966e-15      3.66594     40.71071      2.24492 
Loop time of 0.0798971 on 1 procs for 4 steps with 320 atoms

Minimization stats:
  Stopping criterion = force tolerance
  Energy initial, next-to-last, final = 
         -1882.3835104     -1883.22564929     -1883.22564944
  Force two-norm initial, final = 15.9194 1.36052e-10
  Force max component initial, final = 1.07328 5.11863e-11
  Final line search alpha, max atom move = 0 0
  Iterations, force evaluations = 4 286

Pair  time (%) = 0.0626938 (78.4682)
Neigh time (%) = 0 (0)
Comm  time (%) = 0.00741982 (9.28672)
Outpt time (%) = 0.000396727 (0.496547)
Other time (%) = 0.00938672 (11.7485)

Nlocal:    320 ave 320 max 320 min
Histogram: 1 0 0 0 0 0 0 0 0 0
Nghost:    2289 ave 2289 max 2289 min
Histogram: 1 0 0 0 0 0 0 0 0 0
Neighs:    8320 ave 8320 max 8320 min
Histogram: 1 0 0 0 0 0 0 0 0 0

Total # of neighbors = 8320
Ave neighs/atom = 26
Neighbor list builds = 0
Dangerous builds = 0
        next i
jump SELF loop1
	read_dump orig.dump 0 x y z
  orthogonal box = (-1.83297 -19.4416 -1.12246) to (1.83297 19.4416 1.12246)
  320 atoms before read
  320 atoms in snapshot
  0 atoms purged
  320 atoms replaced
  0 atoms trimmed
  0 atoms added
  320 atoms after read
        variable stretch equal 1+$i*${strainstep}
        variable stretch equal 1+95*${strainstep}
        variable stretch equal 1+95*0.0005
        change_box all ${direction} scale ${stretch} remap
        change_box all y scale ${stretch} remap
        change_box all y scale 1.0475 remap
  orthogonal box = (-1.83297 -20.3651 -1.12246) to (1.83297 20.3651 1.12246)
        min_style ${style}
        min_style hftn
        minimize ${etol} ${ftol} ${maxiter} ${maxeval}
        minimize 1e-12 ${ftol} ${maxiter} ${maxeval}
        minimize 1e-12 1e-08 ${maxiter} ${maxeval}
        minimize 1e-12 1e-08 10000 ${maxeval}
        minimize 1e-12 1e-08 10000 20000
WARNING: Resetting reneighboring criteria during minimization (../min.cpp:168)
Memory usage per processor = 4.97174 Mbytes
Step PotEng Pxx Pyy Pxy Lx Ly Lz 
       0   -1881.6682   -1.4212955   -4.4855233 1.2156018e-15      3.66594    40.730152      2.24492 
       1   -1882.5189   -1.4783938   -4.3820606 -2.872703e-15      3.66594    40.730152      2.24492 
       2   -1882.5257   -1.4775908   -4.3862339 1.3175713e-07      3.66594    40.730152      2.24492 
       3   -1882.5264   -1.4776098   -4.3862281 3.1161846e-07      3.66594    40.730152      2.24492 
       4   -1882.5264   -1.4776098   -4.3862279 -9.9589148e-13      3.66594    40.730152      2.24492 
       5   -1882.5264   -1.4776098   -4.3862279 3.5466903e-14      3.66594    40.730152      2.24492 
Loop time of 0.076156 on 1 procs for 4 steps with 320 atoms

Minimization stats:
  Stopping criterion = force tolerance
  Energy initial, next-to-last, final = 
        -1881.66817302     -1882.52635983     -1882.52636038
  Force two-norm initial, final = 16.0554 3.88464e-10
  Force max component initial, final = 1.08246 2.29006e-10
  Final line search alpha, max atom move = 0 0
  Iterations, force evaluations = 4 282

Pair  time (%) = 0.061577 (80.8565)
Neigh time (%) = 0 (0)
Comm  time (%) = 0.00884261 (11.6112)
Outpt time (%) = 0.000416117 (0.546401)
Other time (%) = 0.0053202 (6.98593)

Nlocal:    320 ave 320 max 320 min
Histogram: 1 0 0 0 0 0 0 0 0 0
Nghost:    2289 ave 2289 max 2289 min
Histogram: 1 0 0 0 0 0 0 0 0 0
Neighs:    8320 ave 8320 max 8320 min
Histogram: 1 0 0 0 0 0 0 0 0 0

Total # of neighbors = 8320
Ave neighs/atom = 26
Neighbor list builds = 0
Dangerous builds = 0
        next i
jump SELF loop1
	read_dump orig.dump 0 x y z
  orthogonal box = (-1.83297 -19.4416 -1.12246) to (1.83297 19.4416 1.12246)
  320 atoms before read
  320 atoms in snapshot
  0 atoms purged
  320 atoms replaced
  0 atoms trimmed
  0 atoms added
  320 atoms after read
        variable stretch equal 1+$i*${strainstep}
        variable stretch equal 1+96*${strainstep}
        variable stretch equal 1+96*0.0005
        change_box all ${direction} scale ${stretch} remap
        change_box all y scale ${stretch} remap
        change_box all y scale 1.048 remap
  orthogonal box = (-1.83297 -20.3748 -1.12246) to (1.83297 20.3748 1.12246)
        min_style ${style}
        min_style hftn
        minimize ${etol} ${ftol} ${maxiter} ${maxeval}
        minimize 1e-12 ${ftol} ${maxiter} ${maxeval}
        minimize 1e-12 1e-08 ${maxiter} ${maxeval}
        minimize 1e-12 1e-08 10000 ${maxeval}
        minimize 1e-12 1e-08 10000 20000
WARNING: Resetting reneighboring criteria during minimization (../min.cpp:168)
Memory usage per processor = 4.97174 Mbytes
Step PotEng Pxx Pyy Pxy Lx Ly Lz 
       0   -1880.9483   -1.4337539   -4.5165383 8.5623985e-16      3.66594    40.749594      2.24492 
       1   -1881.8147   -1.4918444   -4.4126721 -3.0507417e-15      3.66594    40.749594      2.24492 
       2   -1881.8211   -1.4910529   -4.4165982 2.294762e-07      3.66594    40.749594      2.24492 
       3   -1881.8213   -1.4910602   -4.4165908 -1.1167067e-07      3.66594    40.749594      2.24492 
       4   -1881.8213   -1.4910602   -4.4165908 -1.1167067e-07      3.66594    40.749594      2.24492 
       5   -1881.8213   -1.4910602   -4.4165908 -1.1167067e-07      3.66594    40.749594      2.24492 
       6   -1881.8213   -1.4910602   -4.4165908 -1.1167067e-07      3.66594    40.749594      2.24492 
       7   -1881.8213   -1.4910602   -4.4165908 -1.1167067e-07      3.66594    40.749594      2.24492 
       8   -1881.8213   -1.4910602   -4.4165908 -1.1167067e-07      3.66594    40.749594      2.24492 
       9   -1881.8213   -1.4910602   -4.4165908 -1.1078301e-07      3.66594    40.749594      2.24492 
Loop time of 0.060034 on 1 procs for 8 steps with 320 atoms

Minimization stats:
  Stopping criterion = energy tolerance
  Energy initial, next-to-last, final = 
        -1880.94826475     -1881.82110742     -1881.82127228
  Force two-norm initial, final = 16.1916 0.00207275
  Force max component initial, final = 1.09164 0.000327843
  Final line search alpha, max atom move = 0 0
  Iterations, force evaluations = 8 219

Pair  time (%) = 0.0492818 (82.0898)
Neigh time (%) = 0 (0)
Comm  time (%) = 0.00240723 (4.00978)
Outpt time (%) = 0.00342702 (5.70847)
Other time (%) = 0.00491797 (8.19198)

Nlocal:    320 ave 320 max 320 min
Histogram: 1 0 0 0 0 0 0 0 0 0
Nghost:    2289 ave 2289 max 2289 min
Histogram: 1 0 0 0 0 0 0 0 0 0
Neighs:    8320 ave 8320 max 8320 min
Histogram: 1 0 0 0 0 0 0 0 0 0

Total # of neighbors = 8320
Ave neighs/atom = 26
Neighbor list builds = 0
Dangerous builds = 0
        next i
jump SELF loop1
	read_dump orig.dump 0 x y z
  orthogonal box = (-1.83297 -19.4416 -1.12246) to (1.83297 19.4416 1.12246)
  320 atoms before read
  320 atoms in snapshot
  0 atoms purged
  320 atoms replaced
  0 atoms trimmed
  0 atoms added
  320 atoms after read
        variable stretch equal 1+$i*${strainstep}
        variable stretch equal 1+97*${strainstep}
        variable stretch equal 1+97*0.0005
        change_box all ${direction} scale ${stretch} remap
        change_box all y scale ${stretch} remap
        change_box all y scale 1.0485 remap
  orthogonal box = (-1.83297 -20.3845 -1.12246) to (1.83297 20.3845 1.12246)
        min_style ${style}
        min_style hftn
        minimize ${etol} ${ftol} ${maxiter} ${maxeval}
        minimize 1e-12 ${ftol} ${maxiter} ${maxeval}
        minimize 1e-12 1e-08 ${maxiter} ${maxeval}
        minimize 1e-12 1e-08 10000 ${maxeval}
        minimize 1e-12 1e-08 10000 20000
WARNING: Resetting reneighboring criteria during minimization (../min.cpp:168)
Memory usage per processor = 4.97174 Mbytes
Step PotEng Pxx Pyy Pxy Lx Ly Lz 
       0   -1880.2231   -1.4461247   -4.5472898 1.5836844e-15      3.66594    40.769035      2.24492 
       1    -1881.105   -1.5054066   -4.4421822 -2.8632985e-15      3.66594    40.769035      2.24492 
       2   -1881.1117   -1.5044627    -4.446748 -2.4346988e-07      3.66594    40.769035      2.24492 
       3   -1881.1118   -1.5044769   -4.4467109 4.8287278e-07      3.66594    40.769035      2.24492 
       4   -1881.1118   -1.5044769   -4.4467109 4.8287278e-07      3.66594    40.769035      2.24492 
       5   -1881.1118   -1.5044769   -4.4467109 4.8287278e-07      3.66594    40.769035      2.24492 
       6   -1881.1118   -1.5044769   -4.4467109 4.8287278e-07      3.66594    40.769035      2.24492 
       7   -1881.1118   -1.5044769   -4.4467109 4.8287278e-07      3.66594    40.769035      2.24492 
       8   -1881.1118   -1.5044769   -4.4467109 4.7052204e-07      3.66594    40.769035      2.24492 
Loop time of 0.0584189 on 1 procs for 7 steps with 320 atoms

Minimization stats:
  Stopping criterion = energy tolerance
  Energy initial, next-to-last, final = 
        -1880.22314141     -1881.11172089     -1881.11183752
  Force two-norm initial, final = 16.326 0.00242959
  Force max component initial, final = 1.1007 0.000436285
  Final line search alpha, max atom move = 0 0
  Iterations, force evaluations = 7 214

Pair  time (%) = 0.0447391 (76.5832)
Neigh time (%) = 0 (0)
Comm  time (%) = 0.00621375 (10.6365)
Outpt time (%) = 0.00109329 (1.87147)
Other time (%) = 0.0063728 (10.9088)

Nlocal:    320 ave 320 max 320 min
Histogram: 1 0 0 0 0 0 0 0 0 0
Nghost:    2289 ave 2289 max 2289 min
Histogram: 1 0 0 0 0 0 0 0 0 0
Neighs:    8320 ave 8320 max 8320 min
Histogram: 1 0 0 0 0 0 0 0 0 0

Total # of neighbors = 8320
Ave neighs/atom = 26
Neighbor list builds = 0
Dangerous builds = 0
        next i
jump SELF loop1
	read_dump orig.dump 0 x y z
  orthogonal box = (-1.83297 -19.4416 -1.12246) to (1.83297 19.4416 1.12246)
  320 atoms before read
  320 atoms in snapshot
  0 atoms purged
  320 atoms replaced
  0 atoms trimmed
  0 atoms added
  320 atoms after read
        variable stretch equal 1+$i*${strainstep}
        variable stretch equal 1+98*${strainstep}
        variable stretch equal 1+98*0.0005
        change_box all ${direction} scale ${stretch} remap
        change_box all y scale ${stretch} remap
        change_box all y scale 1.049 remap
  orthogonal box = (-1.83297 -20.3942 -1.12246) to (1.83297 20.3942 1.12246)
        min_style ${style}
        min_style hftn
        minimize ${etol} ${ftol} ${maxiter} ${maxeval}
        minimize 1e-12 ${ftol} ${maxiter} ${maxeval}
        minimize 1e-12 1e-08 ${maxiter} ${maxeval}
        minimize 1e-12 1e-08 10000 ${maxeval}
        minimize 1e-12 1e-08 10000 20000
WARNING: Resetting reneighboring criteria during minimization (../min.cpp:168)
Memory usage per processor = 4.97174 Mbytes
Step PotEng Pxx Pyy Pxy Lx Ly Lz 
       0   -1879.4938   -1.4584615   -4.5778075 1.1809164e-15      3.66594    40.788477      2.24492 
       1   -1880.3916   -1.5187552   -4.4723148 -3.0399412e-15      3.66594    40.788477      2.24492 
       2   -1880.3979   -1.5178633   -4.4765996 2.6390817e-09      3.66594    40.788477      2.24492 
       3   -1880.3984   -1.5178733   -4.4766036 -3.9196611e-07      3.66594    40.788477      2.24492 
       4   -1880.3984   -1.5178733   -4.4766036 -3.9196611e-07      3.66594    40.788477      2.24492 
       5   -1880.3984   -1.5178733   -4.4766036 -3.9196611e-07      3.66594    40.788477      2.24492 
       6   -1880.3984   -1.5178733   -4.4766036 -3.9196611e-07      3.66594    40.788477      2.24492 
       7   -1880.3984   -1.5178733   -4.4766036 -3.9196611e-07      3.66594    40.788477      2.24492 
       8   -1880.3984   -1.5178733   -4.4766036 -3.7887476e-07      3.66594    40.788477      2.24492 
Loop time of 0.061041 on 1 procs for 7 steps with 320 atoms

Minimization stats:
  Stopping criterion = energy tolerance
  Energy initial, next-to-last, final = 
        -1879.49381834     -1880.39794593     -1880.39840199
  Force two-norm initial, final = 16.4598 0.00231548
  Force max component initial, final = 1.10972 0.00028167
  Final line search alpha, max atom move = 0 0
  Iterations, force evaluations = 7 218

Pair  time (%) = 0.0472505 (77.4078)
Neigh time (%) = 0 (0)
Comm  time (%) = 0.00707495 (11.5905)
Outpt time (%) = 0.00305669 (5.00759)
Other time (%) = 0.00365886 (5.9941)

Nlocal:    320 ave 320 max 320 min
Histogram: 1 0 0 0 0 0 0 0 0 0
Nghost:    2289 ave 2289 max 2289 min
Histogram: 1 0 0 0 0 0 0 0 0 0
Neighs:    8320 ave 8320 max 8320 min
Histogram: 1 0 0 0 0 0 0 0 0 0

Total # of neighbors = 8320
Ave neighs/atom = 26
Neighbor list builds = 0
Dangerous builds = 0
        next i
jump SELF loop1
	read_dump orig.dump 0 x y z
  orthogonal box = (-1.83297 -19.4416 -1.12246) to (1.83297 19.4416 1.12246)
  320 atoms before read
  320 atoms in snapshot
  0 atoms purged
  320 atoms replaced
  0 atoms trimmed
  0 atoms added
  320 atoms after read
        variable stretch equal 1+$i*${strainstep}
        variable stretch equal 1+99*${strainstep}
        variable stretch equal 1+99*0.0005
        change_box all ${direction} scale ${stretch} remap
        change_box all y scale ${stretch} remap
        change_box all y scale 1.0495 remap
  orthogonal box = (-1.83297 -20.404 -1.12246) to (1.83297 20.404 1.12246)
        min_style ${style}
        min_style hftn
        minimize ${etol} ${ftol} ${maxiter} ${maxeval}
        minimize 1e-12 ${ftol} ${maxiter} ${maxeval}
        minimize 1e-12 1e-08 ${maxiter} ${maxeval}
        minimize 1e-12 1e-08 10000 ${maxeval}
        minimize 1e-12 1e-08 10000 20000
WARNING: Resetting reneighboring criteria during minimization (../min.cpp:168)
Memory usage per processor = 4.97174 Mbytes
Step PotEng Pxx Pyy Pxy Lx Ly Lz 
       0   -1878.7598   -1.4707928   -4.6080222 1.1289528e-15      3.66594    40.807918      2.24492 
       1   -1879.6736   -1.5320867   -4.5021937 -3.1203665e-15      3.66594    40.807918      2.24492 
       2   -1879.6798   -1.5312486   -4.5061955 2.1611253e-07      3.66594    40.807918      2.24492 
       3   -1879.6803   -1.5312586   -4.5062066 1.6337621e-07      3.66594    40.807918      2.24492 
       4   -1879.6803   -1.5312586   -4.5062069 2.314002e-10      3.66594    40.807918      2.24492 
       5   -1879.6803   -1.5312586   -4.5062069 2.314002e-10      3.66594    40.807918      2.24492 
       6   -1879.6803   -1.5312586   -4.5062069 2.314002e-10      3.66594    40.807918      2.24492 
       7   -1879.6803   -1.5312586   -4.5062069 2.314002e-10      3.66594    40.807918      2.24492 
       8   -1879.6803   -1.5312586   -4.5062069 2.314002e-10      3.66594    40.807918      2.24492 
       9   -1879.6803   -1.5312586   -4.5062069 2.314002e-10      3.66594    40.807918      2.24492 
      10   -1879.6803   -1.5312586   -4.5062069 2.314002e-10      3.66594    40.807918      2.24492 
      11   -1879.6803   -1.5312586   -4.5062069 2.314002e-10      3.66594    40.807918      2.24492 
      12   -1879.6803   -1.5312586   -4.5062069 2.314002e-10      3.66594    40.807918      2.24492 
      13   -1879.6803   -1.5312586   -4.5062069 2.314002e-10      3.66594    40.807918      2.24492 
      14   -1879.6803   -1.5312586   -4.5062069 2.314002e-10      3.66594    40.807918      2.24492 
      15   -1879.6803   -1.5312586   -4.5062069 2.314002e-10      3.66594    40.807918      2.24492 
Loop time of 0.105785 on 1 procs for 14 steps with 320 atoms

Minimization stats:
  Stopping criterion = trust region too small
  Energy initial, next-to-last, final = 
        -1878.75977989     -1879.68032175     -1879.68032321
  Force two-norm initial, final = 16.5938 1.22828e-06
  Force max component initial, final = 1.11875 2.19595e-07
  Final line search alpha, max atom move = 0 0
  Iterations, force evaluations = 14 384

Pair  time (%) = 0.0911233 (86.1401)
Neigh time (%) = 0 (0)
Comm  time (%) = 0.00532668 (5.03539)
Outpt time (%) = 0.000749692 (0.708694)
Other time (%) = 0.00858531 (8.11581)

Nlocal:    320 ave 320 max 320 min
Histogram: 1 0 0 0 0 0 0 0 0 0
Nghost:    2289 ave 2289 max 2289 min
Histogram: 1 0 0 0 0 0 0 0 0 0
Neighs:    8320 ave 8320 max 8320 min
Histogram: 1 0 0 0 0 0 0 0 0 0

Total # of neighbors = 8320
Ave neighs/atom = 26
Neighbor list builds = 0
Dangerous builds = 0
        next i
jump SELF loop1
	read_dump orig.dump 0 x y z
  orthogonal box = (-1.83297 -19.4416 -1.12246) to (1.83297 19.4416 1.12246)
  320 atoms before read
  320 atoms in snapshot
  0 atoms purged
  320 atoms replaced
  0 atoms trimmed
  0 atoms added
  320 atoms after read
        variable stretch equal 1+$i*${strainstep}
        variable stretch equal 1+100*${strainstep}
        variable stretch equal 1+100*0.0005
        change_box all ${direction} scale ${stretch} remap
        change_box all y scale ${stretch} remap
        change_box all y scale 1.05 remap
  orthogonal box = (-1.83297 -20.4137 -1.12246) to (1.83297 20.4137 1.12246)
        min_style ${style}
        min_style hftn
        minimize ${etol} ${ftol} ${maxiter} ${maxeval}
        minimize 1e-12 ${ftol} ${maxiter} ${maxeval}
        minimize 1e-12 1e-08 ${maxiter} ${maxeval}
        minimize 1e-12 1e-08 10000 ${maxeval}
        minimize 1e-12 1e-08 10000 20000
WARNING: Resetting reneighboring criteria during minimization (../min.cpp:168)
Memory usage per processor = 4.97174 Mbytes
Step PotEng Pxx Pyy Pxy Lx Ly Lz 
       0     -1878.02   -1.4830379   -4.6379296 1.3138939e-15      3.66594     40.82736      2.24492 
       1    -1878.949   -1.5456651   -4.5302976 -2.9362124e-15      3.66594     40.82736      2.24492 
       2   -1878.9569   -1.5445793   -4.5355491 2.9032702e-07      3.66594     40.82736      2.24492 
       3   -1878.9571   -1.5445942   -4.5355198 2.2643093e-07      3.66594     40.82736      2.24492 
       4   -1878.9571   -1.5445939   -4.5355212 -4.7120527e-11      3.66594     40.82736      2.24492 
       5   -1878.9571   -1.5445939   -4.5355212 3.0093419e-14      3.66594     40.82736      2.24492 
Loop time of 0.0773649 on 1 procs for 4 steps with 320 atoms

Minimization stats:
  Stopping criterion = force tolerance
  Energy initial, next-to-last, final = 
        -1878.02004681     -1878.95712727     -1878.95712739
  Force two-norm initial, final = 16.726 5.78569e-10
  Force max component initial, final = 1.12767 1.83711e-10
  Final line search alpha, max atom move = 0 0
  Iterations, force evaluations = 4 282

Pair  time (%) = 0.065534 (84.7076)
Neigh time (%) = 0 (0)
Comm  time (%) = 0.00577829 (7.46887)
Outpt time (%) = 0.000271053 (0.350356)
Other time (%) = 0.00578162 (7.47318)

Nlocal:    320 ave 320 max 320 min
Histogram: 1 0 0 0 0 0 0 0 0 0
Nghost:    2289 ave 2289 max 2289 min
Histogram: 1 0 0 0 0 0 0 0 0 0
Neighs:    8320 ave 8320 max 8320 min
Histogram: 1 0 0 0 0 0 0 0 0 0

Total # of neighbors = 8320
Ave neighs/atom = 26
Neighbor list builds = 0
Dangerous builds = 0
        next i
jump SELF loop1
