LAMMPS (28 Jun 2014)
# attempt at getting tensile strain-stress curve for infinite slab

#file prefix
variable prefix string tension_V_inter1
variable dumpfile string ${prefix}.*.dump
variable dumpfile string tension_V_inter1.*.dump
variable restartfile string ${prefix}.*.equil
variable restartfile string tension_V_inter1.*.equil

#Mass (g/mol)
variable m equal 1

# lattice constant (in Angstroms) and orientation of axes (given by lattice vectors)
variable rho equal 0.9165
variable x1 equal 1
variable x2 equal 0
variable x3 equal 0
variable y1 equal 0
variable y2 equal 1
variable y3 equal 0
# length of lattice in different directions (using orientation of lattice vectors)
variable ax equal sqrt(${x1}*${x1}+${x2}*${x2}+${x3}*${x3})
variable ax equal sqrt(1*${x1}+${x2}*${x2}+${x3}*${x3})
variable ax equal sqrt(1*1+${x2}*${x2}+${x3}*${x3})
variable ax equal sqrt(1*1+0*${x2}+${x3}*${x3})
variable ax equal sqrt(1*1+0*0+${x3}*${x3})
variable ax equal sqrt(1*1+0*0+0*${x3})
variable ax equal sqrt(1*1+0*0+0*0)
variable ay equal sqrt(${y1}*${y1}+${y2}*${y2}+${y3}*${y3})
variable ay equal sqrt(0*${y1}+${y2}*${y2}+${y3}*${y3})
variable ay equal sqrt(0*0+${y2}*${y2}+${y3}*${y3})
variable ay equal sqrt(0*0+1*${y2}+${y3}*${y3})
variable ay equal sqrt(0*0+1*1+${y3}*${y3})
variable ay equal sqrt(0*0+1*1+0*${y3})
variable ay equal sqrt(0*0+1*1+0*0)
variable az equal 1

# size of box in lattice units
variable lxpos equal 3
variable lxneg equal 0
variable lypos equal 3
variable lyneg equal 0
variable lzpos equal 0.25
variable lzneg equal -0.25

# Define minimization parameters and damping
variable etol equal 1.0e-12
variable ftol equal 1.0e-8
variable maxiter equal 10000
variable maxeval equal 20000
variable style string hftn

# boundary conditions
dimension	2
boundary	p p p
atom_style	atomic

# create geometry
units		lj
lattice         hex ${rho}
lattice         hex 0.9165
Lattice spacing in x,y,z = 1.12245 1.94415 1.12245
region		myregion block ${lxneg} ${lxpos} ${lyneg} ${lypos} ${lzneg} ${lzpos} units lattice
region		myregion block 0 ${lxpos} ${lyneg} ${lypos} ${lzneg} ${lzpos} units lattice
region		myregion block 0 3 ${lyneg} ${lypos} ${lzneg} ${lzpos} units lattice
region		myregion block 0 3 0 ${lypos} ${lzneg} ${lzpos} units lattice
region		myregion block 0 3 0 3 ${lzneg} ${lzpos} units lattice
region		myregion block 0 3 0 3 -0.25 ${lzpos} units lattice
region		myregion block 0 3 0 3 -0.25 0.25 units lattice
create_box	1 myregion
Created orthogonal box = (0 0 -0.280613) to (3.36736 5.83244 0.280613)
  1 by 1 by 1 MPI processor grid
create_atoms	1 box
Created 18 atoms

# define masses
mass * $m
mass * 1

# my fake/morse potential
pair_style      table linear 3001
pair_coeff      * * vpotential_inter1 dummy
neighbor	0.3 bin
neigh_modify	delay 5

# Setup output
thermo 1
thermo_style custom step pe pxx pyy pxy lx ly lz
thermo_modify norm no

# Compute initial state by relaxing box
min_style ${style}
min_style hftn
minimize ${etol} ${ftol} ${maxiter} ${maxeval}
minimize 1e-12 ${ftol} ${maxiter} ${maxeval}
minimize 1e-12 1e-08 ${maxiter} ${maxeval}
minimize 1e-12 1e-08 10000 ${maxeval}
minimize 1e-12 1e-08 10000 20000
WARNING: Resetting reneighboring criteria during minimization (../min.cpp:168)
Memory usage per processor = 4.85099 Mbytes
Step PotEng Pxx Pyy Pxy Lx Ly Lz 
       0   -53.999984 0.00034692081 0.00034692081 -1.1661452e-20    3.3673612    5.8324407   0.56122687 
Loop time of 1.20901e-05 on 1 procs for 0 steps with 18 atoms

Minimization stats:
  Stopping criterion = force tolerance
  Energy initial, next-to-last, final = 
         -53.999983866      -53.999983866      -53.999983866
  Force two-norm initial, final = 1.11801e-13 1.11801e-13
  Force max component initial, final = 5.05401e-14 5.05401e-14
  Final line search alpha, max atom move = 0 0
  Iterations, force evaluations = 0 0

Pair  time (%) = 5.03694e-06 (41.6618)
Neigh time (%) = 0 (0)
Comm  time (%) = 2.02085e-06 (16.715)
Outpt time (%) = 0 (0)
Other time (%) = 5.03229e-06 (41.6233)

Nlocal:    18 ave 18 max 18 min
Histogram: 1 0 0 0 0 0 0 0 0 0
Nghost:    65 ave 65 max 65 min
Histogram: 1 0 0 0 0 0 0 0 0 0
Neighs:    162 ave 162 max 162 min
Histogram: 1 0 0 0 0 0 0 0 0 0

Total # of neighbors = 162
Ave neighs/atom = 9
Neighbor list builds = 0
Dangerous builds = 0
reset_timestep 0
write_dump all atom orig.dump

# Energy curve will have nstep steps
variable strainmax equal 0.05
variable strainstep equal 0.0005
variable nsteps equal round(${strainmax}/${strainstep})
variable nsteps equal round(0.05/${strainstep})
variable nsteps equal round(0.05/0.0005)
variable direction string y

variable i loop ${nsteps}
variable i loop 100
label loop1
	read_dump orig.dump 0 x y
  orthogonal box = (0 0 -0.280613) to (3.36736 5.83244 0.280613)
  18 atoms before read
  18 atoms in snapshot
  0 atoms purged
  18 atoms replaced
  0 atoms trimmed
  0 atoms added
  18 atoms after read
        variable stretch equal 1+$i*${strainstep}
        variable stretch equal 1+1*${strainstep}
        variable stretch equal 1+1*0.0005
        change_box all ${direction} scale ${stretch} remap
        change_box all y scale ${stretch} remap
        change_box all y scale 1.0005 remap
  orthogonal box = (0 -0.00145811 -0.280613) to (3.36736 5.8339 0.280613)
        min_style ${style}
        min_style hftn
        minimize ${etol} ${ftol} ${maxiter} ${maxeval}
        minimize 1e-12 ${ftol} ${maxiter} ${maxeval}
        minimize 1e-12 1e-08 ${maxiter} ${maxeval}
        minimize 1e-12 1e-08 10000 ${maxeval}
        minimize 1e-12 1e-08 10000 20000
WARNING: Resetting reneighboring criteria during minimization (../min.cpp:168)
Memory usage per processor = 4.85099 Mbytes
Step PotEng Pxx Pyy Pxy Lx Ly Lz 
       0   -53.999884 -0.0049247753 -0.015513808 -9.3225172e-19      3.36736    5.8353562   0.56122687 
       1   -53.999884 -0.0049247751 -0.015513808 -1.7952196e-16      3.36736    5.8353562   0.56122687 
Loop time of 0.000101053 on 1 procs for 0 steps with 18 atoms

Minimization stats:
  Stopping criterion = force tolerance
  Energy initial, next-to-last, final = 
        -53.9998837515     -53.9998837515     -53.9998837515
  Force two-norm initial, final = 0.000856117 2.04677e-09
  Force max component initial, final = 0.000213831 6.26133e-10
  Final line search alpha, max atom move = 0 0
  Iterations, force evaluations = 0 7

Pair  time (%) = 3.69948e-05 (36.6092)
Neigh time (%) = 0 (0)
Comm  time (%) = 6.23369e-06 (6.16871)
Outpt time (%) = 0 (0)
Other time (%) = 5.78249e-05 (57.2221)

Nlocal:    18 ave 18 max 18 min
Histogram: 1 0 0 0 0 0 0 0 0 0
Nghost:    65 ave 65 max 65 min
Histogram: 1 0 0 0 0 0 0 0 0 0
Neighs:    162 ave 162 max 162 min
Histogram: 1 0 0 0 0 0 0 0 0 0

Total # of neighbors = 162
Ave neighs/atom = 9
Neighbor list builds = 0
Dangerous builds = 0
        next i
jump SELF loop1
	read_dump orig.dump 0 x y
  orthogonal box = (0 0 -0.280613) to (3.36736 5.83244 0.280613)
  18 atoms before read
  18 atoms in snapshot
  0 atoms purged
  18 atoms replaced
  0 atoms trimmed
  0 atoms added
  18 atoms after read
        variable stretch equal 1+$i*${strainstep}
        variable stretch equal 1+2*${strainstep}
        variable stretch equal 1+2*0.0005
        change_box all ${direction} scale ${stretch} remap
        change_box all y scale ${stretch} remap
        change_box all y scale 1.001 remap
  orthogonal box = (0 -0.00291622 -0.280613) to (3.36736 5.83536 0.280613)
        min_style ${style}
        min_style hftn
        minimize ${etol} ${ftol} ${maxiter} ${maxeval}
        minimize 1e-12 ${ftol} ${maxiter} ${maxeval}
        minimize 1e-12 1e-08 ${maxiter} ${maxeval}
        minimize 1e-12 1e-08 10000 ${maxeval}
        minimize 1e-12 1e-08 10000 20000
WARNING: Resetting reneighboring criteria during minimization (../min.cpp:168)
Memory usage per processor = 4.85099 Mbytes
Step PotEng Pxx Pyy Pxy Lx Ly Lz 
       0   -53.999654 -0.010182196 -0.031332786 -2.366577e-16      3.36736    5.8382724   0.56122687 
       1   -53.999654 -0.010182196 -0.031332785 -1.7622968e-16      3.36736    5.8382724   0.56122687 
Loop time of 9.49412e-05 on 1 procs for 0 steps with 18 atoms

Minimization stats:
  Stopping criterion = force tolerance
  Energy initial, next-to-last, final = 
        -53.9996543937     -53.9996543937     -53.9996543937
  Force two-norm initial, final = 0.000851934 2.03422e-09
  Force max component initial, final = 0.000212585 6.21939e-10
  Final line search alpha, max atom move = 0 0
  Iterations, force evaluations = 0 7

Pair  time (%) = 3.81843e-05 (40.2189)
Neigh time (%) = 0 (0)
Comm  time (%) = 9.37446e-06 (9.87396)
Outpt time (%) = 0 (0)
Other time (%) = 4.73824e-05 (49.9071)

Nlocal:    18 ave 18 max 18 min
Histogram: 1 0 0 0 0 0 0 0 0 0
Nghost:    65 ave 65 max 65 min
Histogram: 1 0 0 0 0 0 0 0 0 0
Neighs:    162 ave 162 max 162 min
Histogram: 1 0 0 0 0 0 0 0 0 0

Total # of neighbors = 162
Ave neighs/atom = 9
Neighbor list builds = 0
Dangerous builds = 0
        next i
jump SELF loop1
	read_dump orig.dump 0 x y
  orthogonal box = (0 0 -0.280613) to (3.36736 5.83244 0.280613)
  18 atoms before read
  18 atoms in snapshot
  0 atoms purged
  18 atoms replaced
  0 atoms trimmed
  0 atoms added
  18 atoms after read
        variable stretch equal 1+$i*${strainstep}
        variable stretch equal 1+3*${strainstep}
        variable stretch equal 1+3*0.0005
        change_box all ${direction} scale ${stretch} remap
        change_box all y scale ${stretch} remap
        change_box all y scale 1.0015 remap
  orthogonal box = (0 -0.00437433 -0.280613) to (3.36736 5.83681 0.280613)
        min_style ${style}
        min_style hftn
        minimize ${etol} ${ftol} ${maxiter} ${maxeval}
        minimize 1e-12 ${ftol} ${maxiter} ${maxeval}
        minimize 1e-12 1e-08 ${maxiter} ${maxeval}
        minimize 1e-12 1e-08 10000 ${maxeval}
        minimize 1e-12 1e-08 10000 20000
WARNING: Resetting reneighboring criteria during minimization (../min.cpp:168)
Memory usage per processor = 4.85099 Mbytes
Step PotEng Pxx Pyy Pxy Lx Ly Lz 
       0   -53.999296 -0.015412661 -0.047102243 -1.7663917e-16      3.36736    5.8411887   0.56122687 
       1   -53.999296  -0.01541266 -0.047102243 -2.3632776e-16      3.36736    5.8411887   0.56122687 
Loop time of 6.29579e-05 on 1 procs for 0 steps with 18 atoms

Minimization stats:
  Stopping criterion = force tolerance
  Energy initial, next-to-last, final = 
        -53.9992956634     -53.9992956634     -53.9992956634
  Force two-norm initial, final = 0.000847795 2.02189e-09
  Force max component initial, final = 0.000211352 6.17863e-10
  Final line search alpha, max atom move = 0 0
  Iterations, force evaluations = 0 7

Pair  time (%) = 3.52712e-05 (56.0234)
Neigh time (%) = 0 (0)
Comm  time (%) = 4.93217e-06 (7.83408)
Outpt time (%) = 0 (0)
Other time (%) = 2.27545e-05 (36.1425)

Nlocal:    18 ave 18 max 18 min
Histogram: 1 0 0 0 0 0 0 0 0 0
Nghost:    65 ave 65 max 65 min
Histogram: 1 0 0 0 0 0 0 0 0 0
Neighs:    162 ave 162 max 162 min
Histogram: 1 0 0 0 0 0 0 0 0 0

Total # of neighbors = 162
Ave neighs/atom = 9
Neighbor list builds = 0
Dangerous builds = 0
        next i
jump SELF loop1
	read_dump orig.dump 0 x y
  orthogonal box = (0 0 -0.280613) to (3.36736 5.83244 0.280613)
  18 atoms before read
  18 atoms in snapshot
  0 atoms purged
  18 atoms replaced
  0 atoms trimmed
  0 atoms added
  18 atoms after read
        variable stretch equal 1+$i*${strainstep}
        variable stretch equal 1+4*${strainstep}
        variable stretch equal 1+4*0.0005
        change_box all ${direction} scale ${stretch} remap
        change_box all y scale ${stretch} remap
        change_box all y scale 1.002 remap
  orthogonal box = (0 -0.00583244 -0.280613) to (3.36736 5.83827 0.280613)
        min_style ${style}
        min_style hftn
        minimize ${etol} ${ftol} ${maxiter} ${maxeval}
        minimize 1e-12 ${ftol} ${maxiter} ${maxeval}
        minimize 1e-12 1e-08 ${maxiter} ${maxeval}
        minimize 1e-12 1e-08 10000 ${maxeval}
        minimize 1e-12 1e-08 10000 20000
WARNING: Resetting reneighboring criteria during minimization (../min.cpp:168)
Memory usage per processor = 4.85099 Mbytes
Step PotEng Pxx Pyy Pxy Lx Ly Lz 
       0   -53.998736 -0.020602799 -0.062781691 -4.3367235e-18      3.36736    5.8441049   0.56122687 
       1   -53.998736 -0.020602799 -0.062781691 -1.8364166e-16      3.36736    5.8441049   0.56122687 
Loop time of 6.20811e-05 on 1 procs for 0 steps with 18 atoms

Minimization stats:
  Stopping criterion = force tolerance
  Energy initial, next-to-last, final = 
        -53.9987360433     -53.9987360433     -53.9987360433
  Force two-norm initial, final = 0.000849163 2.02468e-09
  Force max component initial, final = 0.000211773 6.18817e-10
  Final line search alpha, max atom move = 0 0
  Iterations, force evaluations = 0 7

Pair  time (%) = 3.47412e-05 (55.961)
Neigh time (%) = 0 (0)
Comm  time (%) = 1.08258e-05 (17.4382)
Outpt time (%) = 0 (0)
Other time (%) = 1.65141e-05 (26.6008)

Nlocal:    18 ave 18 max 18 min
Histogram: 1 0 0 0 0 0 0 0 0 0
Nghost:    65 ave 65 max 65 min
Histogram: 1 0 0 0 0 0 0 0 0 0
Neighs:    162 ave 162 max 162 min
Histogram: 1 0 0 0 0 0 0 0 0 0

Total # of neighbors = 162
Ave neighs/atom = 9
Neighbor list builds = 0
Dangerous builds = 0
        next i
jump SELF loop1
	read_dump orig.dump 0 x y
  orthogonal box = (0 0 -0.280613) to (3.36736 5.83244 0.280613)
  18 atoms before read
  18 atoms in snapshot
  0 atoms purged
  18 atoms replaced
  0 atoms trimmed
  0 atoms added
  18 atoms after read
        variable stretch equal 1+$i*${strainstep}
        variable stretch equal 1+5*${strainstep}
        variable stretch equal 1+5*0.0005
        change_box all ${direction} scale ${stretch} remap
        change_box all y scale ${stretch} remap
        change_box all y scale 1.0025 remap
  orthogonal box = (0 -0.00729055 -0.280613) to (3.36736 5.83973 0.280613)
        min_style ${style}
        min_style hftn
        minimize ${etol} ${ftol} ${maxiter} ${maxeval}
        minimize 1e-12 ${ftol} ${maxiter} ${maxeval}
        minimize 1e-12 1e-08 ${maxiter} ${maxeval}
        minimize 1e-12 1e-08 10000 ${maxeval}
        minimize 1e-12 1e-08 10000 20000
WARNING: Resetting reneighboring criteria during minimization (../min.cpp:168)
Memory usage per processor = 4.85099 Mbytes
Step PotEng Pxx Pyy Pxy Lx Ly Lz 
       0   -53.998032 -0.025763191 -0.078402686 3.6986924e-18      3.36736    5.8470211   0.56122687 
       1   -53.998032 -0.025763191 -0.078402686 6.3715458e-20      3.36736    5.8470211   0.56122687 
Loop time of 6.30926e-05 on 1 procs for 0 steps with 18 atoms

Minimization stats:
  Stopping criterion = force tolerance
  Energy initial, next-to-last, final = 
        -53.9980321141     -53.9980321141     -53.9980321141
  Force two-norm initial, final = 0.000845024 2.01264e-09
  Force max component initial, final = 0.000210539 6.14789e-10
  Final line search alpha, max atom move = 0 0
  Iterations, force evaluations = 0 7

Pair  time (%) = 3.4919e-05 (55.3457)
Neigh time (%) = 0 (0)
Comm  time (%) = 6.70459e-06 (10.6266)
Outpt time (%) = 0 (0)
Other time (%) = 2.1469e-05 (34.0277)

Nlocal:    18 ave 18 max 18 min
Histogram: 1 0 0 0 0 0 0 0 0 0
Nghost:    65 ave 65 max 65 min
Histogram: 1 0 0 0 0 0 0 0 0 0
Neighs:    162 ave 162 max 162 min
Histogram: 1 0 0 0 0 0 0 0 0 0

Total # of neighbors = 162
Ave neighs/atom = 9
Neighbor list builds = 0
Dangerous builds = 0
        next i
jump SELF loop1
	read_dump orig.dump 0 x y
  orthogonal box = (0 0 -0.280613) to (3.36736 5.83244 0.280613)
  18 atoms before read
  18 atoms in snapshot
  0 atoms purged
  18 atoms replaced
  0 atoms trimmed
  0 atoms added
  18 atoms after read
        variable stretch equal 1+$i*${strainstep}
        variable stretch equal 1+6*${strainstep}
        variable stretch equal 1+6*0.0005
        change_box all ${direction} scale ${stretch} remap
        change_box all y scale ${stretch} remap
        change_box all y scale 1.003 remap
  orthogonal box = (0 -0.00874866 -0.280613) to (3.36736 5.84119 0.280613)
        min_style ${style}
        min_style hftn
        minimize ${etol} ${ftol} ${maxiter} ${maxeval}
        minimize 1e-12 ${ftol} ${maxiter} ${maxeval}
        minimize 1e-12 1e-08 ${maxiter} ${maxeval}
        minimize 1e-12 1e-08 10000 ${maxeval}
        minimize 1e-12 1e-08 10000 20000
WARNING: Resetting reneighboring criteria during minimization (../min.cpp:168)
Memory usage per processor = 4.85099 Mbytes
Step PotEng Pxx Pyy Pxy Lx Ly Lz 
       0     -53.9972 -0.030897012 -0.093974569 2.3572429e-16      3.36736    5.8499373   0.56122687 
       1     -53.9972 -0.030897012 -0.093974568 2.2564997e-16      3.36736    5.8499373   0.56122687 
Loop time of 6.3075e-05 on 1 procs for 0 steps with 18 atoms

Minimization stats:
  Stopping criterion = force tolerance
  Energy initial, next-to-last, final = 
        -53.9972003828     -53.9972003828     -53.9972003828
  Force two-norm initial, final = 0.00084092 2.00039e-09
  Force max component initial, final = 0.000209314 6.10794e-10
  Final line search alpha, max atom move = 0 0
  Iterations, force evaluations = 0 7

Pair  time (%) = 3.56853e-05 (56.5759)
Neigh time (%) = 0 (0)
Comm  time (%) = 2.61457e-06 (4.14518)
Outpt time (%) = 0 (0)
Other time (%) = 2.47752e-05 (39.2789)

Nlocal:    18 ave 18 max 18 min
Histogram: 1 0 0 0 0 0 0 0 0 0
Nghost:    65 ave 65 max 65 min
Histogram: 1 0 0 0 0 0 0 0 0 0
Neighs:    162 ave 162 max 162 min
Histogram: 1 0 0 0 0 0 0 0 0 0

Total # of neighbors = 162
Ave neighs/atom = 9
Neighbor list builds = 0
Dangerous builds = 0
        next i
jump SELF loop1
	read_dump orig.dump 0 x y
  orthogonal box = (0 0 -0.280613) to (3.36736 5.83244 0.280613)
  18 atoms before read
  18 atoms in snapshot
  0 atoms purged
  18 atoms replaced
  0 atoms trimmed
  0 atoms added
  18 atoms after read
        variable stretch equal 1+$i*${strainstep}
        variable stretch equal 1+7*${strainstep}
        variable stretch equal 1+7*0.0005
        change_box all ${direction} scale ${stretch} remap
        change_box all y scale ${stretch} remap
        change_box all y scale 1.0035 remap
  orthogonal box = (0 -0.0102068 -0.280613) to (3.36736 5.84265 0.280613)
        min_style ${style}
        min_style hftn
        minimize ${etol} ${ftol} ${maxiter} ${maxeval}
        minimize 1e-12 ${ftol} ${maxiter} ${maxeval}
        minimize 1e-12 1e-08 ${maxiter} ${maxeval}
        minimize 1e-12 1e-08 10000 ${maxeval}
        minimize 1e-12 1e-08 10000 20000
WARNING: Resetting reneighboring criteria during minimization (../min.cpp:168)
Memory usage per processor = 4.85099 Mbytes
Step PotEng Pxx Pyy Pxy Lx Ly Lz 
       0    -53.99621 -0.035998465  -0.10947961 5.8986283e-17      3.36736    5.8528535   0.56122687 
       1    -53.99621 -0.035998465  -0.10947961 1.6369111e-16      3.36736    5.8528535   0.56122687 
Loop time of 6.31125e-05 on 1 procs for 0 steps with 18 atoms

Minimization stats:
  Stopping criterion = force tolerance
  Energy initial, next-to-last, final = 
        -53.9962096735     -53.9962096735     -53.9962096735
  Force two-norm initial, final = 0.000842269 2.00325e-09
  Force max component initial, final = 0.000209731 6.11679e-10
  Final line search alpha, max atom move = 0 0
  Iterations, force evaluations = 0 7

Pair  time (%) = 3.11047e-05 (49.2845)
Neigh time (%) = 0 (0)
Comm  time (%) = 9.17562e-06 (14.5385)
Outpt time (%) = 0 (0)
Other time (%) = 2.28322e-05 (36.177)

Nlocal:    18 ave 18 max 18 min
Histogram: 1 0 0 0 0 0 0 0 0 0
Nghost:    65 ave 65 max 65 min
Histogram: 1 0 0 0 0 0 0 0 0 0
Neighs:    162 ave 162 max 162 min
Histogram: 1 0 0 0 0 0 0 0 0 0

Total # of neighbors = 162
Ave neighs/atom = 9
Neighbor list builds = 0
Dangerous builds = 0
        next i
jump SELF loop1
	read_dump orig.dump 0 x y
  orthogonal box = (0 0 -0.280613) to (3.36736 5.83244 0.280613)
  18 atoms before read
  18 atoms in snapshot
  0 atoms purged
  18 atoms replaced
  0 atoms trimmed
  0 atoms added
  18 atoms after read
        variable stretch equal 1+$i*${strainstep}
        variable stretch equal 1+8*${strainstep}
        variable stretch equal 1+8*0.0005
        change_box all ${direction} scale ${stretch} remap
        change_box all y scale ${stretch} remap
        change_box all y scale 1.004 remap
  orthogonal box = (0 -0.0116649 -0.280613) to (3.36736 5.8441 0.280613)
        min_style ${style}
        min_style hftn
        minimize ${etol} ${ftol} ${maxiter} ${maxeval}
        minimize 1e-12 ${ftol} ${maxiter} ${maxeval}
        minimize 1e-12 1e-08 ${maxiter} ${maxeval}
        minimize 1e-12 1e-08 10000 ${maxeval}
        minimize 1e-12 1e-08 10000 20000
WARNING: Resetting reneighboring criteria during minimization (../min.cpp:168)
Memory usage per processor = 4.85099 Mbytes
Step PotEng Pxx Pyy Pxy Lx Ly Lz 
       0   -53.995037 -0.041063234  -0.12490448 -1.1749809e-16      3.36736    5.8557698   0.56122687 
       1   -53.995037 -0.041063233  -0.12490448 -1.2500687e-17      3.36736    5.8557698   0.56122687 
Loop time of 6.20967e-05 on 1 procs for 0 steps with 18 atoms

Minimization stats:
  Stopping criterion = force tolerance
  Energy initial, next-to-last, final = 
        -53.9950368591     -53.9950368591     -53.9950368591
  Force two-norm initial, final = 0.000838185 1.9911e-09
  Force max component initial, final = 0.000208511 6.07723e-10
  Final line search alpha, max atom move = 0 0
  Iterations, force evaluations = 0 7

Pair  time (%) = 3.48663e-05 (56.1483)
Neigh time (%) = 0 (0)
Comm  time (%) = 1.08377e-05 (17.4529)
Outpt time (%) = 0 (0)
Other time (%) = 1.63928e-05 (26.3988)

Nlocal:    18 ave 18 max 18 min
Histogram: 1 0 0 0 0 0 0 0 0 0
Nghost:    65 ave 65 max 65 min
Histogram: 1 0 0 0 0 0 0 0 0 0
Neighs:    162 ave 162 max 162 min
Histogram: 1 0 0 0 0 0 0 0 0 0

Total # of neighbors = 162
Ave neighs/atom = 9
Neighbor list builds = 0
Dangerous builds = 0
        next i
jump SELF loop1
	read_dump orig.dump 0 x y
  orthogonal box = (0 0 -0.280613) to (3.36736 5.83244 0.280613)
  18 atoms before read
  18 atoms in snapshot
  0 atoms purged
  18 atoms replaced
  0 atoms trimmed
  0 atoms added
  18 atoms after read
        variable stretch equal 1+$i*${strainstep}
        variable stretch equal 1+9*${strainstep}
        variable stretch equal 1+9*0.0005
        change_box all ${direction} scale ${stretch} remap
        change_box all y scale ${stretch} remap
        change_box all y scale 1.0045 remap
  orthogonal box = (0 -0.013123 -0.280613) to (3.36736 5.84556 0.280613)
        min_style ${style}
        min_style hftn
        minimize ${etol} ${ftol} ${maxiter} ${maxeval}
        minimize 1e-12 ${ftol} ${maxiter} ${maxeval}
        minimize 1e-12 1e-08 ${maxiter} ${maxeval}
        minimize 1e-12 1e-08 10000 ${maxeval}
        minimize 1e-12 1e-08 10000 20000
WARNING: Resetting reneighboring criteria during minimization (../min.cpp:168)
Memory usage per processor = 4.85099 Mbytes
Step PotEng Pxx Pyy Pxy Lx Ly Lz 
       0   -53.993738 -0.046101772  -0.14028053 -1.7827382e-16      3.36736     5.858686   0.56122687 
       1   -53.993738 -0.046101772  -0.14028052 -6.057786e-17      3.36736     5.858686   0.56122687 
Loop time of 6.19421e-05 on 1 procs for 0 steps with 18 atoms

Minimization stats:
  Stopping criterion = force tolerance
  Energy initial, next-to-last, final = 
        -53.9937377172     -53.9937377172     -53.9937377172
  Force two-norm initial, final = 0.000834106 1.97879e-09
  Force max component initial, final = 0.000207292 6.03627e-10
  Final line search alpha, max atom move = 0 0
  Iterations, force evaluations = 0 7

Pair  time (%) = 3.81985e-05 (61.6681)
Neigh time (%) = 0 (0)
Comm  time (%) = 4.30329e-06 (6.94728)
Outpt time (%) = 0 (0)
Other time (%) = 1.94403e-05 (31.3846)

Nlocal:    18 ave 18 max 18 min
Histogram: 1 0 0 0 0 0 0 0 0 0
Nghost:    65 ave 65 max 65 min
Histogram: 1 0 0 0 0 0 0 0 0 0
Neighs:    162 ave 162 max 162 min
Histogram: 1 0 0 0 0 0 0 0 0 0

Total # of neighbors = 162
Ave neighs/atom = 9
Neighbor list builds = 0
Dangerous builds = 0
        next i
jump SELF loop1
	read_dump orig.dump 0 x y
  orthogonal box = (0 0 -0.280613) to (3.36736 5.83244 0.280613)
  18 atoms before read
  18 atoms in snapshot
  0 atoms purged
  18 atoms replaced
  0 atoms trimmed
  0 atoms added
  18 atoms after read
        variable stretch equal 1+$i*${strainstep}
        variable stretch equal 1+10*${strainstep}
        variable stretch equal 1+10*0.0005
        change_box all ${direction} scale ${stretch} remap
        change_box all y scale ${stretch} remap
        change_box all y scale 1.005 remap
  orthogonal box = (0 -0.0145811 -0.280613) to (3.36736 5.84702 0.280613)
        min_style ${style}
        min_style hftn
        minimize ${etol} ${ftol} ${maxiter} ${maxeval}
        minimize 1e-12 ${ftol} ${maxiter} ${maxeval}
        minimize 1e-12 1e-08 ${maxiter} ${maxeval}
        minimize 1e-12 1e-08 10000 ${maxeval}
        minimize 1e-12 1e-08 10000 20000
WARNING: Resetting reneighboring criteria during minimization (../min.cpp:168)
Memory usage per processor = 4.85099 Mbytes
Step PotEng Pxx Pyy Pxy Lx Ly Lz 
       0   -53.992312 -0.051114095  -0.15560757 -5.4593209e-18      3.36736    5.8616022   0.56122687 
       1   -53.992312 -0.051114095  -0.15560757 7.1868923e-17      3.36736    5.8616022   0.56122687 
Loop time of 6.494e-05 on 1 procs for 0 steps with 18 atoms

Minimization stats:
  Stopping criterion = force tolerance
  Energy initial, next-to-last, final = 
        -53.9923122513     -53.9923122513     -53.9923122513
  Force two-norm initial, final = 0.000830064 1.96707e-09
  Force max component initial, final = 0.000206083 5.99796e-10
  Final line search alpha, max atom move = 0 0
  Iterations, force evaluations = 0 7

Pair  time (%) = 3.78303e-05 (58.2543)
Neigh time (%) = 0 (0)
Comm  time (%) = 6.38131e-06 (9.82647)
Outpt time (%) = 0 (0)
Other time (%) = 2.07283e-05 (31.9192)

Nlocal:    18 ave 18 max 18 min
Histogram: 1 0 0 0 0 0 0 0 0 0
Nghost:    65 ave 65 max 65 min
Histogram: 1 0 0 0 0 0 0 0 0 0
Neighs:    162 ave 162 max 162 min
Histogram: 1 0 0 0 0 0 0 0 0 0

Total # of neighbors = 162
Ave neighs/atom = 9
Neighbor list builds = 0
Dangerous builds = 0
        next i
jump SELF loop1
	read_dump orig.dump 0 x y
  orthogonal box = (0 0 -0.280613) to (3.36736 5.83244 0.280613)
  18 atoms before read
  18 atoms in snapshot
  0 atoms purged
  18 atoms replaced
  0 atoms trimmed
  0 atoms added
  18 atoms after read
        variable stretch equal 1+$i*${strainstep}
        variable stretch equal 1+11*${strainstep}
        variable stretch equal 1+11*0.0005
        change_box all ${direction} scale ${stretch} remap
        change_box all y scale ${stretch} remap
        change_box all y scale 1.0055 remap
  orthogonal box = (0 -0.0160392 -0.280613) to (3.36736 5.84848 0.280613)
        min_style ${style}
        min_style hftn
        minimize ${etol} ${ftol} ${maxiter} ${maxeval}
        minimize 1e-12 ${ftol} ${maxiter} ${maxeval}
        minimize 1e-12 1e-08 ${maxiter} ${maxeval}
        minimize 1e-12 1e-08 10000 ${maxeval}
        minimize 1e-12 1e-08 10000 20000
WARNING: Resetting reneighboring criteria during minimization (../min.cpp:168)
Memory usage per processor = 4.85099 Mbytes
Step PotEng Pxx Pyy Pxy Lx Ly Lz 
       0   -53.990685 -0.056086167  -0.17084284 1.6658744e-16      3.36736    5.8645184   0.56122687 
       1   -53.990685 -0.056086167  -0.17084284 2.4480044e-16      3.36736    5.8645184   0.56122687 
Loop time of 6.29763e-05 on 1 procs for 0 steps with 18 atoms

Minimization stats:
  Stopping criterion = force tolerance
  Energy initial, next-to-last, final = 
        -53.9906854536     -53.9906854536     -53.9906854536
  Force two-norm initial, final = 0.000831386 1.96964e-09
  Force max component initial, final = 0.000206492 6.00558e-10
  Final line search alpha, max atom move = 0 0
  Iterations, force evaluations = 0 7

Pair  time (%) = 3.71868e-05 (59.0489)
Neigh time (%) = 0 (0)
Comm  time (%) = 7.61775e-06 (12.0962)
Outpt time (%) = 0 (0)
Other time (%) = 1.81717e-05 (28.8549)

Nlocal:    18 ave 18 max 18 min
Histogram: 1 0 0 0 0 0 0 0 0 0
Nghost:    65 ave 65 max 65 min
Histogram: 1 0 0 0 0 0 0 0 0 0
Neighs:    162 ave 162 max 162 min
Histogram: 1 0 0 0 0 0 0 0 0 0

Total # of neighbors = 162
Ave neighs/atom = 9
Neighbor list builds = 0
Dangerous builds = 0
        next i
jump SELF loop1
	read_dump orig.dump 0 x y
  orthogonal box = (0 0 -0.280613) to (3.36736 5.83244 0.280613)
  18 atoms before read
  18 atoms in snapshot
  0 atoms purged
  18 atoms replaced
  0 atoms trimmed
  0 atoms added
  18 atoms after read
        variable stretch equal 1+$i*${strainstep}
        variable stretch equal 1+12*${strainstep}
        variable stretch equal 1+12*0.0005
        change_box all ${direction} scale ${stretch} remap
        change_box all y scale ${stretch} remap
        change_box all y scale 1.006 remap
  orthogonal box = (0 -0.0174973 -0.280613) to (3.36736 5.84994 0.280613)
        min_style ${style}
        min_style hftn
        minimize ${etol} ${ftol} ${maxiter} ${maxeval}
        minimize 1e-12 ${ftol} ${maxiter} ${maxeval}
        minimize 1e-12 1e-08 ${maxiter} ${maxeval}
        minimize 1e-12 1e-08 10000 ${maxeval}
        minimize 1e-12 1e-08 10000 20000
WARNING: Resetting reneighboring criteria during minimization (../min.cpp:168)
Memory usage per processor = 4.85099 Mbytes
Step PotEng Pxx Pyy Pxy Lx Ly Lz 
       0   -53.988925 -0.061030673  -0.18602448 -1.8331031e-17      3.36736    5.8674346   0.56122687 
       1   -53.988925 -0.061030673  -0.18602448 -1.8090659e-16      3.36736    5.8674346   0.56122687 
Loop time of 6.29142e-05 on 1 procs for 0 steps with 18 atoms

Minimization stats:
  Stopping criterion = force tolerance
  Energy initial, next-to-last, final = 
        -53.9889245652     -53.9889245652     -53.9889245652
  Force two-norm initial, final = 0.00082736 1.95779e-09
  Force max component initial, final = 0.000205287 5.96646e-10
  Final line search alpha, max atom move = 0 0
  Iterations, force evaluations = 0 7

Pair  time (%) = 3.63531e-05 (57.7821)
Neigh time (%) = 0 (0)
Comm  time (%) = 4.18839e-06 (6.6573)
Outpt time (%) = 0 (0)
Other time (%) = 2.23727e-05 (35.5606)

Nlocal:    18 ave 18 max 18 min
Histogram: 1 0 0 0 0 0 0 0 0 0
Nghost:    65 ave 65 max 65 min
Histogram: 1 0 0 0 0 0 0 0 0 0
Neighs:    162 ave 162 max 162 min
Histogram: 1 0 0 0 0 0 0 0 0 0

Total # of neighbors = 162
Ave neighs/atom = 9
Neighbor list builds = 0
Dangerous builds = 0
        next i
jump SELF loop1
	read_dump orig.dump 0 x y
  orthogonal box = (0 0 -0.280613) to (3.36736 5.83244 0.280613)
  18 atoms before read
  18 atoms in snapshot
  0 atoms purged
  18 atoms replaced
  0 atoms trimmed
  0 atoms added
  18 atoms after read
        variable stretch equal 1+$i*${strainstep}
        variable stretch equal 1+13*${strainstep}
        variable stretch equal 1+13*0.0005
        change_box all ${direction} scale ${stretch} remap
        change_box all y scale ${stretch} remap
        change_box all y scale 1.0065 remap
  orthogonal box = (0 -0.0189554 -0.280613) to (3.36736 5.8514 0.280613)
        min_style ${style}
        min_style hftn
        minimize ${etol} ${ftol} ${maxiter} ${maxeval}
        minimize 1e-12 ${ftol} ${maxiter} ${maxeval}
        minimize 1e-12 1e-08 ${maxiter} ${maxeval}
        minimize 1e-12 1e-08 10000 ${maxeval}
        minimize 1e-12 1e-08 10000 20000
WARNING: Resetting reneighboring criteria during minimization (../min.cpp:168)
Memory usage per processor = 4.85099 Mbytes
Step PotEng Pxx Pyy Pxy Lx Ly Lz 
       0   -53.987039 -0.065949359   -0.2011576 -4.0008216e-17      3.36736    5.8703509   0.56122687 
       1   -53.987039 -0.065949359   -0.2011576 -3.4502247e-17      3.36736    5.8703509   0.56122687 
Loop time of 6.1885e-05 on 1 procs for 0 steps with 18 atoms

Minimization stats:
  Stopping criterion = force tolerance
  Energy initial, next-to-last, final = 
        -53.9870387838     -53.9870387838     -53.9870387839
  Force two-norm initial, final = 0.000823351 1.94578e-09
  Force max component initial, final = 0.000204086 5.92711e-10
  Final line search alpha, max atom move = 0 0
  Iterations, force evaluations = 0 7

Pair  time (%) = 3.69338e-05 (59.6814)
Neigh time (%) = 0 (0)
Comm  time (%) = 6.58853e-06 (10.6464)
Outpt time (%) = 0 (0)
Other time (%) = 1.83627e-05 (29.6722)

Nlocal:    18 ave 18 max 18 min
Histogram: 1 0 0 0 0 0 0 0 0 0
Nghost:    65 ave 65 max 65 min
Histogram: 1 0 0 0 0 0 0 0 0 0
Neighs:    162 ave 162 max 162 min
Histogram: 1 0 0 0 0 0 0 0 0 0

Total # of neighbors = 162
Ave neighs/atom = 9
Neighbor list builds = 0
Dangerous builds = 0
        next i
jump SELF loop1
	read_dump orig.dump 0 x y
  orthogonal box = (0 0 -0.280613) to (3.36736 5.83244 0.280613)
  18 atoms before read
  18 atoms in snapshot
  0 atoms purged
  18 atoms replaced
  0 atoms trimmed
  0 atoms added
  18 atoms after read
        variable stretch equal 1+$i*${strainstep}
        variable stretch equal 1+14*${strainstep}
        variable stretch equal 1+14*0.0005
        change_box all ${direction} scale ${stretch} remap
        change_box all y scale ${stretch} remap
        change_box all y scale 1.007 remap
  orthogonal box = (0 -0.0204135 -0.280613) to (3.36736 5.85285 0.280613)
        min_style ${style}
        min_style hftn
        minimize ${etol} ${ftol} ${maxiter} ${maxeval}
        minimize 1e-12 ${ftol} ${maxiter} ${maxeval}
        minimize 1e-12 1e-08 ${maxiter} ${maxeval}
        minimize 1e-12 1e-08 10000 ${maxeval}
        minimize 1e-12 1e-08 10000 20000
WARNING: Resetting reneighboring criteria during minimization (../min.cpp:168)
Memory usage per processor = 4.85099 Mbytes
Step PotEng Pxx Pyy Pxy Lx Ly Lz 
       0   -53.984995 -0.070835885  -0.21622268 -1.1287841e-17      3.36736    5.8732671   0.56122687 
       1   -53.984995 -0.070835885  -0.21622268 -1.4333771e-17      3.36736    5.8732671   0.56122687 
Loop time of 6.20151e-05 on 1 procs for 0 steps with 18 atoms

Minimization stats:
  Stopping criterion = force tolerance
  Energy initial, next-to-last, final = 
        -53.9849945236     -53.9849945236     -53.9849945236
  Force two-norm initial, final = 0.000824655 1.94843e-09
  Force max component initial, final = 0.000204489 5.93509e-10
  Final line search alpha, max atom move = 0 0
  Iterations, force evaluations = 0 7

Pair  time (%) = 3.51202e-05 (56.6316)
Neigh time (%) = 0 (0)
Comm  time (%) = 8.10705e-06 (13.0727)
Outpt time (%) = 0 (0)
Other time (%) = 1.87879e-05 (30.2957)

Nlocal:    18 ave 18 max 18 min
Histogram: 1 0 0 0 0 0 0 0 0 0
Nghost:    65 ave 65 max 65 min
Histogram: 1 0 0 0 0 0 0 0 0 0
Neighs:    162 ave 162 max 162 min
Histogram: 1 0 0 0 0 0 0 0 0 0

Total # of neighbors = 162
Ave neighs/atom = 9
Neighbor list builds = 0
Dangerous builds = 0
        next i
jump SELF loop1
	read_dump orig.dump 0 x y
  orthogonal box = (0 0 -0.280613) to (3.36736 5.83244 0.280613)
  18 atoms before read
  18 atoms in snapshot
  0 atoms purged
  18 atoms replaced
  0 atoms trimmed
  0 atoms added
  18 atoms after read
        variable stretch equal 1+$i*${strainstep}
        variable stretch equal 1+15*${strainstep}
        variable stretch equal 1+15*0.0005
        change_box all ${direction} scale ${stretch} remap
        change_box all y scale ${stretch} remap
        change_box all y scale 1.0075 remap
  orthogonal box = (0 -0.0218717 -0.280613) to (3.36736 5.85431 0.280613)
        min_style ${style}
        min_style hftn
        minimize ${etol} ${ftol} ${maxiter} ${maxeval}
        minimize 1e-12 ${ftol} ${maxiter} ${maxeval}
        minimize 1e-12 1e-08 ${maxiter} ${maxeval}
        minimize 1e-12 1e-08 10000 ${maxeval}
        minimize 1e-12 1e-08 10000 20000
WARNING: Resetting reneighboring criteria during minimization (../min.cpp:168)
Memory usage per processor = 4.85099 Mbytes
Step PotEng Pxx Pyy Pxy Lx Ly Lz 
       0   -53.982778 -0.075687697  -0.23121169 1.178299e-16      3.36736    5.8761833   0.56122687 
       1   -53.982778 -0.075687697  -0.23121169 -2.8791187e-16      3.36736    5.8761833   0.56122687 
Loop time of 6.20988e-05 on 1 procs for 0 steps with 18 atoms

Minimization stats:
  Stopping criterion = force tolerance
  Energy initial, next-to-last, final = 
        -53.9827776587     -53.9827776587     -53.9827776587
  Force two-norm initial, final = 0.000820672 1.93676e-09
  Force max component initial, final = 0.000203296 5.89674e-10
  Final line search alpha, max atom move = 0 0
  Iterations, force evaluations = 0 7

Pair  time (%) = 3.69757e-05 (59.5433)
Neigh time (%) = 0 (0)
Comm  time (%) = 8.62603e-06 (13.8908)
Outpt time (%) = 0 (0)
Other time (%) = 1.64971e-05 (26.5659)

Nlocal:    18 ave 18 max 18 min
Histogram: 1 0 0 0 0 0 0 0 0 0
Nghost:    65 ave 65 max 65 min
Histogram: 1 0 0 0 0 0 0 0 0 0
Neighs:    162 ave 162 max 162 min
Histogram: 1 0 0 0 0 0 0 0 0 0

Total # of neighbors = 162
Ave neighs/atom = 9
Neighbor list builds = 0
Dangerous builds = 0
        next i
jump SELF loop1
	read_dump orig.dump 0 x y
  orthogonal box = (0 0 -0.280613) to (3.36736 5.83244 0.280613)
  18 atoms before read
  18 atoms in snapshot
  0 atoms purged
  18 atoms replaced
  0 atoms trimmed
  0 atoms added
  18 atoms after read
        variable stretch equal 1+$i*${strainstep}
        variable stretch equal 1+16*${strainstep}
        variable stretch equal 1+16*0.0005
        change_box all ${direction} scale ${stretch} remap
        change_box all y scale ${stretch} remap
        change_box all y scale 1.008 remap
  orthogonal box = (0 -0.0233298 -0.280613) to (3.36736 5.85577 0.280613)
        min_style ${style}
        min_style hftn
        minimize ${etol} ${ftol} ${maxiter} ${maxeval}
        minimize 1e-12 ${ftol} ${maxiter} ${maxeval}
        minimize 1e-12 1e-08 ${maxiter} ${maxeval}
        minimize 1e-12 1e-08 10000 ${maxeval}
        minimize 1e-12 1e-08 10000 20000
WARNING: Resetting reneighboring criteria during minimization (../min.cpp:168)
Memory usage per processor = 4.85099 Mbytes
Step PotEng Pxx Pyy Pxy Lx Ly Lz 
       0   -53.980437 -0.080514021  -0.24615244 -1.6987906e-17      3.36736    5.8790995   0.56122687 
       1   -53.980437 -0.080514021  -0.24615244 4.8983796e-17      3.36736    5.8790995   0.56122687 
Loop time of 9.50242e-05 on 1 procs for 0 steps with 18 atoms

Minimization stats:
  Stopping criterion = force tolerance
  Energy initial, next-to-last, final = 
        -53.9804373476     -53.9804373476     -53.9804373476
  Force two-norm initial, final = 0.000816697 1.92523e-09
  Force max component initial, final = 0.000202103 5.85994e-10
  Final line search alpha, max atom move = 0 0
  Iterations, force evaluations = 0 7

Pair  time (%) = 3.41792e-05 (35.9689)
Neigh time (%) = 0 (0)
Comm  time (%) = 8.89378e-06 (9.35949)
Outpt time (%) = 0 (0)
Other time (%) = 5.19513e-05 (54.6716)

Nlocal:    18 ave 18 max 18 min
Histogram: 1 0 0 0 0 0 0 0 0 0
Nghost:    65 ave 65 max 65 min
Histogram: 1 0 0 0 0 0 0 0 0 0
Neighs:    162 ave 162 max 162 min
Histogram: 1 0 0 0 0 0 0 0 0 0

Total # of neighbors = 162
Ave neighs/atom = 9
Neighbor list builds = 0
Dangerous builds = 0
        next i
jump SELF loop1
	read_dump orig.dump 0 x y
  orthogonal box = (0 0 -0.280613) to (3.36736 5.83244 0.280613)
  18 atoms before read
  18 atoms in snapshot
  0 atoms purged
  18 atoms replaced
  0 atoms trimmed
  0 atoms added
  18 atoms after read
        variable stretch equal 1+$i*${strainstep}
        variable stretch equal 1+17*${strainstep}
        variable stretch equal 1+17*0.0005
        change_box all ${direction} scale ${stretch} remap
        change_box all y scale ${stretch} remap
        change_box all y scale 1.0085 remap
  orthogonal box = (0 -0.0247879 -0.280613) to (3.36736 5.85723 0.280613)
        min_style ${style}
        min_style hftn
        minimize ${etol} ${ftol} ${maxiter} ${maxeval}
        minimize 1e-12 ${ftol} ${maxiter} ${maxeval}
        minimize 1e-12 1e-08 ${maxiter} ${maxeval}
        minimize 1e-12 1e-08 10000 ${maxeval}
        minimize 1e-12 1e-08 10000 20000
WARNING: Resetting reneighboring criteria during minimization (../min.cpp:168)
Memory usage per processor = 4.85099 Mbytes
Step PotEng Pxx Pyy Pxy Lx Ly Lz 
       0   -53.977974 -0.085314877   -0.2610448 -1.3832025e-17      3.36736    5.8820157   0.56122687 
       1   -53.977974 -0.085314877   -0.2610448 2.2171409e-17      3.36736    5.8820157   0.56122687 
Loop time of 5.71103e-05 on 1 procs for 0 steps with 18 atoms

Minimization stats:
  Stopping criterion = force tolerance
  Energy initial, next-to-last, final = 
         -53.977973626      -53.977973626      -53.977973626
  Force two-norm initial, final = 0.000812766 1.91346e-09
  Force max component initial, final = 0.000200923 5.82035e-10
  Final line search alpha, max atom move = 0 0
  Iterations, force evaluations = 0 7

Pair  time (%) = 3.2088e-05 (56.186)
Neigh time (%) = 0 (0)
Comm  time (%) = 7.75792e-06 (13.5841)
Outpt time (%) = 0 (0)
Other time (%) = 1.72644e-05 (30.2299)

Nlocal:    18 ave 18 max 18 min
Histogram: 1 0 0 0 0 0 0 0 0 0
Nghost:    65 ave 65 max 65 min
Histogram: 1 0 0 0 0 0 0 0 0 0
Neighs:    162 ave 162 max 162 min
Histogram: 1 0 0 0 0 0 0 0 0 0

Total # of neighbors = 162
Ave neighs/atom = 9
Neighbor list builds = 0
Dangerous builds = 0
        next i
jump SELF loop1
	read_dump orig.dump 0 x y
  orthogonal box = (0 0 -0.280613) to (3.36736 5.83244 0.280613)
  18 atoms before read
  18 atoms in snapshot
  0 atoms purged
  18 atoms replaced
  0 atoms trimmed
  0 atoms added
  18 atoms after read
        variable stretch equal 1+$i*${strainstep}
        variable stretch equal 1+18*${strainstep}
        variable stretch equal 1+18*0.0005
        change_box all ${direction} scale ${stretch} remap
        change_box all y scale ${stretch} remap
        change_box all y scale 1.009 remap
  orthogonal box = (0 -0.026246 -0.280613) to (3.36736 5.85869 0.280613)
        min_style ${style}
        min_style hftn
        minimize ${etol} ${ftol} ${maxiter} ${maxeval}
        minimize 1e-12 ${ftol} ${maxiter} ${maxeval}
        minimize 1e-12 1e-08 ${maxiter} ${maxeval}
        minimize 1e-12 1e-08 10000 ${maxeval}
        minimize 1e-12 1e-08 10000 20000
WARNING: Resetting reneighboring criteria during minimization (../min.cpp:168)
Memory usage per processor = 4.85099 Mbytes
Step PotEng Pxx Pyy Pxy Lx Ly Lz 
       0   -53.975314 -0.090076639  -0.27584693 1.3125466e-16      3.36736     5.884932   0.56122687 
       1   -53.975314 -0.090076639  -0.27584693 -1.3652501e-16      3.36736     5.884932   0.56122687 
Loop time of 5.59501e-05 on 1 procs for 0 steps with 18 atoms

Minimization stats:
  Stopping criterion = force tolerance
  Energy initial, next-to-last, final = 
        -53.9753136643     -53.9753136643     -53.9753136643
  Force two-norm initial, final = 0.000814042 1.91618e-09
  Force max component initial, final = 0.000201319 5.82916e-10
  Final line search alpha, max atom move = 0 0
  Iterations, force evaluations = 0 7

Pair  time (%) = 3.41045e-05 (60.9551)
Neigh time (%) = 0 (0)
Comm  time (%) = 8.36037e-06 (14.9425)
Outpt time (%) = 0 (0)
Other time (%) = 1.34853e-05 (24.1024)

Nlocal:    18 ave 18 max 18 min
Histogram: 1 0 0 0 0 0 0 0 0 0
Nghost:    65 ave 65 max 65 min
Histogram: 1 0 0 0 0 0 0 0 0 0
Neighs:    162 ave 162 max 162 min
Histogram: 1 0 0 0 0 0 0 0 0 0

Total # of neighbors = 162
Ave neighs/atom = 9
Neighbor list builds = 0
Dangerous builds = 0
        next i
jump SELF loop1
	read_dump orig.dump 0 x y
  orthogonal box = (0 0 -0.280613) to (3.36736 5.83244 0.280613)
  18 atoms before read
  18 atoms in snapshot
  0 atoms purged
  18 atoms replaced
  0 atoms trimmed
  0 atoms added
  18 atoms after read
        variable stretch equal 1+$i*${strainstep}
        variable stretch equal 1+19*${strainstep}
        variable stretch equal 1+19*0.0005
        change_box all ${direction} scale ${stretch} remap
        change_box all y scale ${stretch} remap
        change_box all y scale 1.0095 remap
  orthogonal box = (0 -0.0277041 -0.280613) to (3.36736 5.86014 0.280613)
        min_style ${style}
        min_style hftn
        minimize ${etol} ${ftol} ${maxiter} ${maxeval}
        minimize 1e-12 ${ftol} ${maxiter} ${maxeval}
        minimize 1e-12 1e-08 ${maxiter} ${maxeval}
        minimize 1e-12 1e-08 10000 ${maxeval}
        minimize 1e-12 1e-08 10000 20000
WARNING: Resetting reneighboring criteria during minimization (../min.cpp:168)
Memory usage per processor = 4.85099 Mbytes
Step PotEng Pxx Pyy Pxy Lx Ly Lz 
       0   -53.972524  -0.09481187  -0.29059691 1.1641885e-17      3.36736    5.8878482   0.56122687 
       1   -53.972524  -0.09481187  -0.29059691 -2.9054031e-16      3.36736    5.8878482   0.56122687 
Loop time of 5.69097e-05 on 1 procs for 0 steps with 18 atoms

Minimization stats:
  Stopping criterion = force tolerance
  Energy initial, next-to-last, final = 
        -53.9725242836     -53.9725242836     -53.9725242836
  Force two-norm initial, final = 0.000810105 1.90435e-09
  Force max component initial, final = 0.000200135 5.78904e-10
  Final line search alpha, max atom move = 0 0
  Iterations, force evaluations = 0 7

Pair  time (%) = 3.11517e-05 (54.7388)
Neigh time (%) = 0 (0)
Comm  time (%) = 7.98469e-06 (14.0305)
Outpt time (%) = 0 (0)
Other time (%) = 1.77734e-05 (31.2308)

Nlocal:    18 ave 18 max 18 min
Histogram: 1 0 0 0 0 0 0 0 0 0
Nghost:    65 ave 65 max 65 min
Histogram: 1 0 0 0 0 0 0 0 0 0
Neighs:    162 ave 162 max 162 min
Histogram: 1 0 0 0 0 0 0 0 0 0

Total # of neighbors = 162
Ave neighs/atom = 9
Neighbor list builds = 0
Dangerous builds = 0
        next i
jump SELF loop1
	read_dump orig.dump 0 x y
  orthogonal box = (0 0 -0.280613) to (3.36736 5.83244 0.280613)
  18 atoms before read
  18 atoms in snapshot
  0 atoms purged
  18 atoms replaced
  0 atoms trimmed
  0 atoms added
  18 atoms after read
        variable stretch equal 1+$i*${strainstep}
        variable stretch equal 1+20*${strainstep}
        variable stretch equal 1+20*0.0005
        change_box all ${direction} scale ${stretch} remap
        change_box all y scale ${stretch} remap
        change_box all y scale 1.01 remap
  orthogonal box = (0 -0.0291622 -0.280613) to (3.36736 5.8616 0.280613)
        min_style ${style}
        min_style hftn
        minimize ${etol} ${ftol} ${maxiter} ${maxeval}
        minimize 1e-12 ${ftol} ${maxiter} ${maxeval}
        minimize 1e-12 1e-08 ${maxiter} ${maxeval}
        minimize 1e-12 1e-08 10000 ${maxeval}
        minimize 1e-12 1e-08 10000 20000
WARNING: Resetting reneighboring criteria during minimization (../min.cpp:168)
Memory usage per processor = 4.85099 Mbytes
Step PotEng Pxx Pyy Pxy Lx Ly Lz 
       0   -53.969613 -0.099522005  -0.30529892 -2.3633286e-17      3.36736    5.8907644   0.56122687 
       1   -53.969613 -0.099522005  -0.30529891 2.9091972e-17      3.36736    5.8907644   0.56122687 
Loop time of 6.10806e-05 on 1 procs for 0 steps with 18 atoms

Minimization stats:
  Stopping criterion = force tolerance
  Energy initial, next-to-last, final = 
        -53.9696128682     -53.9696128682     -53.9696128682
  Force two-norm initial, final = 0.000806212 1.8926e-09
  Force max component initial, final = 0.000198965 5.75072e-10
  Final line search alpha, max atom move = 0 0
  Iterations, force evaluations = 0 7

Pair  time (%) = 3.51873e-05 (57.6081)
Neigh time (%) = 0 (0)
Comm  time (%) = 5.85709e-06 (9.58912)
Outpt time (%) = 0 (0)
Other time (%) = 2.00361e-05 (32.8028)

Nlocal:    18 ave 18 max 18 min
Histogram: 1 0 0 0 0 0 0 0 0 0
Nghost:    65 ave 65 max 65 min
Histogram: 1 0 0 0 0 0 0 0 0 0
Neighs:    162 ave 162 max 162 min
Histogram: 1 0 0 0 0 0 0 0 0 0

Total # of neighbors = 162
Ave neighs/atom = 9
Neighbor list builds = 0
Dangerous builds = 0
        next i
jump SELF loop1
	read_dump orig.dump 0 x y
  orthogonal box = (0 0 -0.280613) to (3.36736 5.83244 0.280613)
  18 atoms before read
  18 atoms in snapshot
  0 atoms purged
  18 atoms replaced
  0 atoms trimmed
  0 atoms added
  18 atoms after read
        variable stretch equal 1+$i*${strainstep}
        variable stretch equal 1+21*${strainstep}
        variable stretch equal 1+21*0.0005
        change_box all ${direction} scale ${stretch} remap
        change_box all y scale ${stretch} remap
        change_box all y scale 1.0105 remap
  orthogonal box = (0 -0.0306203 -0.280613) to (3.36736 5.86306 0.280613)
        min_style ${style}
        min_style hftn
        minimize ${etol} ${ftol} ${maxiter} ${maxeval}
        minimize 1e-12 ${ftol} ${maxiter} ${maxeval}
        minimize 1e-12 1e-08 ${maxiter} ${maxeval}
        minimize 1e-12 1e-08 10000 ${maxeval}
        minimize 1e-12 1e-08 10000 20000
WARNING: Resetting reneighboring criteria during minimization (../min.cpp:168)
Memory usage per processor = 4.85099 Mbytes
Step PotEng Pxx Pyy Pxy Lx Ly Lz 
       0   -53.966549  -0.10420126  -0.31993501 1.5391546e-16      3.36736    5.8936806   0.56122687 
       1   -53.966549  -0.10420126  -0.31993501 -2.2040347e-16      3.36736    5.8936806   0.56122687 
Loop time of 9.1712e-07 on 1 procs for 0 steps with 18 atoms

Minimization stats:
  Stopping criterion = force tolerance
  Energy initial, next-to-last, final = 
        -53.9665485375     -53.9665485375     -53.9665485375
  Force two-norm initial, final = 0.000807471 1.89553e-09
  Force max component initial, final = 0.000199356 5.7599e-10
  Final line search alpha, max atom move = 0 0
  Iterations, force evaluations = 0 7

Pair  time (%) = -6.63102e-07 (-72.3026)
Neigh time (%) = 0 (0)
Comm  time (%) = -1.3262e-06 (-144.605)
Outpt time (%) = 0 (0)
Other time (%) = 2.90642e-06 (316.908)

Nlocal:    18 ave 18 max 18 min
Histogram: 1 0 0 0 0 0 0 0 0 0
Nghost:    65 ave 65 max 65 min
Histogram: 1 0 0 0 0 0 0 0 0 0
Neighs:    162 ave 162 max 162 min
Histogram: 1 0 0 0 0 0 0 0 0 0

Total # of neighbors = 162
Ave neighs/atom = 9
Neighbor list builds = 0
Dangerous builds = 0
        next i
jump SELF loop1
	read_dump orig.dump 0 x y
  orthogonal box = (0 0 -0.280613) to (3.36736 5.83244 0.280613)
  18 atoms before read
  18 atoms in snapshot
  0 atoms purged
  18 atoms replaced
  0 atoms trimmed
  0 atoms added
  18 atoms after read
        variable stretch equal 1+$i*${strainstep}
        variable stretch equal 1+22*${strainstep}
        variable stretch equal 1+22*0.0005
        change_box all ${direction} scale ${stretch} remap
        change_box all y scale ${stretch} remap
        change_box all y scale 1.011 remap
  orthogonal box = (0 -0.0320784 -0.280613) to (3.36736 5.86452 0.280613)
        min_style ${style}
        min_style hftn
        minimize ${etol} ${ftol} ${maxiter} ${maxeval}
        minimize 1e-12 ${ftol} ${maxiter} ${maxeval}
        minimize 1e-12 1e-08 ${maxiter} ${maxeval}
        minimize 1e-12 1e-08 10000 ${maxeval}
        minimize 1e-12 1e-08 10000 20000
WARNING: Resetting reneighboring criteria during minimization (../min.cpp:168)
Memory usage per processor = 4.85099 Mbytes
Step PotEng Pxx Pyy Pxy Lx Ly Lz 
       0   -53.963316  -0.10884673  -0.33449606 -1.0605454e-16      3.36736    5.8965968   0.56122687 
       1   -53.963316  -0.10884673  -0.33449606 -1.3819299e-17      3.36736    5.8965968   0.56122687 
Loop time of 5.70508e-05 on 1 procs for 0 steps with 18 atoms

Minimization stats:
  Stopping criterion = force tolerance
  Energy initial, next-to-last, final = 
        -53.9633157907     -53.9633157907     -53.9633157907
  Force two-norm initial, final = 0.000803583 1.88382e-09
  Force max component initial, final = 0.000198186 5.72163e-10
  Final line search alpha, max atom move = 0 0
  Iterations, force evaluations = 0 7

Pair  time (%) = 3.19962e-05 (56.0836)
Neigh time (%) = 0 (0)
Comm  time (%) = 4.28944e-06 (7.51863)
Outpt time (%) = 0 (0)
Other time (%) = 2.07652e-05 (36.3978)

Nlocal:    18 ave 18 max 18 min
Histogram: 1 0 0 0 0 0 0 0 0 0
Nghost:    65 ave 65 max 65 min
Histogram: 1 0 0 0 0 0 0 0 0 0
Neighs:    162 ave 162 max 162 min
Histogram: 1 0 0 0 0 0 0 0 0 0

Total # of neighbors = 162
Ave neighs/atom = 9
Neighbor list builds = 0
Dangerous builds = 0
        next i
jump SELF loop1
	read_dump orig.dump 0 x y
  orthogonal box = (0 0 -0.280613) to (3.36736 5.83244 0.280613)
  18 atoms before read
  18 atoms in snapshot
  0 atoms purged
  18 atoms replaced
  0 atoms trimmed
  0 atoms added
  18 atoms after read
        variable stretch equal 1+$i*${strainstep}
        variable stretch equal 1+23*${strainstep}
        variable stretch equal 1+23*0.0005
        change_box all ${direction} scale ${stretch} remap
        change_box all y scale ${stretch} remap
        change_box all y scale 1.0115 remap
  orthogonal box = (0 -0.0335365 -0.280613) to (3.36736 5.86598 0.280613)
        min_style ${style}
        min_style hftn
        minimize ${etol} ${ftol} ${maxiter} ${maxeval}
        minimize 1e-12 ${ftol} ${maxiter} ${maxeval}
        minimize 1e-12 1e-08 ${maxiter} ${maxeval}
        minimize 1e-12 1e-08 10000 ${maxeval}
        minimize 1e-12 1e-08 10000 20000
WARNING: Resetting reneighboring criteria during minimization (../min.cpp:168)
Memory usage per processor = 4.85099 Mbytes
Step PotEng Pxx Pyy Pxy Lx Ly Lz 
       0   -53.959962  -0.11346743  -0.34900939 1.1993264e-17      3.36736    5.8995131   0.56122687 
       1   -53.959962  -0.11346743  -0.34900939 -9.010895e-17      3.36736    5.8995131   0.56122687 
Loop time of 5.59777e-05 on 1 procs for 0 steps with 18 atoms

Minimization stats:
  Stopping criterion = force tolerance
  Energy initial, next-to-last, final = 
        -53.9599624923     -53.9599624923     -53.9599624923
  Force two-norm initial, final = 0.000799706 1.87241e-09
  Force max component initial, final = 0.000197018 5.68449e-10
  Final line search alpha, max atom move = 0 0
  Iterations, force evaluations = 0 7

Pair  time (%) = 3.18413e-05 (56.8822)
Neigh time (%) = 0 (0)
Comm  time (%) = 2.69501e-06 (4.81444)
Outpt time (%) = 0 (0)
Other time (%) = 2.14414e-05 (38.3034)

Nlocal:    18 ave 18 max 18 min
Histogram: 1 0 0 0 0 0 0 0 0 0
Nghost:    65 ave 65 max 65 min
Histogram: 1 0 0 0 0 0 0 0 0 0
Neighs:    162 ave 162 max 162 min
Histogram: 1 0 0 0 0 0 0 0 0 0

Total # of neighbors = 162
Ave neighs/atom = 9
Neighbor list builds = 0
Dangerous builds = 0
        next i
jump SELF loop1
	read_dump orig.dump 0 x y
  orthogonal box = (0 0 -0.280613) to (3.36736 5.83244 0.280613)
  18 atoms before read
  18 atoms in snapshot
  0 atoms purged
  18 atoms replaced
  0 atoms trimmed
  0 atoms added
  18 atoms after read
        variable stretch equal 1+$i*${strainstep}
        variable stretch equal 1+24*${strainstep}
        variable stretch equal 1+24*0.0005
        change_box all ${direction} scale ${stretch} remap
        change_box all y scale ${stretch} remap
        change_box all y scale 1.012 remap
  orthogonal box = (0 -0.0349946 -0.280613) to (3.36736 5.86743 0.280613)
        min_style ${style}
        min_style hftn
        minimize ${etol} ${ftol} ${maxiter} ${maxeval}
        minimize 1e-12 ${ftol} ${maxiter} ${maxeval}
        minimize 1e-12 1e-08 ${maxiter} ${maxeval}
        minimize 1e-12 1e-08 10000 ${maxeval}
        minimize 1e-12 1e-08 10000 20000
WARNING: Resetting reneighboring criteria during minimization (../min.cpp:168)
Memory usage per processor = 4.85099 Mbytes
Step PotEng Pxx Pyy Pxy Lx Ly Lz 
       0   -53.956489  -0.11806337  -0.36347489 3.0325339e-18      3.36736    5.9024293   0.56122687 
       1   -53.956489  -0.11806337  -0.36347489 1.6217686e-16      3.36736    5.9024293   0.56122687 
Loop time of 1.60183e-05 on 1 procs for 0 steps with 18 atoms

Minimization stats:
  Stopping criterion = force tolerance
  Energy initial, next-to-last, final = 
        -53.9564887145     -53.9564887145     -53.9564887146
  Force two-norm initial, final = 0.000795874 1.86103e-09
  Force max component initial, final = 0.000195863 5.64632e-10
  Final line search alpha, max atom move = 0 0
  Iterations, force evaluations = 0 7

Pair  time (%) = 8.14267e-06 (50.8336)
Neigh time (%) = 0 (0)
Comm  time (%) = 2.2786e-06 (14.225)
Outpt time (%) = 0 (0)
Other time (%) = 5.59702e-06 (34.9414)

Nlocal:    18 ave 18 max 18 min
Histogram: 1 0 0 0 0 0 0 0 0 0
Nghost:    65 ave 65 max 65 min
Histogram: 1 0 0 0 0 0 0 0 0 0
Neighs:    162 ave 162 max 162 min
Histogram: 1 0 0 0 0 0 0 0 0 0

Total # of neighbors = 162
Ave neighs/atom = 9
Neighbor list builds = 0
Dangerous builds = 0
        next i
jump SELF loop1
	read_dump orig.dump 0 x y
  orthogonal box = (0 0 -0.280613) to (3.36736 5.83244 0.280613)
  18 atoms before read
  18 atoms in snapshot
  0 atoms purged
  18 atoms replaced
  0 atoms trimmed
  0 atoms added
  18 atoms after read
        variable stretch equal 1+$i*${strainstep}
        variable stretch equal 1+25*${strainstep}
        variable stretch equal 1+25*0.0005
        change_box all ${direction} scale ${stretch} remap
        change_box all y scale ${stretch} remap
        change_box all y scale 1.0125 remap
  orthogonal box = (0 -0.0364527 -0.280613) to (3.36736 5.86889 0.280613)
        min_style ${style}
        min_style hftn
        minimize ${etol} ${ftol} ${maxiter} ${maxeval}
        minimize 1e-12 ${ftol} ${maxiter} ${maxeval}
        minimize 1e-12 1e-08 ${maxiter} ${maxeval}
        minimize 1e-12 1e-08 10000 ${maxeval}
        minimize 1e-12 1e-08 10000 20000
WARNING: Resetting reneighboring criteria during minimization (../min.cpp:168)
Memory usage per processor = 4.85099 Mbytes
Step PotEng Pxx Pyy Pxy Lx Ly Lz 
       0   -53.952828  -0.12262219  -0.37785427 4.8334922e-17      3.36736    5.9053455   0.56122687 
       1   -53.952828  -0.12262219  -0.37785427 7.5432742e-17      3.36736    5.9053455   0.56122687 
Loop time of 5.80753e-05 on 1 procs for 0 steps with 18 atoms

Minimization stats:
  Stopping criterion = force tolerance
  Energy initial, next-to-last, final = 
        -53.9528282801     -53.9528282801     -53.9528282801
  Force two-norm initial, final = 0.000797106 1.86339e-09
  Force max component initial, final = 0.000196246 5.65341e-10
  Final line search alpha, max atom move = 0 0
  Iterations, force evaluations = 0 7

Pair  time (%) = 3.71459e-05 (63.9616)
Neigh time (%) = 0 (0)
Comm  time (%) = 3.95952e-06 (6.8179)
Outpt time (%) = 0 (0)
Other time (%) = 1.69699e-05 (29.2204)

Nlocal:    18 ave 18 max 18 min
Histogram: 1 0 0 0 0 0 0 0 0 0
Nghost:    65 ave 65 max 65 min
Histogram: 1 0 0 0 0 0 0 0 0 0
Neighs:    162 ave 162 max 162 min
Histogram: 1 0 0 0 0 0 0 0 0 0

Total # of neighbors = 162
Ave neighs/atom = 9
Neighbor list builds = 0
Dangerous builds = 0
        next i
jump SELF loop1
	read_dump orig.dump 0 x y
  orthogonal box = (0 0 -0.280613) to (3.36736 5.83244 0.280613)
  18 atoms before read
  18 atoms in snapshot
  0 atoms purged
  18 atoms replaced
  0 atoms trimmed
  0 atoms added
  18 atoms after read
        variable stretch equal 1+$i*${strainstep}
        variable stretch equal 1+26*${strainstep}
        variable stretch equal 1+26*0.0005
        change_box all ${direction} scale ${stretch} remap
        change_box all y scale ${stretch} remap
        change_box all y scale 1.013 remap
  orthogonal box = (0 -0.0379109 -0.280613) to (3.36736 5.87035 0.280613)
        min_style ${style}
        min_style hftn
        minimize ${etol} ${ftol} ${maxiter} ${maxeval}
        minimize 1e-12 ${ftol} ${maxiter} ${maxeval}
        minimize 1e-12 1e-08 ${maxiter} ${maxeval}
        minimize 1e-12 1e-08 10000 ${maxeval}
        minimize 1e-12 1e-08 10000 20000
WARNING: Resetting reneighboring criteria during minimization (../min.cpp:168)
Memory usage per processor = 4.85099 Mbytes
Step PotEng Pxx Pyy Pxy Lx Ly Lz 
       0   -53.949039  -0.12715465  -0.39218041 1.0796851e-16      3.36736    5.9082617   0.56122687 
       1   -53.949039  -0.12715465  -0.39218041 2.4498395e-16      3.36736    5.9082617   0.56122687 
Loop time of 5.60541e-05 on 1 procs for 0 steps with 18 atoms

Minimization stats:
  Stopping criterion = force tolerance
  Energy initial, next-to-last, final = 
        -53.9490385042     -53.9490385042     -53.9490385042
  Force two-norm initial, final = 0.000793272 1.85209e-09
  Force max component initial, final = 0.000195089 5.61594e-10
  Final line search alpha, max atom move = 0 0
  Iterations, force evaluations = 0 7

Pair  time (%) = 3.07442e-05 (54.8474)
Neigh time (%) = 0 (0)
Comm  time (%) = 7.88493e-06 (14.0666)
Outpt time (%) = 0 (0)
Other time (%) = 1.74249e-05 (31.0859)

Nlocal:    18 ave 18 max 18 min
Histogram: 1 0 0 0 0 0 0 0 0 0
Nghost:    65 ave 65 max 65 min
Histogram: 1 0 0 0 0 0 0 0 0 0
Neighs:    162 ave 162 max 162 min
Histogram: 1 0 0 0 0 0 0 0 0 0

Total # of neighbors = 162
Ave neighs/atom = 9
Neighbor list builds = 0
Dangerous builds = 0
        next i
jump SELF loop1
	read_dump orig.dump 0 x y
  orthogonal box = (0 0 -0.280613) to (3.36736 5.83244 0.280613)
  18 atoms before read
  18 atoms in snapshot
  0 atoms purged
  18 atoms replaced
  0 atoms trimmed
  0 atoms added
  18 atoms after read
        variable stretch equal 1+$i*${strainstep}
        variable stretch equal 1+27*${strainstep}
        variable stretch equal 1+27*0.0005
        change_box all ${direction} scale ${stretch} remap
        change_box all y scale ${stretch} remap
        change_box all y scale 1.0135 remap
  orthogonal box = (0 -0.039369 -0.280613) to (3.36736 5.87181 0.280613)
        min_style ${style}
        min_style hftn
        minimize ${etol} ${ftol} ${maxiter} ${maxeval}
        minimize 1e-12 ${ftol} ${maxiter} ${maxeval}
        minimize 1e-12 1e-08 ${maxiter} ${maxeval}
        minimize 1e-12 1e-08 10000 ${maxeval}
        minimize 1e-12 1e-08 10000 20000
WARNING: Resetting reneighboring criteria during minimization (../min.cpp:168)
Memory usage per processor = 4.85099 Mbytes
Step PotEng Pxx Pyy Pxy Lx Ly Lz 
       0    -53.94513  -0.13166273  -0.40645918 -1.2517937e-17      3.36736    5.9111779   0.56122687 
       1    -53.94513  -0.13166273  -0.40645918 1.3634424e-16      3.36736    5.9111779   0.56122687 
Loop time of 6.80056e-05 on 1 procs for 0 steps with 18 atoms

Minimization stats:
  Stopping criterion = force tolerance
  Energy initial, next-to-last, final = 
        -53.9451296251     -53.9451296251     -53.9451296252
  Force two-norm initial, final = 0.000789472 1.84091e-09
  Force max component initial, final = 0.000193942 5.58017e-10
  Final line search alpha, max atom move = 0 0
  Iterations, force evaluations = 0 7

Pair  time (%) = 4.27194e-05 (62.8175)
Neigh time (%) = 0 (0)
Comm  time (%) = 3.72238e-06 (5.47363)
Outpt time (%) = 0 (0)
Other time (%) = 2.15638e-05 (31.7089)

Nlocal:    18 ave 18 max 18 min
Histogram: 1 0 0 0 0 0 0 0 0 0
Nghost:    65 ave 65 max 65 min
Histogram: 1 0 0 0 0 0 0 0 0 0
Neighs:    162 ave 162 max 162 min
Histogram: 1 0 0 0 0 0 0 0 0 0

Total # of neighbors = 162
Ave neighs/atom = 9
Neighbor list builds = 0
Dangerous builds = 0
        next i
jump SELF loop1
	read_dump orig.dump 0 x y
  orthogonal box = (0 0 -0.280613) to (3.36736 5.83244 0.280613)
  18 atoms before read
  18 atoms in snapshot
  0 atoms purged
  18 atoms replaced
  0 atoms trimmed
  0 atoms added
  18 atoms after read
        variable stretch equal 1+$i*${strainstep}
        variable stretch equal 1+28*${strainstep}
        variable stretch equal 1+28*0.0005
        change_box all ${direction} scale ${stretch} remap
        change_box all y scale ${stretch} remap
        change_box all y scale 1.014 remap
  orthogonal box = (0 -0.0408271 -0.280613) to (3.36736 5.87327 0.280613)
        min_style ${style}
        min_style hftn
        minimize ${etol} ${ftol} ${maxiter} ${maxeval}
        minimize 1e-12 ${ftol} ${maxiter} ${maxeval}
        minimize 1e-12 1e-08 ${maxiter} ${maxeval}
        minimize 1e-12 1e-08 10000 ${maxeval}
        minimize 1e-12 1e-08 10000 20000
WARNING: Resetting reneighboring criteria during minimization (../min.cpp:168)
Memory usage per processor = 4.85099 Mbytes
Step PotEng Pxx Pyy Pxy Lx Ly Lz 
       0   -53.941078  -0.13614193  -0.42067645 2.8915964e-16      3.36736    5.9140942   0.56122687 
       1   -53.941078  -0.13614193  -0.42067645 2.4340442e-17      3.36736    5.9140942   0.56122687 
Loop time of 5.60635e-05 on 1 procs for 0 steps with 18 atoms

Minimization stats:
  Stopping criterion = force tolerance
  Energy initial, next-to-last, final = 
         -53.941077593      -53.941077593      -53.941077593
  Force two-norm initial, final = 0.000790687 1.843e-09
  Force max component initial, final = 0.000194321 5.58562e-10
  Final line search alpha, max atom move = 0 0
  Iterations, force evaluations = 0 7

Pair  time (%) = 3.28195e-05 (58.5398)
Neigh time (%) = 0 (0)
Comm  time (%) = 6.50552e-06 (11.6038)
Outpt time (%) = 0 (0)
Other time (%) = 1.67385e-05 (29.8564)

Nlocal:    18 ave 18 max 18 min
Histogram: 1 0 0 0 0 0 0 0 0 0
Nghost:    65 ave 65 max 65 min
Histogram: 1 0 0 0 0 0 0 0 0 0
Neighs:    162 ave 162 max 162 min
Histogram: 1 0 0 0 0 0 0 0 0 0

Total # of neighbors = 162
Ave neighs/atom = 9
Neighbor list builds = 0
Dangerous builds = 0
        next i
jump SELF loop1
	read_dump orig.dump 0 x y
  orthogonal box = (0 0 -0.280613) to (3.36736 5.83244 0.280613)
  18 atoms before read
  18 atoms in snapshot
  0 atoms purged
  18 atoms replaced
  0 atoms trimmed
  0 atoms added
  18 atoms after read
        variable stretch equal 1+$i*${strainstep}
        variable stretch equal 1+29*${strainstep}
        variable stretch equal 1+29*0.0005
        change_box all ${direction} scale ${stretch} remap
        change_box all y scale ${stretch} remap
        change_box all y scale 1.0145 remap
  orthogonal box = (0 -0.0422852 -0.280613) to (3.36736 5.87473 0.280613)
        min_style ${style}
        min_style hftn
        minimize ${etol} ${ftol} ${maxiter} ${maxeval}
        minimize 1e-12 ${ftol} ${maxiter} ${maxeval}
        minimize 1e-12 1e-08 ${maxiter} ${maxeval}
        minimize 1e-12 1e-08 10000 ${maxeval}
        minimize 1e-12 1e-08 10000 20000
WARNING: Resetting reneighboring criteria during minimization (../min.cpp:168)
Memory usage per processor = 4.85099 Mbytes
Step PotEng Pxx Pyy Pxy Lx Ly Lz 
       0   -53.936857  -0.14058741  -0.43481705 -2.3691919e-17      3.36736    5.9170104   0.56122687 
       1   -53.936857  -0.14058741  -0.43481705 3.8543966e-17      3.36736    5.9170104   0.56122687 
Loop time of 5.60986e-05 on 1 procs for 0 steps with 18 atoms

Minimization stats:
  Stopping criterion = force tolerance
  Energy initial, next-to-last, final = 
        -53.9368569922     -53.9368569922     -53.9368569922
  Force two-norm initial, final = 0.000786895 1.83191e-09
  Force max component initial, final = 0.000193175 5.54939e-10
  Final line search alpha, max atom move = 0 0
  Iterations, force evaluations = 0 7

Pair  time (%) = 3.20534e-05 (57.1377)
Neigh time (%) = 0 (0)
Comm  time (%) = 7.4039e-06 (13.198)
Outpt time (%) = 0 (0)
Other time (%) = 1.66412e-05 (29.6643)

Nlocal:    18 ave 18 max 18 min
Histogram: 1 0 0 0 0 0 0 0 0 0
Nghost:    65 ave 65 max 65 min
Histogram: 1 0 0 0 0 0 0 0 0 0
Neighs:    162 ave 162 max 162 min
Histogram: 1 0 0 0 0 0 0 0 0 0

Total # of neighbors = 162
Ave neighs/atom = 9
Neighbor list builds = 0
Dangerous builds = 0
        next i
jump SELF loop1
	read_dump orig.dump 0 x y
  orthogonal box = (0 0 -0.280613) to (3.36736 5.83244 0.280613)
  18 atoms before read
  18 atoms in snapshot
  0 atoms purged
  18 atoms replaced
  0 atoms trimmed
  0 atoms added
  18 atoms after read
        variable stretch equal 1+$i*${strainstep}
        variable stretch equal 1+30*${strainstep}
        variable stretch equal 1+30*0.0005
        change_box all ${direction} scale ${stretch} remap
        change_box all y scale ${stretch} remap
        change_box all y scale 1.015 remap
  orthogonal box = (0 -0.0437433 -0.280613) to (3.36736 5.87618 0.280613)
        min_style ${style}
        min_style hftn
        minimize ${etol} ${ftol} ${maxiter} ${maxeval}
        minimize 1e-12 ${ftol} ${maxiter} ${maxeval}
        minimize 1e-12 1e-08 ${maxiter} ${maxeval}
        minimize 1e-12 1e-08 10000 ${maxeval}
        minimize 1e-12 1e-08 10000 20000
WARNING: Resetting reneighboring criteria during minimization (../min.cpp:168)
Memory usage per processor = 4.85099 Mbytes
Step PotEng Pxx Pyy Pxy Lx Ly Lz 
       0   -53.932519  -0.14500885  -0.44891065 9.0335916e-17      3.36736    5.9199266   0.56122687 
       1   -53.932519  -0.14500885  -0.44891065 -2.775136e-17      3.36736    5.9199266   0.56122687 
Loop time of 5.61044e-05 on 1 procs for 0 steps with 18 atoms

Minimization stats:
  Stopping criterion = force tolerance
  Energy initial, next-to-last, final = 
        -53.9325186101     -53.9325186101     -53.9325186102
  Force two-norm initial, final = 0.000783128 1.82089e-09
  Force max component initial, final = 0.000192035 5.51351e-10
  Final line search alpha, max atom move = 0 0
  Iterations, force evaluations = 0 7

Pair  time (%) = 3.18091e-05 (56.6963)
Neigh time (%) = 0 (0)
Comm  time (%) = 4.9154e-06 (8.76118)
Outpt time (%) = 0 (0)
Other time (%) = 1.93799e-05 (34.5426)

Nlocal:    18 ave 18 max 18 min
Histogram: 1 0 0 0 0 0 0 0 0 0
Nghost:    65 ave 65 max 65 min
Histogram: 1 0 0 0 0 0 0 0 0 0
Neighs:    162 ave 162 max 162 min
Histogram: 1 0 0 0 0 0 0 0 0 0

Total # of neighbors = 162
Ave neighs/atom = 9
Neighbor list builds = 0
Dangerous builds = 0
        next i
jump SELF loop1
	read_dump orig.dump 0 x y
  orthogonal box = (0 0 -0.280613) to (3.36736 5.83244 0.280613)
  18 atoms before read
  18 atoms in snapshot
  0 atoms purged
  18 atoms replaced
  0 atoms trimmed
  0 atoms added
  18 atoms after read
        variable stretch equal 1+$i*${strainstep}
        variable stretch equal 1+31*${strainstep}
        variable stretch equal 1+31*0.0005
        change_box all ${direction} scale ${stretch} remap
        change_box all y scale ${stretch} remap
        change_box all y scale 1.0155 remap
  orthogonal box = (0 -0.0452014 -0.280613) to (3.36736 5.87764 0.280613)
        min_style ${style}
        min_style hftn
        minimize ${etol} ${ftol} ${maxiter} ${maxeval}
        minimize 1e-12 ${ftol} ${maxiter} ${maxeval}
        minimize 1e-12 1e-08 ${maxiter} ${maxeval}
        minimize 1e-12 1e-08 10000 ${maxeval}
        minimize 1e-12 1e-08 10000 20000
WARNING: Resetting reneighboring criteria during minimization (../min.cpp:168)
Memory usage per processor = 4.85099 Mbytes
Step PotEng Pxx Pyy Pxy Lx Ly Lz 
       0   -53.928062   -0.1494063  -0.46295716 -3.4364061e-17      3.36736    5.9228428   0.56122687 
       1   -53.928062   -0.1494063  -0.46295716 -1.2731901e-16      3.36736    5.9228428   0.56122687 
Loop time of 9.09376e-05 on 1 procs for 0 steps with 18 atoms

Minimization stats:
  Stopping criterion = force tolerance
  Energy initial, next-to-last, final = 
        -53.9280624885     -53.9280624885     -53.9280624885
  Force two-norm initial, final = 0.000779386 1.80955e-09
  Force max component initial, final = 0.000190902 5.47509e-10
  Final line search alpha, max atom move = 0 0
  Iterations, force evaluations = 0 7

Pair  time (%) = 3.20567e-05 (35.2513)
Neigh time (%) = 0 (0)
Comm  time (%) = 8.27154e-06 (9.09584)
Outpt time (%) = 0 (0)
Other time (%) = 5.06093e-05 (55.6528)

Nlocal:    18 ave 18 max 18 min
Histogram: 1 0 0 0 0 0 0 0 0 0
Nghost:    65 ave 65 max 65 min
Histogram: 1 0 0 0 0 0 0 0 0 0
Neighs:    162 ave 162 max 162 min
Histogram: 1 0 0 0 0 0 0 0 0 0

Total # of neighbors = 162
Ave neighs/atom = 9
Neighbor list builds = 0
Dangerous builds = 0
        next i
jump SELF loop1
	read_dump orig.dump 0 x y
  orthogonal box = (0 0 -0.280613) to (3.36736 5.83244 0.280613)
  18 atoms before read
  18 atoms in snapshot
  0 atoms purged
  18 atoms replaced
  0 atoms trimmed
  0 atoms added
  18 atoms after read
        variable stretch equal 1+$i*${strainstep}
        variable stretch equal 1+32*${strainstep}
        variable stretch equal 1+32*0.0005
        change_box all ${direction} scale ${stretch} remap
        change_box all y scale ${stretch} remap
        change_box all y scale 1.016 remap
  orthogonal box = (0 -0.0466595 -0.280613) to (3.36736 5.8791 0.280613)
        min_style ${style}
        min_style hftn
        minimize ${etol} ${ftol} ${maxiter} ${maxeval}
        minimize 1e-12 ${ftol} ${maxiter} ${maxeval}
        minimize 1e-12 1e-08 ${maxiter} ${maxeval}
        minimize 1e-12 1e-08 10000 ${maxeval}
        minimize 1e-12 1e-08 10000 20000
WARNING: Resetting reneighboring criteria during minimization (../min.cpp:168)
Memory usage per processor = 4.85099 Mbytes
Step PotEng Pxx Pyy Pxy Lx Ly Lz 
       0   -53.923434   -0.1537693  -0.47692399 -3.4164882e-19      3.36736     5.925759   0.56122687 
       1   -53.923434   -0.1537693  -0.47692399 -5.1318142e-17      3.36736     5.925759   0.56122687 
Loop time of 5.59159e-05 on 1 procs for 0 steps with 18 atoms

Minimization stats:
  Stopping criterion = force tolerance
  Energy initial, next-to-last, final = 
        -53.9234335067     -53.9234335067     -53.9234335067
  Force two-norm initial, final = 0.000780575 1.81197e-09
  Force max component initial, final = 0.000191274 5.48306e-10
  Final line search alpha, max atom move = 0 0
  Iterations, force evaluations = 0 7

Pair  time (%) = 3.20696e-05 (57.3533)
Neigh time (%) = 0 (0)
Comm  time (%) = 9.72126e-06 (17.3855)
Outpt time (%) = 0 (0)
Other time (%) = 1.4125e-05 (25.2612)

Nlocal:    18 ave 18 max 18 min
Histogram: 1 0 0 0 0 0 0 0 0 0
Nghost:    65 ave 65 max 65 min
Histogram: 1 0 0 0 0 0 0 0 0 0
Neighs:    162 ave 162 max 162 min
Histogram: 1 0 0 0 0 0 0 0 0 0

Total # of neighbors = 162
Ave neighs/atom = 9
Neighbor list builds = 0
Dangerous builds = 0
        next i
jump SELF loop1
	read_dump orig.dump 0 x y
  orthogonal box = (0 0 -0.280613) to (3.36736 5.83244 0.280613)
  18 atoms before read
  18 atoms in snapshot
  0 atoms purged
  18 atoms replaced
  0 atoms trimmed
  0 atoms added
  18 atoms after read
        variable stretch equal 1+$i*${strainstep}
        variable stretch equal 1+33*${strainstep}
        variable stretch equal 1+33*0.0005
        change_box all ${direction} scale ${stretch} remap
        change_box all y scale ${stretch} remap
        change_box all y scale 1.0165 remap
  orthogonal box = (0 -0.0481176 -0.280613) to (3.36736 5.88056 0.280613)
        min_style ${style}
        min_style hftn
        minimize ${etol} ${ftol} ${maxiter} ${maxeval}
        minimize 1e-12 ${ftol} ${maxiter} ${maxeval}
        minimize 1e-12 1e-08 ${maxiter} ${maxeval}
        minimize 1e-12 1e-08 10000 ${maxeval}
        minimize 1e-12 1e-08 10000 20000
WARNING: Resetting reneighboring criteria during minimization (../min.cpp:168)
Memory usage per processor = 4.85099 Mbytes
Step PotEng Pxx Pyy Pxy Lx Ly Lz 
       0   -53.918671   -0.1581053  -0.49083397 -1.4034919e-17      3.36736    5.9286753   0.56122687 
       1   -53.918671   -0.1581053  -0.49083397 -7.0626578e-17      3.36736    5.9286753   0.56122687 
Loop time of 5.70936e-05 on 1 procs for 0 steps with 18 atoms

Minimization stats:
  Stopping criterion = force tolerance
  Energy initial, next-to-last, final = 
        -53.9186710902     -53.9186710902     -53.9186710903
  Force two-norm initial, final = 0.00077684 1.8012e-09
  Force max component initial, final = 0.000190142 5.44718e-10
  Final line search alpha, max atom move = 0 0
  Iterations, force evaluations = 0 7

Pair  time (%) = 3.20997e-05 (56.2229)
Neigh time (%) = 0 (0)
Comm  time (%) = 3.97325e-06 (6.9592)
Outpt time (%) = 0 (0)
Other time (%) = 2.10206e-05 (36.8179)

Nlocal:    18 ave 18 max 18 min
Histogram: 1 0 0 0 0 0 0 0 0 0
Nghost:    65 ave 65 max 65 min
Histogram: 1 0 0 0 0 0 0 0 0 0
Neighs:    162 ave 162 max 162 min
Histogram: 1 0 0 0 0 0 0 0 0 0

Total # of neighbors = 162
Ave neighs/atom = 9
Neighbor list builds = 0
Dangerous builds = 0
        next i
jump SELF loop1
	read_dump orig.dump 0 x y
  orthogonal box = (0 0 -0.280613) to (3.36736 5.83244 0.280613)
  18 atoms before read
  18 atoms in snapshot
  0 atoms purged
  18 atoms replaced
  0 atoms trimmed
  0 atoms added
  18 atoms after read
        variable stretch equal 1+$i*${strainstep}
        variable stretch equal 1+34*${strainstep}
        variable stretch equal 1+34*0.0005
        change_box all ${direction} scale ${stretch} remap
        change_box all y scale ${stretch} remap
        change_box all y scale 1.017 remap
  orthogonal box = (0 -0.0495757 -0.280613) to (3.36736 5.88202 0.280613)
        min_style ${style}
        min_style hftn
        minimize ${etol} ${ftol} ${maxiter} ${maxeval}
        minimize 1e-12 ${ftol} ${maxiter} ${maxeval}
        minimize 1e-12 1e-08 ${maxiter} ${maxeval}
        minimize 1e-12 1e-08 10000 ${maxeval}
        minimize 1e-12 1e-08 10000 20000
WARNING: Resetting reneighboring criteria during minimization (../min.cpp:168)
Memory usage per processor = 4.85099 Mbytes
Step PotEng Pxx Pyy Pxy Lx Ly Lz 
       0   -53.913792  -0.16241764  -0.50469723 1.2494502e-18      3.36736    5.9315915   0.56122687 
       1   -53.913792  -0.16241764  -0.50469723 4.5648714e-17      3.36736    5.9315915   0.56122687 
Loop time of 5.71063e-05 on 1 procs for 0 steps with 18 atoms

Minimization stats:
  Stopping criterion = force tolerance
  Energy initial, next-to-last, final = 
        -53.9137924557     -53.9137924557     -53.9137924558
  Force two-norm initial, final = 0.000773139 1.78982e-09
  Force max component initial, final = 0.00018902 5.40995e-10
  Final line search alpha, max atom move = 0 0
  Iterations, force evaluations = 0 7

Pair  time (%) = 3.19628e-05 (55.9707)
Neigh time (%) = 0 (0)
Comm  time (%) = 4.93799e-06 (8.64702)
Outpt time (%) = 0 (0)
Other time (%) = 2.02055e-05 (35.3823)

Nlocal:    18 ave 18 max 18 min
Histogram: 1 0 0 0 0 0 0 0 0 0
Nghost:    65 ave 65 max 65 min
Histogram: 1 0 0 0 0 0 0 0 0 0
Neighs:    162 ave 162 max 162 min
Histogram: 1 0 0 0 0 0 0 0 0 0

Total # of neighbors = 162
Ave neighs/atom = 9
Neighbor list builds = 0
Dangerous builds = 0
        next i
jump SELF loop1
	read_dump orig.dump 0 x y
  orthogonal box = (0 0 -0.280613) to (3.36736 5.83244 0.280613)
  18 atoms before read
  18 atoms in snapshot
  0 atoms purged
  18 atoms replaced
  0 atoms trimmed
  0 atoms added
  18 atoms after read
        variable stretch equal 1+$i*${strainstep}
        variable stretch equal 1+35*${strainstep}
        variable stretch equal 1+35*0.0005
        change_box all ${direction} scale ${stretch} remap
        change_box all y scale ${stretch} remap
        change_box all y scale 1.0175 remap
  orthogonal box = (0 -0.0510339 -0.280613) to (3.36736 5.88347 0.280613)
        min_style ${style}
        min_style hftn
        minimize ${etol} ${ftol} ${maxiter} ${maxeval}
        minimize 1e-12 ${ftol} ${maxiter} ${maxeval}
        minimize 1e-12 1e-08 ${maxiter} ${maxeval}
        minimize 1e-12 1e-08 10000 ${maxeval}
        minimize 1e-12 1e-08 10000 20000
WARNING: Resetting reneighboring criteria during minimization (../min.cpp:168)
Memory usage per processor = 4.85099 Mbytes
Step PotEng Pxx Pyy Pxy Lx Ly Lz 
       0   -53.908784  -0.16670387  -0.51850592 6.7532791e-17      3.36736    5.9345077   0.56122687 
       1   -53.908784  -0.16670387  -0.51850592 6.5140117e-17      3.36736    5.9345077   0.56122687 
Loop time of 5.68861e-05 on 1 procs for 0 steps with 18 atoms

Minimization stats:
  Stopping criterion = force tolerance
  Energy initial, next-to-last, final = 
        -53.9087841962     -53.9087841962     -53.9087841963
  Force two-norm initial, final = 0.000774311 1.79234e-09
  Force max component initial, final = 0.000189387 5.41724e-10
[...]

Pair  time (%) = 2.98452e-05 (57.3822)
Neigh time (%) = 0 (0)
Comm  time (%) = 4.74916e-06 (9.13104)
Outpt time (%) = 0 (0)
Other time (%) = 1.74169e-05 (33.4868)

Nlocal:    18 ave 18 max 18 min
Histogram: 1 0 0 0 0 0 0 0 0 0
Nghost:    65 ave 65 max 65 min
Histogram: 1 0 0 0 0 0 0 0 0 0
Neighs:    126 ave 126 max 126 min
Histogram: 1 0 0 0 0 0 0 0 0 0

Total # of neighbors = 126
Ave neighs/atom = 7
Neighbor list builds = 0
Dangerous builds = 0
        next i
jump SELF loop1
	read_dump orig.dump 0 x y
  orthogonal box = (0 0 -0.280613) to (3.36736 5.83244 0.280613)
  18 atoms before read
  18 atoms in snapshot
  0 atoms purged
  18 atoms replaced
  0 atoms trimmed
  0 atoms added
  18 atoms after read
        variable stretch equal 1+$i*${strainstep}
        variable stretch equal 1+92*${strainstep}
        variable stretch equal 1+92*0.0005
        change_box all ${direction} scale ${stretch} remap
        change_box all y scale ${stretch} remap
        change_box all y scale 1.046 remap
  orthogonal box = (0 -0.134146 -0.280613) to (3.36736 5.96659 0.280613)
        min_style ${style}
        min_style hftn
        minimize ${etol} ${ftol} ${maxiter} ${maxeval}
        minimize 1e-12 ${ftol} ${maxiter} ${maxeval}
        minimize 1e-12 1e-08 ${maxiter} ${maxeval}
        minimize 1e-12 1e-08 10000 ${maxeval}
        minimize 1e-12 1e-08 10000 20000
WARNING: Resetting reneighboring criteria during minimization (../min.cpp:168)
Memory usage per processor = 4.85099 Mbytes
Step PotEng Pxx Pyy Pxy Lx Ly Lz 
       0   -53.415812  -0.36955706   -1.2137731 6.2814326e-17      3.36736    6.1007322   0.56122687 
       1   -53.415812  -0.36955706   -1.2137731 1.0177377e-16      3.36736    6.1007322   0.56122687 
Loop time of 5.10239e-05 on 1 procs for 0 steps with 18 atoms

Minimization stats:
  Stopping criterion = force tolerance
  Energy initial, next-to-last, final = 
        -53.4158121578     -53.4158121578     -53.4158121579
  Force two-norm initial, final = 0.000650048 1.4048e-09
  Force max component initial, final = 0.000151065 4.12909e-10
  Final line search alpha, max atom move = 0 0
  Iterations, force evaluations = 0 7

Pair  time (%) = 2.58541e-05 (50.6706)
Neigh time (%) = 0 (0)
Comm  time (%) = 9.68098e-06 (18.9734)
Outpt time (%) = 0 (0)
Other time (%) = 1.54888e-05 (30.356)

Nlocal:    18 ave 18 max 18 min
Histogram: 1 0 0 0 0 0 0 0 0 0
Nghost:    65 ave 65 max 65 min
Histogram: 1 0 0 0 0 0 0 0 0 0
Neighs:    126 ave 126 max 126 min
Histogram: 1 0 0 0 0 0 0 0 0 0

Total # of neighbors = 126
Ave neighs/atom = 7
Neighbor list builds = 0
Dangerous builds = 0
        next i
jump SELF loop1
	read_dump orig.dump 0 x y
  orthogonal box = (0 0 -0.280613) to (3.36736 5.83244 0.280613)
  18 atoms before read
  18 atoms in snapshot
  0 atoms purged
  18 atoms replaced
  0 atoms trimmed
  0 atoms added
  18 atoms after read
        variable stretch equal 1+$i*${strainstep}
        variable stretch equal 1+93*${strainstep}
        variable stretch equal 1+93*0.0005
        change_box all ${direction} scale ${stretch} remap
        change_box all y scale ${stretch} remap
        change_box all y scale 1.0465 remap
  orthogonal box = (0 -0.135604 -0.280613) to (3.36736 5.96804 0.280613)
        min_style ${style}
        min_style hftn
        minimize ${etol} ${ftol} ${maxiter} ${maxeval}
        minimize 1e-12 ${ftol} ${maxiter} ${maxeval}
        minimize 1e-12 1e-08 ${maxiter} ${maxeval}
        minimize 1e-12 1e-08 10000 ${maxeval}
        minimize 1e-12 1e-08 10000 20000
WARNING: Resetting reneighboring criteria during minimization (../min.cpp:168)
Memory usage per processor = 4.85099 Mbytes
Step PotEng Pxx Pyy Pxy Lx Ly Lz 
       0    -53.40384  -0.37245667     -1.22446 -2.1058224e-17      3.36736    6.1036485   0.56122687 
       1    -53.40384  -0.37245667     -1.22446 8.5245717e-18      3.36736    6.1036485   0.56122687 
Loop time of 5.79834e-05 on 1 procs for 0 steps with 18 atoms

Minimization stats:
  Stopping criterion = force tolerance
  Energy initial, next-to-last, final = 
          -53.40384043       -53.40384043     -53.4038404301
  Force two-norm initial, final = 0.000647108 1.39618e-09
  Force max component initial, final = 0.000150132 4.10054e-10
  Final line search alpha, max atom move = 0 0
  Iterations, force evaluations = 0 7

Pair  time (%) = 3.05567e-05 (52.699)
Neigh time (%) = 0 (0)
Comm  time (%) = 4.55626e-06 (7.85787)
Outpt time (%) = 0 (0)
Other time (%) = 2.28705e-05 (39.4431)

Nlocal:    18 ave 18 max 18 min
Histogram: 1 0 0 0 0 0 0 0 0 0
Nghost:    65 ave 65 max 65 min
Histogram: 1 0 0 0 0 0 0 0 0 0
Neighs:    126 ave 126 max 126 min
Histogram: 1 0 0 0 0 0 0 0 0 0

Total # of neighbors = 126
Ave neighs/atom = 7
Neighbor list builds = 0
Dangerous builds = 0
        next i
jump SELF loop1
	read_dump orig.dump 0 x y
  orthogonal box = (0 0 -0.280613) to (3.36736 5.83244 0.280613)
  18 atoms before read
  18 atoms in snapshot
  0 atoms purged
  18 atoms replaced
  0 atoms trimmed
  0 atoms added
  18 atoms after read
        variable stretch equal 1+$i*${strainstep}
        variable stretch equal 1+94*${strainstep}
        variable stretch equal 1+94*0.0005
        change_box all ${direction} scale ${stretch} remap
        change_box all y scale ${stretch} remap
        change_box all y scale 1.047 remap
  orthogonal box = (0 -0.137062 -0.280613) to (3.36736 5.9695 0.280613)
        min_style ${style}
        min_style hftn
        minimize ${etol} ${ftol} ${maxiter} ${maxeval}
        minimize 1e-12 ${ftol} ${maxiter} ${maxeval}
        minimize 1e-12 1e-08 ${maxiter} ${maxeval}
        minimize 1e-12 1e-08 10000 ${maxeval}
        minimize 1e-12 1e-08 10000 20000
WARNING: Resetting reneighboring criteria during minimization (../min.cpp:168)
Memory usage per processor = 4.85099 Mbytes
Step PotEng Pxx Pyy Pxy Lx Ly Lz 
       0   -53.391776  -0.37533798   -1.2351056 -1.1825358e-16      3.36736    6.1065647   0.56122687 
       1   -53.391776  -0.37533798   -1.2351056 -5.1270637e-17      3.36736    6.1065647   0.56122687 
Loop time of 7.20321e-05 on 1 procs for 0 steps with 18 atoms

Minimization stats:
  Stopping criterion = force tolerance
  Energy initial, next-to-last, final = 
        -53.3917759432     -53.3917759432     -53.3917759433
  Force two-norm initial, final = 0.000644184 1.3872e-09
  Force max component initial, final = 0.000149203 4.07075e-10
  Final line search alpha, max atom move = 0 0
  Iterations, force evaluations = 0 7

Pair  time (%) = 3.90449e-05 (54.2048)
Neigh time (%) = 0 (0)
Comm  time (%) = 3.99607e-06 (5.54763)
Outpt time (%) = 0 (0)
Other time (%) = 2.89911e-05 (40.2475)

Nlocal:    18 ave 18 max 18 min
Histogram: 1 0 0 0 0 0 0 0 0 0
Nghost:    65 ave 65 max 65 min
Histogram: 1 0 0 0 0 0 0 0 0 0
Neighs:    126 ave 126 max 126 min
Histogram: 1 0 0 0 0 0 0 0 0 0

Total # of neighbors = 126
Ave neighs/atom = 7
Neighbor list builds = 0
Dangerous builds = 0
        next i
jump SELF loop1
	read_dump orig.dump 0 x y
  orthogonal box = (0 0 -0.280613) to (3.36736 5.83244 0.280613)
  18 atoms before read
  18 atoms in snapshot
  0 atoms purged
  18 atoms replaced
  0 atoms trimmed
  0 atoms added
  18 atoms after read
        variable stretch equal 1+$i*${strainstep}
        variable stretch equal 1+95*${strainstep}
        variable stretch equal 1+95*0.0005
        change_box all ${direction} scale ${stretch} remap
        change_box all y scale ${stretch} remap
        change_box all y scale 1.0475 remap
  orthogonal box = (0 -0.13852 -0.280613) to (3.36736 5.97096 0.280613)
        min_style ${style}
        min_style hftn
        minimize ${etol} ${ftol} ${maxiter} ${maxeval}
        minimize 1e-12 ${ftol} ${maxiter} ${maxeval}
        minimize 1e-12 1e-08 ${maxiter} ${maxeval}
        minimize 1e-12 1e-08 10000 ${maxeval}
        minimize 1e-12 1e-08 10000 20000
WARNING: Resetting reneighboring criteria during minimization (../min.cpp:168)
Memory usage per processor = 4.85099 Mbytes
Step PotEng Pxx Pyy Pxy Lx Ly Lz 
       0   -53.379592  -0.37819586   -1.2456926 2.622387e-17      3.36736    6.1094809   0.56122687 
       1   -53.379592  -0.37819586   -1.2456926 -2.0058942e-16      3.36736    6.1094809   0.56122687 
Loop time of 0.000207043 on 1 procs for 0 steps with 18 atoms

Minimization stats:
  Stopping criterion = force tolerance
  Energy initial, next-to-last, final = 
         -53.379592419      -53.379592419     -53.3795924191
  Force two-norm initial, final = 0.00064502 1.38885e-09
  Force max component initial, final = 0.000149476 4.07573e-10
  Final line search alpha, max atom move = 0 0
  Iterations, force evaluations = 0 7

Pair  time (%) = 0.000111427 (53.8184)
Neigh time (%) = 0 (0)
Comm  time (%) = 2.42555e-05 (11.7152)
Outpt time (%) = 0 (0)
Other time (%) = 7.13603e-05 (34.4664)

Nlocal:    18 ave 18 max 18 min
Histogram: 1 0 0 0 0 0 0 0 0 0
Nghost:    65 ave 65 max 65 min
Histogram: 1 0 0 0 0 0 0 0 0 0
Neighs:    126 ave 126 max 126 min
Histogram: 1 0 0 0 0 0 0 0 0 0

Total # of neighbors = 126
Ave neighs/atom = 7
Neighbor list builds = 0
Dangerous builds = 0
        next i
jump SELF loop1
	read_dump orig.dump 0 x y
  orthogonal box = (0 0 -0.280613) to (3.36736 5.83244 0.280613)
  18 atoms before read
  18 atoms in snapshot
  0 atoms purged
  18 atoms replaced
  0 atoms trimmed
  0 atoms added
  18 atoms after read
        variable stretch equal 1+$i*${strainstep}
        variable stretch equal 1+96*${strainstep}
        variable stretch equal 1+96*0.0005
        change_box all ${direction} scale ${stretch} remap
        change_box all y scale ${stretch} remap
        change_box all y scale 1.048 remap
  orthogonal box = (0 -0.139979 -0.280613) to (3.36736 5.97242 0.280613)
        min_style ${style}
        min_style hftn
        minimize ${etol} ${ftol} ${maxiter} ${maxeval}
        minimize 1e-12 ${ftol} ${maxiter} ${maxeval}
        minimize 1e-12 1e-08 ${maxiter} ${maxeval}
        minimize 1e-12 1e-08 10000 ${maxeval}
        minimize 1e-12 1e-08 10000 20000
WARNING: Resetting reneighboring criteria during minimization (../min.cpp:168)
Memory usage per processor = 4.85099 Mbytes
Step PotEng Pxx Pyy Pxy Lx Ly Lz 
       0   -53.367298  -0.38103183    -1.256226 -3.5619214e-17      3.36736    6.1123971   0.56122687 
       1   -53.367298  -0.38103183    -1.256226 -2.8012863e-17      3.36736    6.1123971   0.56122687 
Loop time of 0.000211033 on 1 procs for 0 steps with 18 atoms

Minimization stats:
  Stopping criterion = force tolerance
  Energy initial, next-to-last, final = 
        -53.3672976137     -53.3672976137     -53.3672976138
  Force two-norm initial, final = 0.000642106 1.3798e-09
  Force max component initial, final = 0.000148549 4.04537e-10
  Final line search alpha, max atom move = 0 0
  Iterations, force evaluations = 0 7

Pair  time (%) = 0.000111929 (53.0386)
Neigh time (%) = 0 (0)
Comm  time (%) = 2.36896e-05 (11.2255)
Outpt time (%) = 0 (0)
Other time (%) = 7.54145e-05 (35.7359)

Nlocal:    18 ave 18 max 18 min
Histogram: 1 0 0 0 0 0 0 0 0 0
Nghost:    65 ave 65 max 65 min
Histogram: 1 0 0 0 0 0 0 0 0 0
Neighs:    126 ave 126 max 126 min
Histogram: 1 0 0 0 0 0 0 0 0 0

Total # of neighbors = 126
Ave neighs/atom = 7
Neighbor list builds = 0
Dangerous builds = 0
        next i
jump SELF loop1
	read_dump orig.dump 0 x y
  orthogonal box = (0 0 -0.280613) to (3.36736 5.83244 0.280613)
  18 atoms before read
  18 atoms in snapshot
  0 atoms purged
  18 atoms replaced
  0 atoms trimmed
  0 atoms added
  18 atoms after read
        variable stretch equal 1+$i*${strainstep}
        variable stretch equal 1+97*${strainstep}
        variable stretch equal 1+97*0.0005
        change_box all ${direction} scale ${stretch} remap
        change_box all y scale ${stretch} remap
        change_box all y scale 1.0485 remap
  orthogonal box = (0 -0.141437 -0.280613) to (3.36736 5.97388 0.280613)
        min_style ${style}
        min_style hftn
        minimize ${etol} ${ftol} ${maxiter} ${maxeval}
        minimize 1e-12 ${ftol} ${maxiter} ${maxeval}
        minimize 1e-12 1e-08 ${maxiter} ${maxeval}
        minimize 1e-12 1e-08 10000 ${maxeval}
        minimize 1e-12 1e-08 10000 20000
WARNING: Resetting reneighboring criteria during minimization (../min.cpp:168)
Memory usage per processor = 4.85099 Mbytes
Step PotEng Pxx Pyy Pxy Lx Ly Lz 
       0   -53.354911  -0.38384978   -1.2667184 -9.5886982e-17      3.36736    6.1153133   0.56122687 
       1   -53.354911  -0.38384978   -1.2667184 -1.8954159e-17      3.36736    6.1153133   0.56122687 
Loop time of 0.00022291 on 1 procs for 0 steps with 18 atoms

Minimization stats:
  Stopping criterion = force tolerance
  Energy initial, next-to-last, final = 
        -53.3549113149     -53.3549113149      -53.354911315
  Force two-norm initial, final = 0.00063922 1.37131e-09
  Force max component initial, final = 0.00014763 4.01683e-10
  Final line search alpha, max atom move = 0 0
  Iterations, force evaluations = 0 7

Pair  time (%) = 0.000112911 (50.6531)
Neigh time (%) = 0 (0)
Comm  time (%) = 2.63683e-05 (11.8291)
Outpt time (%) = 0 (0)
Other time (%) = 8.36309e-05 (37.5178)

Nlocal:    18 ave 18 max 18 min
Histogram: 1 0 0 0 0 0 0 0 0 0
Nghost:    65 ave 65 max 65 min
Histogram: 1 0 0 0 0 0 0 0 0 0
Neighs:    126 ave 126 max 126 min
Histogram: 1 0 0 0 0 0 0 0 0 0

Total # of neighbors = 126
Ave neighs/atom = 7
Neighbor list builds = 0
Dangerous builds = 0
        next i
jump SELF loop1
	read_dump orig.dump 0 x y
  orthogonal box = (0 0 -0.280613) to (3.36736 5.83244 0.280613)
  18 atoms before read
  18 atoms in snapshot
  0 atoms purged
  18 atoms replaced
  0 atoms trimmed
  0 atoms added
  18 atoms after read
        variable stretch equal 1+$i*${strainstep}
        variable stretch equal 1+98*${strainstep}
        variable stretch equal 1+98*0.0005
        change_box all ${direction} scale ${stretch} remap
        change_box all y scale ${stretch} remap
        change_box all y scale 1.049 remap
  orthogonal box = (0 -0.142895 -0.280613) to (3.36736 5.97533 0.280613)
        min_style ${style}
        min_style hftn
        minimize ${etol} ${ftol} ${maxiter} ${maxeval}
        minimize 1e-12 ${ftol} ${maxiter} ${maxeval}
        minimize 1e-12 1e-08 ${maxiter} ${maxeval}
        minimize 1e-12 1e-08 10000 ${maxeval}
        minimize 1e-12 1e-08 10000 20000
WARNING: Resetting reneighboring criteria during minimization (../min.cpp:168)
Memory usage per processor = 4.85099 Mbytes
Step PotEng Pxx Pyy Pxy Lx Ly Lz 
       0   -53.342434  -0.38664977   -1.2771698 9.4420394e-17      3.36736    6.1182296   0.56122687 
       1   -53.342434  -0.38664977   -1.2771698 6.3813493e-17      3.36736    6.1182296   0.56122687 
Loop time of 0.000162903 on 1 procs for 0 steps with 18 atoms

Minimization stats:
  Stopping criterion = force tolerance
  Energy initial, next-to-last, final = 
        -53.3424337115     -53.3424337115     -53.3424337117
  Force two-norm initial, final = 0.000636341 1.36255e-09
  Force max component initial, final = 0.000146712 3.98821e-10
  Final line search alpha, max atom move = 0 0
  Iterations, force evaluations = 0 7

Pair  time (%) = 8.60629e-05 (52.8308)
Neigh time (%) = 0 (0)
Comm  time (%) = 1.45935e-05 (8.95838)
Outpt time (%) = 0 (0)
Other time (%) = 6.22466e-05 (38.2108)

Nlocal:    18 ave 18 max 18 min
Histogram: 1 0 0 0 0 0 0 0 0 0
Nghost:    65 ave 65 max 65 min
Histogram: 1 0 0 0 0 0 0 0 0 0
Neighs:    126 ave 126 max 126 min
Histogram: 1 0 0 0 0 0 0 0 0 0

Total # of neighbors = 126
Ave neighs/atom = 7
Neighbor list builds = 0
Dangerous builds = 0
        next i
jump SELF loop1
	read_dump orig.dump 0 x y
  orthogonal box = (0 0 -0.280613) to (3.36736 5.83244 0.280613)
  18 atoms before read
  18 atoms in snapshot
  0 atoms purged
  18 atoms replaced
  0 atoms trimmed
  0 atoms added
  18 atoms after read
        variable stretch equal 1+$i*${strainstep}
        variable stretch equal 1+99*${strainstep}
        variable stretch equal 1+99*0.0005
        change_box all ${direction} scale ${stretch} remap
        change_box all y scale ${stretch} remap
        change_box all y scale 1.0495 remap
  orthogonal box = (0 -0.144353 -0.280613) to (3.36736 5.97679 0.280613)
        min_style ${style}
        min_style hftn
        minimize ${etol} ${ftol} ${maxiter} ${maxeval}
        minimize 1e-12 ${ftol} ${maxiter} ${maxeval}
        minimize 1e-12 1e-08 ${maxiter} ${maxeval}
        minimize 1e-12 1e-08 10000 ${maxeval}
        minimize 1e-12 1e-08 10000 20000
WARNING: Resetting reneighboring criteria during minimization (../min.cpp:168)
Memory usage per processor = 4.85099 Mbytes
Step PotEng Pxx Pyy Pxy Lx Ly Lz 
       0   -53.329835   -0.3894258   -1.2875602 -1.4308326e-16      3.36736    6.1211458   0.56122687 
       1   -53.329835   -0.3894258   -1.2875602 1.0901933e-16      3.36736    6.1211458   0.56122687 
Loop time of 0.000216006 on 1 procs for 0 steps with 18 atoms

Minimization stats:
  Stopping criterion = force tolerance
  Energy initial, next-to-last, final = 
        -53.3298345149     -53.3298345149      -53.329834515
  Force two-norm initial, final = 0.000637157 1.36385e-09
  Force max component initial, final = 0.000146979 3.99215e-10
  Final line search alpha, max atom move = 0 0
  Iterations, force evaluations = 0 7

Pair  time (%) = 0.000114855 (53.1725)
Neigh time (%) = 0 (0)
Comm  time (%) = 2.23899e-05 (10.3654)
Outpt time (%) = 0 (0)
Other time (%) = 7.87602e-05 (36.4621)

Nlocal:    18 ave 18 max 18 min
Histogram: 1 0 0 0 0 0 0 0 0 0
Nghost:    65 ave 65 max 65 min
Histogram: 1 0 0 0 0 0 0 0 0 0
Neighs:    126 ave 126 max 126 min
Histogram: 1 0 0 0 0 0 0 0 0 0

Total # of neighbors = 126
Ave neighs/atom = 7
Neighbor list builds = 0
Dangerous builds = 0
        next i
jump SELF loop1
	read_dump orig.dump 0 x y
  orthogonal box = (0 0 -0.280613) to (3.36736 5.83244 0.280613)
  18 atoms before read
  18 atoms in snapshot
  0 atoms purged
  18 atoms replaced
  0 atoms trimmed
  0 atoms added
  18 atoms after read
        variable stretch equal 1+$i*${strainstep}
        variable stretch equal 1+100*${strainstep}
        variable stretch equal 1+100*0.0005
        change_box all ${direction} scale ${stretch} remap
        change_box all y scale ${stretch} remap
        change_box all y scale 1.05 remap
  orthogonal box = (0 -0.145811 -0.280613) to (3.36736 5.97825 0.280613)
        min_style ${style}
        min_style hftn
        minimize ${etol} ${ftol} ${maxiter} ${maxeval}
        minimize 1e-12 ${ftol} ${maxiter} ${maxeval}
        minimize 1e-12 1e-08 ${maxiter} ${maxeval}
        minimize 1e-12 1e-08 10000 ${maxeval}
        minimize 1e-12 1e-08 10000 20000
WARNING: Resetting reneighboring criteria during minimization (../min.cpp:168)
Memory usage per processor = 4.85099 Mbytes
Step PotEng Pxx Pyy Pxy Lx Ly Lz 
       0   -53.317131   -0.3921813   -1.2979008 1.8663154e-16      3.36736     6.124062   0.56122687 
       1   -53.317131   -0.3921813   -1.2979008 1.0812621e-16      3.36736     6.124062   0.56122687 
Loop time of 0.00031091 on 1 procs for 0 steps with 18 atoms

Minimization stats:
  Stopping criterion = force tolerance
  Energy initial, next-to-last, final = 
        -53.3171311886     -53.3171311886     -53.3171311887
  Force two-norm initial, final = 0.000634289 1.3553e-09
  Force max component initial, final = 0.000146064 3.96339e-10
  Final line search alpha, max atom move = 0 0
  Iterations, force evaluations = 0 7

Pair  time (%) = 0.000130506 (41.9754)
Neigh time (%) = 0 (0)
Comm  time (%) = 6.50622e-05 (20.9264)
Outpt time (%) = 0 (0)
Other time (%) = 0.000115342 (37.0982)

Nlocal:    18 ave 18 max 18 min
Histogram: 1 0 0 0 0 0 0 0 0 0
Nghost:    65 ave 65 max 65 min
Histogram: 1 0 0 0 0 0 0 0 0 0
Neighs:    126 ave 126 max 126 min
Histogram: 1 0 0 0 0 0 0 0 0 0

Total # of neighbors = 126
Ave neighs/atom = 7
Neighbor list builds = 0
Dangerous builds = 0
        next i
jump SELF loop1

