LAMMPS (28 Jun 2014)
# attempt at getting tensile strain-stress curve for infinite slab

#file prefix
variable prefix string tension_V_inter3
variable dumpfile string ${prefix}.*.dump
variable dumpfile string tension_V_inter3.*.dump
variable restartfile string ${prefix}.*.equil
variable restartfile string tension_V_inter3.*.equil

#Mass (g/mol)
variable m equal 1

# lattice constant (in Angstroms) and orientation of axes (given by lattice vectors)
variable rho equal 0.9165
variable x1 equal 1
variable x2 equal 0
variable x3 equal 0
variable y1 equal 0
variable y2 equal 1
variable y3 equal 0
# length of lattice in different directions (using orientation of lattice vectors)
variable ax equal sqrt(${x1}*${x1}+${x2}*${x2}+${x3}*${x3})
variable ax equal sqrt(1*${x1}+${x2}*${x2}+${x3}*${x3})
variable ax equal sqrt(1*1+${x2}*${x2}+${x3}*${x3})
variable ax equal sqrt(1*1+0*${x2}+${x3}*${x3})
variable ax equal sqrt(1*1+0*0+${x3}*${x3})
variable ax equal sqrt(1*1+0*0+0*${x3})
variable ax equal sqrt(1*1+0*0+0*0)
variable ay equal sqrt(${y1}*${y1}+${y2}*${y2}+${y3}*${y3})
variable ay equal sqrt(0*${y1}+${y2}*${y2}+${y3}*${y3})
variable ay equal sqrt(0*0+${y2}*${y2}+${y3}*${y3})
variable ay equal sqrt(0*0+1*${y2}+${y3}*${y3})
variable ay equal sqrt(0*0+1*1+${y3}*${y3})
variable ay equal sqrt(0*0+1*1+0*${y3})
variable ay equal sqrt(0*0+1*1+0*0)
variable az equal 1

# size of box in lattice units
variable lxpos equal 3
variable lxneg equal 0
variable lypos equal 3
variable lyneg equal 0
variable lzpos equal 0.25
variable lzneg equal -0.25

# Define minimization parameters and damping
variable etol equal 1.0e-12
variable ftol equal 1.0e-8
variable maxiter equal 10000
variable maxeval equal 20000
variable style string hftn

# boundary conditions
dimension	2
boundary	p p p
atom_style	atomic

# create geometry
units		lj
lattice         hex ${rho}
lattice         hex 0.9165
Lattice spacing in x,y,z = 1.12245 1.94415 1.12245
region		myregion block ${lxneg} ${lxpos} ${lyneg} ${lypos} ${lzneg} ${lzpos} units lattice
region		myregion block 0 ${lxpos} ${lyneg} ${lypos} ${lzneg} ${lzpos} units lattice
region		myregion block 0 3 ${lyneg} ${lypos} ${lzneg} ${lzpos} units lattice
region		myregion block 0 3 0 ${lypos} ${lzneg} ${lzpos} units lattice
region		myregion block 0 3 0 3 ${lzneg} ${lzpos} units lattice
region		myregion block 0 3 0 3 -0.25 ${lzpos} units lattice
region		myregion block 0 3 0 3 -0.25 0.25 units lattice
create_box	1 myregion
Created orthogonal box = (0 0 -0.280613) to (3.36736 5.83244 0.280613)
  1 by 1 by 1 MPI processor grid
create_atoms	1 box
Created 18 atoms

# define masses
mass * $m
mass * 1

# my fake/morse potential
pair_style      table linear 3001
pair_coeff      * * vpotential_inter3 dummy
neighbor	0.3 bin
neigh_modify	delay 5

# Setup output
thermo 1
thermo_style custom step pe pxx pyy pxy lx ly lz
thermo_modify norm no

# Compute initial state by relaxing box
min_style ${style}
min_style hftn
minimize ${etol} ${ftol} ${maxiter} ${maxeval}
minimize 1e-12 ${ftol} ${maxiter} ${maxeval}
minimize 1e-12 1e-08 ${maxiter} ${maxeval}
minimize 1e-12 1e-08 10000 ${maxeval}
minimize 1e-12 1e-08 10000 20000
WARNING: Resetting reneighboring criteria during minimization (../min.cpp:168)
Memory usage per processor = 4.85099 Mbytes
Step PotEng Pxx Pyy Pxy Lx Ly Lz 
       0   -53.999984 0.0003469208 0.0003469208 6.0896838e-20    3.3673612    5.8324407   0.56122687 
Loop time of 1.30514e-05 on 1 procs for 0 steps with 18 atoms

Minimization stats:
  Stopping criterion = force tolerance
  Energy initial, next-to-last, final = 
         -53.999983866      -53.999983866      -53.999983866
  Force two-norm initial, final = 1.11801e-13 1.11801e-13
  Force max component initial, final = 5.05401e-14 5.05401e-14
  Final line search alpha, max atom move = 0 0
  Iterations, force evaluations = 0 0

Pair  time (%) = 5.04463e-06 (38.6519)
Neigh time (%) = 0 (0)
Comm  time (%) = 2.0361e-06 (15.6006)
Outpt time (%) = 0 (0)
Other time (%) = 5.97071e-06 (45.7475)

Nlocal:    18 ave 18 max 18 min
Histogram: 1 0 0 0 0 0 0 0 0 0
Nghost:    65 ave 65 max 65 min
Histogram: 1 0 0 0 0 0 0 0 0 0
Neighs:    162 ave 162 max 162 min
Histogram: 1 0 0 0 0 0 0 0 0 0

Total # of neighbors = 162
Ave neighs/atom = 9
Neighbor list builds = 0
Dangerous builds = 0
reset_timestep 0
write_dump all atom orig.dump

# Energy curve will have nstep steps
variable strainmax equal 0.05
variable strainstep equal 0.0005
variable nsteps equal round(${strainmax}/${strainstep})
variable nsteps equal round(0.05/${strainstep})
variable nsteps equal round(0.05/0.0005)
variable direction string y

variable i loop ${nsteps}
variable i loop 100
label loop1
	read_dump orig.dump 0 x y
  orthogonal box = (0 0 -0.280613) to (3.36736 5.83244 0.280613)
  18 atoms before read
  18 atoms in snapshot
  0 atoms purged
  18 atoms replaced
  0 atoms trimmed
  0 atoms added
  18 atoms after read
        variable stretch equal 1+$i*${strainstep}
        variable stretch equal 1+1*${strainstep}
        variable stretch equal 1+1*0.0005
        change_box all ${direction} scale ${stretch} remap
        change_box all y scale ${stretch} remap
        change_box all y scale 1.0005 remap
  orthogonal box = (0 -0.00145811 -0.280613) to (3.36736 5.8339 0.280613)
        min_style ${style}
        min_style hftn
        minimize ${etol} ${ftol} ${maxiter} ${maxeval}
        minimize 1e-12 ${ftol} ${maxiter} ${maxeval}
        minimize 1e-12 1e-08 ${maxiter} ${maxeval}
        minimize 1e-12 1e-08 10000 ${maxeval}
        minimize 1e-12 1e-08 10000 20000
WARNING: Resetting reneighboring criteria during minimization (../min.cpp:168)
Memory usage per processor = 4.85099 Mbytes
Step PotEng Pxx Pyy Pxy Lx Ly Lz 
       0   -53.999884 -0.0049247753 -0.015513808 -9.0571348e-19      3.36736    5.8353562   0.56122687 
       1   -53.999884 -0.0049247751 -0.015513808 1.3411831e-18      3.36736    5.8353562   0.56122687 
Loop time of 9.99618e-05 on 1 procs for 0 steps with 18 atoms

Minimization stats:
  Stopping criterion = force tolerance
  Energy initial, next-to-last, final = 
        -53.9998837515     -53.9998837515     -53.9998837515
  Force two-norm initial, final = 0.000856117 2.04671e-09
  Force max component initial, final = 0.000213831 6.26066e-10
  Final line search alpha, max atom move = 0 0
  Iterations, force evaluations = 0 7

Pair  time (%) = 3.90767e-05 (39.0916)
Neigh time (%) = 0 (0)
Comm  time (%) = 4.91366e-06 (4.91554)
Outpt time (%) = 0 (0)
Other time (%) = 5.59714e-05 (55.9928)

Nlocal:    18 ave 18 max 18 min
Histogram: 1 0 0 0 0 0 0 0 0 0
Nghost:    65 ave 65 max 65 min
Histogram: 1 0 0 0 0 0 0 0 0 0
Neighs:    162 ave 162 max 162 min
Histogram: 1 0 0 0 0 0 0 0 0 0

Total # of neighbors = 162
Ave neighs/atom = 9
Neighbor list builds = 0
Dangerous builds = 0
        next i
jump SELF loop1
	read_dump orig.dump 0 x y
  orthogonal box = (0 0 -0.280613) to (3.36736 5.83244 0.280613)
  18 atoms before read
  18 atoms in snapshot
  0 atoms purged
  18 atoms replaced
  0 atoms trimmed
  0 atoms added
  18 atoms after read
        variable stretch equal 1+$i*${strainstep}
        variable stretch equal 1+2*${strainstep}
        variable stretch equal 1+2*0.0005
        change_box all ${direction} scale ${stretch} remap
        change_box all y scale ${stretch} remap
        change_box all y scale 1.001 remap
  orthogonal box = (0 -0.00291622 -0.280613) to (3.36736 5.83536 0.280613)
        min_style ${style}
        min_style hftn
        minimize ${etol} ${ftol} ${maxiter} ${maxeval}
        minimize 1e-12 ${ftol} ${maxiter} ${maxeval}
        minimize 1e-12 1e-08 ${maxiter} ${maxeval}
        minimize 1e-12 1e-08 10000 ${maxeval}
        minimize 1e-12 1e-08 10000 20000
WARNING: Resetting reneighboring criteria during minimization (../min.cpp:168)
Memory usage per processor = 4.85099 Mbytes
Step PotEng Pxx Pyy Pxy Lx Ly Lz 
       0   -53.999654 -0.010182196 -0.031332786 -2.3628104e-16      3.36736    5.8382724   0.56122687 
       1   -53.999654 -0.010182196 -0.031332785 -1.8349334e-16      3.36736    5.8382724   0.56122687 
Loop time of 0.000112115 on 1 procs for 0 steps with 18 atoms

Minimization stats:
  Stopping criterion = force tolerance
  Energy initial, next-to-last, final = 
        -53.9996543937     -53.9996543937     -53.9996543937
  Force two-norm initial, final = 0.000851934 2.03423e-09
  Force max component initial, final = 0.000212585 6.21941e-10
  Final line search alpha, max atom move = 0 0
  Iterations, force evaluations = 0 7

Pair  time (%) = 3.52316e-05 (31.4245)
Neigh time (%) = 0 (0)
Comm  time (%) = 4.32984e-06 (3.86195)
Outpt time (%) = 0 (0)
Other time (%) = 7.25538e-05 (64.7136)

Nlocal:    18 ave 18 max 18 min
Histogram: 1 0 0 0 0 0 0 0 0 0
Nghost:    65 ave 65 max 65 min
Histogram: 1 0 0 0 0 0 0 0 0 0
Neighs:    162 ave 162 max 162 min
Histogram: 1 0 0 0 0 0 0 0 0 0

Total # of neighbors = 162
Ave neighs/atom = 9
Neighbor list builds = 0
Dangerous builds = 0
        next i
jump SELF loop1
	read_dump orig.dump 0 x y
  orthogonal box = (0 0 -0.280613) to (3.36736 5.83244 0.280613)
  18 atoms before read
  18 atoms in snapshot
  0 atoms purged
  18 atoms replaced
  0 atoms trimmed
  0 atoms added
  18 atoms after read
        variable stretch equal 1+$i*${strainstep}
        variable stretch equal 1+3*${strainstep}
        variable stretch equal 1+3*0.0005
        change_box all ${direction} scale ${stretch} remap
        change_box all y scale ${stretch} remap
        change_box all y scale 1.0015 remap
  orthogonal box = (0 -0.00437433 -0.280613) to (3.36736 5.83681 0.280613)
        min_style ${style}
        min_style hftn
        minimize ${etol} ${ftol} ${maxiter} ${maxeval}
        minimize 1e-12 ${ftol} ${maxiter} ${maxeval}
        minimize 1e-12 1e-08 ${maxiter} ${maxeval}
        minimize 1e-12 1e-08 10000 ${maxeval}
        minimize 1e-12 1e-08 10000 20000
WARNING: Resetting reneighboring criteria during minimization (../min.cpp:168)
Memory usage per processor = 4.85099 Mbytes
Step PotEng Pxx Pyy Pxy Lx Ly Lz 
       0   -53.999296 -0.015412661 -0.047102243 -1.7634117e-16      3.36736    5.8411887   0.56122687 
       1   -53.999296  -0.01541266 -0.047102243 -2.9319457e-16      3.36736    5.8411887   0.56122687 
Loop time of 6.2091e-05 on 1 procs for 0 steps with 18 atoms

Minimization stats:
  Stopping criterion = force tolerance
  Energy initial, next-to-last, final = 
        -53.9992956634     -53.9992956634     -53.9992956634
  Force two-norm initial, final = 0.000847795 2.0219e-09
  Force max component initial, final = 0.000211352 6.1787e-10
  Final line search alpha, max atom move = 0 0
  Iterations, force evaluations = 0 7

Pair  time (%) = 3.3867e-05 (54.544)
Neigh time (%) = 0 (0)
Comm  time (%) = 8.79273e-06 (14.161)
Outpt time (%) = 0 (0)
Other time (%) = 1.94313e-05 (31.2949)

Nlocal:    18 ave 18 max 18 min
Histogram: 1 0 0 0 0 0 0 0 0 0
Nghost:    65 ave 65 max 65 min
Histogram: 1 0 0 0 0 0 0 0 0 0
Neighs:    162 ave 162 max 162 min
Histogram: 1 0 0 0 0 0 0 0 0 0

Total # of neighbors = 162
Ave neighs/atom = 9
Neighbor list builds = 0
Dangerous builds = 0
        next i
jump SELF loop1
	read_dump orig.dump 0 x y
  orthogonal box = (0 0 -0.280613) to (3.36736 5.83244 0.280613)
  18 atoms before read
  18 atoms in snapshot
  0 atoms purged
  18 atoms replaced
  0 atoms trimmed
  0 atoms added
  18 atoms after read
        variable stretch equal 1+$i*${strainstep}
        variable stretch equal 1+4*${strainstep}
        variable stretch equal 1+4*0.0005
        change_box all ${direction} scale ${stretch} remap
        change_box all y scale ${stretch} remap
        change_box all y scale 1.002 remap
  orthogonal box = (0 -0.00583244 -0.280613) to (3.36736 5.83827 0.280613)
        min_style ${style}
        min_style hftn
        minimize ${etol} ${ftol} ${maxiter} ${maxeval}
        minimize 1e-12 ${ftol} ${maxiter} ${maxeval}
        minimize 1e-12 1e-08 ${maxiter} ${maxeval}
        minimize 1e-12 1e-08 10000 ${maxeval}
        minimize 1e-12 1e-08 10000 20000
WARNING: Resetting reneighboring criteria during minimization (../min.cpp:168)
Memory usage per processor = 4.85099 Mbytes
Step PotEng Pxx Pyy Pxy Lx Ly Lz 
       0   -53.998736 -0.020602799 -0.062781691 2.0745859e-18      3.36736    5.8441049   0.56122687 
       1   -53.998736 -0.020602799 -0.062781691 -1.2418131e-16      3.36736    5.8441049   0.56122687 
Loop time of 6.29432e-05 on 1 procs for 0 steps with 18 atoms

Minimization stats:
  Stopping criterion = force tolerance
  Energy initial, next-to-last, final = 
        -53.9987360433     -53.9987360433     -53.9987360433
  Force two-norm initial, final = 0.000849163 2.02469e-09
  Force max component initial, final = 0.000211773 6.18817e-10
  Final line search alpha, max atom move = 0 0
  Iterations, force evaluations = 0 7

Pair  time (%) = 3.81608e-05 (60.6274)
Neigh time (%) = 0 (0)
Comm  time (%) = 6.22799e-06 (9.89461)
Outpt time (%) = 0 (0)
Other time (%) = 1.85544e-05 (29.478)

Nlocal:    18 ave 18 max 18 min
Histogram: 1 0 0 0 0 0 0 0 0 0
Nghost:    65 ave 65 max 65 min
Histogram: 1 0 0 0 0 0 0 0 0 0
Neighs:    162 ave 162 max 162 min
Histogram: 1 0 0 0 0 0 0 0 0 0

Total # of neighbors = 162
Ave neighs/atom = 9
Neighbor list builds = 0
Dangerous builds = 0
        next i
jump SELF loop1
	read_dump orig.dump 0 x y
  orthogonal box = (0 0 -0.280613) to (3.36736 5.83244 0.280613)
  18 atoms before read
  18 atoms in snapshot
  0 atoms purged
  18 atoms replaced
  0 atoms trimmed
  0 atoms added
  18 atoms after read
        variable stretch equal 1+$i*${strainstep}
        variable stretch equal 1+5*${strainstep}
        variable stretch equal 1+5*0.0005
        change_box all ${direction} scale ${stretch} remap
        change_box all y scale ${stretch} remap
        change_box all y scale 1.0025 remap
  orthogonal box = (0 -0.00729055 -0.280613) to (3.36736 5.83973 0.280613)
        min_style ${style}
        min_style hftn
        minimize ${etol} ${ftol} ${maxiter} ${maxeval}
        minimize 1e-12 ${ftol} ${maxiter} ${maxeval}
        minimize 1e-12 1e-08 ${maxiter} ${maxeval}
        minimize 1e-12 1e-08 10000 ${maxeval}
        minimize 1e-12 1e-08 10000 20000
WARNING: Resetting reneighboring criteria during minimization (../min.cpp:168)
Memory usage per processor = 4.85099 Mbytes
Step PotEng Pxx Pyy Pxy Lx Ly Lz 
       0   -53.998032 -0.025763191 -0.078402686 5.9376999e-18      3.36736    5.8470211   0.56122687 
       1   -53.998032 -0.025763191 -0.078402686 -6.5382408e-17      3.36736    5.8470211   0.56122687 
Loop time of 9.51148e-05 on 1 procs for 0 steps with 18 atoms

Minimization stats:
  Stopping criterion = force tolerance
  Energy initial, next-to-last, final = 
        -53.9980321141     -53.9980321141     -53.9980321141
  Force two-norm initial, final = 0.000845024 2.01264e-09
  Force max component initial, final = 0.000210539 6.14789e-10
  Final line search alpha, max atom move = 0 0
  Iterations, force evaluations = 0 7

Pair  time (%) = 3.92823e-05 (41.2998)
Neigh time (%) = 0 (0)
Comm  time (%) = 3.27872e-06 (3.44712)
Outpt time (%) = 0 (0)
Other time (%) = 5.25538e-05 (55.2531)

Nlocal:    18 ave 18 max 18 min
Histogram: 1 0 0 0 0 0 0 0 0 0
Nghost:    65 ave 65 max 65 min
Histogram: 1 0 0 0 0 0 0 0 0 0
Neighs:    162 ave 162 max 162 min
Histogram: 1 0 0 0 0 0 0 0 0 0

Total # of neighbors = 162
Ave neighs/atom = 9
Neighbor list builds = 0
Dangerous builds = 0
        next i
jump SELF loop1
	read_dump orig.dump 0 x y
  orthogonal box = (0 0 -0.280613) to (3.36736 5.83244 0.280613)
  18 atoms before read
  18 atoms in snapshot
  0 atoms purged
  18 atoms replaced
  0 atoms trimmed
  0 atoms added
  18 atoms after read
        variable stretch equal 1+$i*${strainstep}
        variable stretch equal 1+6*${strainstep}
        variable stretch equal 1+6*0.0005
        change_box all ${direction} scale ${stretch} remap
        change_box all y scale ${stretch} remap
        change_box all y scale 1.003 remap
  orthogonal box = (0 -0.00874866 -0.280613) to (3.36736 5.84119 0.280613)
        min_style ${style}
        min_style hftn
        minimize ${etol} ${ftol} ${maxiter} ${maxeval}
        minimize 1e-12 ${ftol} ${maxiter} ${maxeval}
        minimize 1e-12 1e-08 ${maxiter} ${maxeval}
        minimize 1e-12 1e-08 10000 ${maxeval}
        minimize 1e-12 1e-08 10000 20000
WARNING: Resetting reneighboring criteria during minimization (../min.cpp:168)
Memory usage per processor = 4.85099 Mbytes
Step PotEng Pxx Pyy Pxy Lx Ly Lz 
       0     -53.9972 -0.030897012 -0.093974569 2.2066626e-16      3.36736    5.8499373   0.56122687 
       1     -53.9972 -0.030897012 -0.093974568 2.3105752e-16      3.36736    5.8499373   0.56122687 
Loop time of 9.41129e-05 on 1 procs for 0 steps with 18 atoms

Minimization stats:
  Stopping criterion = force tolerance
  Energy initial, next-to-last, final = 
        -53.9972003828     -53.9972003828     -53.9972003828
  Force two-norm initial, final = 0.00084092 2.00039e-09
  Force max component initial, final = 0.000209314 6.10794e-10
  Final line search alpha, max atom move = 0 0
  Iterations, force evaluations = 0 7

Pair  time (%) = 3.41283e-05 (36.2631)
Neigh time (%) = 0 (0)
Comm  time (%) = 9.07667e-06 (9.64444)
Outpt time (%) = 0 (0)
Other time (%) = 5.0908e-05 (54.0924)

Nlocal:    18 ave 18 max 18 min
Histogram: 1 0 0 0 0 0 0 0 0 0
Nghost:    65 ave 65 max 65 min
Histogram: 1 0 0 0 0 0 0 0 0 0
Neighs:    162 ave 162 max 162 min
Histogram: 1 0 0 0 0 0 0 0 0 0

Total # of neighbors = 162
Ave neighs/atom = 9
Neighbor list builds = 0
Dangerous builds = 0
        next i
jump SELF loop1
	read_dump orig.dump 0 x y
  orthogonal box = (0 0 -0.280613) to (3.36736 5.83244 0.280613)
  18 atoms before read
  18 atoms in snapshot
  0 atoms purged
  18 atoms replaced
  0 atoms trimmed
  0 atoms added
  18 atoms after read
        variable stretch equal 1+$i*${strainstep}
        variable stretch equal 1+7*${strainstep}
        variable stretch equal 1+7*0.0005
        change_box all ${direction} scale ${stretch} remap
        change_box all y scale ${stretch} remap
        change_box all y scale 1.0035 remap
  orthogonal box = (0 -0.0102068 -0.280613) to (3.36736 5.84265 0.280613)
        min_style ${style}
        min_style hftn
        minimize ${etol} ${ftol} ${maxiter} ${maxeval}
        minimize 1e-12 ${ftol} ${maxiter} ${maxeval}
        minimize 1e-12 1e-08 ${maxiter} ${maxeval}
        minimize 1e-12 1e-08 10000 ${maxeval}
        minimize 1e-12 1e-08 10000 20000
WARNING: Resetting reneighboring criteria during minimization (../min.cpp:168)
Memory usage per processor = 4.85099 Mbytes
Step PotEng Pxx Pyy Pxy Lx Ly Lz 
       0    -53.99621 -0.035998465  -0.10947961 6.655312e-17      3.36736    5.8528535   0.56122687 
       1    -53.99621 -0.035998465  -0.10947961 1.7762425e-16      3.36736    5.8528535   0.56122687 
Loop time of 9.29143e-05 on 1 procs for 0 steps with 18 atoms

Minimization stats:
  Stopping criterion = force tolerance
  Energy initial, next-to-last, final = 
        -53.9962096735     -53.9962096735     -53.9962096735
  Force two-norm initial, final = 0.000842269 2.00325e-09
  Force max component initial, final = 0.000209731 6.11679e-10
  Final line search alpha, max atom move = 0 0
  Iterations, force evaluations = 0 7

Pair  time (%) = 3.8168e-05 (41.0787)
Neigh time (%) = 0 (0)
Comm  time (%) = 6.19597e-06 (6.66848)
Outpt time (%) = 0 (0)
Other time (%) = 4.85503e-05 (52.2528)

Nlocal:    18 ave 18 max 18 min
Histogram: 1 0 0 0 0 0 0 0 0 0
Nghost:    65 ave 65 max 65 min
Histogram: 1 0 0 0 0 0 0 0 0 0
Neighs:    162 ave 162 max 162 min
Histogram: 1 0 0 0 0 0 0 0 0 0

Total # of neighbors = 162
Ave neighs/atom = 9
Neighbor list builds = 0
Dangerous builds = 0
        next i
jump SELF loop1
	read_dump orig.dump 0 x y
  orthogonal box = (0 0 -0.280613) to (3.36736 5.83244 0.280613)
  18 atoms before read
  18 atoms in snapshot
  0 atoms purged
  18 atoms replaced
  0 atoms trimmed
  0 atoms added
  18 atoms after read
        variable stretch equal 1+$i*${strainstep}
        variable stretch equal 1+8*${strainstep}
        variable stretch equal 1+8*0.0005
        change_box all ${direction} scale ${stretch} remap
        change_box all y scale ${stretch} remap
        change_box all y scale 1.004 remap
  orthogonal box = (0 -0.0116649 -0.280613) to (3.36736 5.8441 0.280613)
        min_style ${style}
        min_style hftn
        minimize ${etol} ${ftol} ${maxiter} ${maxeval}
        minimize 1e-12 ${ftol} ${maxiter} ${maxeval}
        minimize 1e-12 1e-08 ${maxiter} ${maxeval}
        minimize 1e-12 1e-08 10000 ${maxeval}
        minimize 1e-12 1e-08 10000 20000
WARNING: Resetting reneighboring criteria during minimization (../min.cpp:168)
Memory usage per processor = 4.85099 Mbytes
Step PotEng Pxx Pyy Pxy Lx Ly Lz 
       0   -53.995037 -0.041063234  -0.12490448 -1.1451582e-16      3.36736    5.8557698   0.56122687 
       1   -53.995037 -0.041063233  -0.12490448 1.4013202e-17      3.36736    5.8557698   0.56122687 
Loop time of 6.19073e-05 on 1 procs for 0 steps with 18 atoms

Minimization stats:
  Stopping criterion = force tolerance
  Energy initial, next-to-last, final = 
        -53.9950368591     -53.9950368591     -53.9950368591
  Force two-norm initial, final = 0.000838185 1.99109e-09
  Force max component initial, final = 0.000208511 6.07723e-10
  Final line search alpha, max atom move = 0 0
  Iterations, force evaluations = 0 7

Pair  time (%) = 3.50203e-05 (56.5689)
Neigh time (%) = 0 (0)
Comm  time (%) = 8.90694e-06 (14.3875)
Outpt time (%) = 0 (0)
Other time (%) = 1.79801e-05 (29.0436)

Nlocal:    18 ave 18 max 18 min
Histogram: 1 0 0 0 0 0 0 0 0 0
Nghost:    65 ave 65 max 65 min
Histogram: 1 0 0 0 0 0 0 0 0 0
Neighs:    162 ave 162 max 162 min
Histogram: 1 0 0 0 0 0 0 0 0 0

Total # of neighbors = 162
Ave neighs/atom = 9
Neighbor list builds = 0
Dangerous builds = 0
        next i
jump SELF loop1
	read_dump orig.dump 0 x y
  orthogonal box = (0 0 -0.280613) to (3.36736 5.83244 0.280613)
  18 atoms before read
  18 atoms in snapshot
  0 atoms purged
  18 atoms replaced
  0 atoms trimmed
  0 atoms added
  18 atoms after read
        variable stretch equal 1+$i*${strainstep}
        variable stretch equal 1+9*${strainstep}
        variable stretch equal 1+9*0.0005
        change_box all ${direction} scale ${stretch} remap
        change_box all y scale ${stretch} remap
        change_box all y scale 1.0045 remap
  orthogonal box = (0 -0.013123 -0.280613) to (3.36736 5.84556 0.280613)
        min_style ${style}
        min_style hftn
        minimize ${etol} ${ftol} ${maxiter} ${maxeval}
        minimize 1e-12 ${ftol} ${maxiter} ${maxeval}
        minimize 1e-12 1e-08 ${maxiter} ${maxeval}
        minimize 1e-12 1e-08 10000 ${maxeval}
        minimize 1e-12 1e-08 10000 20000
WARNING: Resetting reneighboring criteria during minimization (../min.cpp:168)
Memory usage per processor = 4.85099 Mbytes
Step PotEng Pxx Pyy Pxy Lx Ly Lz 
       0   -53.993738 -0.046101772  -0.14028053 -1.6434427e-16      3.36736     5.858686   0.56122687 
       1   -53.993738 -0.046101772  -0.14028052 -5.9823046e-17      3.36736     5.858686   0.56122687 
Loop time of 6.19381e-05 on 1 procs for 0 steps with 18 atoms

Minimization stats:
  Stopping criterion = force tolerance
  Energy initial, next-to-last, final = 
        -53.9937377172     -53.9937377172     -53.9937377172
  Force two-norm initial, final = 0.000834106 1.97879e-09
  Force max component initial, final = 0.000207292 6.03627e-10
  Final line search alpha, max atom move = 0 0
  Iterations, force evaluations = 0 7

Pair  time (%) = 3.3358e-05 (53.857)
Neigh time (%) = 0 (0)
Comm  time (%) = 1.09669e-05 (17.7062)
Outpt time (%) = 0 (0)
Other time (%) = 1.76132e-05 (28.4367)

Nlocal:    18 ave 18 max 18 min
Histogram: 1 0 0 0 0 0 0 0 0 0
Nghost:    65 ave 65 max 65 min
Histogram: 1 0 0 0 0 0 0 0 0 0
Neighs:    162 ave 162 max 162 min
Histogram: 1 0 0 0 0 0 0 0 0 0

Total # of neighbors = 162
Ave neighs/atom = 9
Neighbor list builds = 0
Dangerous builds = 0
        next i
jump SELF loop1
	read_dump orig.dump 0 x y
  orthogonal box = (0 0 -0.280613) to (3.36736 5.83244 0.280613)
  18 atoms before read
  18 atoms in snapshot
  0 atoms purged
  18 atoms replaced
  0 atoms trimmed
  0 atoms added
  18 atoms after read
        variable stretch equal 1+$i*${strainstep}
        variable stretch equal 1+10*${strainstep}
        variable stretch equal 1+10*0.0005
        change_box all ${direction} scale ${stretch} remap
        change_box all y scale ${stretch} remap
        change_box all y scale 1.005 remap
  orthogonal box = (0 -0.0145811 -0.280613) to (3.36736 5.84702 0.280613)
        min_style ${style}
        min_style hftn
        minimize ${etol} ${ftol} ${maxiter} ${maxeval}
        minimize 1e-12 ${ftol} ${maxiter} ${maxeval}
        minimize 1e-12 1e-08 ${maxiter} ${maxeval}
        minimize 1e-12 1e-08 10000 ${maxeval}
        minimize 1e-12 1e-08 10000 20000
WARNING: Resetting reneighboring criteria during minimization (../min.cpp:168)
Memory usage per processor = 4.85099 Mbytes
Step PotEng Pxx Pyy Pxy Lx Ly Lz 
       0   -53.992312 -0.051114095  -0.15560757 7.9456717e-18      3.36736    5.8616022   0.56122687 
       1   -53.992312 -0.051114095  -0.15560757 5.2414353e-17      3.36736    5.8616022   0.56122687 
Loop time of 6.19817e-05 on 1 procs for 0 steps with 18 atoms

Minimization stats:
  Stopping criterion = force tolerance
  Energy initial, next-to-last, final = 
        -53.9923122513     -53.9923122513     -53.9923122513
  Force two-norm initial, final = 0.000830064 1.96707e-09
  Force max component initial, final = 0.000206083 5.99796e-10
  Final line search alpha, max atom move = 0 0
  Iterations, force evaluations = 0 7

Pair  time (%) = 3.8992e-05 (62.9089)
Neigh time (%) = 0 (0)
Comm  time (%) = 4.41354e-06 (7.12071)
Outpt time (%) = 0 (0)
Other time (%) = 1.85762e-05 (29.9704)

Nlocal:    18 ave 18 max 18 min
Histogram: 1 0 0 0 0 0 0 0 0 0
Nghost:    65 ave 65 max 65 min
Histogram: 1 0 0 0 0 0 0 0 0 0
Neighs:    162 ave 162 max 162 min
Histogram: 1 0 0 0 0 0 0 0 0 0

Total # of neighbors = 162
Ave neighs/atom = 9
Neighbor list builds = 0
Dangerous builds = 0
        next i
jump SELF loop1
	read_dump orig.dump 0 x y
  orthogonal box = (0 0 -0.280613) to (3.36736 5.83244 0.280613)
  18 atoms before read
  18 atoms in snapshot
  0 atoms purged
  18 atoms replaced
  0 atoms trimmed
  0 atoms added
  18 atoms after read
        variable stretch equal 1+$i*${strainstep}
        variable stretch equal 1+11*${strainstep}
        variable stretch equal 1+11*0.0005
        change_box all ${direction} scale ${stretch} remap
        change_box all y scale ${stretch} remap
        change_box all y scale 1.0055 remap
  orthogonal box = (0 -0.0160392 -0.280613) to (3.36736 5.84848 0.280613)
        min_style ${style}
        min_style hftn
        minimize ${etol} ${ftol} ${maxiter} ${maxeval}
        minimize 1e-12 ${ftol} ${maxiter} ${maxeval}
        minimize 1e-12 1e-08 ${maxiter} ${maxeval}
        minimize 1e-12 1e-08 10000 ${maxeval}
        minimize 1e-12 1e-08 10000 20000
WARNING: Resetting reneighboring criteria during minimization (../min.cpp:168)
Memory usage per processor = 4.85099 Mbytes
Step PotEng Pxx Pyy Pxy Lx Ly Lz 
       0   -53.990685 -0.056086167  -0.17084284 1.3891188e-16      3.36736    5.8645184   0.56122687 
       1   -53.990685 -0.056086167  -0.17084284 2.5475095e-16      3.36736    5.8645184   0.56122687 
Loop time of 6.19265e-05 on 1 procs for 0 steps with 18 atoms

Minimization stats:
  Stopping criterion = force tolerance
  Energy initial, next-to-last, final = 
        -53.9906854536     -53.9906854536     -53.9906854536
  Force two-norm initial, final = 0.000831386 1.96964e-09
  Force max component initial, final = 0.000206492 6.00558e-10
  Final line search alpha, max atom move = 0 0
  Iterations, force evaluations = 0 7

Pair  time (%) = 3.32193e-05 (53.6431)
Neigh time (%) = 0 (0)
Comm  time (%) = 7.928e-06 (12.8023)
Outpt time (%) = 0 (0)
Other time (%) = 2.07792e-05 (33.5546)

Nlocal:    18 ave 18 max 18 min
Histogram: 1 0 0 0 0 0 0 0 0 0
Nghost:    65 ave 65 max 65 min
Histogram: 1 0 0 0 0 0 0 0 0 0
Neighs:    162 ave 162 max 162 min
Histogram: 1 0 0 0 0 0 0 0 0 0

Total # of neighbors = 162
Ave neighs/atom = 9
Neighbor list builds = 0
Dangerous builds = 0
        next i
jump SELF loop1
	read_dump orig.dump 0 x y
  orthogonal box = (0 0 -0.280613) to (3.36736 5.83244 0.280613)
  18 atoms before read
  18 atoms in snapshot
  0 atoms purged
  18 atoms replaced
  0 atoms trimmed
  0 atoms added
  18 atoms after read
        variable stretch equal 1+$i*${strainstep}
        variable stretch equal 1+12*${strainstep}
        variable stretch equal 1+12*0.0005
        change_box all ${direction} scale ${stretch} remap
        change_box all y scale ${stretch} remap
        change_box all y scale 1.006 remap
  orthogonal box = (0 -0.0174973 -0.280613) to (3.36736 5.84994 0.280613)
        min_style ${style}
        min_style hftn
        minimize ${etol} ${ftol} ${maxiter} ${maxeval}
        minimize 1e-12 ${ftol} ${maxiter} ${maxeval}
        minimize 1e-12 1e-08 ${maxiter} ${maxeval}
        minimize 1e-12 1e-08 10000 ${maxeval}
        minimize 1e-12 1e-08 10000 20000
WARNING: Resetting reneighboring criteria during minimization (../min.cpp:168)
Memory usage per processor = 4.85099 Mbytes
Step PotEng Pxx Pyy Pxy Lx Ly Lz 
       0   -53.988925 -0.061030673  -0.18602448 3.886104e-18      3.36736    5.8674346   0.56122687 
       1   -53.988925 -0.061030673  -0.18602448 -1.5179779e-16      3.36736    5.8674346   0.56122687 
Loop time of 6.20566e-05 on 1 procs for 0 steps with 18 atoms

Minimization stats:
  Stopping criterion = force tolerance
  Energy initial, next-to-last, final = 
        -53.9889245652     -53.9889245652     -53.9889245652
  Force two-norm initial, final = 0.00082736 1.95779e-09
  Force max component initial, final = 0.000205287 5.96646e-10
  Final line search alpha, max atom move = 0 0
  Iterations, force evaluations = 0 7

Pair  time (%) = 3.78761e-05 (61.0347)
Neigh time (%) = 0 (0)
Comm  time (%) = 4.41994e-06 (7.12244)
Outpt time (%) = 0 (0)
Other time (%) = 1.97606e-05 (31.8428)

Nlocal:    18 ave 18 max 18 min
Histogram: 1 0 0 0 0 0 0 0 0 0
Nghost:    65 ave 65 max 65 min
Histogram: 1 0 0 0 0 0 0 0 0 0
Neighs:    162 ave 162 max 162 min
Histogram: 1 0 0 0 0 0 0 0 0 0

Total # of neighbors = 162
Ave neighs/atom = 9
Neighbor list builds = 0
Dangerous builds = 0
        next i
jump SELF loop1
	read_dump orig.dump 0 x y
  orthogonal box = (0 0 -0.280613) to (3.36736 5.83244 0.280613)
  18 atoms before read
  18 atoms in snapshot
  0 atoms purged
  18 atoms replaced
  0 atoms trimmed
  0 atoms added
  18 atoms after read
        variable stretch equal 1+$i*${strainstep}
        variable stretch equal 1+13*${strainstep}
        variable stretch equal 1+13*0.0005
        change_box all ${direction} scale ${stretch} remap
        change_box all y scale ${stretch} remap
        change_box all y scale 1.0065 remap
  orthogonal box = (0 -0.0189554 -0.280613) to (3.36736 5.8514 0.280613)
        min_style ${style}
        min_style hftn
        minimize ${etol} ${ftol} ${maxiter} ${maxeval}
        minimize 1e-12 ${ftol} ${maxiter} ${maxeval}
        minimize 1e-12 1e-08 ${maxiter} ${maxeval}
        minimize 1e-12 1e-08 10000 ${maxeval}
        minimize 1e-12 1e-08 10000 20000
WARNING: Resetting reneighboring criteria during minimization (../min.cpp:168)
Memory usage per processor = 4.85099 Mbytes
Step PotEng Pxx Pyy Pxy Lx Ly Lz 
       0   -53.987039 -0.065949359   -0.2011576 -8.9318381e-17      3.36736    5.8703509   0.56122687 
       1   -53.987039 -0.065949359   -0.2011576 -6.8970553e-17      3.36736    5.8703509   0.56122687 
Loop time of 6.21008e-05 on 1 procs for 0 steps with 18 atoms

Minimization stats:
  Stopping criterion = force tolerance
  Energy initial, next-to-last, final = 
        -53.9870387838     -53.9870387838     -53.9870387839
  Force two-norm initial, final = 0.000823351 1.94578e-09
  Force max component initial, final = 0.000204086 5.92711e-10
  Final line search alpha, max atom move = 0 0
  Iterations, force evaluations = 0 7

Pair  time (%) = 3.69916e-05 (59.5669)
Neigh time (%) = 0 (0)
Comm  time (%) = 6.55826e-06 (10.5607)
Outpt time (%) = 0 (0)
Other time (%) = 1.8551e-05 (29.8724)

Nlocal:    18 ave 18 max 18 min
Histogram: 1 0 0 0 0 0 0 0 0 0
Nghost:    65 ave 65 max 65 min
Histogram: 1 0 0 0 0 0 0 0 0 0
Neighs:    162 ave 162 max 162 min
Histogram: 1 0 0 0 0 0 0 0 0 0

Total # of neighbors = 162
Ave neighs/atom = 9
Neighbor list builds = 0
Dangerous builds = 0
        next i
jump SELF loop1
	read_dump orig.dump 0 x y
  orthogonal box = (0 0 -0.280613) to (3.36736 5.83244 0.280613)
  18 atoms before read
  18 atoms in snapshot
  0 atoms purged
  18 atoms replaced
  0 atoms trimmed
  0 atoms added
  18 atoms after read
        variable stretch equal 1+$i*${strainstep}
        variable stretch equal 1+14*${strainstep}
        variable stretch equal 1+14*0.0005
        change_box all ${direction} scale ${stretch} remap
        change_box all y scale ${stretch} remap
        change_box all y scale 1.007 remap
  orthogonal box = (0 -0.0204135 -0.280613) to (3.36736 5.85285 0.280613)
        min_style ${style}
        min_style hftn
        minimize ${etol} ${ftol} ${maxiter} ${maxeval}
        minimize 1e-12 ${ftol} ${maxiter} ${maxeval}
        minimize 1e-12 1e-08 ${maxiter} ${maxeval}
        minimize 1e-12 1e-08 10000 ${maxeval}
        minimize 1e-12 1e-08 10000 20000
WARNING: Resetting reneighboring criteria during minimization (../min.cpp:168)
Memory usage per processor = 4.85099 Mbytes
Step PotEng Pxx Pyy Pxy Lx Ly Lz 
       0   -53.984995 -0.070835885  -0.21622268 1.1772148e-19      3.36736    5.8732671   0.56122687 
       1   -53.984995 -0.070835885  -0.21622268 1.4714179e-17      3.36736    5.8732671   0.56122687 
Loop time of 6.1893e-05 on 1 procs for 0 steps with 18 atoms

Minimization stats:
  Stopping criterion = force tolerance
  Energy initial, next-to-last, final = 
        -53.9849945236     -53.9849945236     -53.9849945236
  Force two-norm initial, final = 0.000824655 1.94843e-09
  Force max component initial, final = 0.000204489 5.93509e-10
  Final line search alpha, max atom move = 0 0
  Iterations, force evaluations = 0 7

Pair  time (%) = 3.80911e-05 (61.5434)
Neigh time (%) = 0 (0)
Comm  time (%) = 2.84973e-06 (4.60428)
Outpt time (%) = 0 (0)
Other time (%) = 2.09522e-05 (33.8523)

Nlocal:    18 ave 18 max 18 min
Histogram: 1 0 0 0 0 0 0 0 0 0
Nghost:    65 ave 65 max 65 min
Histogram: 1 0 0 0 0 0 0 0 0 0
Neighs:    162 ave 162 max 162 min
Histogram: 1 0 0 0 0 0 0 0 0 0

Total # of neighbors = 162
Ave neighs/atom = 9
Neighbor list builds = 0
Dangerous builds = 0
        next i
jump SELF loop1
	read_dump orig.dump 0 x y
  orthogonal box = (0 0 -0.280613) to (3.36736 5.83244 0.280613)
  18 atoms before read
  18 atoms in snapshot
  0 atoms purged
  18 atoms replaced
  0 atoms trimmed
  0 atoms added
  18 atoms after read
        variable stretch equal 1+$i*${strainstep}
        variable stretch equal 1+15*${strainstep}
        variable stretch equal 1+15*0.0005
        change_box all ${direction} scale ${stretch} remap
        change_box all y scale ${stretch} remap
        change_box all y scale 1.0075 remap
  orthogonal box = (0 -0.0218717 -0.280613) to (3.36736 5.85431 0.280613)
        min_style ${style}
        min_style hftn
        minimize ${etol} ${ftol} ${maxiter} ${maxeval}
        minimize 1e-12 ${ftol} ${maxiter} ${maxeval}
        minimize 1e-12 1e-08 ${maxiter} ${maxeval}
        minimize 1e-12 1e-08 10000 ${maxeval}
        minimize 1e-12 1e-08 10000 20000
WARNING: Resetting reneighboring criteria during minimization (../min.cpp:168)
Memory usage per processor = 4.85099 Mbytes
Step PotEng Pxx Pyy Pxy Lx Ly Lz 
       0   -53.982778 -0.075687697  -0.23121169 1.1225827e-16      3.36736    5.8761833   0.56122687 
       1   -53.982778 -0.075687697  -0.23121169 -2.7622447e-16      3.36736    5.8761833   0.56122687 
Loop time of 5.99533e-05 on 1 procs for 0 steps with 18 atoms

Minimization stats:
  Stopping criterion = force tolerance
  Energy initial, next-to-last, final = 
        -53.9827776587     -53.9827776587     -53.9827776587
  Force two-norm initial, final = 0.000820672 1.93676e-09
  Force max component initial, final = 0.000203296 5.89674e-10
  Final line search alpha, max atom move = 0 0
  Iterations, force evaluations = 0 7

Pair  time (%) = 3.38178e-05 (56.407)
Neigh time (%) = 0 (0)
Comm  time (%) = 8.45571e-06 (14.1038)
Outpt time (%) = 0 (0)
Other time (%) = 1.76798e-05 (29.4892)

Nlocal:    18 ave 18 max 18 min
Histogram: 1 0 0 0 0 0 0 0 0 0
Nghost:    65 ave 65 max 65 min
Histogram: 1 0 0 0 0 0 0 0 0 0
Neighs:    162 ave 162 max 162 min
Histogram: 1 0 0 0 0 0 0 0 0 0

Total # of neighbors = 162
Ave neighs/atom = 9
Neighbor list builds = 0
Dangerous builds = 0
        next i
jump SELF loop1
	read_dump orig.dump 0 x y
  orthogonal box = (0 0 -0.280613) to (3.36736 5.83244 0.280613)
  18 atoms before read
  18 atoms in snapshot
  0 atoms purged
  18 atoms replaced
  0 atoms trimmed
  0 atoms added
  18 atoms after read
        variable stretch equal 1+$i*${strainstep}
        variable stretch equal 1+16*${strainstep}
        variable stretch equal 1+16*0.0005
        change_box all ${direction} scale ${stretch} remap
        change_box all y scale ${stretch} remap
        change_box all y scale 1.008 remap
  orthogonal box = (0 -0.0233298 -0.280613) to (3.36736 5.85577 0.280613)
        min_style ${style}
        min_style hftn
        minimize ${etol} ${ftol} ${maxiter} ${maxeval}
        minimize 1e-12 ${ftol} ${maxiter} ${maxeval}
        minimize 1e-12 1e-08 ${maxiter} ${maxeval}
        minimize 1e-12 1e-08 10000 ${maxeval}
        minimize 1e-12 1e-08 10000 20000
WARNING: Resetting reneighboring criteria during minimization (../min.cpp:168)
Memory usage per processor = 4.85099 Mbytes
Step PotEng Pxx Pyy Pxy Lx Ly Lz 
       0   -53.980437 -0.080514021  -0.24615244 -5.4325029e-17      3.36736    5.8790995   0.56122687 
       1   -53.980437 -0.080514021  -0.24615244 5.3469781e-17      3.36736    5.8790995   0.56122687 
Loop time of 5.60246e-05 on 1 procs for 0 steps with 18 atoms

Minimization stats:
  Stopping criterion = force tolerance
  Energy initial, next-to-last, final = 
        -53.9804373476     -53.9804373476     -53.9804373476
  Force two-norm initial, final = 0.000816697 1.92523e-09
  Force max component initial, final = 0.000202103 5.85994e-10
  Final line search alpha, max atom move = 0 0
  Iterations, force evaluations = 0 7

Pair  time (%) = 3.06477e-05 (54.704)
Neigh time (%) = 0 (0)
Comm  time (%) = 6.21518e-06 (11.0937)
Outpt time (%) = 0 (0)
Other time (%) = 1.91617e-05 (34.2023)

Nlocal:    18 ave 18 max 18 min
Histogram: 1 0 0 0 0 0 0 0 0 0
Nghost:    65 ave 65 max 65 min
Histogram: 1 0 0 0 0 0 0 0 0 0
Neighs:    162 ave 162 max 162 min
Histogram: 1 0 0 0 0 0 0 0 0 0

Total # of neighbors = 162
Ave neighs/atom = 9
Neighbor list builds = 0
Dangerous builds = 0
        next i
jump SELF loop1
	read_dump orig.dump 0 x y
  orthogonal box = (0 0 -0.280613) to (3.36736 5.83244 0.280613)
  18 atoms before read
  18 atoms in snapshot
  0 atoms purged
  18 atoms replaced
  0 atoms trimmed
  0 atoms added
  18 atoms after read
        variable stretch equal 1+$i*${strainstep}
        variable stretch equal 1+17*${strainstep}
        variable stretch equal 1+17*0.0005
        change_box all ${direction} scale ${stretch} remap
        change_box all y scale ${stretch} remap
        change_box all y scale 1.0085 remap
  orthogonal box = (0 -0.0247879 -0.280613) to (3.36736 5.85723 0.280613)
        min_style ${style}
        min_style hftn
        minimize ${etol} ${ftol} ${maxiter} ${maxeval}
        minimize 1e-12 ${ftol} ${maxiter} ${maxeval}
        minimize 1e-12 1e-08 ${maxiter} ${maxeval}
        minimize 1e-12 1e-08 10000 ${maxeval}
        minimize 1e-12 1e-08 10000 20000
WARNING: Resetting reneighboring criteria during minimization (../min.cpp:168)
Memory usage per processor = 4.85099 Mbytes
Step PotEng Pxx Pyy Pxy Lx Ly Lz 
       0   -53.977974 -0.085314877   -0.2610448 -3.1550012e-17      3.36736    5.8820157   0.56122687 
       1   -53.977974 -0.085314877   -0.2610448 1.4120038e-18      3.36736    5.8820157   0.56122687 
Loop time of 5.60769e-05 on 1 procs for 0 steps with 18 atoms

Minimization stats:
  Stopping criterion = force tolerance
  Energy initial, next-to-last, final = 
         -53.977973626      -53.977973626      -53.977973626
  Force two-norm initial, final = 0.000812766 1.91346e-09
  Force max component initial, final = 0.000200923 5.82035e-10
  Final line search alpha, max atom move = 0 0
  Iterations, force evaluations = 0 7

Pair  time (%) = 3.19266e-05 (56.9335)
Neigh time (%) = 0 (0)
Comm  time (%) = 6.43497e-06 (11.4753)
Outpt time (%) = 0 (0)
Other time (%) = 1.77154e-05 (31.5912)

Nlocal:    18 ave 18 max 18 min
Histogram: 1 0 0 0 0 0 0 0 0 0
Nghost:    65 ave 65 max 65 min
Histogram: 1 0 0 0 0 0 0 0 0 0
Neighs:    162 ave 162 max 162 min
Histogram: 1 0 0 0 0 0 0 0 0 0

Total # of neighbors = 162
Ave neighs/atom = 9
Neighbor list builds = 0
Dangerous builds = 0
        next i
jump SELF loop1
	read_dump orig.dump 0 x y
  orthogonal box = (0 0 -0.280613) to (3.36736 5.83244 0.280613)
  18 atoms before read
  18 atoms in snapshot
  0 atoms purged
  18 atoms replaced
  0 atoms trimmed
  0 atoms added
  18 atoms after read
        variable stretch equal 1+$i*${strainstep}
        variable stretch equal 1+18*${strainstep}
        variable stretch equal 1+18*0.0005
        change_box all ${direction} scale ${stretch} remap
        change_box all y scale ${stretch} remap
        change_box all y scale 1.009 remap
  orthogonal box = (0 -0.026246 -0.280613) to (3.36736 5.85869 0.280613)
        min_style ${style}
        min_style hftn
        minimize ${etol} ${ftol} ${maxiter} ${maxeval}
        minimize 1e-12 ${ftol} ${maxiter} ${maxeval}
        minimize 1e-12 1e-08 ${maxiter} ${maxeval}
        minimize 1e-12 1e-08 10000 ${maxeval}
        minimize 1e-12 1e-08 10000 20000
WARNING: Resetting reneighboring criteria during minimization (../min.cpp:168)
Memory usage per processor = 4.85099 Mbytes
Step PotEng Pxx Pyy Pxy Lx Ly Lz 
       0   -53.975314 -0.090076639  -0.27584693 1.2640283e-16      3.36736     5.884932   0.56122687 
       1   -53.975314 -0.090076639  -0.27584693 -1.1882134e-16      3.36736     5.884932   0.56122687 
Loop time of 5.69562e-05 on 1 procs for 0 steps with 18 atoms

Minimization stats:
  Stopping criterion = force tolerance
  Energy initial, next-to-last, final = 
        -53.9753136643     -53.9753136643     -53.9753136643
  Force two-norm initial, final = 0.000814042 1.91618e-09
  Force max component initial, final = 0.000201319 5.82916e-10
  Final line search alpha, max atom move = 0 0
  Iterations, force evaluations = 0 7

Pair  time (%) = 3.29542e-05 (57.8588)
Neigh time (%) = 0 (0)
Comm  time (%) = 7.20541e-06 (12.6508)
Outpt time (%) = 0 (0)
Other time (%) = 1.67966e-05 (29.4904)

Nlocal:    18 ave 18 max 18 min
Histogram: 1 0 0 0 0 0 0 0 0 0
Nghost:    65 ave 65 max 65 min
Histogram: 1 0 0 0 0 0 0 0 0 0
Neighs:    162 ave 162 max 162 min
Histogram: 1 0 0 0 0 0 0 0 0 0

Total # of neighbors = 162
Ave neighs/atom = 9
Neighbor list builds = 0
Dangerous builds = 0
        next i
jump SELF loop1
	read_dump orig.dump 0 x y
  orthogonal box = (0 0 -0.280613) to (3.36736 5.83244 0.280613)
  18 atoms before read
  18 atoms in snapshot
  0 atoms purged
  18 atoms replaced
  0 atoms trimmed
  0 atoms added
  18 atoms after read
        variable stretch equal 1+$i*${strainstep}
        variable stretch equal 1+19*${strainstep}
        variable stretch equal 1+19*0.0005
        change_box all ${direction} scale ${stretch} remap
        change_box all y scale ${stretch} remap
        change_box all y scale 1.0095 remap
  orthogonal box = (0 -0.0277041 -0.280613) to (3.36736 5.86014 0.280613)
        min_style ${style}
        min_style hftn
        minimize ${etol} ${ftol} ${maxiter} ${maxeval}
        minimize 1e-12 ${ftol} ${maxiter} ${maxeval}
        minimize 1e-12 1e-08 ${maxiter} ${maxeval}
        minimize 1e-12 1e-08 10000 ${maxeval}
        minimize 1e-12 1e-08 10000 20000
WARNING: Resetting reneighboring criteria during minimization (../min.cpp:168)
Memory usage per processor = 4.85099 Mbytes
Step PotEng Pxx Pyy Pxy Lx Ly Lz 
       0   -53.972524  -0.09481187  -0.29059691 2.6183799e-17      3.36736    5.8878482   0.56122687 
       1   -53.972524  -0.09481187  -0.29059691 -2.8155622e-16      3.36736    5.8878482   0.56122687 
Loop time of 5.60152e-05 on 1 procs for 0 steps with 18 atoms

Minimization stats:
  Stopping criterion = force tolerance
  Energy initial, next-to-last, final = 
        -53.9725242836     -53.9725242836     -53.9725242836
  Force two-norm initial, final = 0.000810105 1.90435e-09
  Force max component initial, final = 0.000200135 5.78904e-10
  Final line search alpha, max atom move = 0 0
  Iterations, force evaluations = 0 7

Pair  time (%) = 3.19099e-05 (56.9665)
Neigh time (%) = 0 (0)
Comm  time (%) = 8.30926e-06 (14.8339)
Outpt time (%) = 0 (0)
Other time (%) = 1.5796e-05 (28.1996)

Nlocal:    18 ave 18 max 18 min
Histogram: 1 0 0 0 0 0 0 0 0 0
Nghost:    65 ave 65 max 65 min
Histogram: 1 0 0 0 0 0 0 0 0 0
Neighs:    162 ave 162 max 162 min
Histogram: 1 0 0 0 0 0 0 0 0 0

Total # of neighbors = 162
Ave neighs/atom = 9
Neighbor list builds = 0
Dangerous builds = 0
        next i
jump SELF loop1
	read_dump orig.dump 0 x y
  orthogonal box = (0 0 -0.280613) to (3.36736 5.83244 0.280613)
  18 atoms before read
  18 atoms in snapshot
  0 atoms purged
  18 atoms replaced
  0 atoms trimmed
  0 atoms added
  18 atoms after read
        variable stretch equal 1+$i*${strainstep}
        variable stretch equal 1+20*${strainstep}
        variable stretch equal 1+20*0.0005
        change_box all ${direction} scale ${stretch} remap
        change_box all y scale ${stretch} remap
        change_box all y scale 1.01 remap
  orthogonal box = (0 -0.0291622 -0.280613) to (3.36736 5.8616 0.280613)
        min_style ${style}
        min_style hftn
        minimize ${etol} ${ftol} ${maxiter} ${maxeval}
        minimize 1e-12 ${ftol} ${maxiter} ${maxeval}
        minimize 1e-12 1e-08 ${maxiter} ${maxeval}
        minimize 1e-12 1e-08 10000 ${maxeval}
        minimize 1e-12 1e-08 10000 20000
WARNING: Resetting reneighboring criteria during minimization (../min.cpp:168)
Memory usage per processor = 4.85099 Mbytes
Step PotEng Pxx Pyy Pxy Lx Ly Lz 
       0   -53.969613 -0.099522005  -0.30529892 6.0855707e-18      3.36736    5.8907644   0.56122687 
       1   -53.969613 -0.099522005  -0.30529891 6.4370675e-17      3.36736    5.8907644   0.56122687 
Loop time of 6.68821e-05 on 1 procs for 0 steps with 18 atoms

Minimization stats:
  Stopping criterion = force tolerance
  Energy initial, next-to-last, final = 
        -53.9696128682     -53.9696128682     -53.9696128682
  Force two-norm initial, final = 0.000806212 1.8926e-09
  Force max component initial, final = 0.000198965 5.75072e-10
  Final line search alpha, max atom move = 0 0
  Iterations, force evaluations = 0 7

Pair  time (%) = 3.08985e-05 (46.1984)
Neigh time (%) = 0 (0)
Comm  time (%) = 5.0941e-06 (7.61654)
Outpt time (%) = 0 (0)
Other time (%) = 3.08895e-05 (46.185)

Nlocal:    18 ave 18 max 18 min
Histogram: 1 0 0 0 0 0 0 0 0 0
Nghost:    65 ave 65 max 65 min
Histogram: 1 0 0 0 0 0 0 0 0 0
Neighs:    162 ave 162 max 162 min
Histogram: 1 0 0 0 0 0 0 0 0 0

Total # of neighbors = 162
Ave neighs/atom = 9
Neighbor list builds = 0
Dangerous builds = 0
        next i
jump SELF loop1
	read_dump orig.dump 0 x y
  orthogonal box = (0 0 -0.280613) to (3.36736 5.83244 0.280613)
  18 atoms before read
  18 atoms in snapshot
  0 atoms purged
  18 atoms replaced
  0 atoms trimmed
  0 atoms added
  18 atoms after read
        variable stretch equal 1+$i*${strainstep}
        variable stretch equal 1+21*${strainstep}
        variable stretch equal 1+21*0.0005
        change_box all ${direction} scale ${stretch} remap
        change_box all y scale ${stretch} remap
        change_box all y scale 1.0105 remap
  orthogonal box = (0 -0.0306203 -0.280613) to (3.36736 5.86306 0.280613)
        min_style ${style}
        min_style hftn
        minimize ${etol} ${ftol} ${maxiter} ${maxeval}
        minimize 1e-12 ${ftol} ${maxiter} ${maxeval}
        minimize 1e-12 1e-08 ${maxiter} ${maxeval}
        minimize 1e-12 1e-08 10000 ${maxeval}
        minimize 1e-12 1e-08 10000 20000
WARNING: Resetting reneighboring criteria during minimization (../min.cpp:168)
Memory usage per processor = 4.85099 Mbytes
Step PotEng Pxx Pyy Pxy Lx Ly Lz 
       0   -53.966549  -0.10420126  -0.31993501 1.3488106e-16      3.36736    5.8936806   0.56122687 
       1   -53.966549  -0.10420126  -0.31993501 -2.2740716e-16      3.36736    5.8936806   0.56122687 
Loop time of 7.29504e-05 on 1 procs for 0 steps with 18 atoms

Minimization stats:
  Stopping criterion = force tolerance
  Energy initial, next-to-last, final = 
        -53.9665485375     -53.9665485375     -53.9665485375
  Force two-norm initial, final = 0.000807471 1.89553e-09
  Force max component initial, final = 0.000199356 5.7599e-10
  Final line search alpha, max atom move = 0 0
  Iterations, force evaluations = 0 7

Pair  time (%) = 3.83086e-05 (52.5132)
Neigh time (%) = 0 (0)
Comm  time (%) = 9.81474e-06 (13.454)
Outpt time (%) = 0 (0)
Other time (%) = 2.48271e-05 (34.0328)

Nlocal:    18 ave 18 max 18 min
Histogram: 1 0 0 0 0 0 0 0 0 0
Nghost:    65 ave 65 max 65 min
Histogram: 1 0 0 0 0 0 0 0 0 0
Neighs:    162 ave 162 max 162 min
Histogram: 1 0 0 0 0 0 0 0 0 0

Total # of neighbors = 162
Ave neighs/atom = 9
Neighbor list builds = 0
Dangerous builds = 0
        next i
jump SELF loop1
	read_dump orig.dump 0 x y
  orthogonal box = (0 0 -0.280613) to (3.36736 5.83244 0.280613)
  18 atoms before read
  18 atoms in snapshot
  0 atoms purged
  18 atoms replaced
  0 atoms trimmed
  0 atoms added
  18 atoms after read
        variable stretch equal 1+$i*${strainstep}
        variable stretch equal 1+22*${strainstep}
        variable stretch equal 1+22*0.0005
        change_box all ${direction} scale ${stretch} remap
        change_box all y scale ${stretch} remap
        change_box all y scale 1.011 remap
  orthogonal box = (0 -0.0320784 -0.280613) to (3.36736 5.86452 0.280613)
        min_style ${style}
        min_style hftn
        minimize ${etol} ${ftol} ${maxiter} ${maxeval}
        minimize 1e-12 ${ftol} ${maxiter} ${maxeval}
        minimize 1e-12 1e-08 ${maxiter} ${maxeval}
        minimize 1e-12 1e-08 10000 ${maxeval}
        minimize 1e-12 1e-08 10000 20000
WARNING: Resetting reneighboring criteria during minimization (../min.cpp:168)
Memory usage per processor = 4.85099 Mbytes
Step PotEng Pxx Pyy Pxy Lx Ly Lz 
       0   -53.963316  -0.10884673  -0.33449606 -1.1050029e-16      3.36736    5.8965968   0.56122687 
       1   -53.963316  -0.10884673  -0.33449606 -1.2675572e-17      3.36736    5.8965968   0.56122687 
Loop time of 6.49998e-05 on 1 procs for 0 steps with 18 atoms

Minimization stats:
  Stopping criterion = force tolerance
  Energy initial, next-to-last, final = 
        -53.9633157907     -53.9633157907     -53.9633157907
  Force two-norm initial, final = 0.000803583 1.88382e-09
  Force max component initial, final = 0.000198186 5.72163e-10
  Final line search alpha, max atom move = 0 0
  Iterations, force evaluations = 0 7

Pair  time (%) = 3.38313e-05 (52.0484)
Neigh time (%) = 0 (0)
Comm  time (%) = 4.95987e-06 (7.6306)
Outpt time (%) = 0 (0)
Other time (%) = 2.62086e-05 (40.321)

Nlocal:    18 ave 18 max 18 min
Histogram: 1 0 0 0 0 0 0 0 0 0
Nghost:    65 ave 65 max 65 min
Histogram: 1 0 0 0 0 0 0 0 0 0
Neighs:    162 ave 162 max 162 min
Histogram: 1 0 0 0 0 0 0 0 0 0

Total # of neighbors = 162
Ave neighs/atom = 9
Neighbor list builds = 0
Dangerous builds = 0
        next i
jump SELF loop1
	read_dump orig.dump 0 x y
  orthogonal box = (0 0 -0.280613) to (3.36736 5.83244 0.280613)
  18 atoms before read
  18 atoms in snapshot
  0 atoms purged
  18 atoms replaced
  0 atoms trimmed
  0 atoms added
  18 atoms after read
        variable stretch equal 1+$i*${strainstep}
        variable stretch equal 1+23*${strainstep}
        variable stretch equal 1+23*0.0005
        change_box all ${direction} scale ${stretch} remap
        change_box all y scale ${stretch} remap
        change_box all y scale 1.0115 remap
  orthogonal box = (0 -0.0335365 -0.280613) to (3.36736 5.86598 0.280613)
        min_style ${style}
        min_style hftn
        minimize ${etol} ${ftol} ${maxiter} ${maxeval}
        minimize 1e-12 ${ftol} ${maxiter} ${maxeval}
        minimize 1e-12 1e-08 ${maxiter} ${maxeval}
        minimize 1e-12 1e-08 10000 ${maxeval}
        minimize 1e-12 1e-08 10000 20000
WARNING: Resetting reneighboring criteria during minimization (../min.cpp:168)
Memory usage per processor = 4.85099 Mbytes
Step PotEng Pxx Pyy Pxy Lx Ly Lz 
       0   -53.959962  -0.11346743  -0.34900939 3.0148332e-17      3.36736    5.8995131   0.56122687 
       1   -53.959962  -0.11346743  -0.34900939 -7.664808e-17      3.36736    5.8995131   0.56122687 
Loop time of 6.19106e-05 on 1 procs for 0 steps with 18 atoms

Minimization stats:
  Stopping criterion = force tolerance
  Energy initial, next-to-last, final = 
        -53.9599624923     -53.9599624923     -53.9599624923
  Force two-norm initial, final = 0.000799706 1.87241e-09
  Force max component initial, final = 0.000197018 5.68449e-10
  Final line search alpha, max atom move = 0 0
  Iterations, force evaluations = 0 7

Pair  time (%) = 3.51385e-05 (56.7568)
Neigh time (%) = 0 (0)
Comm  time (%) = 1.08586e-05 (17.5392)
Outpt time (%) = 0 (0)
Other time (%) = 1.59135e-05 (25.704)

Nlocal:    18 ave 18 max 18 min
Histogram: 1 0 0 0 0 0 0 0 0 0
Nghost:    65 ave 65 max 65 min
Histogram: 1 0 0 0 0 0 0 0 0 0
Neighs:    162 ave 162 max 162 min
Histogram: 1 0 0 0 0 0 0 0 0 0

Total # of neighbors = 162
Ave neighs/atom = 9
Neighbor list builds = 0
Dangerous builds = 0
        next i
jump SELF loop1
	read_dump orig.dump 0 x y
  orthogonal box = (0 0 -0.280613) to (3.36736 5.83244 0.280613)
  18 atoms before read
  18 atoms in snapshot
  0 atoms purged
  18 atoms replaced
  0 atoms trimmed
  0 atoms added
  18 atoms after read
        variable stretch equal 1+$i*${strainstep}
        variable stretch equal 1+24*${strainstep}
        variable stretch equal 1+24*0.0005
        change_box all ${direction} scale ${stretch} remap
        change_box all y scale ${stretch} remap
        change_box all y scale 1.012 remap
  orthogonal box = (0 -0.0349946 -0.280613) to (3.36736 5.86743 0.280613)
        min_style ${style}
        min_style hftn
        minimize ${etol} ${ftol} ${maxiter} ${maxeval}
        minimize 1e-12 ${ftol} ${maxiter} ${maxeval}
        minimize 1e-12 1e-08 ${maxiter} ${maxeval}
        minimize 1e-12 1e-08 10000 ${maxeval}
        minimize 1e-12 1e-08 10000 20000
WARNING: Resetting reneighboring criteria during minimization (../min.cpp:168)
Memory usage per processor = 4.85099 Mbytes
Step PotEng Pxx Pyy Pxy Lx Ly Lz 
       0   -53.956489  -0.11806337  -0.36347489 -1.9401222e-18      3.36736    5.9024293   0.56122687 
       1   -53.956489  -0.11806337  -0.36347489 1.6191666e-16      3.36736    5.9024293   0.56122687 
Loop time of 6.31142e-05 on 1 procs for 0 steps with 18 atoms

Minimization stats:
  Stopping criterion = force tolerance
  Energy initial, next-to-last, final = 
        -53.9564887145     -53.9564887145     -53.9564887146
  Force two-norm initial, final = 0.000795874 1.86103e-09
  Force max component initial, final = 0.000195863 5.64632e-10
  Final line search alpha, max atom move = 0 0
  Iterations, force evaluations = 0 7

Pair  time (%) = 3.79061e-05 (60.0595)
Neigh time (%) = 0 (0)
Comm  time (%) = 2.76451e-06 (4.38018)
Outpt time (%) = 0 (0)
Other time (%) = 2.24436e-05 (35.5603)

Nlocal:    18 ave 18 max 18 min
Histogram: 1 0 0 0 0 0 0 0 0 0
Nghost:    65 ave 65 max 65 min
Histogram: 1 0 0 0 0 0 0 0 0 0
Neighs:    162 ave 162 max 162 min
Histogram: 1 0 0 0 0 0 0 0 0 0

Total # of neighbors = 162
Ave neighs/atom = 9
Neighbor list builds = 0
Dangerous builds = 0
        next i
jump SELF loop1
	read_dump orig.dump 0 x y
  orthogonal box = (0 0 -0.280613) to (3.36736 5.83244 0.280613)
  18 atoms before read
  18 atoms in snapshot
  0 atoms purged
  18 atoms replaced
  0 atoms trimmed
  0 atoms added
  18 atoms after read
        variable stretch equal 1+$i*${strainstep}
        variable stretch equal 1+25*${strainstep}
        variable stretch equal 1+25*0.0005
        change_box all ${direction} scale ${stretch} remap
        change_box all y scale ${stretch} remap
        change_box all y scale 1.0125 remap
  orthogonal box = (0 -0.0364527 -0.280613) to (3.36736 5.86889 0.280613)
        min_style ${style}
        min_style hftn
        minimize ${etol} ${ftol} ${maxiter} ${maxeval}
        minimize 1e-12 ${ftol} ${maxiter} ${maxeval}
        minimize 1e-12 1e-08 ${maxiter} ${maxeval}
        minimize 1e-12 1e-08 10000 ${maxeval}
        minimize 1e-12 1e-08 10000 20000
WARNING: Resetting reneighboring criteria during minimization (../min.cpp:168)
Memory usage per processor = 4.85099 Mbytes
Step PotEng Pxx Pyy Pxy Lx Ly Lz 
       0   -53.952828  -0.12262219  -0.37785427 4.7697907e-17      3.36736    5.9053455   0.56122687 
       1   -53.952828  -0.12262219  -0.37785427 7.4795655e-17      3.36736    5.9053455   0.56122687 
Loop time of 6.19664e-05 on 1 procs for 0 steps with 18 atoms

Minimization stats:
  Stopping criterion = force tolerance
  Energy initial, next-to-last, final = 
        -53.9528282801     -53.9528282801     -53.9528282801
  Force two-norm initial, final = 0.000797106 1.86339e-09
  Force max component initial, final = 0.000196246 5.65341e-10
  Final line search alpha, max atom move = 0 0
  Iterations, force evaluations = 0 7

Pair  time (%) = 3.31074e-05 (53.4279)
Neigh time (%) = 0 (0)
Comm  time (%) = 1.14192e-05 (18.428)
Outpt time (%) = 0 (0)
Other time (%) = 1.74398e-05 (28.144)

Nlocal:    18 ave 18 max 18 min
Histogram: 1 0 0 0 0 0 0 0 0 0
Nghost:    65 ave 65 max 65 min
Histogram: 1 0 0 0 0 0 0 0 0 0
Neighs:    162 ave 162 max 162 min
Histogram: 1 0 0 0 0 0 0 0 0 0

Total # of neighbors = 162
Ave neighs/atom = 9
Neighbor list builds = 0
Dangerous builds = 0
        next i
jump SELF loop1
	read_dump orig.dump 0 x y
  orthogonal box = (0 0 -0.280613) to (3.36736 5.83244 0.280613)
  18 atoms before read
  18 atoms in snapshot
  0 atoms purged
  18 atoms replaced
  0 atoms trimmed
  0 atoms added
  18 atoms after read
        variable stretch equal 1+$i*${strainstep}
        variable stretch equal 1+26*${strainstep}
        variable stretch equal 1+26*0.0005
        change_box all ${direction} scale ${stretch} remap
        change_box all y scale ${stretch} remap
        change_box all y scale 1.013 remap
  orthogonal box = (0 -0.0379109 -0.280613) to (3.36736 5.87035 0.280613)
        min_style ${style}
        min_style hftn
        minimize ${etol} ${ftol} ${maxiter} ${maxeval}
        minimize 1e-12 ${ftol} ${maxiter} ${maxeval}
        minimize 1e-12 1e-08 ${maxiter} ${maxeval}
        minimize 1e-12 1e-08 10000 ${maxeval}
        minimize 1e-12 1e-08 10000 20000
WARNING: Resetting reneighboring criteria during minimization (../min.cpp:168)
Memory usage per processor = 4.85099 Mbytes
Step PotEng Pxx Pyy Pxy Lx Ly Lz 
       0   -53.949039  -0.12715465  -0.39218041 6.2978793e-17      3.36736    5.9082617   0.56122687 
       1   -53.949039  -0.12715465  -0.39218041 2.3993698e-16      3.36736    5.9082617   0.56122687 
Loop time of 6.19518e-05 on 1 procs for 0 steps with 18 atoms

Minimization stats:
  Stopping criterion = force tolerance
  Energy initial, next-to-last, final = 
        -53.9490385042     -53.9490385042     -53.9490385042
  Force two-norm initial, final = 0.000793272 1.85209e-09
  Force max component initial, final = 0.000195089 5.61594e-10
  Final line search alpha, max atom move = 0 0
  Iterations, force evaluations = 0 7

Pair  time (%) = 3.89918e-05 (62.9389)
Neigh time (%) = 0 (0)
Comm  time (%) = 2.98221e-06 (4.81376)
Outpt time (%) = 0 (0)
Other time (%) = 1.99778e-05 (32.2473)

Nlocal:    18 ave 18 max 18 min
Histogram: 1 0 0 0 0 0 0 0 0 0
Nghost:    65 ave 65 max 65 min
Histogram: 1 0 0 0 0 0 0 0 0 0
Neighs:    162 ave 162 max 162 min
Histogram: 1 0 0 0 0 0 0 0 0 0

Total # of neighbors = 162
Ave neighs/atom = 9
Neighbor list builds = 0
Dangerous builds = 0
        next i
jump SELF loop1
	read_dump orig.dump 0 x y
  orthogonal box = (0 0 -0.280613) to (3.36736 5.83244 0.280613)
  18 atoms before read
  18 atoms in snapshot
  0 atoms purged
  18 atoms replaced
  0 atoms trimmed
  0 atoms added
  18 atoms after read
        variable stretch equal 1+$i*${strainstep}
        variable stretch equal 1+27*${strainstep}
        variable stretch equal 1+27*0.0005
        change_box all ${direction} scale ${stretch} remap
        change_box all y scale ${stretch} remap
        change_box all y scale 1.0135 remap
  orthogonal box = (0 -0.039369 -0.280613) to (3.36736 5.87181 0.280613)
        min_style ${style}
        min_style hftn
        minimize ${etol} ${ftol} ${maxiter} ${maxeval}
        minimize 1e-12 ${ftol} ${maxiter} ${maxeval}
        minimize 1e-12 1e-08 ${maxiter} ${maxeval}
        minimize 1e-12 1e-08 10000 ${maxeval}
        minimize 1e-12 1e-08 10000 20000
WARNING: Resetting reneighboring criteria during minimization (../min.cpp:168)
Memory usage per processor = 4.85099 Mbytes
Step PotEng Pxx Pyy Pxy Lx Ly Lz 
       0    -53.94513  -0.13166273  -0.40645918 -1.2294292e-17      3.36736    5.9111779   0.56122687 
       1    -53.94513  -0.13166273  -0.40645918 1.3656819e-16      3.36736    5.9111779   0.56122687 
Loop time of 6.3119e-05 on 1 procs for 0 steps with 18 atoms

Minimization stats:
  Stopping criterion = force tolerance
  Energy initial, next-to-last, final = 
        -53.9451296251     -53.9451296251     -53.9451296252
  Force two-norm initial, final = 0.000789472 1.84091e-09
  Force max component initial, final = 0.000193942 5.58017e-10
  Final line search alpha, max atom move = 0 0
  Iterations, force evaluations = 0 7

Pair  time (%) = 3.51296e-05 (55.6562)
Neigh time (%) = 0 (0)
Comm  time (%) = 2.93378e-06 (4.64802)
Outpt time (%) = 0 (0)
Other time (%) = 2.50556e-05 (39.6958)

Nlocal:    18 ave 18 max 18 min
Histogram: 1 0 0 0 0 0 0 0 0 0
Nghost:    65 ave 65 max 65 min
Histogram: 1 0 0 0 0 0 0 0 0 0
Neighs:    162 ave 162 max 162 min
Histogram: 1 0 0 0 0 0 0 0 0 0

Total # of neighbors = 162
Ave neighs/atom = 9
Neighbor list builds = 0
Dangerous builds = 0
        next i
jump SELF loop1
	read_dump orig.dump 0 x y
  orthogonal box = (0 0 -0.280613) to (3.36736 5.83244 0.280613)
  18 atoms before read
  18 atoms in snapshot
  0 atoms purged
  18 atoms replaced
  0 atoms trimmed
  0 atoms added
  18 atoms after read
        variable stretch equal 1+$i*${strainstep}
        variable stretch equal 1+28*${strainstep}
        variable stretch equal 1+28*0.0005
        change_box all ${direction} scale ${stretch} remap
        change_box all y scale ${stretch} remap
        change_box all y scale 1.014 remap
  orthogonal box = (0 -0.0408271 -0.280613) to (3.36736 5.87327 0.280613)
        min_style ${style}
        min_style hftn
        minimize ${etol} ${ftol} ${maxiter} ${maxeval}
        minimize 1e-12 ${ftol} ${maxiter} ${maxeval}
        minimize 1e-12 1e-08 ${maxiter} ${maxeval}
        minimize 1e-12 1e-08 10000 ${maxeval}
        minimize 1e-12 1e-08 10000 20000
WARNING: Resetting reneighboring criteria during minimization (../min.cpp:168)
Memory usage per processor = 4.85099 Mbytes
Step PotEng Pxx Pyy Pxy Lx Ly Lz 
       0   -53.941078  -0.13614193  -0.42067645 2.6700891e-16      3.36736    5.9140942   0.56122687 
       1   -53.941078  -0.13614193  -0.42067645 2.4489371e-17      3.36736    5.9140942   0.56122687 
Loop time of 6.30706e-05 on 1 procs for 0 steps with 18 atoms

Minimization stats:
  Stopping criterion = force tolerance
  Energy initial, next-to-last, final = 
         -53.941077593      -53.941077593      -53.941077593
  Force two-norm initial, final = 0.000790687 1.843e-09
  Force max component initial, final = 0.000194321 5.58562e-10
  Final line search alpha, max atom move = 0 0
  Iterations, force evaluations = 0 7

Pair  time (%) = 3.87953e-05 (61.5109)
Neigh time (%) = 0 (0)
Comm  time (%) = 2.82796e-06 (4.4838)
Outpt time (%) = 0 (0)
Other time (%) = 2.14473e-05 (34.0053)

Nlocal:    18 ave 18 max 18 min
Histogram: 1 0 0 0 0 0 0 0 0 0
Nghost:    65 ave 65 max 65 min
Histogram: 1 0 0 0 0 0 0 0 0 0
Neighs:    162 ave 162 max 162 min
Histogram: 1 0 0 0 0 0 0 0 0 0

Total # of neighbors = 162
Ave neighs/atom = 9
Neighbor list builds = 0
Dangerous builds = 0
        next i
jump SELF loop1
	read_dump orig.dump 0 x y
  orthogonal box = (0 0 -0.280613) to (3.36736 5.83244 0.280613)
  18 atoms before read
  18 atoms in snapshot
  0 atoms purged
  18 atoms replaced
  0 atoms trimmed
  0 atoms added
  18 atoms after read
        variable stretch equal 1+$i*${strainstep}
        variable stretch equal 1+29*${strainstep}
        variable stretch equal 1+29*0.0005
        change_box all ${direction} scale ${stretch} remap
        change_box all y scale ${stretch} remap
        change_box all y scale 1.0145 remap
  orthogonal box = (0 -0.0422852 -0.280613) to (3.36736 5.87473 0.280613)
        min_style ${style}
        min_style hftn
        minimize ${etol} ${ftol} ${maxiter} ${maxeval}
        minimize 1e-12 ${ftol} ${maxiter} ${maxeval}
        minimize 1e-12 1e-08 ${maxiter} ${maxeval}
        minimize 1e-12 1e-08 10000 ${maxeval}
        minimize 1e-12 1e-08 10000 20000
WARNING: Resetting reneighboring criteria during minimization (../min.cpp:168)
Memory usage per processor = 4.85099 Mbytes
Step PotEng Pxx Pyy Pxy Lx Ly Lz 
       0   -53.936857  -0.14058741  -0.43481705 -2.3661117e-17      3.36736    5.9170104   0.56122687 
       1   -53.936857  -0.14058741  -0.43481705 3.8575331e-17      3.36736    5.9170104   0.56122687 
Loop time of 6.58924e-05 on 1 procs for 0 steps with 18 atoms

Minimization stats:
  Stopping criterion = force tolerance
  Energy initial, next-to-last, final = 
        -53.9368569922     -53.9368569922     -53.9368569922
  Force two-norm initial, final = 0.000786895 1.83191e-09
  Force max component initial, final = 0.000193175 5.54939e-10
  Final line search alpha, max atom move = 0 0
  Iterations, force evaluations = 0 7

Pair  time (%) = 3.40113e-05 (51.6165)
Neigh time (%) = 0 (0)
Comm  time (%) = 6.51192e-06 (9.88267)
Outpt time (%) = 0 (0)
Other time (%) = 2.53691e-05 (38.5008)

Nlocal:    18 ave 18 max 18 min
Histogram: 1 0 0 0 0 0 0 0 0 0
Nghost:    65 ave 65 max 65 min
Histogram: 1 0 0 0 0 0 0 0 0 0
Neighs:    162 ave 162 max 162 min
Histogram: 1 0 0 0 0 0 0 0 0 0

Total # of neighbors = 162
Ave neighs/atom = 9
Neighbor list builds = 0
Dangerous builds = 0
        next i
jump SELF loop1
	read_dump orig.dump 0 x y
  orthogonal box = (0 0 -0.280613) to (3.36736 5.83244 0.280613)
  18 atoms before read
  18 atoms in snapshot
  0 atoms purged
  18 atoms replaced
  0 atoms trimmed
  0 atoms added
  18 atoms after read
        variable stretch equal 1+$i*${strainstep}
        variable stretch equal 1+30*${strainstep}
        variable stretch equal 1+30*0.0005
        change_box all ${direction} scale ${stretch} remap
        change_box all y scale ${stretch} remap
        change_box all y scale 1.015 remap
  orthogonal box = (0 -0.0437433 -0.280613) to (3.36736 5.87618 0.280613)
        min_style ${style}
        min_style hftn
        minimize ${etol} ${ftol} ${maxiter} ${maxeval}
        minimize 1e-12 ${ftol} ${maxiter} ${maxeval}
        minimize 1e-12 1e-08 ${maxiter} ${maxeval}
        minimize 1e-12 1e-08 10000 ${maxeval}
        minimize 1e-12 1e-08 10000 20000
WARNING: Resetting reneighboring criteria during minimization (../min.cpp:168)
Memory usage per processor = 4.85099 Mbytes
Step PotEng Pxx Pyy Pxy Lx Ly Lz 
       0   -53.932519  -0.14500885  -0.44891065 9.027654e-17      3.36736    5.9199266   0.56122687 
       1   -53.932519  -0.14500885  -0.44891065 -2.7810876e-17      3.36736    5.9199266   0.56122687 
Loop time of 6.29465e-05 on 1 procs for 0 steps with 18 atoms

Minimization stats:
  Stopping criterion = force tolerance
  Energy initial, next-to-last, final = 
        -53.9325186101     -53.9325186101     -53.9325186102
  Force two-norm initial, final = 0.000783128 1.82089e-09
  Force max component initial, final = 0.000192035 5.51351e-10
  Final line search alpha, max atom move = 0 0
  Iterations, force evaluations = 0 7

Pair  time (%) = 3.4227e-05 (54.3748)
Neigh time (%) = 0 (0)
Comm  time (%) = 5.51261e-06 (8.75762)
Outpt time (%) = 0 (0)
Other time (%) = 2.32068e-05 (36.8675)

Nlocal:    18 ave 18 max 18 min
Histogram: 1 0 0 0 0 0 0 0 0 0
Nghost:    65 ave 65 max 65 min
Histogram: 1 0 0 0 0 0 0 0 0 0
Neighs:    162 ave 162 max 162 min
Histogram: 1 0 0 0 0 0 0 0 0 0

Total # of neighbors = 162
Ave neighs/atom = 9
Neighbor list builds = 0
Dangerous builds = 0
        next i
jump SELF loop1
	read_dump orig.dump 0 x y
  orthogonal box = (0 0 -0.280613) to (3.36736 5.83244 0.280613)
  18 atoms before read
  18 atoms in snapshot
  0 atoms purged
  18 atoms replaced
  0 atoms trimmed
  0 atoms added
  18 atoms after read
        variable stretch equal 1+$i*${strainstep}
        variable stretch equal 1+31*${strainstep}
        variable stretch equal 1+31*0.0005
        change_box all ${direction} scale ${stretch} remap
        change_box all y scale ${stretch} remap
        change_box all y scale 1.0155 remap
  orthogonal box = (0 -0.0452014 -0.280613) to (3.36736 5.87764 0.280613)
        min_style ${style}
        min_style hftn
        minimize ${etol} ${ftol} ${maxiter} ${maxeval}
        minimize 1e-12 ${ftol} ${maxiter} ${maxeval}
        minimize 1e-12 1e-08 ${maxiter} ${maxeval}
        minimize 1e-12 1e-08 10000 ${maxeval}
        minimize 1e-12 1e-08 10000 20000
WARNING: Resetting reneighboring criteria during minimization (../min.cpp:168)
Memory usage per processor = 4.85099 Mbytes
Step PotEng Pxx Pyy Pxy Lx Ly Lz 
       0   -53.928062   -0.1494063  -0.46295716 -3.4389032e-17      3.36736    5.9228428   0.56122687 
       1   -53.928062   -0.1494063  -0.46295716 -1.2734412e-16      3.36736    5.9228428   0.56122687 
Loop time of 6.29839e-05 on 1 procs for 0 steps with 18 atoms

Minimization stats:
  Stopping criterion = force tolerance
  Energy initial, next-to-last, final = 
        -53.9280624885     -53.9280624885     -53.9280624885
  Force two-norm initial, final = 0.000779386 1.80955e-09
  Force max component initial, final = 0.000190902 5.47509e-10
  Final line search alpha, max atom move = 0 0
  Iterations, force evaluations = 0 7

Pair  time (%) = 3.50034e-05 (55.5751)
Neigh time (%) = 0 (0)
Comm  time (%) = 3.39665e-06 (5.39288)
Outpt time (%) = 0 (0)
Other time (%) = 2.45839e-05 (39.032)

Nlocal:    18 ave 18 max 18 min
Histogram: 1 0 0 0 0 0 0 0 0 0
Nghost:    65 ave 65 max 65 min
Histogram: 1 0 0 0 0 0 0 0 0 0
Neighs:    162 ave 162 max 162 min
Histogram: 1 0 0 0 0 0 0 0 0 0

Total # of neighbors = 162
Ave neighs/atom = 9
Neighbor list builds = 0
Dangerous builds = 0
        next i
jump SELF loop1
	read_dump orig.dump 0 x y
  orthogonal box = (0 0 -0.280613) to (3.36736 5.83244 0.280613)
  18 atoms before read
  18 atoms in snapshot
  0 atoms purged
  18 atoms replaced
  0 atoms trimmed
  0 atoms added
  18 atoms after read
        variable stretch equal 1+$i*${strainstep}
        variable stretch equal 1+32*${strainstep}
        variable stretch equal 1+32*0.0005
        change_box all ${direction} scale ${stretch} remap
        change_box all y scale ${stretch} remap
        change_box all y scale 1.016 remap
  orthogonal box = (0 -0.0466595 -0.280613) to (3.36736 5.8791 0.280613)
        min_style ${style}
        min_style hftn
        minimize ${etol} ${ftol} ${maxiter} ${maxeval}
        minimize 1e-12 ${ftol} ${maxiter} ${maxeval}
        minimize 1e-12 1e-08 ${maxiter} ${maxeval}
        minimize 1e-12 1e-08 10000 ${maxeval}
        minimize 1e-12 1e-08 10000 20000
WARNING: Resetting reneighboring criteria during minimization (../min.cpp:168)
Memory usage per processor = 4.85099 Mbytes
Step PotEng Pxx Pyy Pxy Lx Ly Lz 
       0   -53.923434   -0.1537693  -0.47692399 -3.3700183e-19      3.36736     5.925759   0.56122687 
       1   -53.923434   -0.1537693  -0.47692399 -5.1313613e-17      3.36736     5.925759   0.56122687 
Loop time of 6.30146e-05 on 1 procs for 0 steps with 18 atoms

Minimization stats:
  Stopping criterion = force tolerance
  Energy initial, next-to-last, final = 
        -53.9234335067     -53.9234335067     -53.9234335067
  Force two-norm initial, final = 0.000780575 1.81197e-09
  Force max component initial, final = 0.000191274 5.48306e-10
  Final line search alpha, max atom move = 0 0
  Iterations, force evaluations = 0 7

Pair  time (%) = 3.97786e-05 (63.1261)
Neigh time (%) = 0 (0)
Comm  time (%) = 1.88698e-06 (2.99451)
Outpt time (%) = 0 (0)
Other time (%) = 2.13489e-05 (33.8794)

Nlocal:    18 ave 18 max 18 min
Histogram: 1 0 0 0 0 0 0 0 0 0
Nghost:    65 ave 65 max 65 min
Histogram: 1 0 0 0 0 0 0 0 0 0
Neighs:    162 ave 162 max 162 min
Histogram: 1 0 0 0 0 0 0 0 0 0

Total # of neighbors = 162
Ave neighs/atom = 9
Neighbor list builds = 0
Dangerous builds = 0
        next i
jump SELF loop1
	read_dump orig.dump 0 x y
  orthogonal box = (0 0 -0.280613) to (3.36736 5.83244 0.280613)
  18 atoms before read
  18 atoms in snapshot
  0 atoms purged
  18 atoms replaced
  0 atoms trimmed
  0 atoms added
  18 atoms after read
        variable stretch equal 1+$i*${strainstep}
        variable stretch equal 1+33*${strainstep}
        variable stretch equal 1+33*0.0005
        change_box all ${direction} scale ${stretch} remap
        change_box all y scale ${stretch} remap
        change_box all y scale 1.0165 remap
  orthogonal box = (0 -0.0481176 -0.280613) to (3.36736 5.88056 0.280613)
        min_style ${style}
        min_style hftn
        minimize ${etol} ${ftol} ${maxiter} ${maxeval}
        minimize 1e-12 ${ftol} ${maxiter} ${maxeval}
        minimize 1e-12 1e-08 ${maxiter} ${maxeval}
        minimize 1e-12 1e-08 10000 ${maxeval}
        minimize 1e-12 1e-08 10000 20000
WARNING: Resetting reneighboring criteria during minimization (../min.cpp:168)
Memory usage per processor = 4.85099 Mbytes
Step PotEng Pxx Pyy Pxy Lx Ly Lz 
       0   -53.918671   -0.1581053  -0.49083397 -1.4021758e-17      3.36736    5.9286753   0.56122687 
       1   -53.918671   -0.1581053  -0.49083397 -7.0613369e-17      3.36736    5.9286753   0.56122687 
Loop time of 6.30657e-05 on 1 procs for 0 steps with 18 atoms

Minimization stats:
  Stopping criterion = force tolerance
  Energy initial, next-to-last, final = 
        -53.9186710902     -53.9186710902     -53.9186710903
  Force two-norm initial, final = 0.00077684 1.8012e-09
  Force max component initial, final = 0.000190142 5.44718e-10
  Final line search alpha, max atom move = 0 0
  Iterations, force evaluations = 0 7

Pair  time (%) = 3.78025e-05 (59.9415)
Neigh time (%) = 0 (0)
Comm  time (%) = 2.74961e-06 (4.35992)
Outpt time (%) = 0 (0)
Other time (%) = 2.25136e-05 (35.6986)

Nlocal:    18 ave 18 max 18 min
Histogram: 1 0 0 0 0 0 0 0 0 0
Nghost:    65 ave 65 max 65 min
Histogram: 1 0 0 0 0 0 0 0 0 0
Neighs:    162 ave 162 max 162 min
Histogram: 1 0 0 0 0 0 0 0 0 0

Total # of neighbors = 162
Ave neighs/atom = 9
Neighbor list builds = 0
Dangerous builds = 0
        next i
jump SELF loop1
	read_dump orig.dump 0 x y
  orthogonal box = (0 0 -0.280613) to (3.36736 5.83244 0.280613)
  18 atoms before read
  18 atoms in snapshot
  0 atoms purged
  18 atoms replaced
  0 atoms trimmed
  0 atoms added
  18 atoms after read
        variable stretch equal 1+$i*${strainstep}
        variable stretch equal 1+34*${strainstep}
        variable stretch equal 1+34*0.0005
        change_box all ${direction} scale ${stretch} remap
        change_box all y scale ${stretch} remap
        change_box all y scale 1.017 remap
  orthogonal box = (0 -0.0495757 -0.280613) to (3.36736 5.88202 0.280613)
        min_style ${style}
        min_style hftn
        minimize ${etol} ${ftol} ${maxiter} ${maxeval}
        minimize 1e-12 ${ftol} ${maxiter} ${maxeval}
        minimize 1e-12 1e-08 ${maxiter} ${maxeval}
        minimize 1e-12 1e-08 10000 ${maxeval}
        minimize 1e-12 1e-08 10000 20000
WARNING: Resetting reneighboring criteria during minimization (../min.cpp:168)
Memory usage per processor = 4.85099 Mbytes
Step PotEng Pxx Pyy Pxy Lx Ly Lz 
       0   -53.913792  -0.16241764  -0.50469723 1.2514741e-18      3.36736    5.9315915   0.56122687 
       1   -53.913792  -0.16241764  -0.50469723 4.565076e-17      3.36736    5.9315915   0.56122687 
Loop time of 6.19709e-05 on 1 procs for 0 steps with 18 atoms

Minimization stats:
  Stopping criterion = force tolerance
  Energy initial, next-to-last, final = 
        -53.9137924557     -53.9137924557     -53.9137924558
  Force two-norm initial, final = 0.000773139 1.78982e-09
  Force max component initial, final = 0.00018902 5.40995e-10
  Final line search alpha, max atom move = 0 0
  Iterations, force evaluations = 0 7

Pair  time (%) = 3.50977e-05 (56.6358)
Neigh time (%) = 0 (0)
Comm  time (%) = 1.34924e-05 (21.7722)
Outpt time (%) = 0 (0)
Other time (%) = 1.33808e-05 (21.592)

Nlocal:    18 ave 18 max 18 min
Histogram: 1 0 0 0 0 0 0 0 0 0
Nghost:    65 ave 65 max 65 min
Histogram: 1 0 0 0 0 0 0 0 0 0
Neighs:    162 ave 162 max 162 min
Histogram: 1 0 0 0 0 0 0 0 0 0

Total # of neighbors = 162
Ave neighs/atom = 9
Neighbor list builds = 0
Dangerous builds = 0
        next i
jump SELF loop1
	read_dump orig.dump 0 x y
  orthogonal box = (0 0 -0.280613) to (3.36736 5.83244 0.280613)
  18 atoms before read
  18 atoms in snapshot
  0 atoms purged
  18 atoms replaced
  0 atoms trimmed
  0 atoms added
  18 atoms after read
        variable stretch equal 1+$i*${strainstep}
        variable stretch equal 1+35*${strainstep}
        variable stretch equal 1+35*0.0005
        change_box all ${direction} scale ${stretch} remap
        change_box all y scale ${stretch} remap
        change_box all y scale 1.0175 remap
  orthogonal box = (0 -0.0510339 -0.280613) to (3.36736 5.88347 0.280613)
        min_style ${style}
        min_style hftn
        minimize ${etol} ${ftol} ${maxiter} ${maxeval}
        minimize 1e-12 ${ftol} ${maxiter} ${maxeval}
        minimize 1e-12 1e-08 ${maxiter} ${maxeval}
        minimize 1e-12 1e-08 10000 ${maxeval}
        minimize 1e-12 1e-08 10000 20000
WARNING: Resetting reneighboring criteria during minimization (../min.cpp:168)
Memory usage per processor = 4.85099 Mbytes
Step PotEng Pxx Pyy Pxy Lx Ly Lz 
       0   -53.908784  -0.16670387  -0.51850592 6.7529331e-17      3.36736    5.9345077   0.56122687 
       1   -53.908784  -0.16670387  -0.51850592 6.513668e-17      3.36736    5.9345077   0.56122687 
Loop time of 6.3075e-05 on 1 procs for 0 steps with 18 atoms

Minimization stats:
  Stopping criterion = force tolerance
  Energy initial, next-to-last, final = 
        -53.9087841962     -53.9087841962     -53.9087841963
  Force two-norm initial, final = 0.000774311 1.79234e-09
  Force max component initial, final = 0.000189387 5.41724e-10
  Final line search alpha, max atom move = 0 0
[...]

Pair  time (%) = 3.11002e-05 (54.5926)
Neigh time (%) = 0 (0)
Comm  time (%) = 8.16665e-06 (14.3355)
Outpt time (%) = 0 (0)
Other time (%) = 1.77009e-05 (31.0718)

Nlocal:    18 ave 18 max 18 min
Histogram: 1 0 0 0 0 0 0 0 0 0
Nghost:    65 ave 65 max 65 min
Histogram: 1 0 0 0 0 0 0 0 0 0
Neighs:    126 ave 126 max 126 min
Histogram: 1 0 0 0 0 0 0 0 0 0

Total # of neighbors = 126
Ave neighs/atom = 7
Neighbor list builds = 0
Dangerous builds = 0
        next i
jump SELF loop1
	read_dump orig.dump 0 x y
  orthogonal box = (0 0 -0.280613) to (3.36736 5.83244 0.280613)
  18 atoms before read
  18 atoms in snapshot
  0 atoms purged
  18 atoms replaced
  0 atoms trimmed
  0 atoms added
  18 atoms after read
        variable stretch equal 1+$i*${strainstep}
        variable stretch equal 1+92*${strainstep}
        variable stretch equal 1+92*0.0005
        change_box all ${direction} scale ${stretch} remap
        change_box all y scale ${stretch} remap
        change_box all y scale 1.046 remap
  orthogonal box = (0 -0.134146 -0.280613) to (3.36736 5.96659 0.280613)
        min_style ${style}
        min_style hftn
        minimize ${etol} ${ftol} ${maxiter} ${maxeval}
        minimize 1e-12 ${ftol} ${maxiter} ${maxeval}
        minimize 1e-12 1e-08 ${maxiter} ${maxeval}
        minimize 1e-12 1e-08 10000 ${maxeval}
        minimize 1e-12 1e-08 10000 20000
WARNING: Resetting reneighboring criteria during minimization (../min.cpp:168)
Memory usage per processor = 4.85099 Mbytes
Step PotEng Pxx Pyy Pxy Lx Ly Lz 
       0   -53.415812  -0.36955706   -1.2137731 6.2814326e-17      3.36736    6.1007322   0.56122687 
       1   -53.415812  -0.36955706   -1.2137731 1.0177377e-16      3.36736    6.1007322   0.56122687 
Loop time of 5.69546e-05 on 1 procs for 0 steps with 18 atoms

Minimization stats:
  Stopping criterion = force tolerance
  Energy initial, next-to-last, final = 
        -53.4158121578     -53.4158121578     -53.4158121579
  Force two-norm initial, final = 0.000650048 1.4048e-09
  Force max component initial, final = 0.000151065 4.12909e-10
  Final line search alpha, max atom move = 0 0
  Iterations, force evaluations = 0 7

Pair  time (%) = 3.10868e-05 (54.5818)
Neigh time (%) = 0 (0)
Comm  time (%) = 7.1862e-06 (12.6174)
Outpt time (%) = 0 (0)
Other time (%) = 1.86815e-05 (32.8007)

Nlocal:    18 ave 18 max 18 min
Histogram: 1 0 0 0 0 0 0 0 0 0
Nghost:    65 ave 65 max 65 min
Histogram: 1 0 0 0 0 0 0 0 0 0
Neighs:    126 ave 126 max 126 min
Histogram: 1 0 0 0 0 0 0 0 0 0

Total # of neighbors = 126
Ave neighs/atom = 7
Neighbor list builds = 0
Dangerous builds = 0
        next i
jump SELF loop1
	read_dump orig.dump 0 x y
  orthogonal box = (0 0 -0.280613) to (3.36736 5.83244 0.280613)
  18 atoms before read
  18 atoms in snapshot
  0 atoms purged
  18 atoms replaced
  0 atoms trimmed
  0 atoms added
  18 atoms after read
        variable stretch equal 1+$i*${strainstep}
        variable stretch equal 1+93*${strainstep}
        variable stretch equal 1+93*0.0005
        change_box all ${direction} scale ${stretch} remap
        change_box all y scale ${stretch} remap
        change_box all y scale 1.0465 remap
  orthogonal box = (0 -0.135604 -0.280613) to (3.36736 5.96804 0.280613)
        min_style ${style}
        min_style hftn
        minimize ${etol} ${ftol} ${maxiter} ${maxeval}
        minimize 1e-12 ${ftol} ${maxiter} ${maxeval}
        minimize 1e-12 1e-08 ${maxiter} ${maxeval}
        minimize 1e-12 1e-08 10000 ${maxeval}
        minimize 1e-12 1e-08 10000 20000
WARNING: Resetting reneighboring criteria during minimization (../min.cpp:168)
Memory usage per processor = 4.85099 Mbytes
Step PotEng Pxx Pyy Pxy Lx Ly Lz 
       0    -53.40384  -0.37245667     -1.22446 -2.1058224e-17      3.36736    6.1036485   0.56122687 
       1    -53.40384  -0.37245667     -1.22446 8.5245717e-18      3.36736    6.1036485   0.56122687 
Loop time of 9.89251e-05 on 1 procs for 0 steps with 18 atoms

Minimization stats:
  Stopping criterion = force tolerance
  Energy initial, next-to-last, final = 
          -53.40384043       -53.40384043     -53.4038404301
  Force two-norm initial, final = 0.000647108 1.39618e-09
  Force max component initial, final = 0.000150132 4.10054e-10
  Final line search alpha, max atom move = 0 0
  Iterations, force evaluations = 0 7

Pair  time (%) = 3.52258e-05 (35.6085)
Neigh time (%) = 0 (0)
Comm  time (%) = 9.03336e-06 (9.13152)
Outpt time (%) = 0 (0)
Other time (%) = 5.4666e-05 (55.26)

Nlocal:    18 ave 18 max 18 min
Histogram: 1 0 0 0 0 0 0 0 0 0
Nghost:    65 ave 65 max 65 min
Histogram: 1 0 0 0 0 0 0 0 0 0
Neighs:    126 ave 126 max 126 min
Histogram: 1 0 0 0 0 0 0 0 0 0

Total # of neighbors = 126
Ave neighs/atom = 7
Neighbor list builds = 0
Dangerous builds = 0
        next i
jump SELF loop1
	read_dump orig.dump 0 x y
  orthogonal box = (0 0 -0.280613) to (3.36736 5.83244 0.280613)
  18 atoms before read
  18 atoms in snapshot
  0 atoms purged
  18 atoms replaced
  0 atoms trimmed
  0 atoms added
  18 atoms after read
        variable stretch equal 1+$i*${strainstep}
        variable stretch equal 1+94*${strainstep}
        variable stretch equal 1+94*0.0005
        change_box all ${direction} scale ${stretch} remap
        change_box all y scale ${stretch} remap
        change_box all y scale 1.047 remap
  orthogonal box = (0 -0.137062 -0.280613) to (3.36736 5.9695 0.280613)
        min_style ${style}
        min_style hftn
        minimize ${etol} ${ftol} ${maxiter} ${maxeval}
        minimize 1e-12 ${ftol} ${maxiter} ${maxeval}
        minimize 1e-12 1e-08 ${maxiter} ${maxeval}
        minimize 1e-12 1e-08 10000 ${maxeval}
        minimize 1e-12 1e-08 10000 20000
WARNING: Resetting reneighboring criteria during minimization (../min.cpp:168)
Memory usage per processor = 4.85099 Mbytes
Step PotEng Pxx Pyy Pxy Lx Ly Lz 
       0   -53.391776  -0.37533798   -1.2351056 -1.1825358e-16      3.36736    6.1065647   0.56122687 
       1   -53.391776  -0.37533798   -1.2351056 -5.1270637e-17      3.36736    6.1065647   0.56122687 
Loop time of 5.80349e-05 on 1 procs for 0 steps with 18 atoms

Minimization stats:
  Stopping criterion = force tolerance
  Energy initial, next-to-last, final = 
        -53.3917759432     -53.3917759432     -53.3917759433
  Force two-norm initial, final = 0.000644184 1.3872e-09
  Force max component initial, final = 0.000149203 4.07075e-10
  Final line search alpha, max atom move = 0 0
  Iterations, force evaluations = 0 7

Pair  time (%) = 3.08692e-05 (53.1907)
Neigh time (%) = 0 (0)
Comm  time (%) = 6.22729e-06 (10.7302)
Outpt time (%) = 0 (0)
Other time (%) = 2.09385e-05 (36.0791)

Nlocal:    18 ave 18 max 18 min
Histogram: 1 0 0 0 0 0 0 0 0 0
Nghost:    65 ave 65 max 65 min
Histogram: 1 0 0 0 0 0 0 0 0 0
Neighs:    126 ave 126 max 126 min
Histogram: 1 0 0 0 0 0 0 0 0 0

Total # of neighbors = 126
Ave neighs/atom = 7
Neighbor list builds = 0
Dangerous builds = 0
        next i
jump SELF loop1
	read_dump orig.dump 0 x y
  orthogonal box = (0 0 -0.280613) to (3.36736 5.83244 0.280613)
  18 atoms before read
  18 atoms in snapshot
  0 atoms purged
  18 atoms replaced
  0 atoms trimmed
  0 atoms added
  18 atoms after read
        variable stretch equal 1+$i*${strainstep}
        variable stretch equal 1+95*${strainstep}
        variable stretch equal 1+95*0.0005
        change_box all ${direction} scale ${stretch} remap
        change_box all y scale ${stretch} remap
        change_box all y scale 1.0475 remap
  orthogonal box = (0 -0.13852 -0.280613) to (3.36736 5.97096 0.280613)
        min_style ${style}
        min_style hftn
        minimize ${etol} ${ftol} ${maxiter} ${maxeval}
        minimize 1e-12 ${ftol} ${maxiter} ${maxeval}
        minimize 1e-12 1e-08 ${maxiter} ${maxeval}
        minimize 1e-12 1e-08 10000 ${maxeval}
        minimize 1e-12 1e-08 10000 20000
WARNING: Resetting reneighboring criteria during minimization (../min.cpp:168)
Memory usage per processor = 4.85099 Mbytes
Step PotEng Pxx Pyy Pxy Lx Ly Lz 
       0   -53.379592  -0.37819586   -1.2456926 2.622387e-17      3.36736    6.1094809   0.56122687 
       1   -53.379592  -0.37819586   -1.2456926 -2.0058942e-16      3.36736    6.1094809   0.56122687 
Loop time of 5.69007e-05 on 1 procs for 0 steps with 18 atoms

Minimization stats:
  Stopping criterion = force tolerance
  Energy initial, next-to-last, final = 
         -53.379592419      -53.379592419     -53.3795924191
  Force two-norm initial, final = 0.00064502 1.38885e-09
  Force max component initial, final = 0.000149476 4.07573e-10
  Final line search alpha, max atom move = 0 0
  Iterations, force evaluations = 0 7

Pair  time (%) = 2.99406e-05 (52.6191)
Neigh time (%) = 0 (0)
Comm  time (%) = 9.42359e-06 (16.5615)
Outpt time (%) = 0 (0)
Other time (%) = 1.75365e-05 (30.8194)

Nlocal:    18 ave 18 max 18 min
Histogram: 1 0 0 0 0 0 0 0 0 0
Nghost:    65 ave 65 max 65 min
Histogram: 1 0 0 0 0 0 0 0 0 0
Neighs:    126 ave 126 max 126 min
Histogram: 1 0 0 0 0 0 0 0 0 0

Total # of neighbors = 126
Ave neighs/atom = 7
Neighbor list builds = 0
Dangerous builds = 0
        next i
jump SELF loop1
	read_dump orig.dump 0 x y
  orthogonal box = (0 0 -0.280613) to (3.36736 5.83244 0.280613)
  18 atoms before read
  18 atoms in snapshot
  0 atoms purged
  18 atoms replaced
  0 atoms trimmed
  0 atoms added
  18 atoms after read
        variable stretch equal 1+$i*${strainstep}
        variable stretch equal 1+96*${strainstep}
        variable stretch equal 1+96*0.0005
        change_box all ${direction} scale ${stretch} remap
        change_box all y scale ${stretch} remap
        change_box all y scale 1.048 remap
  orthogonal box = (0 -0.139979 -0.280613) to (3.36736 5.97242 0.280613)
        min_style ${style}
        min_style hftn
        minimize ${etol} ${ftol} ${maxiter} ${maxeval}
        minimize 1e-12 ${ftol} ${maxiter} ${maxeval}
        minimize 1e-12 1e-08 ${maxiter} ${maxeval}
        minimize 1e-12 1e-08 10000 ${maxeval}
        minimize 1e-12 1e-08 10000 20000
WARNING: Resetting reneighboring criteria during minimization (../min.cpp:168)
Memory usage per processor = 4.85099 Mbytes
Step PotEng Pxx Pyy Pxy Lx Ly Lz 
       0   -53.367298  -0.38103183    -1.256226 -3.5619214e-17      3.36736    6.1123971   0.56122687 
       1   -53.367298  -0.38103183    -1.256226 -2.8012863e-17      3.36736    6.1123971   0.56122687 
Loop time of 5.69845e-05 on 1 procs for 0 steps with 18 atoms

Minimization stats:
  Stopping criterion = force tolerance
  Energy initial, next-to-last, final = 
        -53.3672976137     -53.3672976137     -53.3672976138
  Force two-norm initial, final = 0.000642106 1.3798e-09
  Force max component initial, final = 0.000148549 4.04537e-10
  Final line search alpha, max atom move = 0 0
  Iterations, force evaluations = 0 7

Pair  time (%) = 3.08492e-05 (54.1362)
Neigh time (%) = 0 (0)
Comm  time (%) = 6.42601e-06 (11.2768)
Outpt time (%) = 0 (0)
Other time (%) = 1.97092e-05 (34.587)

Nlocal:    18 ave 18 max 18 min
Histogram: 1 0 0 0 0 0 0 0 0 0
Nghost:    65 ave 65 max 65 min
Histogram: 1 0 0 0 0 0 0 0 0 0
Neighs:    126 ave 126 max 126 min
Histogram: 1 0 0 0 0 0 0 0 0 0

Total # of neighbors = 126
Ave neighs/atom = 7
Neighbor list builds = 0
Dangerous builds = 0
        next i
jump SELF loop1
	read_dump orig.dump 0 x y
  orthogonal box = (0 0 -0.280613) to (3.36736 5.83244 0.280613)
  18 atoms before read
  18 atoms in snapshot
  0 atoms purged
  18 atoms replaced
  0 atoms trimmed
  0 atoms added
  18 atoms after read
        variable stretch equal 1+$i*${strainstep}
        variable stretch equal 1+97*${strainstep}
        variable stretch equal 1+97*0.0005
        change_box all ${direction} scale ${stretch} remap
        change_box all y scale ${stretch} remap
        change_box all y scale 1.0485 remap
  orthogonal box = (0 -0.141437 -0.280613) to (3.36736 5.97388 0.280613)
        min_style ${style}
        min_style hftn
        minimize ${etol} ${ftol} ${maxiter} ${maxeval}
        minimize 1e-12 ${ftol} ${maxiter} ${maxeval}
        minimize 1e-12 1e-08 ${maxiter} ${maxeval}
        minimize 1e-12 1e-08 10000 ${maxeval}
        minimize 1e-12 1e-08 10000 20000
WARNING: Resetting reneighboring criteria during minimization (../min.cpp:168)
Memory usage per processor = 4.85099 Mbytes
Step PotEng Pxx Pyy Pxy Lx Ly Lz 
       0   -53.354911  -0.38384978   -1.2667184 -9.5886982e-17      3.36736    6.1153133   0.56122687 
       1   -53.354911  -0.38384978   -1.2667184 -1.8954159e-17      3.36736    6.1153133   0.56122687 
Loop time of 5.70435e-05 on 1 procs for 0 steps with 18 atoms

Minimization stats:
  Stopping criterion = force tolerance
  Energy initial, next-to-last, final = 
        -53.3549113149     -53.3549113149      -53.354911315
  Force two-norm initial, final = 0.00063922 1.37131e-09
  Force max component initial, final = 0.00014763 4.01683e-10
  Final line search alpha, max atom move = 0 0
  Iterations, force evaluations = 0 7

Pair  time (%) = 3.17519e-05 (55.6627)
Neigh time (%) = 0 (0)
Comm  time (%) = 7.75454e-06 (13.5941)
Outpt time (%) = 0 (0)
Other time (%) = 1.7537e-05 (30.7433)

Nlocal:    18 ave 18 max 18 min
Histogram: 1 0 0 0 0 0 0 0 0 0
Nghost:    65 ave 65 max 65 min
Histogram: 1 0 0 0 0 0 0 0 0 0
Neighs:    126 ave 126 max 126 min
Histogram: 1 0 0 0 0 0 0 0 0 0

Total # of neighbors = 126
Ave neighs/atom = 7
Neighbor list builds = 0
Dangerous builds = 0
        next i
jump SELF loop1
	read_dump orig.dump 0 x y
  orthogonal box = (0 0 -0.280613) to (3.36736 5.83244 0.280613)
  18 atoms before read
  18 atoms in snapshot
  0 atoms purged
  18 atoms replaced
  0 atoms trimmed
  0 atoms added
  18 atoms after read
        variable stretch equal 1+$i*${strainstep}
        variable stretch equal 1+98*${strainstep}
        variable stretch equal 1+98*0.0005
        change_box all ${direction} scale ${stretch} remap
        change_box all y scale ${stretch} remap
        change_box all y scale 1.049 remap
  orthogonal box = (0 -0.142895 -0.280613) to (3.36736 5.97533 0.280613)
        min_style ${style}
        min_style hftn
        minimize ${etol} ${ftol} ${maxiter} ${maxeval}
        minimize 1e-12 ${ftol} ${maxiter} ${maxeval}
        minimize 1e-12 1e-08 ${maxiter} ${maxeval}
        minimize 1e-12 1e-08 10000 ${maxeval}
        minimize 1e-12 1e-08 10000 20000
WARNING: Resetting reneighboring criteria during minimization (../min.cpp:168)
Memory usage per processor = 4.85099 Mbytes
Step PotEng Pxx Pyy Pxy Lx Ly Lz 
       0   -53.342434  -0.38664977   -1.2771698 9.4420394e-17      3.36736    6.1182296   0.56122687 
       1   -53.342434  -0.38664977   -1.2771698 6.3813493e-17      3.36736    6.1182296   0.56122687 
Loop time of 5.70945e-05 on 1 procs for 0 steps with 18 atoms

Minimization stats:
  Stopping criterion = force tolerance
  Energy initial, next-to-last, final = 
        -53.3424337115     -53.3424337115     -53.3424337117
  Force two-norm initial, final = 0.000636341 1.36255e-09
  Force max component initial, final = 0.000146712 3.98821e-10
  Final line search alpha, max atom move = 0 0
  Iterations, force evaluations = 0 7

Pair  time (%) = 3.09611e-05 (54.2279)
Neigh time (%) = 0 (0)
Comm  time (%) = 6.12694e-06 (10.7312)
Outpt time (%) = 0 (0)
Other time (%) = 2.00064e-05 (35.0409)

Nlocal:    18 ave 18 max 18 min
Histogram: 1 0 0 0 0 0 0 0 0 0
Nghost:    65 ave 65 max 65 min
Histogram: 1 0 0 0 0 0 0 0 0 0
Neighs:    126 ave 126 max 126 min
Histogram: 1 0 0 0 0 0 0 0 0 0

Total # of neighbors = 126
Ave neighs/atom = 7
Neighbor list builds = 0
Dangerous builds = 0
        next i
jump SELF loop1
	read_dump orig.dump 0 x y
  orthogonal box = (0 0 -0.280613) to (3.36736 5.83244 0.280613)
  18 atoms before read
  18 atoms in snapshot
  0 atoms purged
  18 atoms replaced
  0 atoms trimmed
  0 atoms added
  18 atoms after read
        variable stretch equal 1+$i*${strainstep}
        variable stretch equal 1+99*${strainstep}
        variable stretch equal 1+99*0.0005
        change_box all ${direction} scale ${stretch} remap
        change_box all y scale ${stretch} remap
        change_box all y scale 1.0495 remap
  orthogonal box = (0 -0.144353 -0.280613) to (3.36736 5.97679 0.280613)
        min_style ${style}
        min_style hftn
        minimize ${etol} ${ftol} ${maxiter} ${maxeval}
        minimize 1e-12 ${ftol} ${maxiter} ${maxeval}
        minimize 1e-12 1e-08 ${maxiter} ${maxeval}
        minimize 1e-12 1e-08 10000 ${maxeval}
        minimize 1e-12 1e-08 10000 20000
WARNING: Resetting reneighboring criteria during minimization (../min.cpp:168)
Memory usage per processor = 4.85099 Mbytes
Step PotEng Pxx Pyy Pxy Lx Ly Lz 
       0   -53.329835   -0.3894258   -1.2875602 -1.4308326e-16      3.36736    6.1211458   0.56122687 
       1   -53.329835   -0.3894258   -1.2875602 1.0901933e-16      3.36736    6.1211458   0.56122687 
Loop time of 5.69954e-05 on 1 procs for 0 steps with 18 atoms

Minimization stats:
  Stopping criterion = force tolerance
  Energy initial, next-to-last, final = 
        -53.3298345149     -53.3298345149      -53.329834515
  Force two-norm initial, final = 0.000637157 1.36385e-09
  Force max component initial, final = 0.000146979 3.99215e-10
  Final line search alpha, max atom move = 0 0
  Iterations, force evaluations = 0 7

Pair  time (%) = 3.06451e-05 (53.7676)
Neigh time (%) = 0 (0)
Comm  time (%) = 7.733e-06 (13.5678)
Outpt time (%) = 0 (0)
Other time (%) = 1.86174e-05 (32.6647)

Nlocal:    18 ave 18 max 18 min
Histogram: 1 0 0 0 0 0 0 0 0 0
Nghost:    65 ave 65 max 65 min
Histogram: 1 0 0 0 0 0 0 0 0 0
Neighs:    126 ave 126 max 126 min
Histogram: 1 0 0 0 0 0 0 0 0 0

Total # of neighbors = 126
Ave neighs/atom = 7
Neighbor list builds = 0
Dangerous builds = 0
        next i
jump SELF loop1
	read_dump orig.dump 0 x y
  orthogonal box = (0 0 -0.280613) to (3.36736 5.83244 0.280613)
  18 atoms before read
  18 atoms in snapshot
  0 atoms purged
  18 atoms replaced
  0 atoms trimmed
  0 atoms added
  18 atoms after read
        variable stretch equal 1+$i*${strainstep}
        variable stretch equal 1+100*${strainstep}
        variable stretch equal 1+100*0.0005
        change_box all ${direction} scale ${stretch} remap
        change_box all y scale ${stretch} remap
        change_box all y scale 1.05 remap
  orthogonal box = (0 -0.145811 -0.280613) to (3.36736 5.97825 0.280613)
        min_style ${style}
        min_style hftn
        minimize ${etol} ${ftol} ${maxiter} ${maxeval}
        minimize 1e-12 ${ftol} ${maxiter} ${maxeval}
        minimize 1e-12 1e-08 ${maxiter} ${maxeval}
        minimize 1e-12 1e-08 10000 ${maxeval}
        minimize 1e-12 1e-08 10000 20000
WARNING: Resetting reneighboring criteria during minimization (../min.cpp:168)
Memory usage per processor = 4.85099 Mbytes
Step PotEng Pxx Pyy Pxy Lx Ly Lz 
       0   -53.317131   -0.3921813   -1.2979008 1.8663154e-16      3.36736     6.124062   0.56122687 
       1   -53.317131   -0.3921813   -1.2979008 1.0812621e-16      3.36736     6.124062   0.56122687 
Loop time of 5.70464e-05 on 1 procs for 0 steps with 18 atoms

Minimization stats:
  Stopping criterion = force tolerance
  Energy initial, next-to-last, final = 
        -53.3171311886     -53.3171311886     -53.3171311887
  Force two-norm initial, final = 0.000634289 1.3553e-09
  Force max component initial, final = 0.000146064 3.96339e-10
  Final line search alpha, max atom move = 0 0
  Iterations, force evaluations = 0 7

Pair  time (%) = 3.18679e-05 (55.8631)
Neigh time (%) = 0 (0)
Comm  time (%) = 5.31774e-06 (9.32177)
Outpt time (%) = 0 (0)
Other time (%) = 1.98608e-05 (34.8152)

Nlocal:    18 ave 18 max 18 min
Histogram: 1 0 0 0 0 0 0 0 0 0
Nghost:    65 ave 65 max 65 min
Histogram: 1 0 0 0 0 0 0 0 0 0
Neighs:    126 ave 126 max 126 min
Histogram: 1 0 0 0 0 0 0 0 0 0

Total # of neighbors = 126
Ave neighs/atom = 7
Neighbor list builds = 0
Dangerous builds = 0
        next i
jump SELF loop1

