LAMMPS (28 Jun 2014)
# attempt at getting tensile strain-stress curve for infinite slab

#file prefix
variable prefix string tension_V_ductilenew2
variable dumpfile string ${prefix}.*.dump
variable dumpfile string tension_V_ductilenew2.*.dump
variable restartfile string ${prefix}.*.equil
variable restartfile string tension_V_ductilenew2.*.equil

#Mass (g/mol)
variable m equal 1

# lattice constant (in Angstroms) and orientation of axes (given by lattice vectors)
variable rho equal 0.9165
variable x1 equal 1
variable x2 equal 0
variable x3 equal 0
variable y1 equal 0
variable y2 equal 1
variable y3 equal 0
# length of lattice in different directions (using orientation of lattice vectors)
variable ax equal sqrt(${x1}*${x1}+${x2}*${x2}+${x3}*${x3})
variable ax equal sqrt(1*${x1}+${x2}*${x2}+${x3}*${x3})
variable ax equal sqrt(1*1+${x2}*${x2}+${x3}*${x3})
variable ax equal sqrt(1*1+0*${x2}+${x3}*${x3})
variable ax equal sqrt(1*1+0*0+${x3}*${x3})
variable ax equal sqrt(1*1+0*0+0*${x3})
variable ax equal sqrt(1*1+0*0+0*0)
variable ay equal sqrt(${y1}*${y1}+${y2}*${y2}+${y3}*${y3})
variable ay equal sqrt(0*${y1}+${y2}*${y2}+${y3}*${y3})
variable ay equal sqrt(0*0+${y2}*${y2}+${y3}*${y3})
variable ay equal sqrt(0*0+1*${y2}+${y3}*${y3})
variable ay equal sqrt(0*0+1*1+${y3}*${y3})
variable ay equal sqrt(0*0+1*1+0*${y3})
variable ay equal sqrt(0*0+1*1+0*0)
variable az equal 1

# size of box in lattice units
variable lxpos equal 3
variable lxneg equal 0
variable lypos equal 3
variable lyneg equal 0
variable lzpos equal 0.25
variable lzneg equal -0.25

# Define minimization parameters and damping
variable etol equal 1.0e-12
variable ftol equal 1.0e-8
variable maxiter equal 10000
variable maxeval equal 20000
variable style string cg

# boundary conditions
dimension	2
boundary	p p p
atom_style	atomic

# create geometry
units		lj
lattice         hex ${rho}
lattice         hex 0.9165
Lattice spacing in x,y,z = 1.12245 1.94415 1.12245
region		myregion block ${lxneg} ${lxpos} ${lyneg} ${lypos} ${lzneg} ${lzpos} units lattice
region		myregion block 0 ${lxpos} ${lyneg} ${lypos} ${lzneg} ${lzpos} units lattice
region		myregion block 0 3 ${lyneg} ${lypos} ${lzneg} ${lzpos} units lattice
region		myregion block 0 3 0 ${lypos} ${lzneg} ${lzpos} units lattice
region		myregion block 0 3 0 3 ${lzneg} ${lzpos} units lattice
region		myregion block 0 3 0 3 -0.25 ${lzpos} units lattice
region		myregion block 0 3 0 3 -0.25 0.25 units lattice
create_box	1 myregion
Created orthogonal box = (0 0 -0.280613) to (3.36736 5.83244 0.280613)
  1 by 1 by 1 MPI processor grid
create_atoms	1 box
Created 18 atoms

# define masses
mass * $m
mass * 1

# my fake/morse potential
pair_style      table linear 3001
pair_coeff      * * vpotential_ductilenew2 dummy
neighbor	0.3 bin
neigh_modify	delay 5

# Setup output
thermo 1
thermo_style custom step pe pxx pyy pxy lx ly lz
thermo_modify norm no

# Compute initial state by relaxing box
min_style ${style}
min_style cg
minimize ${etol} ${ftol} ${maxiter} ${maxeval}
minimize 1e-12 ${ftol} ${maxiter} ${maxeval}
minimize 1e-12 1e-08 ${maxiter} ${maxeval}
minimize 1e-12 1e-08 10000 ${maxeval}
minimize 1e-12 1e-08 10000 20000
WARNING: Resetting reneighboring criteria during minimization (../min.cpp:168)
Memory usage per processor = 3.35099 Mbytes
Step PotEng Pxx Pyy Pxy Lx Ly Lz 
       0   -53.999984 0.0003469208 0.0003469208 1.4825282e-22    3.3673612    5.8324407   0.56122687 
       1   -53.999984 0.0003469208 0.0003469208 -2.4069537e-16    3.3673612    5.8324407   0.56122687 
Loop time of 5.99329e-05 on 1 procs for 1 steps with 18 atoms

Minimization stats:
  Stopping criterion = energy tolerance
  Energy initial, next-to-last, final = 
         -53.999983866      -53.999983866      -53.999983866
  Force two-norm initial, final = 1.11801e-13 1.30891e-11
  Force max component initial, final = 5.05401e-14 5.36567e-12
  Final line search alpha, max atom move = 1 5.36567e-12
  Iterations, force evaluations = 1 1

Pair  time (%) = 9.0308e-06 (15.0682)
Neigh time (%) = 0 (0)
Comm  time (%) = 1.10106e-06 (1.83715)
Outpt time (%) = 0 (0)
Other time (%) = 4.98011e-05 (83.0947)

Nlocal:    18 ave 18 max 18 min
Histogram: 1 0 0 0 0 0 0 0 0 0
Nghost:    65 ave 65 max 65 min
Histogram: 1 0 0 0 0 0 0 0 0 0
Neighs:    162 ave 162 max 162 min
Histogram: 1 0 0 0 0 0 0 0 0 0

Total # of neighbors = 162
Ave neighs/atom = 9
Neighbor list builds = 0
Dangerous builds = 0
reset_timestep 0
write_dump all atom orig.dump

# Energy curve will have nstep steps
variable strainmax equal 0.05
variable strainstep equal 0.0005
variable nsteps equal round(${strainmax}/${strainstep})
variable nsteps equal round(0.05/${strainstep})
variable nsteps equal round(0.05/0.0005)
variable direction string y

variable i loop ${nsteps}
variable i loop 100
label loop1
	read_dump orig.dump 0 x y
  orthogonal box = (0 0 -0.280613) to (3.36736 5.83244 0.280613)
  18 atoms before read
  18 atoms in snapshot
  0 atoms purged
  18 atoms replaced
  0 atoms trimmed
  0 atoms added
  18 atoms after read
        variable stretch equal 1+$i*${strainstep}
        variable stretch equal 1+1*${strainstep}
        variable stretch equal 1+1*0.0005
        change_box all ${direction} scale ${stretch} remap
        change_box all y scale ${stretch} remap
        change_box all y scale 1.0005 remap
  orthogonal box = (0 -0.00145811 -0.280613) to (3.36736 5.8339 0.280613)
        min_style ${style}
        min_style cg
        minimize ${etol} ${ftol} ${maxiter} ${maxeval}
        minimize 1e-12 ${ftol} ${maxiter} ${maxeval}
        minimize 1e-12 1e-08 ${maxiter} ${maxeval}
        minimize 1e-12 1e-08 10000 ${maxeval}
        minimize 1e-12 1e-08 10000 20000
WARNING: Resetting reneighboring criteria during minimization (../min.cpp:168)
Memory usage per processor = 3.35099 Mbytes
Step PotEng Pxx Pyy Pxy Lx Ly Lz 
       0   -53.999884 -0.0049247753 -0.015513808 5.9772076e-17      3.36736    5.8353562   0.56122687 
       1   -53.999884 -0.0049247753 -0.015513808 5.9772076e-17      3.36736    5.8353562   0.56122687 
Loop time of 0.000134081 on 1 procs for 1 steps with 18 atoms

Minimization stats:
  Stopping criterion = linesearch alpha is zero
  Energy initial, next-to-last, final = 
        -53.9998837515     -53.9998837515     -53.9998837515
  Force two-norm initial, final = 0.000856117 0.000856117
  Force max component initial, final = 0.000213831 0.000213831
  Final line search alpha, max atom move = 0.015625 3.3411e-06
  Iterations, force evaluations = 1 7

Pair  time (%) = 3.88863e-05 (29.0021)
Neigh time (%) = 0 (0)
Comm  time (%) = 6.10924e-06 (4.55638)
Outpt time (%) = 0 (0)
Other time (%) = 8.90854e-05 (66.4415)

Nlocal:    18 ave 18 max 18 min
Histogram: 1 0 0 0 0 0 0 0 0 0
Nghost:    65 ave 65 max 65 min
Histogram: 1 0 0 0 0 0 0 0 0 0
Neighs:    162 ave 162 max 162 min
Histogram: 1 0 0 0 0 0 0 0 0 0

Total # of neighbors = 162
Ave neighs/atom = 9
Neighbor list builds = 0
Dangerous builds = 0
        next i
jump SELF loop1
	read_dump orig.dump 0 x y
  orthogonal box = (0 0 -0.280613) to (3.36736 5.83244 0.280613)
  18 atoms before read
  18 atoms in snapshot
  0 atoms purged
  18 atoms replaced
  0 atoms trimmed
  0 atoms added
  18 atoms after read
        variable stretch equal 1+$i*${strainstep}
        variable stretch equal 1+2*${strainstep}
        variable stretch equal 1+2*0.0005
        change_box all ${direction} scale ${stretch} remap
        change_box all y scale ${stretch} remap
        change_box all y scale 1.001 remap
  orthogonal box = (0 -0.00291622 -0.280613) to (3.36736 5.83536 0.280613)
        min_style ${style}
        min_style cg
        minimize ${etol} ${ftol} ${maxiter} ${maxeval}
        minimize 1e-12 ${ftol} ${maxiter} ${maxeval}
        minimize 1e-12 1e-08 ${maxiter} ${maxeval}
        minimize 1e-12 1e-08 10000 ${maxeval}
        minimize 1e-12 1e-08 10000 20000
WARNING: Resetting reneighboring criteria during minimization (../min.cpp:168)
Memory usage per processor = 3.35099 Mbytes
Step PotEng Pxx Pyy Pxy Lx Ly Lz 
       0   -53.999654 -0.010182196 -0.031332786 -6.273594e-17      3.36736    5.8382724   0.56122687 
       1   -53.999654 -0.010182196 -0.031332786 -6.273594e-17      3.36736    5.8382724   0.56122687 
Loop time of 4.39689e-05 on 1 procs for 1 steps with 18 atoms

Minimization stats:
  Stopping criterion = linesearch alpha is zero
  Energy initial, next-to-last, final = 
        -53.9996543937     -53.9996543937     -53.9996543937
  Force two-norm initial, final = 0.000851934 0.000851934
  Force max component initial, final = 0.000212585 0.000212585
  Final line search alpha, max atom move = 0.015625 3.32164e-06
  Iterations, force evaluations = 1 7

Pair  time (%) = 3.75125e-06 (8.5316)
Neigh time (%) = 0 (0)
Comm  time (%) = 1.44949e-06 (3.29662)
Outpt time (%) = 0 (0)
Other time (%) = 3.87682e-05 (88.1718)

Nlocal:    18 ave 18 max 18 min
Histogram: 1 0 0 0 0 0 0 0 0 0
Nghost:    65 ave 65 max 65 min
Histogram: 1 0 0 0 0 0 0 0 0 0
Neighs:    162 ave 162 max 162 min
Histogram: 1 0 0 0 0 0 0 0 0 0

Total # of neighbors = 162
Ave neighs/atom = 9
Neighbor list builds = 0
Dangerous builds = 0
        next i
jump SELF loop1
	read_dump orig.dump 0 x y
  orthogonal box = (0 0 -0.280613) to (3.36736 5.83244 0.280613)
  18 atoms before read
  18 atoms in snapshot
  0 atoms purged
  18 atoms replaced
  0 atoms trimmed
  0 atoms added
  18 atoms after read
        variable stretch equal 1+$i*${strainstep}
        variable stretch equal 1+3*${strainstep}
        variable stretch equal 1+3*0.0005
        change_box all ${direction} scale ${stretch} remap
        change_box all y scale ${stretch} remap
        change_box all y scale 1.0015 remap
  orthogonal box = (0 -0.00437433 -0.280613) to (3.36736 5.83681 0.280613)
        min_style ${style}
        min_style cg
        minimize ${etol} ${ftol} ${maxiter} ${maxeval}
        minimize 1e-12 ${ftol} ${maxiter} ${maxeval}
        minimize 1e-12 1e-08 ${maxiter} ${maxeval}
        minimize 1e-12 1e-08 10000 ${maxeval}
        minimize 1e-12 1e-08 10000 20000
WARNING: Resetting reneighboring criteria during minimization (../min.cpp:168)
Memory usage per processor = 3.35099 Mbytes
Step PotEng Pxx Pyy Pxy Lx Ly Lz 
       0   -53.999296 -0.015412661 -0.047102243 5.8222912e-17      3.36736    5.8411887   0.56122687 
       1   -53.999296 -0.015412661 -0.047102243 5.8222912e-17      3.36736    5.8411887   0.56122687 
Loop time of 8.98857e-05 on 1 procs for 1 steps with 18 atoms

Minimization stats:
  Stopping criterion = linesearch alpha is zero
  Energy initial, next-to-last, final = 
        -53.9992956634     -53.9992956634     -53.9992956634
  Force two-norm initial, final = 0.000847795 0.000847795
  Force max component initial, final = 0.000211352 0.000211352
  Final line search alpha, max atom move = 0.015625 3.30237e-06
  Iterations, force evaluations = 1 7

Pair  time (%) = 3.82372e-05 (42.5398)
Neigh time (%) = 0 (0)
Comm  time (%) = 6.09586e-06 (6.78179)
Outpt time (%) = 0 (0)
Other time (%) = 4.55526e-05 (50.6784)

Nlocal:    18 ave 18 max 18 min
Histogram: 1 0 0 0 0 0 0 0 0 0
Nghost:    65 ave 65 max 65 min
Histogram: 1 0 0 0 0 0 0 0 0 0
Neighs:    162 ave 162 max 162 min
Histogram: 1 0 0 0 0 0 0 0 0 0

Total # of neighbors = 162
Ave neighs/atom = 9
Neighbor list builds = 0
Dangerous builds = 0
        next i
jump SELF loop1
	read_dump orig.dump 0 x y
  orthogonal box = (0 0 -0.280613) to (3.36736 5.83244 0.280613)
  18 atoms before read
  18 atoms in snapshot
  0 atoms purged
  18 atoms replaced
  0 atoms trimmed
  0 atoms added
  18 atoms after read
        variable stretch equal 1+$i*${strainstep}
        variable stretch equal 1+4*${strainstep}
        variable stretch equal 1+4*0.0005
        change_box all ${direction} scale ${stretch} remap
        change_box all y scale ${stretch} remap
        change_box all y scale 1.002 remap
  orthogonal box = (0 -0.00583244 -0.280613) to (3.36736 5.83827 0.280613)
        min_style ${style}
        min_style cg
        minimize ${etol} ${ftol} ${maxiter} ${maxeval}
        minimize 1e-12 ${ftol} ${maxiter} ${maxeval}
        minimize 1e-12 1e-08 ${maxiter} ${maxeval}
        minimize 1e-12 1e-08 10000 ${maxeval}
        minimize 1e-12 1e-08 10000 20000
WARNING: Resetting reneighboring criteria during minimization (../min.cpp:168)
Memory usage per processor = 3.35099 Mbytes
Step PotEng Pxx Pyy Pxy Lx Ly Lz 
       0   -53.998736 -0.020602799 -0.062781691 -4.9638825e-17      3.36736    5.8441049   0.56122687 
       1   -53.998736 -0.020602799 -0.062781691 -4.9638825e-17      3.36736    5.8441049   0.56122687 
Loop time of 7.61031e-05 on 1 procs for 1 steps with 18 atoms

Minimization stats:
  Stopping criterion = linesearch alpha is zero
  Energy initial, next-to-last, final = 
        -53.9987360433     -53.9987360433     -53.9987360433
  Force two-norm initial, final = 0.000849163 0.000849163
  Force max component initial, final = 0.000211773 0.000211773
  Final line search alpha, max atom move = 0.015625 3.30896e-06
  Iterations, force evaluations = 1 7

Pair  time (%) = 5.09939e-05 (67.0063)
Neigh time (%) = 0 (0)
Comm  time (%) = 6.68794e-06 (8.788)
Outpt time (%) = 0 (0)
Other time (%) = 1.84213e-05 (24.2057)

Nlocal:    18 ave 18 max 18 min
Histogram: 1 0 0 0 0 0 0 0 0 0
Nghost:    65 ave 65 max 65 min
Histogram: 1 0 0 0 0 0 0 0 0 0
Neighs:    162 ave 162 max 162 min
Histogram: 1 0 0 0 0 0 0 0 0 0

Total # of neighbors = 162
Ave neighs/atom = 9
Neighbor list builds = 0
Dangerous builds = 0
        next i
jump SELF loop1
	read_dump orig.dump 0 x y
  orthogonal box = (0 0 -0.280613) to (3.36736 5.83244 0.280613)
  18 atoms before read
  18 atoms in snapshot
  0 atoms purged
  18 atoms replaced
  0 atoms trimmed
  0 atoms added
  18 atoms after read
        variable stretch equal 1+$i*${strainstep}
        variable stretch equal 1+5*${strainstep}
        variable stretch equal 1+5*0.0005
        change_box all ${direction} scale ${stretch} remap
        change_box all y scale ${stretch} remap
        change_box all y scale 1.0025 remap
  orthogonal box = (0 -0.00729055 -0.280613) to (3.36736 5.83973 0.280613)
        min_style ${style}
        min_style cg
        minimize ${etol} ${ftol} ${maxiter} ${maxeval}
        minimize 1e-12 ${ftol} ${maxiter} ${maxeval}
        minimize 1e-12 1e-08 ${maxiter} ${maxeval}
        minimize 1e-12 1e-08 10000 ${maxeval}
        minimize 1e-12 1e-08 10000 20000
WARNING: Resetting reneighboring criteria during minimization (../min.cpp:168)
Memory usage per processor = 3.35099 Mbytes
Step PotEng Pxx Pyy Pxy Lx Ly Lz 
       0   -53.998032 -0.025763191 -0.078402686 -1.2072671e-16      3.36736    5.8470211   0.56122687 
       1   -53.998032 -0.025763191 -0.078402686 -1.2072671e-16      3.36736    5.8470211   0.56122687 
Loop time of 6.28886e-05 on 1 procs for 1 steps with 18 atoms

Minimization stats:
  Stopping criterion = linesearch alpha is zero
  Energy initial, next-to-last, final = 
        -53.9980321141     -53.9980321141     -53.9980321141
  Force two-norm initial, final = 0.000845024 0.000845024
  Force max component initial, final = 0.000210539 0.000210539
  Final line search alpha, max atom move = 0.015625 3.28967e-06
  Iterations, force evaluations = 1 7

Pair  time (%) = 3.92538e-05 (62.4181)
Neigh time (%) = 0 (0)
Comm  time (%) = 1.02286e-05 (16.2646)
Outpt time (%) = 0 (0)
Other time (%) = 1.34062e-05 (21.3173)

Nlocal:    18 ave 18 max 18 min
Histogram: 1 0 0 0 0 0 0 0 0 0
Nghost:    65 ave 65 max 65 min
Histogram: 1 0 0 0 0 0 0 0 0 0
Neighs:    162 ave 162 max 162 min
Histogram: 1 0 0 0 0 0 0 0 0 0

Total # of neighbors = 162
Ave neighs/atom = 9
Neighbor list builds = 0
Dangerous builds = 0
        next i
jump SELF loop1
	read_dump orig.dump 0 x y
  orthogonal box = (0 0 -0.280613) to (3.36736 5.83244 0.280613)
  18 atoms before read
  18 atoms in snapshot
  0 atoms purged
  18 atoms replaced
  0 atoms trimmed
  0 atoms added
  18 atoms after read
        variable stretch equal 1+$i*${strainstep}
        variable stretch equal 1+6*${strainstep}
        variable stretch equal 1+6*0.0005
        change_box all ${direction} scale ${stretch} remap
        change_box all y scale ${stretch} remap
        change_box all y scale 1.003 remap
  orthogonal box = (0 -0.00874866 -0.280613) to (3.36736 5.84119 0.280613)
        min_style ${style}
        min_style cg
        minimize ${etol} ${ftol} ${maxiter} ${maxeval}
        minimize 1e-12 ${ftol} ${maxiter} ${maxeval}
        minimize 1e-12 1e-08 ${maxiter} ${maxeval}
        minimize 1e-12 1e-08 10000 ${maxeval}
        minimize 1e-12 1e-08 10000 20000
WARNING: Resetting reneighboring criteria during minimization (../min.cpp:168)
Memory usage per processor = 3.35099 Mbytes
Step PotEng Pxx Pyy Pxy Lx Ly Lz 
       0     -53.9972 -0.030897012 -0.093974569 1.6580872e-16      3.36736    5.8499373   0.56122687 
       1     -53.9972 -0.030897012 -0.093974569 1.6580872e-16      3.36736    5.8499373   0.56122687 
Loop time of 5.79928e-05 on 1 procs for 1 steps with 18 atoms

Minimization stats:
  Stopping criterion = linesearch alpha is zero
  Energy initial, next-to-last, final = 
        -53.9972003828     -53.9972003828     -53.9972003828
  Force two-norm initial, final = 0.00084092 0.00084092
  Force max component initial, final = 0.000209314 0.000209314
  Final line search alpha, max atom move = 0.015625 3.27053e-06
  Iterations, force evaluations = 1 7

Pair  time (%) = 3.69152e-05 (63.6548)
Neigh time (%) = 0 (0)
Comm  time (%) = 7.02811e-06 (12.1189)
Outpt time (%) = 0 (0)
Other time (%) = 1.40495e-05 (24.2262)

Nlocal:    18 ave 18 max 18 min
Histogram: 1 0 0 0 0 0 0 0 0 0
Nghost:    65 ave 65 max 65 min
Histogram: 1 0 0 0 0 0 0 0 0 0
Neighs:    162 ave 162 max 162 min
Histogram: 1 0 0 0 0 0 0 0 0 0

Total # of neighbors = 162
Ave neighs/atom = 9
Neighbor list builds = 0
Dangerous builds = 0
        next i
jump SELF loop1
	read_dump orig.dump 0 x y
  orthogonal box = (0 0 -0.280613) to (3.36736 5.83244 0.280613)
  18 atoms before read
  18 atoms in snapshot
  0 atoms purged
  18 atoms replaced
  0 atoms trimmed
  0 atoms added
  18 atoms after read
        variable stretch equal 1+$i*${strainstep}
        variable stretch equal 1+7*${strainstep}
        variable stretch equal 1+7*0.0005
        change_box all ${direction} scale ${stretch} remap
        change_box all y scale ${stretch} remap
        change_box all y scale 1.0035 remap
  orthogonal box = (0 -0.0102068 -0.280613) to (3.36736 5.84265 0.280613)
        min_style ${style}
        min_style cg
        minimize ${etol} ${ftol} ${maxiter} ${maxeval}
        minimize 1e-12 ${ftol} ${maxiter} ${maxeval}
        minimize 1e-12 1e-08 ${maxiter} ${maxeval}
        minimize 1e-12 1e-08 10000 ${maxeval}
        minimize 1e-12 1e-08 10000 20000
WARNING: Resetting reneighboring criteria during minimization (../min.cpp:168)
Memory usage per processor = 3.35099 Mbytes
Step PotEng Pxx Pyy Pxy Lx Ly Lz 
       0    -53.99621 -0.035998465  -0.10947961 -1.074071e-16      3.36736    5.8528535   0.56122687 
       1    -53.99621 -0.035998465  -0.10947961 -1.074071e-16      3.36736    5.8528535   0.56122687 
Loop time of 6.01177e-05 on 1 procs for 1 steps with 18 atoms

Minimization stats:
  Stopping criterion = linesearch alpha is zero
  Energy initial, next-to-last, final = 
        -53.9962096735     -53.9962096735     -53.9962096735
  Force two-norm initial, final = 0.000842269 0.000842269
  Force max component initial, final = 0.000209731 0.000209731
  Final line search alpha, max atom move = 0.015625 3.27704e-06
  Iterations, force evaluations = 1 7

Pair  time (%) = 3.80471e-05 (63.2877)
Neigh time (%) = 0 (0)
Comm  time (%) = 6.14603e-06 (10.2233)
Outpt time (%) = 0 (0)
Other time (%) = 1.59246e-05 (26.489)

Nlocal:    18 ave 18 max 18 min
Histogram: 1 0 0 0 0 0 0 0 0 0
Nghost:    65 ave 65 max 65 min
Histogram: 1 0 0 0 0 0 0 0 0 0
Neighs:    162 ave 162 max 162 min
Histogram: 1 0 0 0 0 0 0 0 0 0

Total # of neighbors = 162
Ave neighs/atom = 9
Neighbor list builds = 0
Dangerous builds = 0
        next i
jump SELF loop1
	read_dump orig.dump 0 x y
  orthogonal box = (0 0 -0.280613) to (3.36736 5.83244 0.280613)
  18 atoms before read
  18 atoms in snapshot
  0 atoms purged
  18 atoms replaced
  0 atoms trimmed
  0 atoms added
  18 atoms after read
        variable stretch equal 1+$i*${strainstep}
        variable stretch equal 1+8*${strainstep}
        variable stretch equal 1+8*0.0005
        change_box all ${direction} scale ${stretch} remap
        change_box all y scale ${stretch} remap
        change_box all y scale 1.004 remap
  orthogonal box = (0 -0.0116649 -0.280613) to (3.36736 5.8441 0.280613)
        min_style ${style}
        min_style cg
        minimize ${etol} ${ftol} ${maxiter} ${maxeval}
        minimize 1e-12 ${ftol} ${maxiter} ${maxeval}
        minimize 1e-12 1e-08 ${maxiter} ${maxeval}
        minimize 1e-12 1e-08 10000 ${maxeval}
        minimize 1e-12 1e-08 10000 20000
WARNING: Resetting reneighboring criteria during minimization (../min.cpp:168)
Memory usage per processor = 3.35099 Mbytes
Step PotEng Pxx Pyy Pxy Lx Ly Lz 
       0   -53.995037 -0.041063234  -0.12490448 -6.1943657e-17      3.36736    5.8557698   0.56122687 
       1   -53.995037 -0.041063234  -0.12490448 -6.1943657e-17      3.36736    5.8557698   0.56122687 
Loop time of 5.89303e-05 on 1 procs for 1 steps with 18 atoms

Minimization stats:
  Stopping criterion = linesearch alpha is zero
  Energy initial, next-to-last, final = 
        -53.9950368591     -53.9950368591     -53.9950368591
  Force two-norm initial, final = 0.000838185 0.000838185
  Force max component initial, final = 0.000208511 0.000208511
  Final line search alpha, max atom move = 0.015625 3.25799e-06
  Iterations, force evaluations = 1 7

Pair  time (%) = 3.63163e-05 (61.626)
Neigh time (%) = 0 (0)
Comm  time (%) = 8.11496e-06 (13.7705)
Outpt time (%) = 0 (0)
Other time (%) = 1.44989e-05 (24.6036)

Nlocal:    18 ave 18 max 18 min
Histogram: 1 0 0 0 0 0 0 0 0 0
Nghost:    65 ave 65 max 65 min
Histogram: 1 0 0 0 0 0 0 0 0 0
Neighs:    162 ave 162 max 162 min
Histogram: 1 0 0 0 0 0 0 0 0 0

Total # of neighbors = 162
Ave neighs/atom = 9
Neighbor list builds = 0
Dangerous builds = 0
        next i
jump SELF loop1
	read_dump orig.dump 0 x y
  orthogonal box = (0 0 -0.280613) to (3.36736 5.83244 0.280613)
  18 atoms before read
  18 atoms in snapshot
  0 atoms purged
  18 atoms replaced
  0 atoms trimmed
  0 atoms added
  18 atoms after read
        variable stretch equal 1+$i*${strainstep}
        variable stretch equal 1+9*${strainstep}
        variable stretch equal 1+9*0.0005
        change_box all ${direction} scale ${stretch} remap
        change_box all y scale ${stretch} remap
        change_box all y scale 1.0045 remap
  orthogonal box = (0 -0.013123 -0.280613) to (3.36736 5.84556 0.280613)
        min_style ${style}
        min_style cg
        minimize ${etol} ${ftol} ${maxiter} ${maxeval}
        minimize 1e-12 ${ftol} ${maxiter} ${maxeval}
        minimize 1e-12 1e-08 ${maxiter} ${maxeval}
        minimize 1e-12 1e-08 10000 ${maxeval}
        minimize 1e-12 1e-08 10000 20000
WARNING: Resetting reneighboring criteria during minimization (../min.cpp:168)
Memory usage per processor = 3.35099 Mbytes
Step PotEng Pxx Pyy Pxy Lx Ly Lz 
       0   -53.993738 -0.046101772  -0.14028053 -1.5014165e-17      3.36736     5.858686   0.56122687 
       1   -53.993738 -0.046101772  -0.14028053 -1.5014165e-17      3.36736     5.858686   0.56122687 
Loop time of 5.89485e-05 on 1 procs for 1 steps with 18 atoms

Minimization stats:
  Stopping criterion = linesearch alpha is zero
  Energy initial, next-to-last, final = 
        -53.9937377172     -53.9937377172     -53.9937377172
  Force two-norm initial, final = 0.000834106 0.000834106
  Force max component initial, final = 0.000207292 0.000207292
  Final line search alpha, max atom move = 0.015625 3.23894e-06
  Iterations, force evaluations = 1 7

Pair  time (%) = 3.70321e-05 (62.821)
Neigh time (%) = 0 (0)
Comm  time (%) = 5.63916e-06 (9.56624)
Outpt time (%) = 0 (0)
Other time (%) = 1.62773e-05 (27.6127)

Nlocal:    18 ave 18 max 18 min
Histogram: 1 0 0 0 0 0 0 0 0 0
Nghost:    65 ave 65 max 65 min
Histogram: 1 0 0 0 0 0 0 0 0 0
Neighs:    162 ave 162 max 162 min
Histogram: 1 0 0 0 0 0 0 0 0 0

Total # of neighbors = 162
Ave neighs/atom = 9
Neighbor list builds = 0
Dangerous builds = 0
        next i
jump SELF loop1
	read_dump orig.dump 0 x y
  orthogonal box = (0 0 -0.280613) to (3.36736 5.83244 0.280613)
  18 atoms before read
  18 atoms in snapshot
  0 atoms purged
  18 atoms replaced
  0 atoms trimmed
  0 atoms added
  18 atoms after read
        variable stretch equal 1+$i*${strainstep}
        variable stretch equal 1+10*${strainstep}
        variable stretch equal 1+10*0.0005
        change_box all ${direction} scale ${stretch} remap
        change_box all y scale ${stretch} remap
        change_box all y scale 1.005 remap
  orthogonal box = (0 -0.0145811 -0.280613) to (3.36736 5.84702 0.280613)
        min_style ${style}
        min_style cg
        minimize ${etol} ${ftol} ${maxiter} ${maxeval}
        minimize 1e-12 ${ftol} ${maxiter} ${maxeval}
        minimize 1e-12 1e-08 ${maxiter} ${maxeval}
        minimize 1e-12 1e-08 10000 ${maxeval}
        minimize 1e-12 1e-08 10000 20000
WARNING: Resetting reneighboring criteria during minimization (../min.cpp:168)
Memory usage per processor = 3.35099 Mbytes
Step PotEng Pxx Pyy Pxy Lx Ly Lz 
       0   -53.992312 -0.051114095  -0.15560757 -6.2953144e-17      3.36736    5.8616022   0.56122687 
       1   -53.992312 -0.051114095  -0.15560757 -6.2953144e-17      3.36736    5.8616022   0.56122687 
Loop time of 7.59001e-05 on 1 procs for 1 steps with 18 atoms

Minimization stats:
  Stopping criterion = linesearch alpha is zero
  Energy initial, next-to-last, final = 
        -53.9923122513     -53.9923122513     -53.9923122513
  Force two-norm initial, final = 0.000830064 0.000830064
  Force max component initial, final = 0.000206083 0.000206083
  Final line search alpha, max atom move = 0.015625 3.22005e-06
  Iterations, force evaluations = 1 7

Pair  time (%) = 5.10851e-05 (67.3057)
Neigh time (%) = 0 (0)
Comm  time (%) = 7.82451e-06 (10.309)
Outpt time (%) = 0 (0)
Other time (%) = 1.69905e-05 (22.3853)

Nlocal:    18 ave 18 max 18 min
Histogram: 1 0 0 0 0 0 0 0 0 0
Nghost:    65 ave 65 max 65 min
Histogram: 1 0 0 0 0 0 0 0 0 0
Neighs:    162 ave 162 max 162 min
Histogram: 1 0 0 0 0 0 0 0 0 0

Total # of neighbors = 162
Ave neighs/atom = 9
Neighbor list builds = 0
Dangerous builds = 0
        next i
jump SELF loop1
	read_dump orig.dump 0 x y
  orthogonal box = (0 0 -0.280613) to (3.36736 5.83244 0.280613)
  18 atoms before read
  18 atoms in snapshot
  0 atoms purged
  18 atoms replaced
  0 atoms trimmed
  0 atoms added
  18 atoms after read
        variable stretch equal 1+$i*${strainstep}
        variable stretch equal 1+11*${strainstep}
        variable stretch equal 1+11*0.0005
        change_box all ${direction} scale ${stretch} remap
        change_box all y scale ${stretch} remap
        change_box all y scale 1.0055 remap
  orthogonal box = (0 -0.0160392 -0.280613) to (3.36736 5.84848 0.280613)
        min_style ${style}
        min_style cg
        minimize ${etol} ${ftol} ${maxiter} ${maxeval}
        minimize 1e-12 ${ftol} ${maxiter} ${maxeval}
        minimize 1e-12 1e-08 ${maxiter} ${maxeval}
        minimize 1e-12 1e-08 10000 ${maxeval}
        minimize 1e-12 1e-08 10000 20000
WARNING: Resetting reneighboring criteria during minimization (../min.cpp:168)
Memory usage per processor = 3.35099 Mbytes
Step PotEng Pxx Pyy Pxy Lx Ly Lz 
       0   -53.990685 -0.056086167  -0.17084284 1.8545904e-17      3.36736    5.8645184   0.56122687 
       1   -53.990685 -0.056086167  -0.17084284 1.8545904e-17      3.36736    5.8645184   0.56122687 
Loop time of 5.61028e-05 on 1 procs for 1 steps with 18 atoms

Minimization stats:
  Stopping criterion = linesearch alpha is zero
  Energy initial, next-to-last, final = 
        -53.9906854536     -53.9906854536     -53.9906854536
  Force two-norm initial, final = 0.000831386 0.000831386
  Force max component initial, final = 0.000206492 0.000206492
  Final line search alpha, max atom move = 0.015625 3.22643e-06
  Iterations, force evaluations = 1 7

Pair  time (%) = 3.58487e-05 (63.8983)
Neigh time (%) = 0 (0)
Comm  time (%) = 6.18002e-06 (11.0155)
Outpt time (%) = 0 (0)
Other time (%) = 1.4074e-05 (25.0862)

Nlocal:    18 ave 18 max 18 min
Histogram: 1 0 0 0 0 0 0 0 0 0
Nghost:    65 ave 65 max 65 min
Histogram: 1 0 0 0 0 0 0 0 0 0
Neighs:    162 ave 162 max 162 min
Histogram: 1 0 0 0 0 0 0 0 0 0

Total # of neighbors = 162
Ave neighs/atom = 9
Neighbor list builds = 0
Dangerous builds = 0
        next i
jump SELF loop1
	read_dump orig.dump 0 x y
  orthogonal box = (0 0 -0.280613) to (3.36736 5.83244 0.280613)
  18 atoms before read
  18 atoms in snapshot
  0 atoms purged
  18 atoms replaced
  0 atoms trimmed
  0 atoms added
  18 atoms after read
        variable stretch equal 1+$i*${strainstep}
        variable stretch equal 1+12*${strainstep}
        variable stretch equal 1+12*0.0005
        change_box all ${direction} scale ${stretch} remap
        change_box all y scale ${stretch} remap
        change_box all y scale 1.006 remap
  orthogonal box = (0 -0.0174973 -0.280613) to (3.36736 5.84994 0.280613)
        min_style ${style}
        min_style cg
        minimize ${etol} ${ftol} ${maxiter} ${maxeval}
        minimize 1e-12 ${ftol} ${maxiter} ${maxeval}
        minimize 1e-12 1e-08 ${maxiter} ${maxeval}
        minimize 1e-12 1e-08 10000 ${maxeval}
        minimize 1e-12 1e-08 10000 20000
WARNING: Resetting reneighboring criteria during minimization (../min.cpp:168)
Memory usage per processor = 3.35099 Mbytes
Step PotEng Pxx Pyy Pxy Lx Ly Lz 
       0   -53.988925 -0.061030673  -0.18602448 -1.3113691e-17      3.36736    5.8674346   0.56122687 
       1   -53.988925 -0.061030673  -0.18602448 -1.3113691e-17      3.36736    5.8674346   0.56122687 
Loop time of 5.50611e-05 on 1 procs for 1 steps with 18 atoms

Minimization stats:
  Stopping criterion = linesearch alpha is zero
  Energy initial, next-to-last, final = 
        -53.9889245652     -53.9889245652     -53.9889245652
  Force two-norm initial, final = 0.00082736 0.00082736
  Force max component initial, final = 0.000205287 0.000205287
  Final line search alpha, max atom move = 0.015625 3.2076e-06
  Iterations, force evaluations = 1 7

Pair  time (%) = 3.31383e-05 (60.1847)
Neigh time (%) = 0 (0)
Comm  time (%) = 8.05059e-06 (14.6212)
Outpt time (%) = 0 (0)
Other time (%) = 1.38722e-05 (25.1941)

Nlocal:    18 ave 18 max 18 min
Histogram: 1 0 0 0 0 0 0 0 0 0
Nghost:    65 ave 65 max 65 min
Histogram: 1 0 0 0 0 0 0 0 0 0
Neighs:    162 ave 162 max 162 min
Histogram: 1 0 0 0 0 0 0 0 0 0

Total # of neighbors = 162
Ave neighs/atom = 9
Neighbor list builds = 0
Dangerous builds = 0
        next i
jump SELF loop1
	read_dump orig.dump 0 x y
  orthogonal box = (0 0 -0.280613) to (3.36736 5.83244 0.280613)
  18 atoms before read
  18 atoms in snapshot
  0 atoms purged
  18 atoms replaced
  0 atoms trimmed
  0 atoms added
  18 atoms after read
        variable stretch equal 1+$i*${strainstep}
        variable stretch equal 1+13*${strainstep}
        variable stretch equal 1+13*0.0005
        change_box all ${direction} scale ${stretch} remap
        change_box all y scale ${stretch} remap
        change_box all y scale 1.0065 remap
  orthogonal box = (0 -0.0189554 -0.280613) to (3.36736 5.8514 0.280613)
        min_style ${style}
        min_style cg
        minimize ${etol} ${ftol} ${maxiter} ${maxeval}
        minimize 1e-12 ${ftol} ${maxiter} ${maxeval}
        minimize 1e-12 1e-08 ${maxiter} ${maxeval}
        minimize 1e-12 1e-08 10000 ${maxeval}
        minimize 1e-12 1e-08 10000 20000
WARNING: Resetting reneighboring criteria during minimization (../min.cpp:168)
Memory usage per processor = 3.35099 Mbytes
Step PotEng Pxx Pyy Pxy Lx Ly Lz 
       0   -53.987039 -0.065949359   -0.2011576 -1.1492603e-16      3.36736    5.8703509   0.56122687 
       1   -53.987039 -0.065949359   -0.2011576 -1.1492603e-16      3.36736    5.8703509   0.56122687 
Loop time of 5.49743e-05 on 1 procs for 1 steps with 18 atoms

Minimization stats:
  Stopping criterion = linesearch alpha is zero
  Energy initial, next-to-last, final = 
        -53.9870387838     -53.9870387838     -53.9870387838
  Force two-norm initial, final = 0.000823351 0.000823351
  Force max component initial, final = 0.000204086 0.000204086
  Final line search alpha, max atom move = 0.015625 3.18884e-06
  Iterations, force evaluations = 1 7

Pair  time (%) = 3.60737e-05 (65.6192)
Neigh time (%) = 0 (0)
Comm  time (%) = 7.15314e-06 (13.0118)
Outpt time (%) = 0 (0)
Other time (%) = 1.17475e-05 (21.369)

Nlocal:    18 ave 18 max 18 min
Histogram: 1 0 0 0 0 0 0 0 0 0
Nghost:    65 ave 65 max 65 min
Histogram: 1 0 0 0 0 0 0 0 0 0
Neighs:    162 ave 162 max 162 min
Histogram: 1 0 0 0 0 0 0 0 0 0

Total # of neighbors = 162
Ave neighs/atom = 9
Neighbor list builds = 0
Dangerous builds = 0
        next i
jump SELF loop1
	read_dump orig.dump 0 x y
  orthogonal box = (0 0 -0.280613) to (3.36736 5.83244 0.280613)
  18 atoms before read
  18 atoms in snapshot
  0 atoms purged
  18 atoms replaced
  0 atoms trimmed
  0 atoms added
  18 atoms after read
        variable stretch equal 1+$i*${strainstep}
        variable stretch equal 1+14*${strainstep}
        variable stretch equal 1+14*0.0005
        change_box all ${direction} scale ${stretch} remap
        change_box all y scale ${stretch} remap
        change_box all y scale 1.007 remap
  orthogonal box = (0 -0.0204135 -0.280613) to (3.36736 5.85285 0.280613)
        min_style ${style}
        min_style cg
        minimize ${etol} ${ftol} ${maxiter} ${maxeval}
        minimize 1e-12 ${ftol} ${maxiter} ${maxeval}
        minimize 1e-12 1e-08 ${maxiter} ${maxeval}
        minimize 1e-12 1e-08 10000 ${maxeval}
        minimize 1e-12 1e-08 10000 20000
WARNING: Resetting reneighboring criteria during minimization (../min.cpp:168)
Memory usage per processor = 3.35099 Mbytes
Step PotEng Pxx Pyy Pxy Lx Ly Lz 
       0   -53.984995 -0.070835885  -0.21622268 -7.5107848e-17      3.36736    5.8732671   0.56122687 
       1   -53.984995 -0.070835885  -0.21622268 -7.5107848e-17      3.36736    5.8732671   0.56122687 
Loop time of 5.51057e-05 on 1 procs for 1 steps with 18 atoms

Minimization stats:
  Stopping criterion = linesearch alpha is zero
  Energy initial, next-to-last, final = 
        -53.9849945236     -53.9849945236     -53.9849945236
  Force two-norm initial, final = 0.000824655 0.000824655
  Force max component initial, final = 0.000204489 0.000204489
  Final line search alpha, max atom move = 0.015625 3.19515e-06
  Iterations, force evaluations = 1 7

Pair  time (%) = 3.60247e-05 (65.3739)
Neigh time (%) = 0 (0)
Comm  time (%) = 4.10131e-06 (7.44263)
Outpt time (%) = 0 (0)
Other time (%) = 1.49796e-05 (27.1835)

Nlocal:    18 ave 18 max 18 min
Histogram: 1 0 0 0 0 0 0 0 0 0
Nghost:    65 ave 65 max 65 min
Histogram: 1 0 0 0 0 0 0 0 0 0
Neighs:    162 ave 162 max 162 min
Histogram: 1 0 0 0 0 0 0 0 0 0

Total # of neighbors = 162
Ave neighs/atom = 9
Neighbor list builds = 0
Dangerous builds = 0
        next i
jump SELF loop1
	read_dump orig.dump 0 x y
  orthogonal box = (0 0 -0.280613) to (3.36736 5.83244 0.280613)
  18 atoms before read
  18 atoms in snapshot
  0 atoms purged
  18 atoms replaced
  0 atoms trimmed
  0 atoms added
  18 atoms after read
        variable stretch equal 1+$i*${strainstep}
        variable stretch equal 1+15*${strainstep}
        variable stretch equal 1+15*0.0005
        change_box all ${direction} scale ${stretch} remap
        change_box all y scale ${stretch} remap
        change_box all y scale 1.0075 remap
  orthogonal box = (0 -0.0218717 -0.280613) to (3.36736 5.85431 0.280613)
        min_style ${style}
        min_style cg
        minimize ${etol} ${ftol} ${maxiter} ${maxeval}
        minimize 1e-12 ${ftol} ${maxiter} ${maxeval}
        minimize 1e-12 1e-08 ${maxiter} ${maxeval}
        minimize 1e-12 1e-08 10000 ${maxeval}
        minimize 1e-12 1e-08 10000 20000
WARNING: Resetting reneighboring criteria during minimization (../min.cpp:168)
Memory usage per processor = 3.35099 Mbytes
Step PotEng Pxx Pyy Pxy Lx Ly Lz 
       0   -53.982778 -0.075687697  -0.23121169 -8.5479881e-17      3.36736    5.8761833   0.56122687 
       1   -53.982778 -0.075687697  -0.23121169 -8.5479881e-17      3.36736    5.8761833   0.56122687 
Loop time of 5.49862e-05 on 1 procs for 1 steps with 18 atoms

Minimization stats:
  Stopping criterion = linesearch alpha is zero
  Energy initial, next-to-last, final = 
        -53.9827776587     -53.9827776587     -53.9827776587
  Force two-norm initial, final = 0.000820672 0.000820672
  Force max component initial, final = 0.000203296 0.000203296
  Final line search alpha, max atom move = 0.015625 3.17649e-06
  Iterations, force evaluations = 1 7

Pair  time (%) = 3.48304e-05 (63.3439)
Neigh time (%) = 0 (0)
Comm  time (%) = 4.14322e-06 (7.53502)
Outpt time (%) = 0 (0)
Other time (%) = 1.60126e-05 (29.1211)

Nlocal:    18 ave 18 max 18 min
Histogram: 1 0 0 0 0 0 0 0 0 0
Nghost:    65 ave 65 max 65 min
Histogram: 1 0 0 0 0 0 0 0 0 0
Neighs:    162 ave 162 max 162 min
Histogram: 1 0 0 0 0 0 0 0 0 0

Total # of neighbors = 162
Ave neighs/atom = 9
Neighbor list builds = 0
Dangerous builds = 0
        next i
jump SELF loop1
	read_dump orig.dump 0 x y
  orthogonal box = (0 0 -0.280613) to (3.36736 5.83244 0.280613)
  18 atoms before read
  18 atoms in snapshot
  0 atoms purged
  18 atoms replaced
  0 atoms trimmed
  0 atoms added
  18 atoms after read
        variable stretch equal 1+$i*${strainstep}
        variable stretch equal 1+16*${strainstep}
        variable stretch equal 1+16*0.0005
        change_box all ${direction} scale ${stretch} remap
        change_box all y scale ${stretch} remap
        change_box all y scale 1.008 remap
  orthogonal box = (0 -0.0233298 -0.280613) to (3.36736 5.85577 0.280613)
        min_style ${style}
        min_style cg
        minimize ${etol} ${ftol} ${maxiter} ${maxeval}
        minimize 1e-12 ${ftol} ${maxiter} ${maxeval}
        minimize 1e-12 1e-08 ${maxiter} ${maxeval}
        minimize 1e-12 1e-08 10000 ${maxeval}
        minimize 1e-12 1e-08 10000 20000
WARNING: Resetting reneighboring criteria during minimization (../min.cpp:168)
Memory usage per processor = 3.35099 Mbytes
Step PotEng Pxx Pyy Pxy Lx Ly Lz 
       0   -53.980437 -0.080514021  -0.24615244 -1.7667193e-16      3.36736    5.8790995   0.56122687 
       1   -53.980437 -0.080514021  -0.24615244 -1.7667193e-16      3.36736    5.8790995   0.56122687 
Loop time of 5.41175e-05 on 1 procs for 1 steps with 18 atoms

Minimization stats:
  Stopping criterion = linesearch alpha is zero
  Energy initial, next-to-last, final = 
        -53.9804373476     -53.9804373476     -53.9804373476
  Force two-norm initial, final = 0.000816697 0.000816697
  Force max component initial, final = 0.000202103 0.000202103
  Final line search alpha, max atom move = 0.015625 3.15786e-06
  Iterations, force evaluations = 1 7

Pair  time (%) = 3.27881e-05 (60.5869)
Neigh time (%) = 0 (0)
Comm  time (%) = 8.0656e-06 (14.9039)
Outpt time (%) = 0 (0)
Other time (%) = 1.32638e-05 (24.5092)

Nlocal:    18 ave 18 max 18 min
Histogram: 1 0 0 0 0 0 0 0 0 0
Nghost:    65 ave 65 max 65 min
Histogram: 1 0 0 0 0 0 0 0 0 0
Neighs:    162 ave 162 max 162 min
Histogram: 1 0 0 0 0 0 0 0 0 0

Total # of neighbors = 162
Ave neighs/atom = 9
Neighbor list builds = 0
Dangerous builds = 0
        next i
jump SELF loop1
	read_dump orig.dump 0 x y
  orthogonal box = (0 0 -0.280613) to (3.36736 5.83244 0.280613)
  18 atoms before read
  18 atoms in snapshot
  0 atoms purged
  18 atoms replaced
  0 atoms trimmed
  0 atoms added
  18 atoms after read
        variable stretch equal 1+$i*${strainstep}
        variable stretch equal 1+17*${strainstep}
        variable stretch equal 1+17*0.0005
        change_box all ${direction} scale ${stretch} remap
        change_box all y scale ${stretch} remap
        change_box all y scale 1.0085 remap
  orthogonal box = (0 -0.0247879 -0.280613) to (3.36736 5.85723 0.280613)
        min_style ${style}
        min_style cg
        minimize ${etol} ${ftol} ${maxiter} ${maxeval}
        minimize 1e-12 ${ftol} ${maxiter} ${maxeval}
        minimize 1e-12 1e-08 ${maxiter} ${maxeval}
        minimize 1e-12 1e-08 10000 ${maxeval}
        minimize 1e-12 1e-08 10000 20000
WARNING: Resetting reneighboring criteria during minimization (../min.cpp:168)
Memory usage per processor = 3.35099 Mbytes
Step PotEng Pxx Pyy Pxy Lx Ly Lz 
       0   -53.977974 -0.085314877   -0.2610448 -7.5328673e-17      3.36736    5.8820157   0.56122687 
       1   -53.977974 -0.085314877   -0.2610448 -7.5328673e-17      3.36736    5.8820157   0.56122687 
Loop time of 5.50443e-05 on 1 procs for 1 steps with 18 atoms

Minimization stats:
  Stopping criterion = linesearch alpha is zero
  Energy initial, next-to-last, final = 
         -53.977973626      -53.977973626      -53.977973626
  Force two-norm initial, final = 0.000812766 0.000812766
  Force max component initial, final = 0.000200923 0.000200923
  Final line search alpha, max atom move = 0.015625 3.13941e-06
  Iterations, force evaluations = 1 7

Pair  time (%) = 3.60108e-05 (65.4214)
Neigh time (%) = 0 (0)
Comm  time (%) = 4.07337e-06 (7.40017)
Outpt time (%) = 0 (0)
Other time (%) = 1.49602e-05 (27.1784)

Nlocal:    18 ave 18 max 18 min
Histogram: 1 0 0 0 0 0 0 0 0 0
Nghost:    65 ave 65 max 65 min
Histogram: 1 0 0 0 0 0 0 0 0 0
Neighs:    162 ave 162 max 162 min
Histogram: 1 0 0 0 0 0 0 0 0 0

Total # of neighbors = 162
Ave neighs/atom = 9
Neighbor list builds = 0
Dangerous builds = 0
        next i
jump SELF loop1
	read_dump orig.dump 0 x y
  orthogonal box = (0 0 -0.280613) to (3.36736 5.83244 0.280613)
  18 atoms before read
  18 atoms in snapshot
  0 atoms purged
  18 atoms replaced
  0 atoms trimmed
  0 atoms added
  18 atoms after read
        variable stretch equal 1+$i*${strainstep}
        variable stretch equal 1+18*${strainstep}
        variable stretch equal 1+18*0.0005
        change_box all ${direction} scale ${stretch} remap
        change_box all y scale ${stretch} remap
        change_box all y scale 1.009 remap
  orthogonal box = (0 -0.026246 -0.280613) to (3.36736 5.85869 0.280613)
        min_style ${style}
        min_style cg
        minimize ${etol} ${ftol} ${maxiter} ${maxeval}
        minimize 1e-12 ${ftol} ${maxiter} ${maxeval}
        minimize 1e-12 1e-08 ${maxiter} ${maxeval}
        minimize 1e-12 1e-08 10000 ${maxeval}
        minimize 1e-12 1e-08 10000 20000
WARNING: Resetting reneighboring criteria during minimization (../min.cpp:168)
Memory usage per processor = 3.35099 Mbytes
Step PotEng Pxx Pyy Pxy Lx Ly Lz 
       0   -53.975314 -0.090076639  -0.27584693 -9.779969e-17      3.36736     5.884932   0.56122687 
       1   -53.975314 -0.090076639  -0.27584693 -9.779969e-17      3.36736     5.884932   0.56122687 
Loop time of 5.50405e-05 on 1 procs for 1 steps with 18 atoms

Minimization stats:
  Stopping criterion = linesearch alpha is zero
  Energy initial, next-to-last, final = 
        -53.9753136643     -53.9753136643     -53.9753136643
  Force two-norm initial, final = 0.000814042 0.000814042
  Force max component initial, final = 0.000201319 0.000201319
  Final line search alpha, max atom move = 0.015625 3.1456e-06
  Iterations, force evaluations = 1 7

Pair  time (%) = 3.41124e-05 (61.9769)
Neigh time (%) = 0 (0)
Comm  time (%) = 5.32984e-06 (9.6835)
Outpt time (%) = 0 (0)
Other time (%) = 1.55983e-05 (28.3396)

Nlocal:    18 ave 18 max 18 min
Histogram: 1 0 0 0 0 0 0 0 0 0
Nghost:    65 ave 65 max 65 min
Histogram: 1 0 0 0 0 0 0 0 0 0
Neighs:    162 ave 162 max 162 min
Histogram: 1 0 0 0 0 0 0 0 0 0

Total # of neighbors = 162
Ave neighs/atom = 9
Neighbor list builds = 0
Dangerous builds = 0
        next i
jump SELF loop1
	read_dump orig.dump 0 x y
  orthogonal box = (0 0 -0.280613) to (3.36736 5.83244 0.280613)
  18 atoms before read
  18 atoms in snapshot
  0 atoms purged
  18 atoms replaced
  0 atoms trimmed
  0 atoms added
  18 atoms after read
        variable stretch equal 1+$i*${strainstep}
        variable stretch equal 1+19*${strainstep}
        variable stretch equal 1+19*0.0005
        change_box all ${direction} scale ${stretch} remap
        change_box all y scale ${stretch} remap
        change_box all y scale 1.0095 remap
  orthogonal box = (0 -0.0277041 -0.280613) to (3.36736 5.86014 0.280613)
        min_style ${style}
        min_style cg
        minimize ${etol} ${ftol} ${maxiter} ${maxeval}
        minimize 1e-12 ${ftol} ${maxiter} ${maxeval}
        minimize 1e-12 1e-08 ${maxiter} ${maxeval}
        minimize 1e-12 1e-08 10000 ${maxeval}
        minimize 1e-12 1e-08 10000 20000
WARNING: Resetting reneighboring criteria during minimization (../min.cpp:168)
Memory usage per processor = 3.35099 Mbytes
Step PotEng Pxx Pyy Pxy Lx Ly Lz 
       0   -53.972524  -0.09481187  -0.29059691 6.6168226e-17      3.36736    5.8878482   0.56122687 
       1   -53.972524  -0.09481187  -0.29059691 6.6168226e-17      3.36736    5.8878482   0.56122687 
Loop time of 5.3943e-05 on 1 procs for 1 steps with 18 atoms

Minimization stats:
  Stopping criterion = linesearch alpha is zero
  Energy initial, next-to-last, final = 
        -53.9725242836     -53.9725242836     -53.9725242836
  Force two-norm initial, final = 0.000810105 0.000810105
  Force max component initial, final = 0.000200135 0.000200135
  Final line search alpha, max atom move = 0.015625 3.12711e-06
  Iterations, force evaluations = 1 7

Pair  time (%) = 3.17699e-05 (58.8952)
Neigh time (%) = 0 (0)
Comm  time (%) = 6.98271e-06 (12.9446)
Outpt time (%) = 0 (0)
Other time (%) = 1.51905e-05 (28.1602)

Nlocal:    18 ave 18 max 18 min
Histogram: 1 0 0 0 0 0 0 0 0 0
Nghost:    65 ave 65 max 65 min
Histogram: 1 0 0 0 0 0 0 0 0 0
Neighs:    162 ave 162 max 162 min
Histogram: 1 0 0 0 0 0 0 0 0 0

Total # of neighbors = 162
Ave neighs/atom = 9
Neighbor list builds = 0
Dangerous builds = 0
        next i
jump SELF loop1
	read_dump orig.dump 0 x y
  orthogonal box = (0 0 -0.280613) to (3.36736 5.83244 0.280613)
  18 atoms before read
  18 atoms in snapshot
  0 atoms purged
  18 atoms replaced
  0 atoms trimmed
  0 atoms added
  18 atoms after read
        variable stretch equal 1+$i*${strainstep}
        variable stretch equal 1+20*${strainstep}
        variable stretch equal 1+20*0.0005
        change_box all ${direction} scale ${stretch} remap
        change_box all y scale ${stretch} remap
        change_box all y scale 1.01 remap
  orthogonal box = (0 -0.0291622 -0.280613) to (3.36736 5.8616 0.280613)
        min_style ${style}
        min_style cg
        minimize ${etol} ${ftol} ${maxiter} ${maxeval}
        minimize 1e-12 ${ftol} ${maxiter} ${maxeval}
        minimize 1e-12 1e-08 ${maxiter} ${maxeval}
        minimize 1e-12 1e-08 10000 ${maxeval}
        minimize 1e-12 1e-08 10000 20000
WARNING: Resetting reneighboring criteria during minimization (../min.cpp:168)
Memory usage per processor = 3.35099 Mbytes
Step PotEng Pxx Pyy Pxy Lx Ly Lz 
       0   -53.969613 -0.099522005  -0.30529892 -1.9949956e-19      3.36736    5.8907644   0.56122687 
       1   -53.969613 -0.099522005  -0.30529892 -1.9949956e-19      3.36736    5.8907644   0.56122687 
Loop time of 5.29094e-05 on 1 procs for 1 steps with 18 atoms

Minimization stats:
  Stopping criterion = linesearch alpha is zero
  Energy initial, next-to-last, final = 
        -53.9696128682     -53.9696128682     -53.9696128682
  Force two-norm initial, final = 0.000806212 0.000806212
  Force max component initial, final = 0.000198965 0.000198965
  Final line search alpha, max atom move = 0.015625 3.10882e-06
  Iterations, force evaluations = 1 7

Pair  time (%) = 3.4084e-05 (64.4195)
Neigh time (%) = 0 (0)
Comm  time (%) = 7.27293e-06 (13.746)
Outpt time (%) = 0 (0)
Other time (%) = 1.15525e-05 (21.8345)

Nlocal:    18 ave 18 max 18 min
Histogram: 1 0 0 0 0 0 0 0 0 0
Nghost:    65 ave 65 max 65 min
Histogram: 1 0 0 0 0 0 0 0 0 0
Neighs:    162 ave 162 max 162 min
Histogram: 1 0 0 0 0 0 0 0 0 0

Total # of neighbors = 162
Ave neighs/atom = 9
Neighbor list builds = 0
Dangerous builds = 0
        next i
jump SELF loop1
	read_dump orig.dump 0 x y
  orthogonal box = (0 0 -0.280613) to (3.36736 5.83244 0.280613)
  18 atoms before read
  18 atoms in snapshot
  0 atoms purged
  18 atoms replaced
  0 atoms trimmed
  0 atoms added
  18 atoms after read
        variable stretch equal 1+$i*${strainstep}
        variable stretch equal 1+21*${strainstep}
        variable stretch equal 1+21*0.0005
        change_box all ${direction} scale ${stretch} remap
        change_box all y scale ${stretch} remap
        change_box all y scale 1.0105 remap
  orthogonal box = (0 -0.0306203 -0.280613) to (3.36736 5.86306 0.280613)
        min_style ${style}
        min_style cg
        minimize ${etol} ${ftol} ${maxiter} ${maxeval}
        minimize 1e-12 ${ftol} ${maxiter} ${maxeval}
        minimize 1e-12 1e-08 ${maxiter} ${maxeval}
        minimize 1e-12 1e-08 10000 ${maxeval}
        minimize 1e-12 1e-08 10000 20000
WARNING: Resetting reneighboring criteria during minimization (../min.cpp:168)
Memory usage per processor = 3.35099 Mbytes
Step PotEng Pxx Pyy Pxy Lx Ly Lz 
       0   -53.966549  -0.10420126  -0.31993501 3.2114462e-17      3.36736    5.8936806   0.56122687 
       1   -53.966549  -0.10420126  -0.31993501 3.2114462e-17      3.36736    5.8936806   0.56122687 
Loop time of 5.39301e-05 on 1 procs for 1 steps with 18 atoms

Minimization stats:
  Stopping criterion = linesearch alpha is zero
  Energy initial, next-to-last, final = 
        -53.9665485375     -53.9665485375     -53.9665485375
  Force two-norm initial, final = 0.000807471 0.000807471
  Force max component initial, final = 0.000199356 0.000199356
  Final line search alpha, max atom move = 0.015625 3.11494e-06
  Iterations, force evaluations = 1 7

Pair  time (%) = 3.40042e-05 (63.0524)
Neigh time (%) = 0 (0)
Comm  time (%) = 4.92146e-06 (9.12562)
Outpt time (%) = 0 (0)
Other time (%) = 1.50044e-05 (27.822)

Nlocal:    18 ave 18 max 18 min
Histogram: 1 0 0 0 0 0 0 0 0 0
Nghost:    65 ave 65 max 65 min
Histogram: 1 0 0 0 0 0 0 0 0 0
Neighs:    162 ave 162 max 162 min
Histogram: 1 0 0 0 0 0 0 0 0 0

Total # of neighbors = 162
Ave neighs/atom = 9
Neighbor list builds = 0
Dangerous builds = 0
        next i
jump SELF loop1
	read_dump orig.dump 0 x y
  orthogonal box = (0 0 -0.280613) to (3.36736 5.83244 0.280613)
  18 atoms before read
  18 atoms in snapshot
  0 atoms purged
  18 atoms replaced
  0 atoms trimmed
  0 atoms added
  18 atoms after read
        variable stretch equal 1+$i*${strainstep}
        variable stretch equal 1+22*${strainstep}
        variable stretch equal 1+22*0.0005
        change_box all ${direction} scale ${stretch} remap
        change_box all y scale ${stretch} remap
        change_box all y scale 1.011 remap
  orthogonal box = (0 -0.0320784 -0.280613) to (3.36736 5.86452 0.280613)
        min_style ${style}
        min_style cg
        minimize ${etol} ${ftol} ${maxiter} ${maxeval}
        minimize 1e-12 ${ftol} ${maxiter} ${maxeval}
        minimize 1e-12 1e-08 ${maxiter} ${maxeval}
        minimize 1e-12 1e-08 10000 ${maxeval}
        minimize 1e-12 1e-08 10000 20000
WARNING: Resetting reneighboring criteria during minimization (../min.cpp:168)
Memory usage per processor = 3.35099 Mbytes
Step PotEng Pxx Pyy Pxy Lx Ly Lz 
       0   -53.963316  -0.10884673  -0.33449606 -9.7106598e-17      3.36736    5.8965968   0.56122687 
       1   -53.963316  -0.10884673  -0.33449606 -9.7106598e-17      3.36736    5.8965968   0.56122687 
Loop time of 5.39101e-05 on 1 procs for 1 steps with 18 atoms

Minimization stats:
  Stopping criterion = linesearch alpha is zero
  Energy initial, next-to-last, final = 
        -53.9633157907     -53.9633157907     -53.9633157907
  Force two-norm initial, final = 0.000803583 0.000803583
  Force max component initial, final = 0.000198186 0.000198186
  Final line search alpha, max atom move = 0.015625 3.09665e-06
  Iterations, force evaluations = 1 7

Pair  time (%) = 3.2698e-05 (60.6529)
Neigh time (%) = 0 (0)
Comm  time (%) = 4.9317e-06 (9.14802)
Outpt time (%) = 0 (0)
Other time (%) = 1.62803e-05 (30.1991)

Nlocal:    18 ave 18 max 18 min
Histogram: 1 0 0 0 0 0 0 0 0 0
Nghost:    65 ave 65 max 65 min
Histogram: 1 0 0 0 0 0 0 0 0 0
Neighs:    162 ave 162 max 162 min
Histogram: 1 0 0 0 0 0 0 0 0 0

Total # of neighbors = 162
Ave neighs/atom = 9
Neighbor list builds = 0
Dangerous builds = 0
        next i
jump SELF loop1
	read_dump orig.dump 0 x y
  orthogonal box = (0 0 -0.280613) to (3.36736 5.83244 0.280613)
  18 atoms before read
  18 atoms in snapshot
  0 atoms purged
  18 atoms replaced
  0 atoms trimmed
  0 atoms added
  18 atoms after read
        variable stretch equal 1+$i*${strainstep}
        variable stretch equal 1+23*${strainstep}
        variable stretch equal 1+23*0.0005
        change_box all ${direction} scale ${stretch} remap
        change_box all y scale ${stretch} remap
        change_box all y scale 1.0115 remap
  orthogonal box = (0 -0.0335365 -0.280613) to (3.36736 5.86598 0.280613)
        min_style ${style}
        min_style cg
        minimize ${etol} ${ftol} ${maxiter} ${maxeval}
        minimize 1e-12 ${ftol} ${maxiter} ${maxeval}
        minimize 1e-12 1e-08 ${maxiter} ${maxeval}
        minimize 1e-12 1e-08 10000 ${maxeval}
        minimize 1e-12 1e-08 10000 20000
WARNING: Resetting reneighboring criteria during minimization (../min.cpp:168)
Memory usage per processor = 3.35099 Mbytes
Step PotEng Pxx Pyy Pxy Lx Ly Lz 
       0   -53.959962  -0.11346743  -0.34900939 -5.0821505e-17      3.36736    5.8995131   0.56122687 
       1   -53.959962  -0.11346743  -0.34900939 -5.0821505e-17      3.36736    5.8995131   0.56122687 
Loop time of 5.30889e-05 on 1 procs for 1 steps with 18 atoms

Minimization stats:
  Stopping criterion = linesearch alpha is zero
  Energy initial, next-to-last, final = 
        -53.9599624923     -53.9599624923     -53.9599624923
  Force two-norm initial, final = 0.000799706 0.000799706
  Force max component initial, final = 0.000197018 0.000197018
  Final line search alpha, max atom move = 0.015625 3.0784e-06
  Iterations, force evaluations = 1 7

Pair  time (%) = 3.41355e-05 (64.2988)
Neigh time (%) = 0 (0)
Comm  time (%) = 8.184e-06 (15.4157)
Outpt time (%) = 0 (0)
Other time (%) = 1.07693e-05 (20.2855)

Nlocal:    18 ave 18 max 18 min
Histogram: 1 0 0 0 0 0 0 0 0 0
Nghost:    65 ave 65 max 65 min
Histogram: 1 0 0 0 0 0 0 0 0 0
Neighs:    162 ave 162 max 162 min
Histogram: 1 0 0 0 0 0 0 0 0 0

Total # of neighbors = 162
Ave neighs/atom = 9
Neighbor list builds = 0
Dangerous builds = 0
        next i
jump SELF loop1
	read_dump orig.dump 0 x y
  orthogonal box = (0 0 -0.280613) to (3.36736 5.83244 0.280613)
  18 atoms before read
  18 atoms in snapshot
  0 atoms purged
  18 atoms replaced
  0 atoms trimmed
  0 atoms added
  18 atoms after read
        variable stretch equal 1+$i*${strainstep}
        variable stretch equal 1+24*${strainstep}
        variable stretch equal 1+24*0.0005
        change_box all ${direction} scale ${stretch} remap
        change_box all y scale ${stretch} remap
        change_box all y scale 1.012 remap
  orthogonal box = (0 -0.0349946 -0.280613) to (3.36736 5.86743 0.280613)
        min_style ${style}
        min_style cg
        minimize ${etol} ${ftol} ${maxiter} ${maxeval}
        minimize 1e-12 ${ftol} ${maxiter} ${maxeval}
        minimize 1e-12 1e-08 ${maxiter} ${maxeval}
        minimize 1e-12 1e-08 10000 ${maxeval}
        minimize 1e-12 1e-08 10000 20000
WARNING: Resetting reneighboring criteria during minimization (../min.cpp:168)
Memory usage per processor = 3.35099 Mbytes
Step PotEng Pxx Pyy Pxy Lx Ly Lz 
       0   -53.956489  -0.11806337  -0.36347489  -6.7974e-17      3.36736    5.9024293   0.56122687 
       1   -53.956489  -0.11806337  -0.36347489  -6.7974e-17      3.36736    5.9024293   0.56122687 
Loop time of 5.30564e-05 on 1 procs for 1 steps with 18 atoms

Minimization stats:
  Stopping criterion = linesearch alpha is zero
  Energy initial, next-to-last, final = 
        -53.9564887145     -53.9564887145     -53.9564887145
  Force two-norm initial, final = 0.000795874 0.000795874
  Force max component initial, final = 0.000195863 0.000195863
  Final line search alpha, max atom move = 0.015625 3.06035e-06
  Iterations, force evaluations = 1 7

Pair  time (%) = 3.39756e-05 (64.0367)
Neigh time (%) = 0 (0)
Comm  time (%) = 4.86406e-06 (9.16773)
Outpt time (%) = 0 (0)
Other time (%) = 1.42168e-05 (26.7956)

Nlocal:    18 ave 18 max 18 min
Histogram: 1 0 0 0 0 0 0 0 0 0
Nghost:    65 ave 65 max 65 min
Histogram: 1 0 0 0 0 0 0 0 0 0
Neighs:    162 ave 162 max 162 min
Histogram: 1 0 0 0 0 0 0 0 0 0

Total # of neighbors = 162
Ave neighs/atom = 9
Neighbor list builds = 0
Dangerous builds = 0
        next i
jump SELF loop1
	read_dump orig.dump 0 x y
  orthogonal box = (0 0 -0.280613) to (3.36736 5.83244 0.280613)
  18 atoms before read
  18 atoms in snapshot
  0 atoms purged
  18 atoms replaced
  0 atoms trimmed
  0 atoms added
  18 atoms after read
        variable stretch equal 1+$i*${strainstep}
        variable stretch equal 1+25*${strainstep}
        variable stretch equal 1+25*0.0005
        change_box all ${direction} scale ${stretch} remap
        change_box all y scale ${stretch} remap
        change_box all y scale 1.0125 remap
  orthogonal box = (0 -0.0364527 -0.280613) to (3.36736 5.86889 0.280613)
        min_style ${style}
        min_style cg
        minimize ${etol} ${ftol} ${maxiter} ${maxeval}
        minimize 1e-12 ${ftol} ${maxiter} ${maxeval}
        minimize 1e-12 1e-08 ${maxiter} ${maxeval}
        minimize 1e-12 1e-08 10000 ${maxeval}
        minimize 1e-12 1e-08 10000 20000
WARNING: Resetting reneighboring criteria during minimization (../min.cpp:168)
Memory usage per processor = 3.35099 Mbytes
Step PotEng Pxx Pyy Pxy Lx Ly Lz 
       0   -53.952828  -0.12262219  -0.37785427 -5.0746776e-17      3.36736    5.9053455   0.56122687 
       1   -53.952828  -0.12262219  -0.37785427 -5.0746776e-17      3.36736    5.9053455   0.56122687 
Loop time of 5.4074e-05 on 1 procs for 1 steps with 18 atoms

Minimization stats:
  Stopping criterion = linesearch alpha is zero
  Energy initial, next-to-last, final = 
        -53.9528282801     -53.9528282801     -53.9528282801
  Force two-norm initial, final = 0.000797106 0.000797106
  Force max component initial, final = 0.000196246 0.000196246
  Final line search alpha, max atom move = 0.015625 3.06635e-06
  Iterations, force evaluations = 1 7

Pair  time (%) = 3.52015e-05 (65.0989)
Neigh time (%) = 0 (0)
Comm  time (%) = 7.31612e-06 (13.5298)
Outpt time (%) = 0 (0)
Other time (%) = 1.15563e-05 (21.3713)

Nlocal:    18 ave 18 max 18 min
Histogram: 1 0 0 0 0 0 0 0 0 0
Nghost:    65 ave 65 max 65 min
Histogram: 1 0 0 0 0 0 0 0 0 0
Neighs:    162 ave 162 max 162 min
Histogram: 1 0 0 0 0 0 0 0 0 0

Total # of neighbors = 162
Ave neighs/atom = 9
Neighbor list builds = 0
Dangerous builds = 0
        next i
jump SELF loop1
	read_dump orig.dump 0 x y
  orthogonal box = (0 0 -0.280613) to (3.36736 5.83244 0.280613)
  18 atoms before read
  18 atoms in snapshot
  0 atoms purged
  18 atoms replaced
  0 atoms trimmed
  0 atoms added
  18 atoms after read
        variable stretch equal 1+$i*${strainstep}
        variable stretch equal 1+26*${strainstep}
        variable stretch equal 1+26*0.0005
        change_box all ${direction} scale ${stretch} remap
        change_box all y scale ${stretch} remap
        change_box all y scale 1.013 remap
  orthogonal box = (0 -0.0379109 -0.280613) to (3.36736 5.87035 0.280613)
        min_style ${style}
        min_style cg
        minimize ${etol} ${ftol} ${maxiter} ${maxeval}
        minimize 1e-12 ${ftol} ${maxiter} ${maxeval}
        minimize 1e-12 1e-08 ${maxiter} ${maxeval}
        minimize 1e-12 1e-08 10000 ${maxeval}
        minimize 1e-12 1e-08 10000 20000
WARNING: Resetting reneighboring criteria during minimization (../min.cpp:168)
Memory usage per processor = 3.35099 Mbytes
Step PotEng Pxx Pyy Pxy Lx Ly Lz 
       0   -53.949039  -0.12715465  -0.39218041 -2.7157855e-17      3.36736    5.9082617   0.56122687 
       1   -53.949039  -0.12715465  -0.39218041 -2.7157855e-17      3.36736    5.9082617   0.56122687 
Loop time of 5.49968e-05 on 1 procs for 1 steps with 18 atoms

Minimization stats:
  Stopping criterion = linesearch alpha is zero
  Energy initial, next-to-last, final = 
        -53.9490385042     -53.9490385042     -53.9490385042
  Force two-norm initial, final = 0.000793272 0.000793272
  Force max component initial, final = 0.000195089 0.000195089
  Final line search alpha, max atom move = 0.015625 3.04827e-06
  Iterations, force evaluations = 1 7

Pair  time (%) = 3.51468e-05 (63.907)
Neigh time (%) = 0 (0)
Comm  time (%) = 5.01447e-06 (9.11775)
Outpt time (%) = 0 (0)
Other time (%) = 1.48355e-05 (26.9752)

Nlocal:    18 ave 18 max 18 min
Histogram: 1 0 0 0 0 0 0 0 0 0
Nghost:    65 ave 65 max 65 min
Histogram: 1 0 0 0 0 0 0 0 0 0
Neighs:    162 ave 162 max 162 min
Histogram: 1 0 0 0 0 0 0 0 0 0

Total # of neighbors = 162
Ave neighs/atom = 9
Neighbor list builds = 0
Dangerous builds = 0
        next i
jump SELF loop1
	read_dump orig.dump 0 x y
  orthogonal box = (0 0 -0.280613) to (3.36736 5.83244 0.280613)
  18 atoms before read
  18 atoms in snapshot
  0 atoms purged
  18 atoms replaced
  0 atoms trimmed
  0 atoms added
  18 atoms after read
        variable stretch equal 1+$i*${strainstep}
        variable stretch equal 1+27*${strainstep}
        variable stretch equal 1+27*0.0005
        change_box all ${direction} scale ${stretch} remap
        change_box all y scale ${stretch} remap
        change_box all y scale 1.0135 remap
  orthogonal box = (0 -0.039369 -0.280613) to (3.36736 5.87181 0.280613)
        min_style ${style}
        min_style cg
        minimize ${etol} ${ftol} ${maxiter} ${maxeval}
        minimize 1e-12 ${ftol} ${maxiter} ${maxeval}
        minimize 1e-12 1e-08 ${maxiter} ${maxeval}
        minimize 1e-12 1e-08 10000 ${maxeval}
        minimize 1e-12 1e-08 10000 20000
WARNING: Resetting reneighboring criteria during minimization (../min.cpp:168)
Memory usage per processor = 3.35099 Mbytes
Step PotEng Pxx Pyy Pxy Lx Ly Lz 
       0    -53.94513  -0.13166273  -0.40645918 -4.5838101e-17      3.36736    5.9111779   0.56122687 
       1    -53.94513  -0.13166273  -0.40645918 -4.5838101e-17      3.36736    5.9111779   0.56122687 
Loop time of 5.39101e-05 on 1 procs for 1 steps with 18 atoms

Minimization stats:
  Stopping criterion = linesearch alpha is zero
  Energy initial, next-to-last, final = 
        -53.9451296251     -53.9451296251     -53.9451296251
  Force two-norm initial, final = 0.000789472 0.000789472
  Force max component initial, final = 0.000193942 0.000193942
  Final line search alpha, max atom move = 0.015625 3.03034e-06
  Iterations, force evaluations = 1 7

Pair  time (%) = 3.38901e-05 (62.8642)
Neigh time (%) = 0 (0)
Comm  time (%) = 4.12378e-06 (7.64937)
Outpt time (%) = 0 (0)
Other time (%) = 1.58962e-05 (29.4864)

Nlocal:    18 ave 18 max 18 min
Histogram: 1 0 0 0 0 0 0 0 0 0
Nghost:    65 ave 65 max 65 min
Histogram: 1 0 0 0 0 0 0 0 0 0
Neighs:    162 ave 162 max 162 min
Histogram: 1 0 0 0 0 0 0 0 0 0

Total # of neighbors = 162
Ave neighs/atom = 9
Neighbor list builds = 0
Dangerous builds = 0
        next i
jump SELF loop1
	read_dump orig.dump 0 x y
  orthogonal box = (0 0 -0.280613) to (3.36736 5.83244 0.280613)
  18 atoms before read
  18 atoms in snapshot
  0 atoms purged
  18 atoms replaced
  0 atoms trimmed
  0 atoms added
  18 atoms after read
        variable stretch equal 1+$i*${strainstep}
        variable stretch equal 1+28*${strainstep}
        variable stretch equal 1+28*0.0005
        change_box all ${direction} scale ${stretch} remap
        change_box all y scale ${stretch} remap
        change_box all y scale 1.014 remap
  orthogonal box = (0 -0.0408271 -0.280613) to (3.36736 5.87327 0.280613)
        min_style ${style}
        min_style cg
        minimize ${etol} ${ftol} ${maxiter} ${maxeval}
        minimize 1e-12 ${ftol} ${maxiter} ${maxeval}
        minimize 1e-12 1e-08 ${maxiter} ${maxeval}
        minimize 1e-12 1e-08 10000 ${maxeval}
        minimize 1e-12 1e-08 10000 20000
WARNING: Resetting reneighboring criteria during minimization (../min.cpp:168)
Memory usage per processor = 3.35099 Mbytes
Step PotEng Pxx Pyy Pxy Lx Ly Lz 
       0   -53.941078  -0.13614193  -0.42067645 2.1668382e-16      3.36736    5.9140942   0.56122687 
       1   -53.941078  -0.13614193  -0.42067645 2.1668382e-16      3.36736    5.9140942   0.56122687 
Loop time of 5.289e-05 on 1 procs for 1 steps with 18 atoms

Minimization stats:
  Stopping criterion = linesearch alpha is zero
  Energy initial, next-to-last, final = 
         -53.941077593      -53.941077593      -53.941077593
  Force two-norm initial, final = 0.000790687 0.000790687
  Force max component initial, final = 0.000194321 0.000194321
  Final line search alpha, max atom move = 0.015625 3.03626e-06
  Iterations, force evaluations = 1 7

Pair  time (%) = 3.29287e-05 (62.2587)
Neigh time (%) = 0 (0)
Comm  time (%) = 7.15442e-06 (13.527)
Outpt time (%) = 0 (0)
Other time (%) = 1.2807e-05 (24.2143)

Nlocal:    18 ave 18 max 18 min
Histogram: 1 0 0 0 0 0 0 0 0 0
Nghost:    65 ave 65 max 65 min
Histogram: 1 0 0 0 0 0 0 0 0 0
Neighs:    162 ave 162 max 162 min
Histogram: 1 0 0 0 0 0 0 0 0 0

Total # of neighbors = 162
Ave neighs/atom = 9
Neighbor list builds = 0
Dangerous builds = 0
        next i
jump SELF loop1
	read_dump orig.dump 0 x y
  orthogonal box = (0 0 -0.280613) to (3.36736 5.83244 0.280613)
  18 atoms before read
  18 atoms in snapshot
  0 atoms purged
  18 atoms replaced
  0 atoms trimmed
  0 atoms added
  18 atoms after read
        variable stretch equal 1+$i*${strainstep}
        variable stretch equal 1+29*${strainstep}
        variable stretch equal 1+29*0.0005
        change_box all ${direction} scale ${stretch} remap
        change_box all y scale ${stretch} remap
        change_box all y scale 1.0145 remap
  orthogonal box = (0 -0.0422852 -0.280613) to (3.36736 5.87473 0.280613)
        min_style ${style}
        min_style cg
        minimize ${etol} ${ftol} ${maxiter} ${maxeval}
        minimize 1e-12 ${ftol} ${maxiter} ${maxeval}
        minimize 1e-12 1e-08 ${maxiter} ${maxeval}
        minimize 1e-12 1e-08 10000 ${maxeval}
        minimize 1e-12 1e-08 10000 20000
WARNING: Resetting reneighboring criteria during minimization (../min.cpp:168)
Memory usage per processor = 3.35099 Mbytes
Step PotEng Pxx Pyy Pxy Lx Ly Lz 
       0   -53.936857  -0.14058741  -0.43481705 -2.1001458e-17      3.36736    5.9170104   0.56122687 
       1   -53.936857  -0.14058741  -0.43481705 -2.1001458e-17      3.36736    5.9170104   0.56122687 
Loop time of 5.39299e-05 on 1 procs for 1 steps with 18 atoms

Minimization stats:
  Stopping criterion = linesearch alpha is zero
  Energy initial, next-to-last, final = 
        -53.9368569922     -53.9368569922     -53.9368569922
  Force two-norm initial, final = 0.000786895 0.000786895
  Force max component initial, final = 0.000193175 0.000193175
  Final line search alpha, max atom move = 0.015625 3.01835e-06
  Iterations, force evaluations = 1 7

Pair  time (%) = 3.30022e-05 (61.1947)
Neigh time (%) = 0 (0)
Comm  time (%) = 4.87117e-06 (9.03241)
Outpt time (%) = 0 (0)
Other time (%) = 1.60565e-05 (29.7729)

Nlocal:    18 ave 18 max 18 min
Histogram: 1 0 0 0 0 0 0 0 0 0
Nghost:    65 ave 65 max 65 min
Histogram: 1 0 0 0 0 0 0 0 0 0
Neighs:    162 ave 162 max 162 min
Histogram: 1 0 0 0 0 0 0 0 0 0

Total # of neighbors = 162
Ave neighs/atom = 9
Neighbor list builds = 0
Dangerous builds = 0
        next i
jump SELF loop1
	read_dump orig.dump 0 x y
  orthogonal box = (0 0 -0.280613) to (3.36736 5.83244 0.280613)
  18 atoms before read
  18 atoms in snapshot
  0 atoms purged
  18 atoms replaced
  0 atoms trimmed
  0 atoms added
  18 atoms after read
        variable stretch equal 1+$i*${strainstep}
        variable stretch equal 1+30*${strainstep}
        variable stretch equal 1+30*0.0005
        change_box all ${direction} scale ${stretch} remap
        change_box all y scale ${stretch} remap
        change_box all y scale 1.015 remap
  orthogonal box = (0 -0.0437433 -0.280613) to (3.36736 5.87618 0.280613)
        min_style ${style}
        min_style cg
        minimize ${etol} ${ftol} ${maxiter} ${maxeval}
        minimize 1e-12 ${ftol} ${maxiter} ${maxeval}
        minimize 1e-12 1e-08 ${maxiter} ${maxeval}
        minimize 1e-12 1e-08 10000 ${maxeval}
        minimize 1e-12 1e-08 10000 20000
WARNING: Resetting reneighboring criteria during minimization (../min.cpp:168)
Memory usage per processor = 3.35099 Mbytes
Step PotEng Pxx Pyy Pxy Lx Ly Lz 
       0   -53.932519  -0.14500885  -0.44891065 1.8336698e-16      3.36736    5.9199266   0.56122687 
       1   -53.932519  -0.14500885  -0.44891065 1.8336698e-16      3.36736    5.9199266   0.56122687 
Loop time of 5.31087e-05 on 1 procs for 1 steps with 18 atoms

Minimization stats:
  Stopping criterion = linesearch alpha is zero
  Energy initial, next-to-last, final = 
        -53.9325186101     -53.9325186101     -53.9325186101
  Force two-norm initial, final = 0.000783128 0.000783128
  Force max component initial, final = 0.000192035 0.000192035
  Final line search alpha, max atom move = 0.015625 3.00055e-06
  Iterations, force evaluations = 1 7

Pair  time (%) = 3.51019e-05 (66.0945)
Neigh time (%) = 0 (0)
Comm  time (%) = 6.59353e-06 (12.4152)
Outpt time (%) = 0 (0)
Other time (%) = 1.14132e-05 (21.4904)

Nlocal:    18 ave 18 max 18 min
Histogram: 1 0 0 0 0 0 0 0 0 0
Nghost:    65 ave 65 max 65 min
Histogram: 1 0 0 0 0 0 0 0 0 0
Neighs:    162 ave 162 max 162 min
Histogram: 1 0 0 0 0 0 0 0 0 0

Total # of neighbors = 162
Ave neighs/atom = 9
Neighbor list builds = 0
Dangerous builds = 0
        next i
jump SELF loop1
	read_dump orig.dump 0 x y
  orthogonal box = (0 0 -0.280613) to (3.36736 5.83244 0.280613)
  18 atoms before read
  18 atoms in snapshot
  0 atoms purged
  18 atoms replaced
  0 atoms trimmed
  0 atoms added
  18 atoms after read
        variable stretch equal 1+$i*${strainstep}
        variable stretch equal 1+31*${strainstep}
        variable stretch equal 1+31*0.0005
        change_box all ${direction} scale ${stretch} remap
        change_box all y scale ${stretch} remap
        change_box all y scale 1.0155 remap
  orthogonal box = (0 -0.0452014 -0.280613) to (3.36736 5.87764 0.280613)
        min_style ${style}
        min_style cg
        minimize ${etol} ${ftol} ${maxiter} ${maxeval}
        minimize 1e-12 ${ftol} ${maxiter} ${maxeval}
        minimize 1e-12 1e-08 ${maxiter} ${maxeval}
        minimize 1e-12 1e-08 10000 ${maxeval}
        minimize 1e-12 1e-08 10000 20000
WARNING: Resetting reneighboring criteria during minimization (../min.cpp:168)
Memory usage per processor = 3.35099 Mbytes
Step PotEng Pxx Pyy Pxy Lx Ly Lz 
       0   -53.928062   -0.1494063  -0.46295716 -6.6744909e-17      3.36736    5.9228428   0.56122687 
       1   -53.928062   -0.1494063  -0.46295716 -6.6744909e-17      3.36736    5.9228428   0.56122687 
Loop time of 8.49349e-05 on 1 procs for 1 steps with 18 atoms

Minimization stats:
  Stopping criterion = linesearch alpha is zero
  Energy initial, next-to-last, final = 
        -53.9280624885     -53.9280624885     -53.9280624885
  Force two-norm initial, final = 0.000779386 0.000779386
  Force max component initial, final = 0.000190902 0.000190902
  Final line search alpha, max atom move = 0.015625 2.98285e-06
  Iterations, force evaluations = 1 7

Pair  time (%) = 5.27856e-05 (62.1483)
Neigh time (%) = 0 (0)
Comm  time (%) = 1.73779e-05 (20.4603)
Outpt time (%) = 0 (0)
Other time (%) = 1.47714e-05 (17.3914)

Nlocal:    18 ave 18 max 18 min
Histogram: 1 0 0 0 0 0 0 0 0 0
Nghost:    65 ave 65 max 65 min
Histogram: 1 0 0 0 0 0 0 0 0 0
Neighs:    162 ave 162 max 162 min
Histogram: 1 0 0 0 0 0 0 0 0 0

Total # of neighbors = 162
Ave neighs/atom = 9
Neighbor list builds = 0
Dangerous builds = 0
        next i
jump SELF loop1
	read_dump orig.dump 0 x y
  orthogonal box = (0 0 -0.280613) to (3.36736 5.83244 0.280613)
  18 atoms before read
  18 atoms in snapshot
  0 atoms purged
  18 atoms replaced
  0 atoms trimmed
  0 atoms added
  18 atoms after read
        variable stretch equal 1+$i*${strainstep}
        variable stretch equal 1+32*${strainstep}
        variable stretch equal 1+32*0.0005
        change_box all ${direction} scale ${stretch} remap
        change_box all y scale ${stretch} remap
        change_box all y scale 1.016 remap
  orthogonal box = (0 -0.0466595 -0.280613) to (3.36736 5.8791 0.280613)
        min_style ${style}
        min_style cg
        minimize ${etol} ${ftol} ${maxiter} ${maxeval}
        minimize 1e-12 ${ftol} ${maxiter} ${maxeval}
        minimize 1e-12 1e-08 ${maxiter} ${maxeval}
        minimize 1e-12 1e-08 10000 ${maxeval}
        minimize 1e-12 1e-08 10000 20000
WARNING: Resetting reneighboring criteria during minimization (../min.cpp:168)
Memory usage per processor = 3.35099 Mbytes
Step PotEng Pxx Pyy Pxy Lx Ly Lz 
       0   -53.923434   -0.1537693  -0.47692399 -5.9659427e-17      3.36736     5.925759   0.56122687 
       1   -53.923434   -0.1537693  -0.47692399 -5.9659427e-17      3.36736     5.925759   0.56122687 
Loop time of 6.20929e-05 on 1 procs for 1 steps with 18 atoms

Minimization stats:
  Stopping criterion = linesearch alpha is zero
  Energy initial, next-to-last, final = 
        -53.9234335067     -53.9234335067     -53.9234335067
  Force two-norm initial, final = 0.000780575 0.000780575
  Force max component initial, final = 0.000191274 0.000191274
  Final line search alpha, max atom move = 0.015625 2.98865e-06
  Iterations, force evaluations = 1 7

Pair  time (%) = 3.69472e-05 (59.5031)
Neigh time (%) = 0 (0)
Comm  time (%) = 7.0458e-06 (11.3472)
Outpt time (%) = 0 (0)
Other time (%) = 1.80999e-05 (29.1497)

Nlocal:    18 ave 18 max 18 min
Histogram: 1 0 0 0 0 0 0 0 0 0
Nghost:    65 ave 65 max 65 min
Histogram: 1 0 0 0 0 0 0 0 0 0
Neighs:    162 ave 162 max 162 min
Histogram: 1 0 0 0 0 0 0 0 0 0

Total # of neighbors = 162
Ave neighs/atom = 9
Neighbor list builds = 0
Dangerous builds = 0
        next i
jump SELF loop1
	read_dump orig.dump 0 x y
  orthogonal box = (0 0 -0.280613) to (3.36736 5.83244 0.280613)
  18 atoms before read
  18 atoms in snapshot
  0 atoms purged
  18 atoms replaced
  0 atoms trimmed
  0 atoms added
  18 atoms after read
        variable stretch equal 1+$i*${strainstep}
        variable stretch equal 1+33*${strainstep}
        variable stretch equal 1+33*0.0005
        change_box all ${direction} scale ${stretch} remap
        change_box all y scale ${stretch} remap
        change_box all y scale 1.0165 remap
  orthogonal box = (0 -0.0481176 -0.280613) to (3.36736 5.88056 0.280613)
        min_style ${style}
        min_style cg
        minimize ${etol} ${ftol} ${maxiter} ${maxeval}
        minimize 1e-12 ${ftol} ${maxiter} ${maxeval}
        minimize 1e-12 1e-08 ${maxiter} ${maxeval}
        minimize 1e-12 1e-08 10000 ${maxeval}
        minimize 1e-12 1e-08 10000 20000
WARNING: Resetting reneighboring criteria during minimization (../min.cpp:168)
Memory usage per processor = 3.35099 Mbytes
Step PotEng Pxx Pyy Pxy Lx Ly Lz 
       0   -53.918671   -0.1581053  -0.49083397 -1.6767566e-16      3.36736    5.9286753   0.56122687 
       1   -53.918671   -0.1581053  -0.49083397 -1.6767566e-16      3.36736    5.9286753   0.56122687 
Loop time of 5.28895e-05 on 1 procs for 1 steps with 18 atoms

Minimization stats:
  Stopping criterion = linesearch alpha is zero
  Energy initial, next-to-last, final = 
        -53.9186710902     -53.9186710902     -53.9186710902
  Force two-norm initial, final = 0.00077684 0.00077684
  Force max component initial, final = 0.000190142 0.000190142
  Final line search alpha, max atom move = 0.015625 2.97097e-06
  Iterations, force evaluations = 1 7

Pair  time (%) = 3.39248e-05 (64.1429)
Neigh time (%) = 0 (0)
Comm  time (%) = 7.95454e-06 (15.0399)
Outpt time (%) = 0 (0)
Other time (%) = 1.10101e-05 (20.8172)

Nlocal:    18 ave 18 max 18 min
Histogram: 1 0 0 0 0 0 0 0 0 0
Nghost:    65 ave 65 max 65 min
Histogram: 1 0 0 0 0 0 0 0 0 0
Neighs:    162 ave 162 max 162 min
Histogram: 1 0 0 0 0 0 0 0 0 0

Total # of neighbors = 162
Ave neighs/atom = 9
Neighbor list builds = 0
Dangerous builds = 0
        next i
jump SELF loop1
	read_dump orig.dump 0 x y
  orthogonal box = (0 0 -0.280613) to (3.36736 5.83244 0.280613)
  18 atoms before read
  18 atoms in snapshot
  0 atoms purged
  18 atoms replaced
  0 atoms trimmed
  0 atoms added
  18 atoms after read
        variable stretch equal 1+$i*${strainstep}
        variable stretch equal 1+34*${strainstep}
        variable stretch equal 1+34*0.0005
        change_box all ${direction} scale ${stretch} remap
        change_box all y scale ${stretch} remap
        change_box all y scale 1.017 remap
  orthogonal box = (0 -0.0495757 -0.280613) to (3.36736 5.88202 0.280613)
        min_style ${style}
        min_style cg
        minimize ${etol} ${ftol} ${maxiter} ${maxeval}
        minimize 1e-12 ${ftol} ${maxiter} ${maxeval}
        minimize 1e-12 1e-08 ${maxiter} ${maxeval}
        minimize 1e-12 1e-08 10000 ${maxeval}
        minimize 1e-12 1e-08 10000 20000
WARNING: Resetting reneighboring criteria during minimization (../min.cpp:168)
Memory usage per processor = 3.35099 Mbytes
Step PotEng Pxx Pyy Pxy Lx Ly Lz 
       0   -53.913792  -0.16241764  -0.50469723 -8.0184198e-17      3.36736    5.9315915   0.56122687 
       1   -53.913792  -0.16241764  -0.50469723 -8.0184198e-17      3.36736    5.9315915   0.56122687 
Loop time of 8.92207e-07 on 1 procs for 1 steps with 18 atoms

Minimization stats:
  Stopping criterion = linesearch alpha is zero
  Energy initial, next-to-last, final = 
        -53.9137924557     -53.9137924557     -53.9137924557
  Force two-norm initial, final = 0.000773139 0.000773139
  Force max component initial, final = 0.00018902 0.00018902
  Final line search alpha, max atom move = 0.015625 2.95344e-06
  Iterations, force evaluations = 1 7

Pair  time (%) = -6.30738e-07 (-70.6942)
Neigh time (%) = 0 (0)
Comm  time (%) = -2.61469e-07 (-29.3058)
Outpt time (%) = 0 (0)
Other time (%) = 1.78441e-06 (200)

Nlocal:    18 ave 18 max 18 min
Histogram: 1 0 0 0 0 0 0 0 0 0
Nghost:    65 ave 65 max 65 min
Histogram: 1 0 0 0 0 0 0 0 0 0
Neighs:    162 ave 162 max 162 min
Histogram: 1 0 0 0 0 0 0 0 0 0

Total # of neighbors = 162
Ave neighs/atom = 9
Neighbor list builds = 0
Dangerous builds = 0
        next i
jump SELF loop1
	read_dump orig.dump 0 x y
  orthogonal box = (0 0 -0.280613) to (3.36736 5.83244 0.280613)
  18 atoms before read
  18 atoms in snapshot
  0 atoms purged
  18 atoms replaced
  0 atoms trimmed
  0 atoms added
  18 atoms after read
        variable stretch equal 1+$i*${strainstep}
        variable stretch equal 1+35*${strainstep}
        variable stretch equal 1+35*0.0005
        change_box all ${direction} scale ${stretch} remap
        change_box all y scale ${stretch} remap
        change_box all y scale 1.0175 remap
  orthogonal box = (0 -0.0510339 -0.280613) to (3.36736 5.88347 0.280613)
        min_style ${style}
        min_style cg
[...]
Nghost:    65 ave 65 max 65 min
Histogram: 1 0 0 0 0 0 0 0 0 0
Neighs:    126 ave 126 max 126 min
Histogram: 1 0 0 0 0 0 0 0 0 0

Total # of neighbors = 126
Ave neighs/atom = 7
Neighbor list builds = 0
Dangerous builds = 0
        next i
jump SELF loop1
	read_dump orig.dump 0 x y
  orthogonal box = (0 0 -0.280613) to (3.36736 5.83244 0.280613)
  18 atoms before read
  18 atoms in snapshot
  0 atoms purged
  18 atoms replaced
  0 atoms trimmed
  0 atoms added
  18 atoms after read
        variable stretch equal 1+$i*${strainstep}
        variable stretch equal 1+92*${strainstep}
        variable stretch equal 1+92*0.0005
        change_box all ${direction} scale ${stretch} remap
        change_box all y scale ${stretch} remap
        change_box all y scale 1.046 remap
  orthogonal box = (0 -0.134146 -0.280613) to (3.36736 5.96659 0.280613)
        min_style ${style}
        min_style cg
        minimize ${etol} ${ftol} ${maxiter} ${maxeval}
        minimize 1e-12 ${ftol} ${maxiter} ${maxeval}
        minimize 1e-12 1e-08 ${maxiter} ${maxeval}
        minimize 1e-12 1e-08 10000 ${maxeval}
        minimize 1e-12 1e-08 10000 20000
WARNING: Resetting reneighboring criteria during minimization (../min.cpp:168)
Memory usage per processor = 3.35099 Mbytes
Step PotEng Pxx Pyy Pxy Lx Ly Lz 
       0   -53.415812  -0.36955706   -1.2137731 -2.0392754e-17      3.36736    6.1007322   0.56122687 
       1   -53.415812  -0.36955706   -1.2137731 -2.0392754e-17      3.36736    6.1007322   0.56122687 
Loop time of 4.79148e-05 on 1 procs for 1 steps with 18 atoms

Minimization stats:
  Stopping criterion = linesearch alpha is zero
  Energy initial, next-to-last, final = 
        -53.4158121578     -53.4158121578     -53.4158121578
  Force two-norm initial, final = 0.000650048 0.000650048
  Force max component initial, final = 0.000151065 0.000151065
  Final line search alpha, max atom move = 0.015625 2.36039e-06
  Iterations, force evaluations = 1 7

Pair  time (%) = 3.12401e-05 (65.1992)
Neigh time (%) = 0 (0)
Comm  time (%) = 5.73101e-06 (11.9608)
Outpt time (%) = 0 (0)
Other time (%) = 1.09437e-05 (22.84)

Nlocal:    18 ave 18 max 18 min
Histogram: 1 0 0 0 0 0 0 0 0 0
Nghost:    65 ave 65 max 65 min
Histogram: 1 0 0 0 0 0 0 0 0 0
Neighs:    126 ave 126 max 126 min
Histogram: 1 0 0 0 0 0 0 0 0 0

Total # of neighbors = 126
Ave neighs/atom = 7
Neighbor list builds = 0
Dangerous builds = 0
        next i
jump SELF loop1
	read_dump orig.dump 0 x y
  orthogonal box = (0 0 -0.280613) to (3.36736 5.83244 0.280613)
  18 atoms before read
  18 atoms in snapshot
  0 atoms purged
  18 atoms replaced
  0 atoms trimmed
  0 atoms added
  18 atoms after read
        variable stretch equal 1+$i*${strainstep}
        variable stretch equal 1+93*${strainstep}
        variable stretch equal 1+93*0.0005
        change_box all ${direction} scale ${stretch} remap
        change_box all y scale ${stretch} remap
        change_box all y scale 1.0465 remap
  orthogonal box = (0 -0.135604 -0.280613) to (3.36736 5.96804 0.280613)
        min_style ${style}
        min_style cg
        minimize ${etol} ${ftol} ${maxiter} ${maxeval}
        minimize 1e-12 ${ftol} ${maxiter} ${maxeval}
        minimize 1e-12 1e-08 ${maxiter} ${maxeval}
        minimize 1e-12 1e-08 10000 ${maxeval}
        minimize 1e-12 1e-08 10000 20000
WARNING: Resetting reneighboring criteria during minimization (../min.cpp:168)
Memory usage per processor = 3.35099 Mbytes
Step PotEng Pxx Pyy Pxy Lx Ly Lz 
       0    -53.40384  -0.37245667     -1.22446 5.9249993e-17      3.36736    6.1036485   0.56122687 
       1    -53.40384  -0.37245667     -1.22446 5.9249993e-17      3.36736    6.1036485   0.56122687 
Loop time of 4.79418e-05 on 1 procs for 1 steps with 18 atoms

Minimization stats:
  Stopping criterion = linesearch alpha is zero
  Energy initial, next-to-last, final = 
          -53.40384043       -53.40384043       -53.40384043
  Force two-norm initial, final = 0.000647108 0.000647108
  Force max component initial, final = 0.000150132 0.000150132
  Final line search alpha, max atom move = 0.015625 2.34582e-06
  Iterations, force evaluations = 1 7

Pair  time (%) = 3.20858e-05 (66.9266)
Neigh time (%) = 0 (0)
Comm  time (%) = -2.99653e-07 (-0.625035)
Outpt time (%) = 0 (0)
Other time (%) = 1.61557e-05 (33.6985)

Nlocal:    18 ave 18 max 18 min
Histogram: 1 0 0 0 0 0 0 0 0 0
Nghost:    65 ave 65 max 65 min
Histogram: 1 0 0 0 0 0 0 0 0 0
Neighs:    126 ave 126 max 126 min
Histogram: 1 0 0 0 0 0 0 0 0 0

Total # of neighbors = 126
Ave neighs/atom = 7
Neighbor list builds = 0
Dangerous builds = 0
        next i
jump SELF loop1
	read_dump orig.dump 0 x y
  orthogonal box = (0 0 -0.280613) to (3.36736 5.83244 0.280613)
  18 atoms before read
  18 atoms in snapshot
  0 atoms purged
  18 atoms replaced
  0 atoms trimmed
  0 atoms added
  18 atoms after read
        variable stretch equal 1+$i*${strainstep}
        variable stretch equal 1+94*${strainstep}
        variable stretch equal 1+94*0.0005
        change_box all ${direction} scale ${stretch} remap
        change_box all y scale ${stretch} remap
        change_box all y scale 1.047 remap
  orthogonal box = (0 -0.137062 -0.280613) to (3.36736 5.9695 0.280613)
        min_style ${style}
        min_style cg
        minimize ${etol} ${ftol} ${maxiter} ${maxeval}
        minimize 1e-12 ${ftol} ${maxiter} ${maxeval}
        minimize 1e-12 1e-08 ${maxiter} ${maxeval}
        minimize 1e-12 1e-08 10000 ${maxeval}
        minimize 1e-12 1e-08 10000 20000
WARNING: Resetting reneighboring criteria during minimization (../min.cpp:168)
Memory usage per processor = 3.35099 Mbytes
Step PotEng Pxx Pyy Pxy Lx Ly Lz 
       0   -53.391776  -0.37533798   -1.2351056 -1.6437818e-16      3.36736    6.1065647   0.56122687 
       1   -53.391776  -0.37533798   -1.2351056 -1.6437818e-16      3.36736    6.1065647   0.56122687 
Loop time of 2.69143e-05 on 1 procs for 1 steps with 18 atoms

Minimization stats:
  Stopping criterion = linesearch alpha is zero
  Energy initial, next-to-last, final = 
        -53.3917759432     -53.3917759432     -53.3917759432
  Force two-norm initial, final = 0.000644184 0.000644184
  Force max component initial, final = 0.000149203 0.000149203
  Final line search alpha, max atom move = 0.015625 2.3313e-06
  Iterations, force evaluations = 1 7

Pair  time (%) = 1.16436e-05 (43.2619)
Neigh time (%) = 0 (0)
Comm  time (%) = 1.65787e-06 (6.15982)
Outpt time (%) = 0 (0)
Other time (%) = 1.36128e-05 (50.5783)

Nlocal:    18 ave 18 max 18 min
Histogram: 1 0 0 0 0 0 0 0 0 0
Nghost:    65 ave 65 max 65 min
Histogram: 1 0 0 0 0 0 0 0 0 0
Neighs:    126 ave 126 max 126 min
Histogram: 1 0 0 0 0 0 0 0 0 0

Total # of neighbors = 126
Ave neighs/atom = 7
Neighbor list builds = 0
Dangerous builds = 0
        next i
jump SELF loop1
	read_dump orig.dump 0 x y
  orthogonal box = (0 0 -0.280613) to (3.36736 5.83244 0.280613)
  18 atoms before read
  18 atoms in snapshot
  0 atoms purged
  18 atoms replaced
  0 atoms trimmed
  0 atoms added
  18 atoms after read
        variable stretch equal 1+$i*${strainstep}
        variable stretch equal 1+95*${strainstep}
        variable stretch equal 1+95*0.0005
        change_box all ${direction} scale ${stretch} remap
        change_box all y scale ${stretch} remap
        change_box all y scale 1.0475 remap
  orthogonal box = (0 -0.13852 -0.280613) to (3.36736 5.97096 0.280613)
        min_style ${style}
        min_style cg
        minimize ${etol} ${ftol} ${maxiter} ${maxeval}
        minimize 1e-12 ${ftol} ${maxiter} ${maxeval}
        minimize 1e-12 1e-08 ${maxiter} ${maxeval}
        minimize 1e-12 1e-08 10000 ${maxeval}
        minimize 1e-12 1e-08 10000 20000
WARNING: Resetting reneighboring criteria during minimization (../min.cpp:168)
Memory usage per processor = 3.35099 Mbytes
Step PotEng Pxx Pyy Pxy Lx Ly Lz 
       0   -53.379592  -0.37819586   -1.2456926 -1.3613646e-16      3.36736    6.1094809   0.56122687 
       1   -53.379592  -0.37819586   -1.2456926 -1.3613646e-16      3.36736    6.1094809   0.56122687 
Loop time of 4.79585e-05 on 1 procs for 1 steps with 18 atoms

Minimization stats:
  Stopping criterion = linesearch alpha is zero
  Energy initial, next-to-last, final = 
         -53.379592419      -53.379592419      -53.379592419
  Force two-norm initial, final = 0.00064502 0.00064502
  Force max component initial, final = 0.000149476 0.000149476
  Final line search alpha, max atom move = 0.015625 2.33556e-06
  Iterations, force evaluations = 1 7

Pair  time (%) = 2.55433e-05 (53.2612)
Neigh time (%) = 0 (0)
Comm  time (%) = 1.30131e-05 (27.1342)
Outpt time (%) = 0 (0)
Other time (%) = 9.40205e-06 (19.6046)

Nlocal:    18 ave 18 max 18 min
Histogram: 1 0 0 0 0 0 0 0 0 0
Nghost:    65 ave 65 max 65 min
Histogram: 1 0 0 0 0 0 0 0 0 0
Neighs:    126 ave 126 max 126 min
Histogram: 1 0 0 0 0 0 0 0 0 0

Total # of neighbors = 126
Ave neighs/atom = 7
Neighbor list builds = 0
Dangerous builds = 0
        next i
jump SELF loop1
	read_dump orig.dump 0 x y
  orthogonal box = (0 0 -0.280613) to (3.36736 5.83244 0.280613)
  18 atoms before read
  18 atoms in snapshot
  0 atoms purged
  18 atoms replaced
  0 atoms trimmed
  0 atoms added
  18 atoms after read
        variable stretch equal 1+$i*${strainstep}
        variable stretch equal 1+96*${strainstep}
        variable stretch equal 1+96*0.0005
        change_box all ${direction} scale ${stretch} remap
        change_box all y scale ${stretch} remap
        change_box all y scale 1.048 remap
  orthogonal box = (0 -0.139979 -0.280613) to (3.36736 5.97242 0.280613)
        min_style ${style}
        min_style cg
        minimize ${etol} ${ftol} ${maxiter} ${maxeval}
        minimize 1e-12 ${ftol} ${maxiter} ${maxeval}
        minimize 1e-12 1e-08 ${maxiter} ${maxeval}
        minimize 1e-12 1e-08 10000 ${maxeval}
        minimize 1e-12 1e-08 10000 20000
WARNING: Resetting reneighboring criteria during minimization (../min.cpp:168)
Memory usage per processor = 3.35099 Mbytes
Step PotEng Pxx Pyy Pxy Lx Ly Lz 
       0   -53.367298  -0.38103183    -1.256226 -1.7572567e-16      3.36736    6.1123971   0.56122687 
       1   -53.367298  -0.38103183    -1.256226 -1.7572567e-16      3.36736    6.1123971   0.56122687 
Loop time of 5.70599e-05 on 1 procs for 1 steps with 18 atoms

Minimization stats:
  Stopping criterion = linesearch alpha is zero
  Energy initial, next-to-last, final = 
        -53.3672976137     -53.3672976137     -53.3672976137
  Force two-norm initial, final = 0.000642106 0.000642106
  Force max component initial, final = 0.000148549 0.000148549
  Final line search alpha, max atom move = 0.015625 2.32108e-06
  Iterations, force evaluations = 1 7

Pair  time (%) = 3.52336e-05 (61.7484)
Neigh time (%) = 0 (0)
Comm  time (%) = 3.80387e-06 (6.66645)
Outpt time (%) = 0 (0)
Other time (%) = 1.80225e-05 (31.5852)

Nlocal:    18 ave 18 max 18 min
Histogram: 1 0 0 0 0 0 0 0 0 0
Nghost:    65 ave 65 max 65 min
Histogram: 1 0 0 0 0 0 0 0 0 0
Neighs:    126 ave 126 max 126 min
Histogram: 1 0 0 0 0 0 0 0 0 0

Total # of neighbors = 126
Ave neighs/atom = 7
Neighbor list builds = 0
Dangerous builds = 0
        next i
jump SELF loop1
	read_dump orig.dump 0 x y
  orthogonal box = (0 0 -0.280613) to (3.36736 5.83244 0.280613)
  18 atoms before read
  18 atoms in snapshot
  0 atoms purged
  18 atoms replaced
  0 atoms trimmed
  0 atoms added
  18 atoms after read
        variable stretch equal 1+$i*${strainstep}
        variable stretch equal 1+97*${strainstep}
        variable stretch equal 1+97*0.0005
        change_box all ${direction} scale ${stretch} remap
        change_box all y scale ${stretch} remap
        change_box all y scale 1.0485 remap
  orthogonal box = (0 -0.141437 -0.280613) to (3.36736 5.97388 0.280613)
        min_style ${style}
        min_style cg
        minimize ${etol} ${ftol} ${maxiter} ${maxeval}
        minimize 1e-12 ${ftol} ${maxiter} ${maxeval}
        minimize 1e-12 1e-08 ${maxiter} ${maxeval}
        minimize 1e-12 1e-08 10000 ${maxeval}
        minimize 1e-12 1e-08 10000 20000
WARNING: Resetting reneighboring criteria during minimization (../min.cpp:168)
Memory usage per processor = 3.35099 Mbytes
Step PotEng Pxx Pyy Pxy Lx Ly Lz 
       0   -53.354911  -0.38384978   -1.2667184 -1.5943606e-16      3.36736    6.1153133   0.56122687 
       1   -53.354911  -0.38384978   -1.2667184 -1.5943606e-16      3.36736    6.1153133   0.56122687 
Loop time of 9.14442e-07 on 1 procs for 1 steps with 18 atoms

Minimization stats:
  Stopping criterion = linesearch alpha is zero
  Energy initial, next-to-last, final = 
        -53.3549113149     -53.3549113149     -53.3549113149
  Force two-norm initial, final = 0.00063922 0.00063922
  Force max component initial, final = 0.00014763 0.00014763
  Final line search alpha, max atom move = 0.015625 2.30672e-06
  Iterations, force evaluations = 1 7

Pair  time (%) = -6.38189e-07 (-69.7899)
Neigh time (%) = 0 (0)
Comm  time (%) = -1.32271e-06 (-144.647)
Outpt time (%) = 0 (0)
Other time (%) = 2.87534e-06 (314.437)

Nlocal:    18 ave 18 max 18 min
Histogram: 1 0 0 0 0 0 0 0 0 0
Nghost:    65 ave 65 max 65 min
Histogram: 1 0 0 0 0 0 0 0 0 0
Neighs:    126 ave 126 max 126 min
Histogram: 1 0 0 0 0 0 0 0 0 0

Total # of neighbors = 126
Ave neighs/atom = 7
Neighbor list builds = 0
Dangerous builds = 0
        next i
jump SELF loop1
	read_dump orig.dump 0 x y
  orthogonal box = (0 0 -0.280613) to (3.36736 5.83244 0.280613)
  18 atoms before read
  18 atoms in snapshot
  0 atoms purged
  18 atoms replaced
  0 atoms trimmed
  0 atoms added
  18 atoms after read
        variable stretch equal 1+$i*${strainstep}
        variable stretch equal 1+98*${strainstep}
        variable stretch equal 1+98*0.0005
        change_box all ${direction} scale ${stretch} remap
        change_box all y scale ${stretch} remap
        change_box all y scale 1.049 remap
  orthogonal box = (0 -0.142895 -0.280613) to (3.36736 5.97533 0.280613)
        min_style ${style}
        min_style cg
        minimize ${etol} ${ftol} ${maxiter} ${maxeval}
        minimize 1e-12 ${ftol} ${maxiter} ${maxeval}
        minimize 1e-12 1e-08 ${maxiter} ${maxeval}
        minimize 1e-12 1e-08 10000 ${maxeval}
        minimize 1e-12 1e-08 10000 20000
WARNING: Resetting reneighboring criteria during minimization (../min.cpp:168)
Memory usage per processor = 3.35099 Mbytes
Step PotEng Pxx Pyy Pxy Lx Ly Lz 
       0   -53.342434  -0.38664977   -1.2771698 7.4643789e-17      3.36736    6.1182296   0.56122687 
       1   -53.342434  -0.38664977   -1.2771698 7.4643789e-17      3.36736    6.1182296   0.56122687 
Loop time of 5.00956e-05 on 1 procs for 1 steps with 18 atoms

Minimization stats:
  Stopping criterion = linesearch alpha is zero
  Energy initial, next-to-last, final = 
        -53.3424337115     -53.3424337115     -53.3424337115
  Force two-norm initial, final = 0.000636341 0.000636341
  Force max component initial, final = 0.000146712 0.000146712
  Final line search alpha, max atom move = 0.015625 2.29237e-06
  Iterations, force evaluations = 1 7

Pair  time (%) = 2.91039e-05 (58.0968)
Neigh time (%) = 0 (0)
Comm  time (%) = 1.12732e-05 (22.5034)
Outpt time (%) = 0 (0)
Other time (%) = 9.71847e-06 (19.3998)

Nlocal:    18 ave 18 max 18 min
Histogram: 1 0 0 0 0 0 0 0 0 0
Nghost:    65 ave 65 max 65 min
Histogram: 1 0 0 0 0 0 0 0 0 0
Neighs:    126 ave 126 max 126 min
Histogram: 1 0 0 0 0 0 0 0 0 0

Total # of neighbors = 126
Ave neighs/atom = 7
Neighbor list builds = 0
Dangerous builds = 0
        next i
jump SELF loop1
	read_dump orig.dump 0 x y
  orthogonal box = (0 0 -0.280613) to (3.36736 5.83244 0.280613)
  18 atoms before read
  18 atoms in snapshot
  0 atoms purged
  18 atoms replaced
  0 atoms trimmed
  0 atoms added
  18 atoms after read
        variable stretch equal 1+$i*${strainstep}
        variable stretch equal 1+99*${strainstep}
        variable stretch equal 1+99*0.0005
        change_box all ${direction} scale ${stretch} remap
        change_box all y scale ${stretch} remap
        change_box all y scale 1.0495 remap
  orthogonal box = (0 -0.144353 -0.280613) to (3.36736 5.97679 0.280613)
        min_style ${style}
        min_style cg
        minimize ${etol} ${ftol} ${maxiter} ${maxeval}
        minimize 1e-12 ${ftol} ${maxiter} ${maxeval}
        minimize 1e-12 1e-08 ${maxiter} ${maxeval}
        minimize 1e-12 1e-08 10000 ${maxeval}
        minimize 1e-12 1e-08 10000 20000
WARNING: Resetting reneighboring criteria during minimization (../min.cpp:168)
Memory usage per processor = 3.35099 Mbytes
Step PotEng Pxx Pyy Pxy Lx Ly Lz 
       0   -53.329835   -0.3894258   -1.2875602 -2.4017285e-17      3.36736    6.1211458   0.56122687 
       1   -53.329835   -0.3894258   -1.2875602 -2.4017285e-17      3.36736    6.1211458   0.56122687 
Loop time of 8.90688e-05 on 1 procs for 1 steps with 18 atoms

Minimization stats:
  Stopping criterion = linesearch alpha is zero
  Energy initial, next-to-last, final = 
        -53.3298345149     -53.3298345149     -53.3298345149
  Force two-norm initial, final = 0.000637157 0.000637157
  Force max component initial, final = 0.000146979 0.000146979
  Final line search alpha, max atom move = 0.015625 2.29655e-06
  Iterations, force evaluations = 1 7

Pair  time (%) = 6.69474e-05 (75.1637)
Neigh time (%) = 0 (0)
Comm  time (%) = 1.37615e-06 (1.54504)
Outpt time (%) = 0 (0)
Other time (%) = 2.07452e-05 (23.2912)

Nlocal:    18 ave 18 max 18 min
Histogram: 1 0 0 0 0 0 0 0 0 0
Nghost:    65 ave 65 max 65 min
Histogram: 1 0 0 0 0 0 0 0 0 0
Neighs:    126 ave 126 max 126 min
Histogram: 1 0 0 0 0 0 0 0 0 0

Total # of neighbors = 126
Ave neighs/atom = 7
Neighbor list builds = 0
Dangerous builds = 0
        next i
jump SELF loop1
	read_dump orig.dump 0 x y
  orthogonal box = (0 0 -0.280613) to (3.36736 5.83244 0.280613)
  18 atoms before read
  18 atoms in snapshot
  0 atoms purged
  18 atoms replaced
  0 atoms trimmed
  0 atoms added
  18 atoms after read
        variable stretch equal 1+$i*${strainstep}
        variable stretch equal 1+100*${strainstep}
        variable stretch equal 1+100*0.0005
        change_box all ${direction} scale ${stretch} remap
        change_box all y scale ${stretch} remap
        change_box all y scale 1.05 remap
  orthogonal box = (0 -0.145811 -0.280613) to (3.36736 5.97825 0.280613)
        min_style ${style}
        min_style cg
        minimize ${etol} ${ftol} ${maxiter} ${maxeval}
        minimize 1e-12 ${ftol} ${maxiter} ${maxeval}
        minimize 1e-12 1e-08 ${maxiter} ${maxeval}
        minimize 1e-12 1e-08 10000 ${maxeval}
        minimize 1e-12 1e-08 10000 20000
WARNING: Resetting reneighboring criteria during minimization (../min.cpp:168)
Memory usage per processor = 3.35099 Mbytes
Step PotEng Pxx Pyy Pxy Lx Ly Lz 
       0   -53.317131   -0.3921813   -1.2979008 6.0335329e-17      3.36736     6.124062   0.56122687 
       1   -53.317131   -0.3921813   -1.2979008 6.0335329e-17      3.36736     6.124062   0.56122687 
Loop time of 4.79018e-05 on 1 procs for 1 steps with 18 atoms

Minimization stats:
  Stopping criterion = linesearch alpha is zero
  Energy initial, next-to-last, final = 
        -53.3171311886     -53.3171311886     -53.3171311886
  Force two-norm initial, final = 0.000634289 0.000634289
  Force max component initial, final = 0.000146064 0.000146064
  Final line search alpha, max atom move = 0.015625 2.28224e-06
  Iterations, force evaluations = 1 7

Pair  time (%) = 3.17654e-05 (66.3137)
Neigh time (%) = 0 (0)
Comm  time (%) = 5.96046e-08 (0.124431)
Outpt time (%) = 0 (0)
Other time (%) = 1.60767e-05 (33.5619)

Nlocal:    18 ave 18 max 18 min
Histogram: 1 0 0 0 0 0 0 0 0 0
Nghost:    65 ave 65 max 65 min
Histogram: 1 0 0 0 0 0 0 0 0 0
Neighs:    126 ave 126 max 126 min
Histogram: 1 0 0 0 0 0 0 0 0 0

Total # of neighbors = 126
Ave neighs/atom = 7
Neighbor list builds = 0
Dangerous builds = 0
        next i
jump SELF loop1

